<LesHouchesEvents version="3.0">
<header>
<!--
#*********************************************************************
#                                                                    *
#                        MadGraph5_aMC@NLO                           *
#                                                                    *
#                           Going Beyond                             *
#                                                                    *
#                   http://madgraph.hep.uiuc.edu                     *
#                   http://madgraph.phys.ucl.ac.be                   *
#                   http://amcatnlo.cern.ch                          *
#                                                                    *
#                     The MadGraph5_aMC@NLO team                     *
#                                                                    *
#....................................................................*
#                                                                    *
# This file contains all the information necessary to reproduce      *
# the events generated:                                              *
#                                                                    *
# 1. software version                                                *
# 2. proc_card          : code generation info including model       *
# 3. param_card         : model primary parameters in the LH format  *
# 4. run_card           : running parameters (collider and cuts)     *
# 5. pythia_card        : present only if pythia has been run        *
# 6. pgs_card           : present only if pgs has been run           *
# 7. delphes_cards      : present only if delphes has been run       *
#                                                                    *
#                                                                    *
#*********************************************************************
-->
<MGVersion>
#5.2.2.3
</MGVersion>
<MG5ProcCard>
#************************************************************
#*                     MadGraph5_aMC@NLO                    *
#*                                                          *
#*                *                       *                 *
#*                  *        * *        *                   *
#*                    * * * * 5 * * * *                     *
#*                  *        * *        *                   *
#*                *                       *                 *
#*                                                          *
#*                                                          *
#*         VERSION 2.2.3                 2015-02-10         *
#*                                                          *
#*    The MadGraph5_aMC@NLO Development Team - Find us at   *
#*    https://server06.fynu.ucl.ac.be/projects/madgraph     *
#*                                                          *
#************************************************************
#*                                                          *
#*               Command File for MadGraph5_aMC@NLO         *
#*                                                          *
#*     run as ./bin/mg5_aMC  filename                       *
#*                                                          *
#************************************************************
set group_subprocesses Auto
set ignore_six_quark_processes False
set loop_optimized_output True
set gauge unitary
set complex_mass_scheme False
import model sm
define p = g u c d s u~ c~ d~ s~
define j = g u c d s u~ c~ d~ s~
define l+ = e+ mu+
define l- = e- mu-
define vl = ve vm vt
define vl~ = ve~ vm~ vt~
import model Zprime_UFO
generate p p > zph, zph > j j
add process p p > zph, zph > b b~
output Dijet_signal
</MG5ProcCard>
<MGProcCard>
#*********************************************************************
#                        MadGraph/MadEvent                           *
#                   http://madgraph.hep.uiuc.edu                     *
#                                                                    *
#                          proc_card.dat                             *
#*********************************************************************
#                                                                    *
#            This Files is generated by MADGRAPH 5                   *
#                                                                    *
# WARNING: This Files is generated for MADEVENT (compatibility issue)*
#          This files is NOT a valid MG4 proc_card.dat               *
#          Running this in MG4 will NEVER reproduce the result of MG5*
#                                                                    *
#*********************************************************************
#*********************************************************************
# Process(es) requested : mg2 input                                  *
#*********************************************************************
# Begin PROCESS # This is TAG. Do not modify this line
p p > zph , zph > j j           #Process
# Be carefull the coupling are here in MG5 convention
          
end_coup           # End the couplings input

done               # this tells MG there are no more procs
# End PROCESS  # This is TAG. Do not modify this line
#*********************************************************************
# Model information                                                  *
#*********************************************************************
# Begin MODEL  # This is TAG. Do not modify this line
Zprime_UFO
# End   MODEL  # This is TAG. Do not modify this line
#*********************************************************************
# Start multiparticle definitions                                    *
#*********************************************************************
# Begin MULTIPARTICLES # This is TAG. Do not modify this line

# End  MULTIPARTICLES # This is TAG. Do not modify this line
</MGProcCard>
<MGRunCard>
#*********************************************************************
#                       MadGraph5_aMC@NLO                            *
#                                                                    *
#                     run_card.dat MadEvent                          *
#                                                                    *
#  This file is used to set the parameters of the run.               *
#                                                                    *
#  Some notation/conventions:                                        *
#                                                                    *
#   Lines starting with a '# ' are info or comments                  *
#                                                                    *
#   mind the format:   value    = variable     ! comment             *
#*********************************************************************
#
#*******************                                                 
# Running parameters
#*******************                                                 
#                                                                    
#*********************************************************************
# Tag name for the run (one word)                                    *
#*********************************************************************
  tag_1     = run_tag ! name of the run 
#*********************************************************************
# Run to generate the grid pack                                      *
#*********************************************************************
  .false.     = gridpack  !True = setting up the grid pack
#*********************************************************************
# Number of events and rnd seed                                      *
# Warning: Do not generate more than 1M events in a single run       *
# If you want to run Pythia, avoid more than 50k events in a run.    *
#*********************************************************************
  2000 = nevents ! Number of unweighted events requested 
 912 = iseed   ! rnd seed (0=assigned automatically=default))
#*********************************************************************
# Collider type and energy                                           *
# lpp: 0=No PDF, 1=proton, -1=antiproton, 2=photon from proton,      *
#                                         3=photon from electron     *
#*********************************************************************
        1     = lpp1    ! beam 1 type 
        1     = lpp2    ! beam 2 type
     4000     = ebeam1  ! beam 1 total energy in GeV
     4000     = ebeam2  ! beam 2 total energy in GeV
#*********************************************************************
# Beam polarization from -100 (left-handed) to 100 (right-handed)    *
#*********************************************************************
        0     = polbeam1 ! beam polarization for beam 1
        0     = polbeam2 ! beam polarization for beam 2
#*********************************************************************
# PDF CHOICE: this automatically fixes also alpha_s and its evol.    *
#*********************************************************************
 'nn23lo1'    = pdlabel     ! PDF set                                     
 230000    = lhaid     ! if pdlabel=lhapdf, this is the lhapdf number
#*********************************************************************
# Renormalization and factorization scales                           *
#*********************************************************************
 F        = fixed_ren_scale  ! if .true. use fixed ren scale
 F        = fixed_fac_scale  ! if .true. use fixed fac scale
 91.1880  = scale            ! fixed ren scale
 91.1880  = dsqrt_q2fact1    ! fixed fact scale for pdf1
 91.1880  = dsqrt_q2fact2    ! fixed fact scale for pdf2
 1        = scalefact        ! scale factor for event-by-event scales
#*********************************************************************
# Matching - Warning! ickkw > 1 is still beta
#*********************************************************************
 0        = ickkw            ! 0 no matching, 1 MLM, 2 CKKW matching
 1        = highestmult      ! for ickkw=2, highest mult group
 1        = ktscheme         ! for ickkw=1, 1 Durham kT, 2 Pythia pTE
 1        = alpsfact         ! scale factor for QCD emission vx
 F        = chcluster        ! cluster only according to channel diag
 T        = pdfwgt           ! for ickkw=1, perform pdf reweighting
 5        = asrwgtflavor     ! highest quark flavor for a_s reweight
 T        = clusinfo         ! include clustering tag in output
 3.0      = lhe_version       ! Change the way clustering information pass to shower.        
#*********************************************************************
#**********************************************************
#
#**********************************************************
# Automatic ptj and mjj cuts if xqcut > 0
# (turn off for VBF and single top processes)
#**********************************************************
   T  = auto_ptj_mjj  ! Automatic setting of ptj and mjj
#**********************************************************
#                                                                    
#**********************************
# BW cutoff (M+/-bwcutoff*Gamma)
#**********************************
  15  = bwcutoff      ! (M+/-bwcutoff*Gamma)
#**********************************************************
# Apply pt/E/eta/dr/mij cuts on decay products or not
# (note that etmiss/ptll/ptheavy/ht/sorted cuts always apply)
#**********************************************************
   T  = cut_decays    ! Cut decay products 
#*************************************************************
# Number of helicities to sum per event (0 = all helicities)
# 0 gives more stable result, but longer run time (needed for
# long decay chains e.g.).
# Use >=2 if most helicities contribute, e.g. pure QCD.
#*************************************************************
   0  = nhel          ! Number of helicities used per event
#*******************                                                 
# Standard Cuts
#*******************                                                 
#                                                                    
#*********************************************************************
# Minimum and maximum pt's (for max, -1 means no cut)                *
#*********************************************************************
 20  = ptj       ! minimum pt for the jets 
  0  = ptb       ! minimum pt for the b 
 10  = pta       ! minimum pt for the photons 
 10  = ptl       ! minimum pt for the charged leptons 
  0  = misset    ! minimum missing Et (sum of neutrino's momenta)
  0  = ptheavy   ! minimum pt for one heavy final state
 1.0 = ptonium   ! minimum pt for the quarkonium states
 -1  = ptjmax    ! maximum pt for the jets
 -1  = ptbmax    ! maximum pt for the b
 -1  = ptamax    ! maximum pt for the photons
 -1  = ptlmax    ! maximum pt for the charged leptons
 -1  = missetmax ! maximum missing Et (sum of neutrino's momenta)
#*********************************************************************
# Minimum and maximum E's (in the center of mass frame)              *
#*********************************************************************
  0  = ej     ! minimum E for the jets 
  0  = eb     ! minimum E for the b 
  0  = ea     ! minimum E for the photons 
  0  = el     ! minimum E for the charged leptons 
 -1   = ejmax ! maximum E for the jets
 -1   = ebmax ! maximum E for the b
 -1   = eamax ! maximum E for the photons
 -1   = elmax ! maximum E for the charged leptons
#*********************************************************************
# Maximum and minimum absolute rapidity (for max, -1 means no cut)   *
#*********************************************************************
   5  = etaj    ! max rap for the jets 
  -1  = etab    ! max rap for the b
 2.5  = etaa    ! max rap for the photons 
 2.5  = etal    ! max rap for the charged leptons 
 0.6  = etaonium ! max rap for the quarkonium states
   0  = etajmin ! min rap for the jets
   0  = etabmin ! min rap for the b
   0  = etaamin ! min rap for the photons
   0  = etalmin ! main rap for the charged leptons
#*********************************************************************
# Minimum and maximum DeltaR distance                                *
#*********************************************************************
 0.4 = drjj    ! min distance between jets 
 0   = drbb    ! min distance between b's 
 0.4 = drll    ! min distance between leptons 
 0.4 = draa    ! min distance between gammas 
 0   = drbj    ! min distance between b and jet 
 0.4 = draj    ! min distance between gamma and jet 
 0.4 = drjl    ! min distance between jet and lepton 
 0   = drab    ! min distance between gamma and b 
 0   = drbl    ! min distance between b and lepton 
 0.4 = dral    ! min distance between gamma and lepton 
 -1  = drjjmax ! max distance between jets
 -1  = drbbmax ! max distance between b's
 -1  = drllmax ! max distance between leptons
 -1  = draamax ! max distance between gammas
 -1  = drbjmax ! max distance between b and jet
 -1  = drajmax ! max distance between gamma and jet
 -1  = drjlmax ! max distance between jet and lepton
 -1  = drabmax ! max distance between gamma and b
 -1  = drblmax ! max distance between b and lepton
 -1  = dralmax ! maxdistance between gamma and lepton
#*********************************************************************
# Minimum and maximum invariant mass for pairs                       *
# WARNING: for four lepton final state mmll cut require to have      *
#          different lepton masses for each flavor!                  *           
#*********************************************************************
 0   = mmjj    ! min invariant mass of a jet pair 
 0   = mmbb    ! min invariant mass of a b pair 
 0   = mmaa    ! min invariant mass of gamma gamma pair
 0   = mmll    ! min invariant mass of l+l- (same flavour) lepton pair
 -1  = mmjjmax ! max invariant mass of a jet pair
 -1  = mmbbmax ! max invariant mass of a b pair
 -1  = mmaamax ! max invariant mass of gamma gamma pair
 -1  = mmllmax ! max invariant mass of l+l- (same flavour) lepton pair
#*********************************************************************
# Minimum and maximum invariant mass for all letpons                 *
#*********************************************************************
 0   = mmnl    ! min invariant mass for all letpons (l+- and vl) 
 -1  = mmnlmax ! max invariant mass for all letpons (l+- and vl) 
#*********************************************************************
# Minimum and maximum pt for 4-momenta sum of leptons                *
#*********************************************************************
 0   = ptllmin  ! Minimum pt for 4-momenta sum of leptons(l and vl)
 -1  = ptllmax  ! Maximum pt for 4-momenta sum of leptons(l and vl)
#*********************************************************************
# Inclusive cuts                                                     *
#*********************************************************************
 0  = xptj ! minimum pt for at least one jet  
 0  = xptb ! minimum pt for at least one b 
 0  = xpta ! minimum pt for at least one photon 
 0  = xptl ! minimum pt for at least one charged lepton 
#*********************************************************************
# Control the pt's of the jets sorted by pt                          *
#*********************************************************************
 0   = ptj1min ! minimum pt for the leading jet in pt
 0   = ptj2min ! minimum pt for the second jet in pt
 0   = ptj3min ! minimum pt for the third jet in pt
 0   = ptj4min ! minimum pt for the fourth jet in pt
 -1  = ptj1max ! maximum pt for the leading jet in pt 
 -1  = ptj2max ! maximum pt for the second jet in pt
 -1  = ptj3max ! maximum pt for the third jet in pt
 -1  = ptj4max ! maximum pt for the fourth jet in pt
 0   = cutuse  ! reject event if fails any (0) / all (1) jet pt cuts
#*********************************************************************
# Control the pt's of leptons sorted by pt                           *
#*********************************************************************
 0   = ptl1min ! minimum pt for the leading lepton in pt
 0   = ptl2min ! minimum pt for the second lepton in pt
 0   = ptl3min ! minimum pt for the third lepton in pt
 0   = ptl4min ! minimum pt for the fourth lepton in pt
 -1  = ptl1max ! maximum pt for the leading lepton in pt 
 -1  = ptl2max ! maximum pt for the second lepton in pt
 -1  = ptl3max ! maximum pt for the third lepton in pt
 -1  = ptl4max ! maximum pt for the fourth lepton in pt
#*********************************************************************
# Control the Ht(k)=Sum of k leading jets                            *
#*********************************************************************
 0   = htjmin ! minimum jet HT=Sum(jet pt)
 -1  = htjmax ! maximum jet HT=Sum(jet pt)
 0   = ihtmin  !inclusive Ht for all partons (including b)
 -1  = ihtmax  !inclusive Ht for all partons (including b)
 0   = ht2min ! minimum Ht for the two leading jets
 0   = ht3min ! minimum Ht for the three leading jets
 0   = ht4min ! minimum Ht for the four leading jets
 -1  = ht2max ! maximum Ht for the two leading jets
 -1  = ht3max ! maximum Ht for the three leading jets
 -1  = ht4max ! maximum Ht for the four leading jets
#***********************************************************************
# Photon-isolation cuts, according to hep-ph/9801442                   *
# When ptgmin=0, all the other parameters are ignored                  *
# When ptgmin>0, pta and draj are not going to be used                 *
#***********************************************************************
   0 = ptgmin ! Min photon transverse momentum
 0.4 = R0gamma ! Radius of isolation code
 1.0 = xn ! n parameter of eq.(3.4) in hep-ph/9801442
 1.0 = epsgamma ! epsilon_gamma parameter of eq.(3.4) in hep-ph/9801442
 .true. = isoEM ! isolate photons from EM energy (photons and leptons)
#*********************************************************************
# WBF cuts                                                           *
#*********************************************************************
 0   = xetamin ! minimum rapidity for two jets in the WBF case  
 0   = deltaeta ! minimum rapidity for two jets in the WBF case 
#*********************************************************************
# KT DURHAM CUT                                                      *
#*********************************************************************
 -1    =  ktdurham        
 0.4  =  dparameter 
#*********************************************************************
# maximal pdg code for quark to be considered as a light jet         *
# (otherwise b cuts are applied)                                     *
#*********************************************************************
 4 = maxjetflavor    ! Maximum jet pdg code
#*********************************************************************
# Jet measure cuts                                                   *
#*********************************************************************
 0   = xqcut   ! minimum kt jet measure between partons
#*********************************************************************
#
#*********************************************************************
# Store info for systematics studies                                 *
# WARNING: If use_syst is T, matched Pythia output is                *
#          meaningful ONLY if plotted taking matchscale              *
#          reweighting into account!                                 *
#*********************************************************************
   F  = use_syst      ! Enable systematics studies
#
#**************************************
# Parameter of the systematics study
#  will be used by SysCalc (if installed)
#**************************************                                  
#
0.5 1 2 = sys_scalefact  # factorization/renormalization scale factor
0.5 1 2 = sys_alpsfact  # \alpha_s emission scale factors
30 50 = sys_matchscale # variation of merging scale
# PDF sets and number of members (0 or none for all members).
CT10nlo.LHgrid = sys_pdf # matching scales
# MSTW2008nlo68cl.LHgrid 1  = sys_pdf
</MGRunCard>
<slha>
######################################################################
## PARAM_CARD AUTOMATICALY GENERATED BY MG5 FOLLOWING UFO MODEL   ####
######################################################################
##                                                                  ##
##  Width set on Auto will be computed following the information    ##
##        present in the decay.py files of the model.               ##
##        See  arXiv:1402.1178 for more details.                    ##
##                                                                  ##
######################################################################

###################################
## INFORMATION FOR CKMBLOCK
###################################
Block ckmblock 
    1 2.277360e-01 # cabi 

###################################
## INFORMATION FOR FRBLOCK
###################################
Block frblock 
    1 4.000000e-01 # gz 

###################################
## INFORMATION FOR MASS
###################################
Block mass 
    1 5.040000e-03 # MD 
    2 2.550000e-03 # MU 
    3 1.010000e-01 # MS 
    4 1.270000e+00 # MC 
    5 4.700000e+00 # MB 
    6 1.720000e+02 # MT 
   11 5.110000e-04 # Me 
   13 1.056600e-01 # MM 
   15 1.777000e+00 # MTA 
   23 9.118760e+01 # MZ 
   25 1.200000e+02 # MH 
  10030 1.500000e+03 # MZph 
  10031 3.000000e+02 # MZpl 
## Dependent parameters, given by model restrictions.
## Those values should be edited following the 
## analytical expression. MG5 ignores those values 
## but they are important for interfacing the output of MG5
## to external program such as Pythia.
  12 0.000000 # ve : 0.0 
  14 0.000000 # vm : 0.0 
  16 0.000000 # vt : 0.0 
  21 0.000000 # g : 0.0 
  22 0.000000 # a : 0.0 
  24 79.824360 # w+ : cmath.sqrt(MZ__exp__2/2. + cmath.sqrt(MZ__exp__4/4. - (aEW*cmath.pi*MZ__exp__2)/(Gf*sqrt__2))) 

###################################
## INFORMATION FOR SMINPUTS
###################################
Block sminputs 
    1 1.279000e+02 # aEWM1 
    2 1.166370e-05 # Gf 
    3 1.184000e-01 # aS 

###################################
## INFORMATION FOR YUKAWA
###################################
Block yukawa 
    1 5.040000e-03 # ymdo 
    2 2.550000e-03 # ymup 
    3 1.010000e-01 # yms 
    4 1.270000e+00 # ymc 
    5 4.700000e+00 # ymb 
    6 1.720000e+02 # ymt 
   11 5.110000e-04 # yme 
   13 1.056600e-01 # ymm 
   15 1.777000e+00 # ymtau 

###################################
## INFORMATION FOR DECAY
###################################
DECAY   6 1.508336e+00 # WT 
DECAY  23 2.495200e+00 # WZ 
DECAY  24 2.085000e+00 # WW 
DECAY  25 5.753088e-03 # WH 
## Dependent parameters, given by model restrictions.
## Those values should be edited following the 
## analytical expression. MG5 ignores those values 
## but they are important for interfacing the output of MG5
## to external program such as Pythia.
DECAY  1 0.000000 # d : 0.0 
DECAY  2 0.000000 # u : 0.0 
DECAY  3 0.000000 # s : 0.0 
DECAY  4 0.000000 # c : 0.0 
DECAY  5 0.000000 # b : 0.0 
DECAY  11 0.000000 # e- : 0.0 
DECAY  12 0.000000 # ve : 0.0 
DECAY  13 0.000000 # mu- : 0.0 
DECAY  14 0.000000 # vm : 0.0 
DECAY  15 0.000000 # ta- : 0.0 
DECAY  16 0.000000 # vt : 0.0 
DECAY  21 0.000000 # g : 0.0 
DECAY  22 0.000000 # a : 0.0 
DECAY  10030 0.308725 # zph : (gz__exp__2*MZph*(5 + cmath.sqrt(1 - (4*MT__exp__2)/MZph__exp__2)))/(144.*cmath.pi) 
DECAY  10031 0.132629 # zpl : (5*gz__exp__2*MZpl)/(144.*cmath.pi) 
#===========================================================
# QUANTUM NUMBERS OF NEW STATE(S) (NON SM PDG CODE)
#===========================================================

Block QNUMBERS 10030  # zph 
        1 0  # 3 times electric charge
        2 3  # number of spin states (2S+1)
        3 1  # colour rep (1: singlet, 3: triplet, 8: octet)
        4 0  # Particle/Antiparticle distinction (0=own anti)
Block QNUMBERS 10031  # zpl 
        1 0  # 3 times electric charge
        2 3  # number of spin states (2S+1)
        3 1  # colour rep (1: singlet, 3: triplet, 8: octet)
        4 0  # Particle/Antiparticle distinction (0=own anti)
</slha>
## END BANNER##
<MGGenerationInfo>
#  Number of Events        :         3929
#  Integrated weight (pb)  :  0.35703E-01
#  Max wgt                 :  0.12545E-04
#  Average wgt             :  0.90870E-05
</MGGenerationInfo>
</header>
<init>
     2212     2212  0.40000000000E+04  0.40000000000E+04 0 0  247000  247000 2   1
  0.35765608523E-01  0.78778904290E-04  0.12544870000E-04   0
</init>
<event>
 5   0  0.1219810E-04  0.1500709E+04  0.7818609E-02  0.8883982E-01
        2   -1    0    0  501    0  0.00000000000E+00  0.00000000000E+00  0.81600246695E+03  0.81600246696E+03  0.25500000920E-02 0.  1.
       -2   -1    0    0    0  501  0.00000000000E+00  0.00000000000E+00 -0.68998761070E+03  0.68998761070E+03  0.25500000920E-02 0. -1.
    10030    2    1    2    0    0  0.00000000000E+00  0.00000000000E+00  0.12601485626E+03  0.15059900777E+04  0.15007086226E+04 0.  0.
        1    1    3    3  502    0  0.16585396159E+02  0.54383871091E+03  0.58154244368E+03  0.79638384757E+03  0.50400001928E-02 0.  1.
       -1    1    3    3    0  502 -0.16585396159E+02 -0.54383871091E+03 -0.45552758743E+03  0.70960623009E+03  0.50400001928E-02 0. -1.
</event>
<event>
 5   0  0.1219810E-04  0.1499666E+04  0.7818609E-02  0.8884675E-01
        2   -1    0    0  501    0  0.00000000000E+00  0.00000000000E+00  0.55943311804E+03  0.55943311804E+03  0.25500000920E-02 0. -1.
       -2   -1    0    0    0  501  0.00000000000E+00  0.00000000000E+00 -0.10050350548E+04  0.10050350548E+04  0.25500000920E-02 0.  1.
    10030    2    1    2    0    0  0.00000000000E+00  0.00000000000E+00 -0.44560193681E+03  0.15644681729E+04  0.14996664889E+04 0.  0.
        1    1    3    3  502    0 -0.93696733974E+00  0.48838339650E+03  0.37075813692E+03  0.61317274565E+03  0.50400001928E-02 0. -1.
       -1    1    3    3    0  502  0.93696733974E+00 -0.48838339650E+03 -0.81636007373E+03  0.95129542724E+03  0.50400001928E-02 0.  1.
</event>
<event>
 5   0  0.1186664E-04  0.1502136E+04  0.7818609E-02  0.8883034E-01
       -2   -1    0    0    0  501  0.00000000000E+00  0.00000000000E+00  0.54063554670E+03  0.54063554671E+03  0.25500000920E-02 0.  1.
        2   -1    0    0  501    0  0.00000000000E+00  0.00000000000E+00 -0.10434072491E+04  0.10434072491E+04  0.25500000920E-02 0. -1.
    10030    2    1    2    0    0  0.00000000000E+00  0.00000000000E+00 -0.50277170240E+03  0.15840427958E+04  0.15021358774E+04 0.  0.
        3    1    3    3  502    0 -0.70214727863E+03  0.58955655452E+02 -0.52559625784E+03  0.87905517839E+03  0.10100000352E+00 0.  1.
       -3    1    3    3    0  502  0.70214727863E+03 -0.58955655452E+02  0.22824555436E+02  0.70498761743E+03  0.10100000352E+00 0. -1.
</event>
<event>
 5   0  0.1219810E-04  0.1498435E+04  0.7818609E-02  0.8885494E-01
       -2   -1    0    0    0  501  0.00000000000E+00  0.00000000000E+00  0.98090868115E+03  0.98090868115E+03  0.25500000920E-02 0.  1.
        2   -1    0    0  501    0  0.00000000000E+00  0.00000000000E+00 -0.57225170356E+03  0.57225170357E+03  0.25500000920E-02 0. -1.
    10030    2    1    2    0    0  0.00000000000E+00  0.00000000000E+00  0.40865697759E+03  0.15531603847E+04  0.14984347351E+04 0.  0.
        1    1    3    3  502    0 -0.34318279170E+03 -0.10946222980E+03  0.88526124343E+03  0.95574257906E+03  0.50400001928E-02 0.  1.
       -1    1    3    3    0  502  0.34318279170E+03  0.10946222980E+03 -0.47660426584E+03  0.59741780566E+03  0.50400001928E-02 0. -1.
</event>
<event>
 5   0  0.1186664E-04  0.1526910E+04  0.7818609E-02  0.8866753E-01
       -2   -1    0    0    0  501  0.00000000000E+00  0.00000000000E+00  0.83534763061E+03  0.83534763062E+03  0.25500000920E-02 0. -1.
        2   -1    0    0  501    0  0.00000000000E+00  0.00000000000E+00 -0.69774943062E+03  0.69774943062E+03  0.25500000920E-02 0.  1.
    10030    2    1    2    0    0  0.00000000000E+00  0.00000000000E+00  0.13759820000E+03  0.15330970612E+04  0.15269097336E+04 0.  0.
        3    1    3    3  502    0  0.32837870102E+03 -0.68595720957E+03  0.14942021931E+01  0.76050779581E+03  0.10100000352E+00 0. -1.
       -3    1    3    3    0  502 -0.32837870102E+03  0.68595720957E+03  0.13610399780E+03  0.77258926543E+03  0.10100000352E+00 0.  1.
</event>
<event>
 5   0  0.6668433E-05  0.1500213E+04  0.7818609E-02  0.8884311E-01
       -1   -1    0    0    0  501  0.00000000000E+00  0.00000000000E+00  0.13428939461E+04  0.13428939461E+04  0.50400001928E-02 0.  1.
        1   -1    0    0  501    0  0.00000000000E+00  0.00000000000E+00 -0.41899060526E+03  0.41899060529E+03  0.50400001928E-02 0. -1.
    10030    2    1    2    0    0  0.00000000000E+00  0.00000000000E+00  0.92390334088E+03  0.17618845514E+04  0.15002132479E+04 0.  0.
        1    1    3    3  502    0 -0.30902595850E+03  0.66780604681E+03  0.29096125267E+03  0.79127770711E+03  0.50400001928E-02 0. -1.
       -1    1    3    3    0  502  0.30902595850E+03 -0.66780604681E+03  0.63294208822E+03  0.97060684432E+03  0.50400001928E-02 0.  1.
</event>
<event>
 5   0  0.6361716E-05  0.1495114E+04  0.7818609E-02  0.8887709E-01
        1   -1    0    0  501    0  0.00000000000E+00  0.00000000000E+00  0.11448669752E+04  0.11448669753E+04  0.50400001928E-02 0.  1.
       -1   -1    0    0    0  501  0.00000000000E+00  0.00000000000E+00 -0.48812763393E+03  0.48812763396E+03  0.50400001928E-02 0. -1.
    10030    2    1    2    0    0  0.00000000000E+00  0.00000000000E+00  0.65673934132E+03  0.16329946092E+04  0.14951136516E+04 0.  0.
        3    1    3    3  502    0  0.32691690766E+03 -0.12375967798E+03  0.10501039181E+04  0.11067562385E+04  0.10100000352E+00 0.  1.
       -3    1    3    3    0  502 -0.32691690766E+03  0.12375967798E+03 -0.39336457676E+03  0.52623837076E+03  0.10100000352E+00 0. -1.
</event>
<event>
 5   0  0.1219810E-04  0.1500343E+04  0.7818609E-02  0.8884225E-01
        2   -1    0    0  501    0  0.00000000000E+00  0.00000000000E+00  0.27420753804E+03  0.27420753805E+03  0.25500000920E-02 0.  1.
       -2   -1    0    0    0  501  0.00000000000E+00  0.00000000000E+00 -0.20523039176E+04  0.20523039176E+04  0.25500000920E-02 0. -1.
    10030    2    1    2    0    0  0.00000000000E+00  0.00000000000E+00 -0.17780963796E+04  0.23265114557E+04  0.15003429002E+04 0.  0.
        1    1    3    3  502    0  0.31384464689E+03 -0.51790784337E+03 -0.15756045079E+04  0.16879740999E+04  0.50400001928E-02 0. -1.
       -1    1    3    3    0  502 -0.31384464689E+03  0.51790784337E+03 -0.20249187169E+03  0.63853735578E+03  0.50400001928E-02 0.  1.
</event>
<event>
 5   0  0.6509279E-05  0.1494555E+04  0.7818609E-02  0.8888082E-01
        1   -1    0    0  501    0  0.00000000000E+00  0.00000000000E+00  0.49482665928E+03  0.49482665930E+03  0.50400001928E-02 0. -1.
       -1   -1    0    0    0  501  0.00000000000E+00  0.00000000000E+00 -0.11285230933E+04  0.11285230933E+04  0.50400001928E-02 0.  1.
    10030    2    1    2    0    0  0.00000000000E+00  0.00000000000E+00 -0.63369643406E+03  0.16233497527E+04  0.14945545319E+04 0.  0.
        2    1    3    3  502    0  0.22966105284E+03 -0.19399231230E+03 -0.10599437436E+04  0.11017522208E+04  0.25500000920E-02 0.  1.
       -2    1    3    3    0  502 -0.22966105284E+03  0.19399231230E+03  0.42624730950E+03  0.52159753190E+03  0.25500000920E-02 0. -1.
</event>
<event>
 5   0  0.1219810E-04  0.1497700E+04  0.7818609E-02  0.8885984E-01
       -2   -1    0    0    0  501  0.00000000000E+00  0.00000000000E+00  0.37862316256E+03  0.37862316257E+03  0.25500000920E-02 0.  1.
        2   -1    0    0  501    0  0.00000000000E+00  0.00000000000E+00 -0.14810926465E+04  0.14810926465E+04  0.25500000920E-02 0. -1.
    10030    2    1    2    0    0  0.00000000000E+00  0.00000000000E+00 -0.11024694839E+04  0.18597158091E+04  0.14976995451E+04 0.  0.
        1    1    3    3  502    0 -0.53114825108E+03 -0.44135955000E+03 -0.91081630051E+03  0.11430236438E+04  0.50400001928E-02 0.  1.
       -1    1    3    3    0  502  0.53114825108E+03  0.44135955000E+03 -0.19165318343E+03  0.71669216526E+03  0.50400001928E-02 0. -1.
</event>
<event>
 5   0  0.6509279E-05  0.1500812E+04  0.7818609E-02  0.8883913E-01
        1   -1    0    0  501    0  0.00000000000E+00  0.00000000000E+00  0.45802439910E+03  0.45802439912E+03  0.50400001928E-02 0.  1.
       -1   -1    0    0    0  501  0.00000000000E+00  0.00000000000E+00 -0.12294302679E+04  0.12294302679E+04  0.50400001928E-02 0. -1.
    10030    2    1    2    0    0  0.00000000000E+00  0.00000000000E+00 -0.77140586881E+03  0.16874546670E+04  0.15008118599E+04 0.  0.
        2    1    3    3  502    0 -0.59367248239E+03  0.45686982631E+03 -0.43512376084E+03  0.86631965336E+03  0.25500000920E-02 0. -1.
       -2    1    3    3    0  502  0.59367248239E+03 -0.45686982631E+03 -0.33628210797E+03  0.82113501368E+03  0.25500000920E-02 0.  1.
</event>
<event>
 5   0  0.1254487E-04  0.1496484E+04  0.7818609E-02  0.8886795E-01
       -2   -1    0    0    0  501  0.00000000000E+00  0.00000000000E+00  0.80271407799E+03  0.80271407799E+03  0.25500000920E-02 0. -1.
        2   -1    0    0  501    0  0.00000000000E+00  0.00000000000E+00 -0.69746603257E+03  0.69746603258E+03  0.25500000920E-02 0.  1.
    10030    2    1    2    0    0  0.00000000000E+00  0.00000000000E+00  0.10524804542E+03  0.15001801106E+04  0.14964836160E+04 0.  0.
        5    1    3    3  502    0 -0.94591151664E+02 -0.67860556171E+03  0.35401715854E+03  0.77123487531E+03  0.46999998093E+01 0. -1.
       -5    1    3    3    0  502  0.94591151664E+02  0.67860556171E+03 -0.24876911313E+03  0.72894523525E+03  0.46999998093E+01 0.  1.
</event>
<event>
 5   0  0.6364378E-05  0.1499602E+04  0.7818609E-02  0.8884718E-01
       -1   -1    0    0    0  501  0.00000000000E+00  0.00000000000E+00  0.96079552578E+03  0.96079552579E+03  0.50400001928E-02 0. -1.
        1   -1    0    0  501    0  0.00000000000E+00  0.00000000000E+00 -0.58514167927E+03  0.58514167929E+03  0.50400001928E-02 0.  1.
    10030    2    1    2    0    0  0.00000000000E+00  0.00000000000E+00  0.37565384651E+03  0.15459372051E+04  0.14996019571E+04 0.  0.
        5    1    3    3  502    0 -0.26109810217E+03 -0.28239472788E+03 -0.47569086323E+03  0.61173759788E+03  0.46999998093E+01 0.  1.
       -5    1    3    3    0  502  0.26109810217E+03  0.28239472788E+03  0.85134470974E+03  0.93419960720E+03  0.46999998093E+01 0. -1.
</event>
<event>
 5   0  0.6668433E-05  0.1501029E+04  0.7818609E-02  0.8883769E-01
        1   -1    0    0  501    0  0.00000000000E+00  0.00000000000E+00  0.70764319660E+03  0.70764319661E+03  0.50400001928E-02 0. -1.
       -1   -1    0    0    0  501  0.00000000000E+00  0.00000000000E+00 -0.79598294576E+03  0.79598294577E+03  0.50400001928E-02 0.  1.
    10030    2    1    2    0    0  0.00000000000E+00  0.00000000000E+00 -0.88339749163E+02  0.15036261424E+04  0.15010288687E+04 0.  0.
        1    1    3    3  502    0  0.43538199447E+03  0.16439142099E+03 -0.63399248255E+03  0.78646582148E+03  0.50400001928E-02 0.  1.
       -1    1    3    3    0  502 -0.43538199447E+03 -0.16439142099E+03  0.54565273339E+03  0.71716032091E+03  0.50400001928E-02 0. -1.
</event>
<event>
 5   0  0.6361716E-05  0.1495832E+04  0.7818609E-02  0.8887230E-01
        1   -1    0    0  501    0  0.00000000000E+00  0.00000000000E+00  0.14413917324E+04  0.14413917324E+04  0.50400001928E-02 0.  1.
       -1   -1    0    0    0  501  0.00000000000E+00  0.00000000000E+00 -0.38808186904E+03  0.38808186908E+03  0.50400001928E-02 0. -1.
    10030    2    1    2    0    0  0.00000000000E+00  0.00000000000E+00  0.10533098634E+04  0.18294736015E+04  0.14958315381E+04 0.  0.
        3    1    3    3  502    0  0.55929884210E+03 -0.88091834500E+02  0.11243270639E+04  0.12588434068E+04  0.10100000352E+00 0.  1.
       -3    1    3    3    0  502 -0.55929884210E+03  0.88091834500E+02 -0.71017200555E+02  0.57063019466E+03  0.10100000352E+00 0. -1.
</event>
<event>
 5   0  0.6361716E-05  0.1497349E+04  0.7818609E-02  0.8886218E-01
        1   -1    0    0  501    0  0.00000000000E+00  0.00000000000E+00  0.56235905145E+03  0.56235905147E+03  0.50400001928E-02 0. -1.
       -1   -1    0    0    0  501  0.00000000000E+00  0.00000000000E+00 -0.99671827232E+03  0.99671827233E+03  0.50400001928E-02 0.  1.
    10030    2    1    2    0    0  0.00000000000E+00  0.00000000000E+00 -0.43435922087E+03  0.15590773238E+04  0.14973490471E+04 0.  0.
        3    1    3    3  502    0  0.14261966038E+02  0.74225902490E+03 -0.11643513757E+03  0.75147123377E+03  0.10100000352E+00 0. -1.
       -3    1    3    3    0  502 -0.14261966038E+02 -0.74225902490E+03 -0.31792408330E+03  0.80760609004E+03  0.10100000352E+00 0.  1.
</event>
<event>
 5   0  0.1219810E-04  0.1501325E+04  0.7818609E-02  0.8883572E-01
        2   -1    0    0  501    0  0.00000000000E+00  0.00000000000E+00  0.25252500664E+03  0.25252500665E+03  0.25500000920E-02 0.  1.
       -2   -1    0    0    0  501  0.00000000000E+00  0.00000000000E+00 -0.22314400587E+04  0.22314400587E+04  0.25500000920E-02 0. -1.
    10030    2    1    2    0    0  0.00000000000E+00  0.00000000000E+00 -0.19789150520E+04  0.24839650653E+04  0.15013253021E+04 0.  0.
        1    1    3    3  502    0  0.69975567139E+03 -0.24493798799E+03 -0.79480191205E+03  0.10869051003E+04  0.50400001928E-02 0.  1.
       -1    1    3    3    0  502 -0.69975567139E+03  0.24493798799E+03 -0.11841131400E+04  0.13970599650E+04  0.50400001928E-02 0. -1.
</event>
<event>
 5   0  0.6542036E-05  0.1498845E+04  0.7818609E-02  0.8885221E-01
       -1   -1    0    0    0  501  0.00000000000E+00  0.00000000000E+00  0.83278187494E+03  0.83278187495E+03  0.50400001928E-02 0. -1.
        1   -1    0    0  501    0  0.00000000000E+00  0.00000000000E+00 -0.67440757953E+03  0.67440757955E+03  0.50400001928E-02 0.  1.
    10030    2    1    2    0    0  0.00000000000E+00  0.00000000000E+00  0.15837429540E+03  0.15071894545E+04  0.14988454338E+04 0.  0.
        4    1    3    3  502    0 -0.49866425953E+03  0.51939309373E+03 -0.12981013360E+03  0.73163345552E+03  0.12699999809E+01 0.  1.
       -4    1    3    3    0  502  0.49866425953E+03 -0.51939309373E+03  0.28818442901E+03  0.77555599899E+03  0.12699999809E+01 0. -1.
</event>
<event>
 5   0  0.6668433E-05  0.1505333E+04  0.7818609E-02  0.8880914E-01
       -1   -1    0    0    0  501  0.00000000000E+00  0.00000000000E+00  0.37029239298E+03  0.37029239301E+03  0.50400001928E-02 0. -1.
        1   -1    0    0  501    0  0.00000000000E+00  0.00000000000E+00 -0.15298907193E+04  0.15298907193E+04  0.50400001928E-02 0.  1.
    10030    2    1    2    0    0  0.00000000000E+00  0.00000000000E+00 -0.11595983263E+04  0.19001831123E+04  0.15053330468E+04 0.  0.
        1    1    3    3  502    0  0.52927447428E+03  0.84310118519E+02 -0.12468713709E+04  0.13571764369E+04  0.50400001928E-02 0.  1.
       -1    1    3    3    0  502 -0.52927447428E+03 -0.84310118519E+02  0.87273044604E+02  0.54300667542E+03  0.50400001928E-02 0. -1.
</event>
<event>
 5   0  0.1228286E-04  0.1500777E+04  0.7818609E-02  0.8883936E-01
        2   -1    0    0  501    0  0.00000000000E+00  0.00000000000E+00  0.97698644726E+03  0.97698644727E+03  0.25500000920E-02 0.  1.
       -2   -1    0    0    0  501  0.00000000000E+00  0.00000000000E+00 -0.57634675527E+03  0.57634675528E+03  0.25500000920E-02 0. -1.
    10030    2    1    2    0    0  0.00000000000E+00  0.00000000000E+00  0.40063969199E+03  0.15533332025E+04  0.15007770905E+04 0.  0.
        2    1    3    3  502    0  0.18484811520E+03  0.37575121064E+03  0.84480131116E+03  0.94289291722E+03  0.25500000920E-02 0.  1.
       -2    1    3    3    0  502 -0.18484811520E+03 -0.37575121064E+03 -0.44416161917E+03  0.61044028532E+03  0.25500000920E-02 0. -1.
</event>
<event>
 5   0  0.6361716E-05  0.1489634E+04  0.7818609E-02  0.8891376E-01
       -1   -1    0    0    0  501  0.00000000000E+00  0.00000000000E+00  0.50207905468E+03  0.50207905470E+03  0.50400001928E-02 0. -1.
        1   -1    0    0  501    0  0.00000000000E+00  0.00000000000E+00 -0.11049099872E+04  0.11049099872E+04  0.50400001928E-02 0.  1.
    10030    2    1    2    0    0  0.00000000000E+00  0.00000000000E+00 -0.60283093252E+03  0.16069890419E+04  0.14896337293E+04 0.  0.
        3    1    3    3  502    0 -0.40931682525E+03 -0.32188355879E+03  0.27308280110E+03  0.58798258079E+03  0.10100000352E+00 0. -1.
       -3    1    3    3    0  502  0.40931682525E+03  0.32188355879E+03 -0.87591373362E+03  0.10190064611E+04  0.10100000352E+00 0.  1.
</event>
<event>
 5   0  0.1186664E-04  0.1473201E+04  0.7818609E-02  0.8902472E-01
        2   -1    0    0  501    0  0.00000000000E+00  0.00000000000E+00  0.36373035565E+03  0.36373035566E+03  0.25500000920E-02 0.  1.
       -2   -1    0    0    0  501  0.00000000000E+00  0.00000000000E+00 -0.14917092366E+04  0.14917092366E+04  0.25500000920E-02 0. -1.
    10030    2    1    2    0    0  0.00000000000E+00  0.00000000000E+00 -0.11279788810E+04  0.18554395923E+04  0.14732005039E+04 0.  0.
        3    1    3    3  502    0 -0.14191119250E+03 -0.61274554511E+03 -0.81130765638E+02  0.63417513428E+03  0.10100000352E+00 0.  1.
       -3    1    3    3    0  502  0.14191119250E+03  0.61274554511E+03 -0.10468481153E+04  0.12212644580E+04  0.10100000352E+00 0. -1.
</event>
<event>
 5   0  0.6668433E-05  0.1499484E+04  0.7818609E-02  0.8884796E-01
       -1   -1    0    0    0  501  0.00000000000E+00  0.00000000000E+00  0.35939598654E+03  0.35939598658E+03  0.50400001928E-02 0. -1.
        1   -1    0    0  501    0  0.00000000000E+00  0.00000000000E+00 -0.15640485477E+04  0.15640485477E+04  0.50400001928E-02 0.  1.
    10030    2    1    2    0    0  0.00000000000E+00  0.00000000000E+00 -0.12046525611E+04  0.19234445343E+04  0.14994836056E+04 0.  0.
        1    1    3    3  502    0  0.73526487842E+03  0.14396701463E+03 -0.56668951904E+03  0.93940297730E+03  0.50400001928E-02 0.  1.
       -1    1    3    3    0  502 -0.73526487842E+03 -0.14396701463E+03 -0.63796304210E+03  0.98404155698E+03  0.50400001928E-02 0. -1.
</event>
<event>
 5   0  0.1228286E-04  0.1498974E+04  0.7818609E-02  0.8885136E-01
       -2   -1    0    0    0  501  0.00000000000E+00  0.00000000000E+00  0.27460535042E+03  0.27460535043E+03  0.25500000920E-02 0.  1.
        2   -1    0    0  501    0  0.00000000000E+00  0.00000000000E+00 -0.20455920649E+04  0.20455920649E+04  0.25500000920E-02 0. -1.
    10030    2    1    2    0    0  0.00000000000E+00  0.00000000000E+00 -0.17709867144E+04  0.23201974153E+04  0.14989736833E+04 0.  0.
        2    1    3    3  502    0 -0.15026843865E+03 -0.73413001404E+03 -0.86343736100E+03  0.11432635556E+04  0.25500000920E-02 0.  1.
       -2    1    3    3    0  502  0.15026843865E+03  0.73413001404E+03 -0.90754935344E+03  0.11769338597E+04  0.25500000920E-02 0. -1.
</event>
<event>
 5   0  0.6509279E-05  0.1494078E+04  0.7818609E-02  0.8888401E-01
        1   -1    0    0  501    0  0.00000000000E+00  0.00000000000E+00  0.22598039567E+04  0.22598039567E+04  0.50400001928E-02 0.  1.
       -1   -1    0    0    0  501  0.00000000000E+00  0.00000000000E+00 -0.24695384345E+03  0.24695384350E+03  0.50400001928E-02 0. -1.
    10030    2    1    2    0    0  0.00000000000E+00  0.00000000000E+00  0.20128501132E+04  0.25067578002E+04  0.14940780068E+04 0.  0.
        2    1    3    3  502    0  0.47737911331E+03 -0.56254300781E+03  0.80988777366E+03  0.10955654519E+04  0.25500000920E-02 0.  1.
       -2    1    3    3    0  502 -0.47737911331E+03  0.56254300781E+03  0.12029623396E+04  0.14111923483E+04  0.25500000920E-02 0. -1.
</event>
<event>
 5   0  0.1186664E-04  0.1505239E+04  0.7818609E-02  0.8880977E-01
        2   -1    0    0  501    0  0.00000000000E+00  0.00000000000E+00  0.75980033092E+03  0.75980033093E+03  0.25500000920E-02 0. -1.
       -2   -1    0    0    0  501  0.00000000000E+00  0.00000000000E+00 -0.74550634489E+03  0.74550634490E+03  0.25500000920E-02 0.  1.
    10030    2    1    2    0    0  0.00000000000E+00  0.00000000000E+00  0.14293986033E+02  0.15053066758E+04  0.15052388084E+04 0.  0.
        3    1    3    3  502    0  0.57918396460E+03 -0.17090157647E+03 -0.44206647416E+03  0.74838772803E+03  0.10100000352E+00 0.  1.
       -3    1    3    3    0  502 -0.57918396460E+03  0.17090157647E+03  0.45636046020E+03  0.75691894779E+03  0.10100000352E+00 0. -1.
</event>
<event>
 5   0  0.1254487E-04  0.1507966E+04  0.7818609E-02  0.8879173E-01
        2   -1    0    0  501    0  0.00000000000E+00  0.00000000000E+00  0.15768221124E+04  0.15768221124E+04  0.25500000920E-02 0.  1.
       -2   -1    0    0    0  501  0.00000000000E+00  0.00000000000E+00 -0.36052919431E+03  0.36052919432E+03  0.25500000920E-02 0. -1.
    10030    2    1    2    0    0  0.00000000000E+00  0.00000000000E+00  0.12162929181E+04  0.19373513067E+04  0.15079660550E+04 0.  0.
        5    1    3    3  502    0  0.38065426286E+03 -0.37288439306E+03 -0.77151165600E+02  0.53843739727E+03  0.46999998093E+01 0. -1.
       -5    1    3    3    0  502 -0.38065426286E+03  0.37288439306E+03  0.12934440837E+04  0.13989139095E+04  0.46999998093E+01 0.  1.
</event>
<event>
 5   0  0.6509279E-05  0.1499335E+04  0.7818609E-02  0.8884895E-01
        1   -1    0    0  501    0  0.00000000000E+00  0.00000000000E+00  0.13692311836E+04  0.13692311836E+04  0.50400001928E-02 0.  1.
       -1   -1    0    0    0  501  0.00000000000E+00  0.00000000000E+00 -0.41045051360E+03  0.41045051364E+03  0.50400001928E-02 0. -1.
    10030    2    1    2    0    0  0.00000000000E+00  0.00000000000E+00  0.95878067000E+03  0.17796816973E+04  0.14993353762E+04 0.  0.
        2    1    3    3  502    0  0.42042953418E+03 -0.29497777852E+03 -0.16882351634E+03  0.54062395683E+03  0.25500000920E-02 0. -1.
       -2    1    3    3    0  502 -0.42042953418E+03  0.29497777852E+03  0.11276041863E+04  0.12390577404E+04  0.25500000920E-02 0.  1.
</event>
<event>
 5   0  0.1186664E-04  0.1502318E+04  0.7818609E-02  0.8882913E-01
        2   -1    0    0  501    0  0.00000000000E+00  0.00000000000E+00  0.10788521304E+04  0.10788521304E+04  0.25500000920E-02 0. -1.
       -2   -1    0    0    0  501  0.00000000000E+00  0.00000000000E+00 -0.52300044085E+03  0.52300044085E+03  0.25500000920E-02 0.  1.
    10030    2    1    2    0    0  0.00000000000E+00  0.00000000000E+00  0.55585168957E+03  0.16018525713E+04  0.15023183948E+04 0.  0.
        3    1    3    3  502    0  0.22531132779E+03 -0.30764445993E+03 -0.41212224207E+03  0.56147578823E+03  0.10100000352E+00 0.  1.
       -3    1    3    3    0  502 -0.22531132779E+03  0.30764445993E+03  0.96797393164E+03  0.10403767830E+04  0.10100000352E+00 0. -1.
</event>
<event>
 5   0  0.1219810E-04  0.1498390E+04  0.7818609E-02  0.8885524E-01
        2   -1    0    0  501    0  0.00000000000E+00  0.00000000000E+00  0.90564278426E+03  0.90564278427E+03  0.25500000920E-02 0.  1.
       -2   -1    0    0    0  501  0.00000000000E+00  0.00000000000E+00 -0.61977355538E+03  0.61977355538E+03  0.25500000920E-02 0. -1.
    10030    2    1    2    0    0  0.00000000000E+00  0.00000000000E+00  0.28586922889E+03  0.15254163397E+04  0.14983904008E+04 0.  0.
        1    1    3    3  502    0 -0.66363839403E+03  0.28389778029E+02 -0.20982874658E+03  0.69659888059E+03  0.50400001928E-02 0. -1.
       -1    1    3    3    0  502  0.66363839403E+03 -0.28389778029E+02  0.49569797547E+03  0.82881745906E+03  0.50400001928E-02 0.  1.
</event>
<event>
 5   0  0.6364378E-05  0.1497111E+04  0.7818609E-02  0.8886377E-01
        1   -1    0    0  501    0  0.00000000000E+00  0.00000000000E+00  0.99511822811E+03  0.99511822812E+03  0.50400001928E-02 0. -1.
       -1   -1    0    0    0  501  0.00000000000E+00  0.00000000000E+00 -0.56308396352E+03  0.56308396354E+03  0.50400001928E-02 0.  1.
    10030    2    1    2    0    0  0.00000000000E+00  0.00000000000E+00  0.43203426459E+03  0.15582021917E+04  0.14971107054E+04 0.  0.
        5    1    3    3  502    0 -0.17054549788E+03 -0.60084164007E+03  0.64542582197E+03  0.89816091262E+03  0.46999998093E+01 0. -1.
       -5    1    3    3    0  502  0.17054549788E+03  0.60084164007E+03 -0.21339155738E+03  0.66004127904E+03  0.46999998093E+01 0.  1.
</event>
<event>
 5   0  0.1186664E-04  0.1498104E+04  0.7818609E-02  0.8885715E-01
       -2   -1    0    0    0  501  0.00000000000E+00  0.00000000000E+00  0.25655321109E+03  0.25655321110E+03  0.25500000920E-02 0. -1.
        2   -1    0    0  501    0  0.00000000000E+00  0.00000000000E+00 -0.21869887993E+04  0.21869887993E+04  0.25500000920E-02 0.  1.
    10030    2    1    2    0    0  0.00000000000E+00  0.00000000000E+00 -0.19304355882E+04  0.24435420104E+04  0.14981041340E+04 0.  0.
        3    1    3    3  502    0 -0.39010829878E+03  0.60614127420E+03 -0.12974449919E+04  0.14842355764E+04  0.10100000352E+00 0.  1.
       -3    1    3    3    0  502  0.39010829878E+03 -0.60614127420E+03 -0.63299059627E+03  0.95930643396E+03  0.10100000352E+00 0. -1.
</event>
<event>
 5   0  0.6542036E-05  0.1502432E+04  0.7818609E-02  0.8882837E-01
        1   -1    0    0  501    0  0.00000000000E+00  0.00000000000E+00  0.16754748242E+04  0.16754748242E+04  0.50400001928E-02 0. -1.
       -1   -1    0    0    0  501  0.00000000000E+00  0.00000000000E+00 -0.33681542340E+03  0.33681542344E+03  0.50400001928E-02 0.  1.
    10030    2    1    2    0    0  0.00000000000E+00  0.00000000000E+00  0.13386594007E+04  0.20122902476E+04  0.15024323776E+04 0.  0.
        4    1    3    3  502    0  0.75054545531E+02 -0.43050739573E+03 -0.14905272486E+03  0.46172300167E+03  0.12699999809E+01 0.  1.
       -4    1    3    3    0  502 -0.75054545531E+02  0.43050739573E+03  0.14877121256E+04  0.15505672459E+04  0.12699999809E+01 0. -1.
</event>
<event>
 5   0  0.6668433E-05  0.1504138E+04  0.7818609E-02  0.8881706E-01
        1   -1    0    0  501    0  0.00000000000E+00  0.00000000000E+00  0.85784125779E+03  0.85784125781E+03  0.50400001928E-02 0. -1.
       -1   -1    0    0    0  501  0.00000000000E+00  0.00000000000E+00 -0.65933857495E+03  0.65933857497E+03  0.50400001928E-02 0.  1.
    10030    2    1    2    0    0  0.00000000000E+00  0.00000000000E+00  0.19850268284E+03  0.15171798328E+04  0.15041380688E+04 0.  0.
        1    1    3    3  502    0 -0.25689542073E+02 -0.27913468887E+03 -0.60467622881E+03  0.66649041164E+03  0.50400001928E-02 0.  1.
       -1    1    3    3    0  502  0.25689542073E+02  0.27913468887E+03  0.80317891164E+03  0.85068942114E+03  0.50400001928E-02 0. -1.
</event>
<event>
 5   0  0.6361716E-05  0.1503274E+04  0.7818609E-02  0.8882278E-01
       -1   -1    0    0    0  501  0.00000000000E+00  0.00000000000E+00  0.10738297241E+04  0.10738297241E+04  0.50400001928E-02 0. -1.
        1   -1    0    0  501    0  0.00000000000E+00  0.00000000000E+00 -0.52611542241E+03  0.52611542243E+03  0.50400001928E-02 0.  1.
    10030    2    1    2    0    0  0.00000000000E+00  0.00000000000E+00  0.54771430167E+03  0.15999451465E+04  0.15032742649E+04 0.  0.
        3    1    3    3  502    0 -0.66915356864E+03 -0.33888176568E+03  0.32546252796E+03  0.81763880585E+03  0.10100000352E+00 0. -1.
       -3    1    3    3    0  502  0.66915356864E+03  0.33888176568E+03  0.22225177371E+03  0.78230634067E+03  0.10100000352E+00 0.  1.
</event>
<event>
 5   0  0.1216921E-04  0.1496031E+04  0.7818609E-02  0.8887097E-01
        2   -1    0    0  501    0  0.00000000000E+00  0.00000000000E+00  0.16005230696E+04  0.16005230696E+04  0.25500000920E-02 0. -1.
       -2   -1    0    0    0  501  0.00000000000E+00  0.00000000000E+00 -0.34958998169E+03  0.34958998170E+03  0.25500000920E-02 0.  1.
    10030    2    1    2    0    0  0.00000000000E+00  0.00000000000E+00  0.12509330879E+04  0.19501130513E+04  0.14960305219E+04 0.  0.
        4    1    3    3  502    0  0.74169617446E+03  0.67828996950E+02  0.71588297875E+03  0.10330556811E+04  0.12699999809E+01 0. -1.
       -4    1    3    3    0  502 -0.74169617446E+03 -0.67828996950E+02  0.53505010913E+03  0.91705737019E+03  0.12699999809E+01 0.  1.
</event>
<event>
 5   0  0.1216921E-04  0.1494462E+04  0.7818609E-02  0.8888144E-01
        2   -1    0    0  501    0  0.00000000000E+00  0.00000000000E+00  0.10230715209E+04  0.10230715209E+04  0.25500000920E-02 0. -1.
       -2   -1    0    0    0  501  0.00000000000E+00  0.00000000000E+00 -0.54576256605E+03  0.54576256605E+03  0.25500000920E-02 0.  1.
    10030    2    1    2    0    0  0.00000000000E+00  0.00000000000E+00  0.47730895483E+03  0.15688340869E+04  0.14944619614E+04 0.  0.
        4    1    3    3  502    0 -0.49558666883E+03  0.53377254255E+02  0.82304210319E+03  0.96221369462E+03  0.12699999809E+01 0. -1.
       -4    1    3    3    0  502  0.49558666883E+03 -0.53377254255E+02 -0.34573314836E+03  0.60662039231E+03  0.12699999809E+01 0.  1.
</event>
<event>
 5   0  0.6509279E-05  0.1506351E+04  0.7818609E-02  0.8880240E-01
       -1   -1    0    0    0  501  0.00000000000E+00  0.00000000000E+00  0.53085121112E+03  0.53085121114E+03  0.50400001928E-02 0.  1.
        1   -1    0    0  501    0  0.00000000000E+00  0.00000000000E+00 -0.10686110938E+04  0.10686110938E+04  0.50400001928E-02 0. -1.
    10030    2    1    2    0    0  0.00000000000E+00  0.00000000000E+00 -0.53775988270E+03  0.15994623050E+04  0.15063512119E+04 0.  0.
        2    1    3    3  502    0 -0.50773759828E+03  0.27283436570E+03 -0.78365356530E+03  0.97280469274E+03  0.25500000920E-02 0. -1.
       -2    1    3    3    0  502  0.50773759828E+03 -0.27283436570E+03  0.24589368260E+03  0.62665761222E+03  0.25500000920E-02 0.  1.
</event>
<event>
 5   0  0.6364378E-05  0.1499155E+04  0.7818609E-02  0.8885015E-01
       -1   -1    0    0    0  501  0.00000000000E+00  0.00000000000E+00  0.26278545677E+03  0.26278545682E+03  0.50400001928E-02 0.  1.
        1   -1    0    0  501    0  0.00000000000E+00  0.00000000000E+00 -0.21381179640E+04  0.21381179640E+04  0.50400001928E-02 0. -1.
    10030    2    1    2    0    0  0.00000000000E+00  0.00000000000E+00 -0.18753325072E+04  0.24009034208E+04  0.14991548364E+04 0.  0.
        5    1    3    3  502    0 -0.31766307718E+03  0.43606199579E+03 -0.17710402735E+04  0.18513955912E+04  0.46999998093E+01 0. -1.
       -5    1    3    3    0  502  0.31766307718E+03 -0.43606199579E+03 -0.10429223369E+03  0.54950782959E+03  0.46999998093E+01 0.  1.
</event>
<event>
 5   0  0.6364378E-05  0.1502459E+04  0.7818609E-02  0.8882819E-01
        1   -1    0    0  501    0  0.00000000000E+00  0.00000000000E+00  0.24598816908E+04  0.24598816908E+04  0.50400001928E-02 0.  1.
       -1   -1    0    0    0  501  0.00000000000E+00  0.00000000000E+00 -0.22941995861E+03  0.22941995867E+03  0.50400001928E-02 0. -1.
    10030    2    1    2    0    0  0.00000000000E+00  0.00000000000E+00  0.22304617322E+04  0.26893016495E+04  0.15024592584E+04 0.  0.
        5    1    3    3  502    0  0.56973957108E+03 -0.17443040582E+02  0.23941302707E+03  0.61826218229E+03  0.46999998093E+01 0. -1.
       -5    1    3    3    0  502 -0.56973957108E+03  0.17443040582E+02  0.19910487051E+04  0.20710394672E+04  0.46999998093E+01 0.  1.
</event>
<event>
 5   0  0.1228286E-04  0.1501486E+04  0.7818609E-02  0.8883465E-01
        2   -1    0    0  501    0  0.00000000000E+00  0.00000000000E+00  0.79368583398E+03  0.79368583398E+03  0.25500000920E-02 0. -1.
       -2   -1    0    0    0  501  0.00000000000E+00  0.00000000000E+00 -0.71012378318E+03  0.71012378319E+03  0.25500000920E-02 0.  1.
    10030    2    1    2    0    0  0.00000000000E+00  0.00000000000E+00  0.83562050798E+02  0.15038096172E+04  0.15014861799E+04 0.  0.
        2    1    3    3  502    0  0.19764535812E+03  0.40662174392E+03 -0.55848793006E+03  0.71854971870E+03  0.25500000920E-02 0.  1.
       -2    1    3    3    0  502 -0.19764535812E+03 -0.40662174392E+03  0.64204998086E+03  0.78525989847E+03  0.25500000920E-02 0. -1.
</event>
<event>
 5   0  0.1186664E-04  0.1505572E+04  0.7818609E-02  0.8880756E-01
        2   -1    0    0  501    0  0.00000000000E+00  0.00000000000E+00  0.19188885130E+04  0.19188885130E+04  0.25500000920E-02 0.  1.
       -2   -1    0    0    0  501  0.00000000000E+00  0.00000000000E+00 -0.29532038846E+03  0.29532038847E+03  0.25500000920E-02 0. -1.
    10030    2    1    2    0    0  0.00000000000E+00  0.00000000000E+00  0.16235681246E+04  0.22142089015E+04  0.15055721850E+04 0.  0.
        3    1    3    3  502    0 -0.16434602396E+03 -0.11022567179E+03  0.18799521362E+04  0.18903384244E+04  0.10100000352E+00 0.  1.
       -3    1    3    3    0  502  0.16434602396E+03  0.11022567179E+03 -0.25638401162E+03  0.32387047708E+03  0.10100000352E+00 0. -1.
</event>
<event>
 5   0  0.1219810E-04  0.1499682E+04  0.7818609E-02  0.8884665E-01
       -2   -1    0    0    0  501  0.00000000000E+00  0.00000000000E+00  0.29843855022E+03  0.29843855023E+03  0.25500000920E-02 0. -1.
        2   -1    0    0  501    0  0.00000000000E+00  0.00000000000E+00 -0.18840106173E+04  0.18840106173E+04  0.25500000920E-02 0.  1.
    10030    2    1    2    0    0  0.00000000000E+00  0.00000000000E+00 -0.15855720671E+04  0.21824491675E+04  0.14996818292E+04 0.  0.
        1    1    3    3  502    0  0.34648705057E+03  0.20220573996E+02  0.17450574063E+03  0.38847702811E+03  0.50400001928E-02 0. -1.
       -1    1    3    3    0  502 -0.34648705057E+03 -0.20220573996E+02 -0.17600778077E+04  0.17939721394E+04  0.50400001928E-02 0.  1.
</event>
<event>
 5   0  0.1228286E-04  0.1502548E+04  0.7818609E-02  0.8882760E-01
       -2   -1    0    0    0  501  0.00000000000E+00  0.00000000000E+00  0.97184780703E+03  0.97184780703E+03  0.25500000920E-02 0.  1.
        2   -1    0    0  501    0  0.00000000000E+00  0.00000000000E+00 -0.58076273196E+03  0.58076273196E+03  0.25500000920E-02 0. -1.
    10030    2    1    2    0    0  0.00000000000E+00  0.00000000000E+00  0.39108507507E+03  0.15526105390E+04  0.15025484850E+04 0.  0.
        2    1    3    3  502    0 -0.63574096208E+03 -0.39146680720E+03  0.28199709203E+03  0.79808219622E+03  0.25500000920E-02 0.  1.
       -2    1    3    3    0  502  0.63574096208E+03  0.39146680720E+03  0.10908798304E+03  0.75452834277E+03  0.25500000920E-02 0. -1.
</event>
<event>
 5   0  0.1186664E-04  0.1496821E+04  0.7818609E-02  0.8886570E-01
        2   -1    0    0  501    0  0.00000000000E+00  0.00000000000E+00  0.11571436663E+04  0.11571436663E+04  0.25500000920E-02 0. -1.
       -2   -1    0    0    0  501  0.00000000000E+00  0.00000000000E+00 -0.48405265847E+03  0.48405265847E+03  0.25500000920E-02 0.  1.
    10030    2    1    2    0    0  0.00000000000E+00  0.00000000000E+00  0.67309100779E+03  0.16411963247E+04  0.14968212557E+04 0.  0.
        3    1    3    3  502    0  0.43557632046E+03  0.11291468101E+03  0.99226010189E+03  0.10895212601E+04  0.10100000352E+00 0. -1.
       -3    1    3    3    0  502 -0.43557632046E+03 -0.11291468101E+03 -0.31916909410E+03  0.55167506466E+03  0.10100000352E+00 0.  1.
</event>
<event>
 5   0  0.6364378E-05  0.1499909E+04  0.7818609E-02  0.8884513E-01
       -1   -1    0    0    0  501  0.00000000000E+00  0.00000000000E+00  0.73893316655E+03  0.73893316656E+03  0.50400001928E-02 0. -1.
        1   -1    0    0  501    0  0.00000000000E+00  0.00000000000E+00 -0.76114064710E+03  0.76114064712E+03  0.50400001928E-02 0.  1.
    10030    2    1    2    0    0  0.00000000000E+00  0.00000000000E+00 -0.22207480554E+02  0.15000738137E+04  0.14999094220E+04 0.  0.
        5    1    3    3  502    0 -0.57829701338E+03  0.39590886172E+03 -0.27803881222E+03  0.75398868265E+03  0.46999998093E+01 0.  1.
       -5    1    3    3    0  502  0.57829701338E+03 -0.39590886172E+03  0.25583133167E+03  0.74608513102E+03  0.46999998093E+01 0. -1.
</event>
<event>
 5   0  0.1254487E-04  0.1501828E+04  0.7818609E-02  0.8883239E-01
        2   -1    0    0  501    0  0.00000000000E+00  0.00000000000E+00  0.36345205537E+03  0.36345205538E+03  0.25500000920E-02 0. -1.
       -2   -1    0    0    0  501  0.00000000000E+00  0.00000000000E+00 -0.15514329192E+04  0.15514329192E+04  0.25500000920E-02 0.  1.
    10030    2    1    2    0    0  0.00000000000E+00  0.00000000000E+00 -0.11879808638E+04  0.19148849746E+04  0.15018275310E+04 0.  0.
        5    1    3    3  502    0 -0.46468951633E+02 -0.29638784767E+03 -0.14716790132E+04  0.15019541696E+04  0.46999998093E+01 0.  1.
       -5    1    3    3    0  502  0.46468951633E+02  0.29638784767E+03  0.28369814939E+03  0.41293080495E+03  0.46999998093E+01 0. -1.
</event>
<event>
 5   0  0.6364378E-05  0.1499542E+04  0.7818609E-02  0.8884758E-01
       -1   -1    0    0    0  501  0.00000000000E+00  0.00000000000E+00  0.50369441065E+03  0.50369441067E+03  0.50400001928E-02 0.  1.
        1   -1    0    0  501    0  0.00000000000E+00  0.00000000000E+00 -0.11160662875E+04  0.11160662875E+04  0.50400001928E-02 0. -1.
    10030    2    1    2    0    0  0.00000000000E+00  0.00000000000E+00 -0.61237187687E+03  0.16197606982E+04  0.14995417313E+04 0.  0.
        5    1    3    3  502    0  0.62932616930E+03 -0.13499965809E+03  0.10916443528E+03  0.65285166690E+03  0.46999998093E+01 0.  1.
       -5    1    3    3    0  502 -0.62932616930E+03  0.13499965809E+03 -0.72153631216E+03  0.96690903130E+03  0.46999998093E+01 0. -1.
</event>
<event>
 5   0  0.6361716E-05  0.1523318E+04  0.7818609E-02  0.8869093E-01
        1   -1    0    0  501    0  0.00000000000E+00  0.00000000000E+00  0.11704500392E+04  0.11704500392E+04  0.50400001928E-02 0. -1.
       -1   -1    0    0    0  501  0.00000000000E+00  0.00000000000E+00 -0.49564250289E+03  0.49564250291E+03  0.50400001928E-02 0.  1.
    10030    2    1    2    0    0  0.00000000000E+00  0.00000000000E+00  0.67480753635E+03  0.16660925422E+04  0.15233184657E+04 0.  0.
        3    1    3    3  502    0  0.10842234400E+03  0.73128671905E+03  0.13695303902E+03  0.75185890647E+03  0.10100000352E+00 0. -1.
       -3    1    3    3    0  502 -0.10842234400E+03 -0.73128671905E+03  0.53785449733E+03  0.91423363569E+03  0.10100000352E+00 0.  1.
</event>
<event>
 5   0  0.1186664E-04  0.1475822E+04  0.7818609E-02  0.8900692E-01
       -2   -1    0    0    0  501  0.00000000000E+00  0.00000000000E+00  0.60621278690E+03  0.60621278691E+03  0.25500000920E-02 0.  1.
        2   -1    0    0  501    0  0.00000000000E+00  0.00000000000E+00 -0.89822059470E+03  0.89822059470E+03  0.25500000920E-02 0. -1.
    10030    2    1    2    0    0  0.00000000000E+00  0.00000000000E+00 -0.29200780779E+03  0.15044333816E+04  0.14758222250E+04 0.  0.
        3    1    3    3  502    0  0.92882825965E+02 -0.18181126301E+03 -0.86885627725E+03  0.89252103361E+03  0.10100000352E+00 0. -1.
       -3    1    3    3    0  502 -0.92882825965E+02  0.18181126301E+03  0.57684846946E+03  0.61191234800E+03  0.10100000352E+00 0.  1.
</event>
<event>
 5   0  0.6668433E-05  0.1494784E+04  0.7818609E-02  0.8887929E-01
        1   -1    0    0  501    0  0.00000000000E+00  0.00000000000E+00  0.19283105424E+04  0.19283105424E+04  0.50400001928E-02 0.  1.
       -1   -1    0    0    0  501  0.00000000000E+00  0.00000000000E+00 -0.28968091664E+03  0.28968091669E+03  0.50400001928E-02 0. -1.
    10030    2    1    2    0    0  0.00000000000E+00  0.00000000000E+00  0.16386296257E+04  0.22179914590E+04  0.14947839517E+04 0.  0.
        1    1    3    3  502    0  0.46837192376E+03  0.58205938295E+03  0.78856779607E+03  0.10862801449E+04  0.50400001928E-02 0. -1.
       -1    1    3    3    0  502 -0.46837192376E+03 -0.58205938295E+03  0.85006182964E+03  0.11317113141E+04  0.50400001928E-02 0.  1.
</event>
<event>
 5   0  0.6361716E-05  0.1499624E+04  0.7818609E-02  0.8884703E-01
        1   -1    0    0  501    0  0.00000000000E+00  0.00000000000E+00  0.75492883829E+03  0.75492883831E+03  0.50400001928E-02 0.  1.
       -1   -1    0    0    0  501  0.00000000000E+00  0.00000000000E+00 -0.74472974822E+03  0.74472974824E+03  0.50400001928E-02 0. -1.
    10030    2    1    2    0    0  0.00000000000E+00  0.00000000000E+00  0.10199090069E+02  0.14996585865E+04  0.14996239044E+04 0.  0.
        3    1    3    3  502    0 -0.71355589030E+03  0.44215729755E+02 -0.22096079606E+03  0.74829187015E+03  0.10100000352E+00 0. -1.
       -3    1    3    3    0  502  0.71355589030E+03 -0.44215729755E+02  0.23115988613E+03  0.75136671639E+03  0.10100000352E+00 0.  1.
</event>
<event>
 5   0  0.6542036E-05  0.1507747E+04  0.7818609E-02  0.8879317E-01
       -1   -1    0    0    0  501  0.00000000000E+00  0.00000000000E+00  0.10779642208E+04  0.10779642208E+04  0.50400001928E-02 0.  1.
        1   -1    0    0  501    0  0.00000000000E+00  0.00000000000E+00 -0.52722112340E+03  0.52722112343E+03  0.50400001928E-02 0. -1.
    10030    2    1    2    0    0  0.00000000000E+00  0.00000000000E+00  0.55074309742E+03  0.16051853443E+04  0.15077473363E+04 0.  0.
        4    1    3    3  502    0 -0.26169826616E+02  0.14256463466E+02  0.10773357412E+04  0.10777485879E+04  0.12699999809E+01 0.  1.
       -4    1    3    3    0  502  0.26169826616E+02 -0.14256463466E+02 -0.52659264378E+03  0.52743675636E+03  0.12699999809E+01 0. -1.
</event>
<event>
 5   0  0.6364378E-05  0.1498190E+04  0.7818609E-02  0.8885657E-01
       -1   -1    0    0    0  501  0.00000000000E+00  0.00000000000E+00  0.81324480309E+03  0.81324480311E+03  0.50400001928E-02 0. -1.
        1   -1    0    0  501    0  0.00000000000E+00  0.00000000000E+00 -0.69000551485E+03  0.69000551486E+03  0.50400001928E-02 0.  1.
    10030    2    1    2    0    0  0.00000000000E+00  0.00000000000E+00  0.12323928825E+03  0.15032503180E+04  0.14981901069E+04 0.  0.
        5    1    3    3  502    0  0.19125582684E+03  0.15324373045E+03 -0.64862629573E+03  0.69339786107E+03  0.46999998093E+01 0.  1.
       -5    1    3    3    0  502 -0.19125582684E+03 -0.15324373045E+03  0.77186558398E+03  0.80985245690E+03  0.46999998093E+01 0. -1.
</event>
<event>
 5   0  0.1216921E-04  0.1501038E+04  0.7818609E-02  0.8883763E-01
       -2   -1    0    0    0  501  0.00000000000E+00  0.00000000000E+00  0.58757999225E+03  0.58757999225E+03  0.25500000920E-02 0. -1.
        2   -1    0    0  501    0  0.00000000000E+00  0.00000000000E+00 -0.95864160669E+03  0.95864160669E+03  0.25500000920E-02 0.  1.
    10030    2    1    2    0    0  0.00000000000E+00  0.00000000000E+00 -0.37106161444E+03  0.15462215989E+04  0.15010378114E+04 0.  0.
        4    1    3    3  502    0 -0.16810433937E+02  0.74219732753E+03 -0.72043931118E+02  0.74587626628E+03  0.12699999809E+01 0. -1.
       -4    1    3    3    0  502  0.16810433937E+02 -0.74219732753E+03 -0.29901768332E+03  0.80034533267E+03  0.12699999809E+01 0.  1.
</event>
<event>
 5   0  0.1219810E-04  0.1496174E+04  0.7818609E-02  0.8887001E-01
        2   -1    0    0  501    0  0.00000000000E+00  0.00000000000E+00  0.14260377835E+04  0.14260377835E+04  0.25500000920E-02 0. -1.
       -2   -1    0    0    0  501  0.00000000000E+00  0.00000000000E+00 -0.39244011342E+03  0.39244011343E+03  0.25500000920E-02 0.  1.
    10030    2    1    2    0    0  0.00000000000E+00  0.00000000000E+00  0.10335976701E+04  0.18184778969E+04  0.14961743608E+04 0.  0.
        1    1    3    3  502    0 -0.18602794107E+03 -0.62096263006E+03  0.62952011709E+02  0.65127869502E+03  0.50400001928E-02 0.  1.
       -1    1    3    3    0  502  0.18602794107E+03  0.62096263006E+03  0.97064565835E+03  0.11671992019E+04  0.50400001928E-02 0. -1.
</event>
<event>
 5   0  0.6542036E-05  0.1499667E+04  0.7818609E-02  0.8884675E-01
        1   -1    0    0  501    0  0.00000000000E+00  0.00000000000E+00  0.57269882719E+03  0.57269882721E+03  0.50400001928E-02 0.  1.
       -1   -1    0    0    0  501  0.00000000000E+00  0.00000000000E+00 -0.98175500655E+03  0.98175500657E+03  0.50400001928E-02 0. -1.
    10030    2    1    2    0    0  0.00000000000E+00  0.00000000000E+00 -0.40905617936E+03  0.15544538338E+04  0.14996665508E+04 0.  0.
        4    1    3    3  502    0  0.21136832820E+03 -0.19405664963E+03  0.51353851787E+03  0.58826692552E+03  0.12699999809E+01 0.  1.
       -4    1    3    3    0  502 -0.21136832820E+03  0.19405664963E+03 -0.92259469723E+03  0.96618690826E+03  0.12699999809E+01 0. -1.
</event>
<event>
 5   0  0.1228286E-04  0.1493811E+04  0.7818609E-02  0.8888579E-01
        2   -1    0    0  501    0  0.00000000000E+00  0.00000000000E+00  0.11393868677E+04  0.11393868677E+04  0.25500000920E-02 0.  1.
       -2   -1    0    0    0  501  0.00000000000E+00  0.00000000000E+00 -0.48962124335E+03  0.48962124335E+03  0.25500000920E-02 0. -1.
    10030    2    1    2    0    0  0.00000000000E+00  0.00000000000E+00  0.64976562438E+03  0.16290081111E+04  0.14938112529E+04 0.  0.
        2    1    3    3  502    0 -0.24596530851E+03 -0.59366206540E+03 -0.90275090606E+02  0.64890921774E+03  0.25500000920E-02 0. -1.
       -2    1    3    3    0  502  0.24596530851E+03  0.59366206540E+03  0.74004071498E+03  0.98009889334E+03  0.25500000920E-02 0.  1.
</event>
<event>
 5   0  0.6364378E-05  0.1522199E+04  0.7818609E-02  0.8869824E-01
        1   -1    0    0  501    0  0.00000000000E+00  0.00000000000E+00  0.12602778004E+04  0.12602778004E+04  0.50400001928E-02 0. -1.
       -1   -1    0    0    0  501  0.00000000000E+00  0.00000000000E+00 -0.45963860728E+03  0.45963860731E+03  0.50400001928E-02 0.  1.
    10030    2    1    2    0    0  0.00000000000E+00  0.00000000000E+00  0.80063919315E+03  0.17199164077E+04  0.15221988477E+04 0.  0.
        5    1    3    3  502    0 -0.28316105001E+02 -0.64953958615E+03 -0.46732362717E+02  0.65185081077E+03  0.46999998093E+01 0.  1.
       -5    1    3    3    0  502  0.28316105001E+02  0.64953958615E+03  0.84737155586E+03  0.10680655970E+04  0.46999998093E+01 0. -1.
</event>
<event>
 5   0  0.1228286E-04  0.1500429E+04  0.7818609E-02  0.8884168E-01
        2   -1    0    0  501    0  0.00000000000E+00  0.00000000000E+00  0.12132628421E+04  0.12132628421E+04  0.25500000920E-02 0.  1.
       -2   -1    0    0    0  501  0.00000000000E+00  0.00000000000E+00 -0.46389094748E+03  0.46389094749E+03  0.25500000920E-02 0. -1.
    10030    2    1    2    0    0  0.00000000000E+00  0.00000000000E+00  0.74937189459E+03  0.16771537896E+04  0.15004288045E+04 0.  0.
        2    1    3    3  502    0  0.99836549349E+02  0.42397145780E+03  0.10574514715E+04  0.11436445025E+04  0.25500000920E-02 0.  1.
       -2    1    3    3    0  502 -0.99836549349E+02 -0.42397145780E+03 -0.30807957691E+03  0.53350928701E+03  0.25500000920E-02 0. -1.
</event>
<event>
 5   0  0.6542036E-05  0.1499309E+04  0.7818609E-02  0.8884913E-01
       -1   -1    0    0    0  501  0.00000000000E+00  0.00000000000E+00  0.52152060340E+03  0.52152060342E+03  0.50400001928E-02 0. -1.
        1   -1    0    0  501    0  0.00000000000E+00  0.00000000000E+00 -0.10775825852E+04  0.10775825852E+04  0.50400001928E-02 0.  1.
    10030    2    1    2    0    0  0.00000000000E+00  0.00000000000E+00 -0.55606198181E+03  0.15991031886E+04  0.14993085341E+04 0.  0.
        4    1    3    3  502    0 -0.53236284960E+03 -0.36840027612E+03  0.12508221675E+03  0.65937556895E+03  0.12699999809E+01 0. -1.
       -4    1    3    3    0  502  0.53236284960E+03  0.36840027612E+03 -0.68114419856E+03  0.93972761969E+03  0.12699999809E+01 0.  1.
</event>
<event>
 5   0  0.6542036E-05  0.1498294E+04  0.7818609E-02  0.8885588E-01
        1   -1    0    0  501    0  0.00000000000E+00  0.00000000000E+00  0.96292877875E+03  0.96292877876E+03  0.50400001928E-02 0.  1.
       -1   -1    0    0    0  501  0.00000000000E+00  0.00000000000E+00 -0.58282759473E+03  0.58282759475E+03  0.50400001928E-02 0. -1.
    10030    2    1    2    0    0  0.00000000000E+00  0.00000000000E+00  0.38010118402E+03  0.15457563735E+04  0.14982943156E+04 0.  0.
        4    1    3    3  502    0 -0.27482276470E+03  0.73094647532E+02 -0.52497662412E+03  0.59705313689E+03  0.12699999809E+01 0. -1.
       -4    1    3    3    0  502  0.27482276470E+03 -0.73094647532E+02  0.90507780814E+03  0.94870323662E+03  0.12699999809E+01 0.  1.
</event>
<event>
 5   0  0.6542036E-05  0.1497973E+04  0.7818609E-02  0.8885802E-01
       -1   -1    0    0    0  501  0.00000000000E+00  0.00000000000E+00  0.78878859160E+03  0.78878859162E+03  0.50400001928E-02 0. -1.
        1   -1    0    0  501    0  0.00000000000E+00  0.00000000000E+00 -0.71119310766E+03  0.71119310768E+03  0.50400001928E-02 0.  1.
    10030    2    1    2    0    0  0.00000000000E+00  0.00000000000E+00  0.77595483943E+02  0.14999816993E+04  0.14979733105E+04 0.  0.
        4    1    3    3  502    0  0.66387626971E+02  0.69218480706E+03 -0.23987787279E+03  0.73557469430E+03  0.12699999809E+01 0.  1.
       -4    1    3    3    0  502 -0.66387626971E+02 -0.69218480706E+03  0.31747335673E+03  0.76440700499E+03  0.12699999809E+01 0. -1.
</event>
<event>
 5   0  0.1216921E-04  0.1502706E+04  0.7818609E-02  0.8882655E-01
       -2   -1    0    0    0  501  0.00000000000E+00  0.00000000000E+00  0.50151915415E+03  0.50151915416E+03  0.25500000920E-02 0.  1.
        2   -1    0    0  501    0  0.00000000000E+00  0.00000000000E+00 -0.11256425944E+04  0.11256425944E+04  0.25500000920E-02 0. -1.
    10030    2    1    2    0    0  0.00000000000E+00  0.00000000000E+00 -0.62412344027E+03  0.16271617486E+04  0.15027059883E+04 0.  0.
        4    1    3    3  502    0  0.56322474726E+03 -0.33425441532E+03 -0.71077165072E+03  0.96651232918E+03  0.12699999809E+01 0.  1.
       -4    1    3    3    0  502 -0.56322474726E+03  0.33425441532E+03  0.86648210446E+02  0.66064941941E+03  0.12699999809E+01 0. -1.
</event>
<event>
 5   0  0.4462875E-05  0.1499693E+04  0.7818609E-02  0.8884657E-01
        3   -1    0    0  501    0  0.00000000000E+00  0.00000000000E+00  0.66837791364E+03  0.66837792128E+03  0.10100000352E+00 0.  1.
       -3   -1    0    0    0  501  0.00000000000E+00  0.00000000000E+00 -0.84124571487E+03  0.84124572093E+03  0.10100000352E+00 0. -1.
    10030    2    1    2    0    0  0.00000000000E+00  0.00000000000E+00 -0.17286780122E+03  0.15096236422E+04  0.14996933901E+04 0.  0.
        1    1    3    3  502    0  0.35429346828E+03  0.40125726958E+03 -0.61501929444E+03  0.81534041395E+03  0.50400001928E-02 0. -1.
       -1    1    3    3    0  502 -0.35429346828E+03 -0.40125726958E+03  0.44215149322E+03  0.69428322826E+03  0.50400001928E-02 0.  1.
</event>
<event>
 5   0  0.1254487E-04  0.1501270E+04  0.7818609E-02  0.8883609E-01
        2   -1    0    0  501    0  0.00000000000E+00  0.00000000000E+00  0.18601231169E+04  0.18601231169E+04  0.25500000920E-02 0.  1.
       -2   -1    0    0    0  501  0.00000000000E+00  0.00000000000E+00 -0.30291143286E+03  0.30291143287E+03  0.25500000920E-02 0. -1.
    10030    2    1    2    0    0  0.00000000000E+00  0.00000000000E+00  0.15572116841E+04  0.21630345498E+04  0.15012695410E+04 0.  0.
        5    1    3    3  502    0 -0.40642220018E+03 -0.28706402552E+03 -0.31127968471E+02  0.49857376583E+03  0.46999998093E+01 0. -1.
       -5    1    3    3    0  502  0.40642220018E+03  0.28706402552E+03  0.15883396525E+04  0.16644607840E+04  0.46999998093E+01 0.  1.
</event>
<event>
 5   0  0.1254487E-04  0.1499650E+04  0.7818609E-02  0.8884686E-01
        2   -1    0    0  501    0  0.00000000000E+00  0.00000000000E+00  0.42223002477E+03  0.42223002478E+03  0.25500000920E-02 0.  1.
       -2   -1    0    0    0  501  0.00000000000E+00  0.00000000000E+00 -0.13315903987E+04  0.13315903987E+04  0.25500000920E-02 0. -1.
    10030    2    1    2    0    0  0.00000000000E+00  0.00000000000E+00 -0.90936037392E+03  0.17538204235E+04  0.14996498885E+04 0.  0.
        5    1    3    3  502    0  0.51746571597E+03  0.26385449458E+03  0.99840722282E+02  0.58938970243E+03  0.46999998093E+01 0.  1.
       -5    1    3    3    0  502 -0.51746571597E+03 -0.26385449458E+03 -0.10092010962E+04  0.11644307210E+04  0.46999998093E+01 0. -1.
</event>
<event>
 5   0  0.1216921E-04  0.1500708E+04  0.7818609E-02  0.8883982E-01
       -2   -1    0    0    0  501  0.00000000000E+00  0.00000000000E+00  0.36120585621E+03  0.36120585622E+03  0.25500000920E-02 0.  1.
        2   -1    0    0  501    0  0.00000000000E+00  0.00000000000E+00 -0.15587540959E+04  0.15587540959E+04  0.25500000920E-02 0. -1.
    10030    2    1    2    0    0  0.00000000000E+00  0.00000000000E+00 -0.11975482397E+04  0.19199599521E+04  0.15007079767E+04 0.  0.
        4    1    3    3  502    0  0.41068498106E+03 -0.23071125437E+03  0.14846927378E+03  0.49389733217E+03  0.12699999809E+01 0.  1.
       -4    1    3    3    0  502 -0.41068498106E+03  0.23071125437E+03 -0.13460175135E+04  0.14260626200E+04  0.12699999809E+01 0. -1.
</event>
<event>
 5   0  0.6542036E-05  0.1497475E+04  0.7818609E-02  0.8886134E-01
        1   -1    0    0  501    0  0.00000000000E+00  0.00000000000E+00  0.33925643018E+03  0.33925643021E+03  0.50400001928E-02 0. -1.
       -1   -1    0    0    0  501  0.00000000000E+00  0.00000000000E+00 -0.16524606934E+04  0.16524606934E+04  0.50400001928E-02 0.  1.
    10030    2    1    2    0    0  0.00000000000E+00  0.00000000000E+00 -0.13132042632E+04  0.19917171236E+04  0.14974750961E+04 0.  0.
        4    1    3    3  502    0 -0.67978116179E+02  0.38252309053E+03 -0.15078980516E+04  0.15571458140E+04  0.12699999809E+01 0.  1.
       -4    1    3    3    0  502  0.67978116179E+02 -0.38252309053E+03  0.19469378835E+03  0.43457130967E+03  0.12699999809E+01 0. -1.
</event>
<event>
 5   0  0.6509279E-05  0.1504882E+04  0.7818609E-02  0.8881213E-01
       -1   -1    0    0    0  501  0.00000000000E+00  0.00000000000E+00  0.13123310754E+04  0.13123310754E+04  0.50400001928E-02 0.  1.
        1   -1    0    0  501    0  0.00000000000E+00  0.00000000000E+00 -0.43142127327E+03  0.43142127330E+03  0.50400001928E-02 0. -1.
    10030    2    1    2    0    0  0.00000000000E+00  0.00000000000E+00  0.88090980208E+03  0.17437523487E+04  0.15048821130E+04 0.  0.
        2    1    3    3  502    0  0.19705400268E+03  0.62097658335E+03  0.42343831423E+01  0.65150604529E+03  0.25500000920E-02 0. -1.
       -2    1    3    3    0  502 -0.19705400268E+03 -0.62097658335E+03  0.87667541894E+03  0.10922463034E+04  0.25500000920E-02 0.  1.
</event>
<event>
 5   0  0.1228286E-04  0.1497218E+04  0.7818609E-02  0.8886305E-01
        2   -1    0    0  501    0  0.00000000000E+00  0.00000000000E+00  0.62569362450E+03  0.62569362450E+03  0.25500000920E-02 0.  1.
       -2   -1    0    0    0  501  0.00000000000E+00  0.00000000000E+00 -0.89567040601E+03  0.89567040601E+03  0.25500000920E-02 0. -1.
    10030    2    1    2    0    0  0.00000000000E+00  0.00000000000E+00 -0.26997678151E+03  0.15213640305E+04  0.14972177700E+04 0.  0.
        2    1    3    3  502    0 -0.54387127147E+03 -0.34588688832E+03 -0.52189358495E+03  0.82934107186E+03  0.25500000920E-02 0. -1.
       -2    1    3    3    0  502  0.54387127147E+03  0.34588688832E+03  0.25191680345E+03  0.69202295866E+03  0.25500000920E-02 0.  1.
</event>
<event>
 5   0  0.6509279E-05  0.1500610E+04  0.7818609E-02  0.8884047E-01
        1   -1    0    0  501    0  0.00000000000E+00  0.00000000000E+00  0.10649490989E+04  0.10649490989E+04  0.50400001928E-02 0.  1.
       -1   -1    0    0    0  501  0.00000000000E+00  0.00000000000E+00 -0.52862395955E+03  0.52862395958E+03  0.50400001928E-02 0. -1.
    10030    2    1    2    0    0  0.00000000000E+00  0.00000000000E+00  0.53632513934E+03  0.15935730585E+04  0.15006100218E+04 0.  0.
        2    1    3    3  502    0 -0.45210789861E+03  0.38621039174E+03  0.75411076821E+03  0.96033487358E+03  0.25500000920E-02 0.  1.
       -2    1    3    3    0  502  0.45210789861E+03 -0.38621039174E+03 -0.21778562887E+03  0.63323818490E+03  0.25500000920E-02 0. -1.
</event>
<event>
 5   0  0.1186664E-04  0.1455384E+04  0.7818609E-02  0.8914676E-01
       -2   -1    0    0    0  501  0.00000000000E+00  0.00000000000E+00  0.33866492277E+03  0.33866492278E+03  0.25500000920E-02 0.  1.
        2   -1    0    0  501    0  0.00000000000E+00  0.00000000000E+00 -0.15635972562E+04  0.15635972562E+04  0.25500000920E-02 0. -1.
    10030    2    1    2    0    0  0.00000000000E+00  0.00000000000E+00 -0.12249323334E+04  0.19022621790E+04  0.14553838587E+04 0.  0.
        3    1    3    3  502    0 -0.53603324079E+03 -0.60960448295E+02  0.25835285179E+02  0.54010673357E+03  0.10100000352E+00 0.  1.
       -3    1    3    3    0  502  0.53603324079E+03  0.60960448295E+02 -0.12507676186E+04  0.13621554454E+04  0.10100000352E+00 0. -1.
</event>
<event>
 5   0  0.1254487E-04  0.1498941E+04  0.7818609E-02  0.8885157E-01
        2   -1    0    0  501    0  0.00000000000E+00  0.00000000000E+00  0.95828363588E+03  0.95828363588E+03  0.25500000920E-02 0. -1.
       -2   -1    0    0    0  501  0.00000000000E+00  0.00000000000E+00 -0.58615846333E+03  0.58615846333E+03  0.25500000920E-02 0.  1.
    10030    2    1    2    0    0  0.00000000000E+00  0.00000000000E+00  0.37212517255E+03  0.15444420992E+04  0.14989410441E+04 0.  0.
        5    1    3    3  502    0 -0.74512881039E+03 -0.70132856776E+02  0.22660693338E+03  0.78198999606E+03  0.46999998093E+01 0.  1.
       -5    1    3    3    0  502  0.74512881039E+03  0.70132856776E+02  0.14551823917E+03  0.76245210316E+03  0.46999998093E+01 0. -1.
</event>
<event>
 5   0  0.6364378E-05  0.1498823E+04  0.7818609E-02  0.8885236E-01
        1   -1    0    0  501    0  0.00000000000E+00  0.00000000000E+00  0.69405472234E+03  0.69405472236E+03  0.50400001928E-02 0.  1.
       -1   -1    0    0    0  501  0.00000000000E+00  0.00000000000E+00 -0.80918300418E+03  0.80918300419E+03  0.50400001928E-02 0. -1.
    10030    2    1    2    0    0  0.00000000000E+00  0.00000000000E+00 -0.11512828184E+03  0.15032377266E+04  0.14988225850E+04 0.  0.
        5    1    3    3  502    0  0.16763461233E+03  0.21868648385E+03 -0.75651734647E+03  0.80514950598E+03  0.46999998093E+01 0. -1.
       -5    1    3    3    0  502 -0.16763461233E+03 -0.21868648385E+03  0.64138906463E+03  0.69808822057E+03  0.46999998093E+01 0.  1.
</event>
<event>
 5   0  0.6361716E-05  0.1498813E+04  0.7818609E-02  0.8885242E-01
        1   -1    0    0  501    0  0.00000000000E+00  0.00000000000E+00  0.46290692043E+03  0.46290692046E+03  0.50400001928E-02 0. -1.
       -1   -1    0    0    0  501  0.00000000000E+00  0.00000000000E+00 -0.12132253589E+04  0.12132253589E+04  0.50400001928E-02 0.  1.
    10030    2    1    2    0    0  0.00000000000E+00  0.00000000000E+00 -0.75031843849E+03  0.16761322794E+04  0.14988134170E+04 0.  0.
        3    1    3    3  502    0 -0.55110147015E+03  0.24307909117E+03  0.12347258073E+03  0.61485426188E+03  0.10100000352E+00 0. -1.
       -3    1    3    3    0  502  0.55110147015E+03 -0.24307909117E+03 -0.87379101923E+03  0.10612780175E+04  0.10100000352E+00 0.  1.
</event>
<event>
 5   0  0.1186664E-04  0.1494863E+04  0.7818609E-02  0.8887876E-01
        2   -1    0    0  501    0  0.00000000000E+00  0.00000000000E+00  0.68203020308E+03  0.68203020309E+03  0.25500000920E-02 0.  1.
       -2   -1    0    0    0  501  0.00000000000E+00  0.00000000000E+00 -0.81910376213E+03  0.81910376213E+03  0.25500000920E-02 0. -1.
    10030    2    1    2    0    0  0.00000000000E+00  0.00000000000E+00 -0.13707355904E+03  0.15011339652E+04  0.14948625425E+04 0.  0.
        3    1    3    3  502    0 -0.33865914827E+02  0.34823202803E+03  0.59471963161E+03  0.69000282315E+03  0.10100000352E+00 0.  1.
       -3    1    3    3    0  502  0.33865914827E+02 -0.34823202803E+03 -0.73179319066E+03  0.81113114206E+03  0.10100000352E+00 0. -1.
</event>
<event>
 5   0  0.1219810E-04  0.1499295E+04  0.7818609E-02  0.8884922E-01
        2   -1    0    0  501    0  0.00000000000E+00  0.00000000000E+00  0.50707183882E+03  0.50707183883E+03  0.25500000920E-02 0. -1.
       -2   -1    0    0    0  501  0.00000000000E+00  0.00000000000E+00 -0.11082672183E+04  0.11082672183E+04  0.25500000920E-02 0.  1.
    10030    2    1    2    0    0  0.00000000000E+00  0.00000000000E+00 -0.60119537947E+03  0.16153390571E+04  0.14992946292E+04 0.  0.
        1    1    3    3  502    0 -0.73601944970E+03 -0.12436826857E+03 -0.37507864028E+03  0.83538977908E+03  0.50400001928E-02 0.  1.
       -1    1    3    3    0  502  0.73601944970E+03  0.12436826857E+03 -0.22611673919E+03  0.77994927805E+03  0.50400001928E-02 0. -1.
</event>
<event>
 5   0  0.1219810E-04  0.1481656E+04  0.7818609E-02  0.8896744E-01
        2   -1    0    0  501    0  0.00000000000E+00  0.00000000000E+00  0.52785076810E+03  0.52785076811E+03  0.25500000920E-02 0. -1.
       -2   -1    0    0    0  501  0.00000000000E+00  0.00000000000E+00 -0.10397374912E+04  0.10397374912E+04  0.25500000920E-02 0.  1.
    10030    2    1    2    0    0  0.00000000000E+00  0.00000000000E+00 -0.51188672306E+03  0.15675882593E+04  0.14816561455E+04 0.  0.
        1    1    3    3  502    0  0.51721662063E+03  0.28203777259E+03 -0.73118075748E+03  0.93898010519E+03  0.50400001928E-02 0. -1.
       -1    1    3    3    0  502 -0.51721662063E+03 -0.28203777259E+03  0.21929403442E+03  0.62860815408E+03  0.50400001928E-02 0.  1.
</event>
<event>
 5   0  0.1228286E-04  0.1498820E+04  0.7818609E-02  0.8885238E-01
       -2   -1    0    0    0  501  0.00000000000E+00  0.00000000000E+00  0.55571599858E+03  0.55571599859E+03  0.25500000920E-02 0. -1.
        2   -1    0    0  501    0  0.00000000000E+00  0.00000000000E+00 -0.10106158330E+04  0.10106158330E+04  0.25500000920E-02 0.  1.
    10030    2    1    2    0    0  0.00000000000E+00  0.00000000000E+00 -0.45489983445E+03  0.15663318316E+04  0.14988200517E+04 0.  0.
        2    1    3    3  502    0  0.30017634852E+03  0.50477901449E+03  0.25903731178E+03  0.64187851076E+03  0.25500000920E-02 0. -1.
       -2    1    3    3    0  502 -0.30017634852E+03 -0.50477901449E+03 -0.71393714624E+03  0.92445332087E+03  0.25500000920E-02 0.  1.
</event>
<event>
 5   0  0.6668433E-05  0.1501428E+04  0.7818609E-02  0.8883504E-01
       -1   -1    0    0    0  501  0.00000000000E+00  0.00000000000E+00  0.15759113238E+04  0.15759113239E+04  0.50400001928E-02 0.  1.
        1   -1    0    0  501    0  0.00000000000E+00  0.00000000000E+00 -0.35761639047E+03  0.35761639050E+03  0.50400001928E-02 0. -1.
    10030    2    1    2    0    0  0.00000000000E+00  0.00000000000E+00  0.12182949334E+04  0.19335277144E+04  0.15014282792E+04 0.  0.
        1    1    3    3  502    0  0.37558014081E+03  0.19902965928E+03 -0.18772280747E+03  0.46466450254E+03  0.50400001928E-02 0. -1.
       -1    1    3    3    0  502 -0.37558014081E+03 -0.19902965928E+03  0.14060177408E+04  0.14688632118E+04  0.50400001928E-02 0.  1.
</event>
<event>
 5   0  0.1219810E-04  0.1501192E+04  0.7818609E-02  0.8883661E-01
       -2   -1    0    0    0  501  0.00000000000E+00  0.00000000000E+00  0.44560471912E+03  0.44560471913E+03  0.25500000920E-02 0. -1.
        2   -1    0    0  501    0  0.00000000000E+00  0.00000000000E+00 -0.12643360933E+04  0.12643360933E+04  0.25500000920E-02 0.  1.
    10030    2    1    2    0    0  0.00000000000E+00  0.00000000000E+00 -0.81873137414E+03  0.17099408124E+04  0.15011916996E+04 0.  0.
        1    1    3    3  502    0 -0.13096609718E+03 -0.58046068060E+03  0.11175369329E+03  0.60545487719E+03  0.50400001928E-02 0. -1.
       -1    1    3    3    0  502  0.13096609718E+03  0.58046068060E+03 -0.93048506742E+03  0.11044859352E+04  0.50400001928E-02 0.  1.
</event>
<event>
 5   0  0.1216921E-04  0.1501990E+04  0.7818609E-02  0.8883130E-01
       -2   -1    0    0    0  501  0.00000000000E+00  0.00000000000E+00  0.42444049696E+03  0.42444049696E+03  0.25500000920E-02 0.  1.
        2   -1    0    0  501    0  0.00000000000E+00  0.00000000000E+00 -0.13287935690E+04  0.13287935690E+04  0.25500000920E-02 0. -1.
    10030    2    1    2    0    0  0.00000000000E+00  0.00000000000E+00 -0.90435307209E+03  0.17532340660E+04  0.15019904165E+04 0.  0.
        4    1    3    3  502    0  0.88686636329E+02 -0.38222832790E+03 -0.11996223180E+04  0.12621644634E+04  0.12699999809E+01 0. -1.
       -4    1    3    3    0  502 -0.88686636329E+02  0.38222832790E+03  0.29526924587E+03  0.49106960257E+03  0.12699999809E+01 0.  1.
</event>
<event>
 5   0  0.1186664E-04  0.1497762E+04  0.7818609E-02  0.8885943E-01
        2   -1    0    0  501    0  0.00000000000E+00  0.00000000000E+00  0.14095637014E+04  0.14095637014E+04  0.25500000920E-02 0. -1.
       -2   -1    0    0    0  501  0.00000000000E+00  0.00000000000E+00 -0.39786950504E+03  0.39786950505E+03  0.25500000920E-02 0.  1.
    10030    2    1    2    0    0  0.00000000000E+00  0.00000000000E+00  0.10116941964E+04  0.18074332065E+04  0.14977615460E+04 0.  0.
        3    1    3    3  502    0 -0.19241895741E+03  0.21940105215E+03 -0.32643036788E+03  0.43785690828E+03  0.10100000352E+00 0.  1.
       -3    1    3    3    0  502  0.19241895741E+03 -0.21940105215E+03  0.13381245642E+04  0.13695762982E+04  0.10100000352E+00 0. -1.
</event>
<event>
 5   0  0.6364378E-05  0.1538646E+04  0.7818609E-02  0.8859153E-01
        1   -1    0    0  501    0  0.00000000000E+00  0.00000000000E+00  0.85525825033E+03  0.85525825035E+03  0.50400001928E-02 0. -1.
       -1   -1    0    0    0  501  0.00000000000E+00  0.00000000000E+00 -0.69202272461E+03  0.69202272462E+03  0.50400001928E-02 0.  1.
    10030    2    1    2    0    0  0.00000000000E+00  0.00000000000E+00  0.16323552573E+03  0.15472809750E+04  0.15386463462E+04 0.  0.
        5    1    3    3  502    0 -0.13111318276E+03  0.39414678733E+03 -0.56954497904E+03  0.70494391962E+03  0.46999998093E+01 0.  1.
       -5    1    3    3    0  502  0.13111318276E+03 -0.39414678733E+03  0.73278050477E+03  0.84233705535E+03  0.46999998093E+01 0. -1.
</event>
<event>
 5   0  0.6509279E-05  0.1499456E+04  0.7818609E-02  0.8884814E-01
        1   -1    0    0  501    0  0.00000000000E+00  0.00000000000E+00  0.81382342752E+03  0.81382342753E+03  0.50400001928E-02 0. -1.
       -1   -1    0    0    0  501  0.00000000000E+00  0.00000000000E+00 -0.69068106778E+03  0.69068106780E+03  0.50400001928E-02 0.  1.
    10030    2    1    2    0    0  0.00000000000E+00  0.00000000000E+00  0.12314235973E+03  0.15045044953E+04  0.14994564801E+04 0.  0.
        2    1    3    3  502    0 -0.33731316788E+03 -0.81214698251E+02  0.72842616598E+03  0.80683373735E+03  0.25500000920E-02 0. -1.
       -2    1    3    3    0  502  0.33731316788E+03  0.81214698251E+02 -0.60528380624E+03  0.69767075799E+03  0.25500000920E-02 0.  1.
</event>
<event>
 5   0  0.1219810E-04  0.1500204E+04  0.7818609E-02  0.8884317E-01
       -2   -1    0    0    0  501  0.00000000000E+00  0.00000000000E+00  0.82583231466E+03  0.82583231467E+03  0.25500000920E-02 0. -1.
        2   -1    0    0  501    0  0.00000000000E+00  0.00000000000E+00 -0.68131614904E+03  0.68131614905E+03  0.25500000920E-02 0.  1.
    10030    2    1    2    0    0  0.00000000000E+00  0.00000000000E+00  0.14451616562E+03  0.15071484637E+04  0.15002038427E+04 0.  0.
        1    1    3    3  502    0  0.61972378972E+02  0.38901644291E+03 -0.56903731564E+03  0.69208224600E+03  0.50400001928E-02 0.  1.
       -1    1    3    3    0  502 -0.61972378972E+02 -0.38901644291E+03  0.71355348126E+03  0.81506621772E+03  0.50400001928E-02 0. -1.
</event>
<event>
 5   0  0.1216921E-04  0.1501607E+04  0.7818609E-02  0.8883385E-01
        2   -1    0    0  501    0  0.00000000000E+00  0.00000000000E+00  0.16340582905E+04  0.16340582905E+04  0.25500000920E-02 0.  1.
       -2   -1    0    0    0  501  0.00000000000E+00  0.00000000000E+00 -0.34497284678E+03  0.34497284679E+03  0.25500000920E-02 0. -1.
    10030    2    1    2    0    0  0.00000000000E+00  0.00000000000E+00  0.12890854437E+04  0.19790311373E+04  0.15016067931E+04 0.  0.
        4    1    3    3  502    0  0.61777630018E+02 -0.14583037226E+03  0.16117913137E+04  0.16195542055E+04  0.12699999809E+01 0.  1.
       -4    1    3    3    0  502 -0.61777630018E+02  0.14583037226E+03 -0.32270586995E+03  0.35947693172E+03  0.12699999809E+01 0. -1.
</event>
<event>
 5   0  0.1186664E-04  0.1499453E+04  0.7818609E-02  0.8884817E-01
        2   -1    0    0  501    0  0.00000000000E+00  0.00000000000E+00  0.11189696546E+04  0.11189696546E+04  0.25500000920E-02 0. -1.
       -2   -1    0    0    0  501  0.00000000000E+00  0.00000000000E+00 -0.50232777921E+03  0.50232777922E+03  0.25500000920E-02 0.  1.
    10030    2    1    2    0    0  0.00000000000E+00  0.00000000000E+00  0.61664187542E+03  0.16212974339E+04  0.14994526223E+04 0.  0.
        3    1    3    3  502    0  0.21371478656E+03  0.71826385571E+03  0.28384157025E+03  0.80133827040E+03  0.10100000352E+00 0. -1.
       -3    1    3    3    0  502 -0.21371478656E+03 -0.71826385571E+03  0.33280030517E+03  0.81995916345E+03  0.10100000352E+00 0.  1.
</event>
<event>
 5   0  0.6361716E-05  0.1499229E+04  0.7818609E-02  0.8884966E-01
       -1   -1    0    0    0  501  0.00000000000E+00  0.00000000000E+00  0.72931379224E+03  0.72931379225E+03  0.50400001928E-02 0.  1.
        1   -1    0    0  501    0  0.00000000000E+00  0.00000000000E+00 -0.77047977338E+03  0.77047977339E+03  0.50400001928E-02 0. -1.
    10030    2    1    2    0    0  0.00000000000E+00  0.00000000000E+00 -0.41165981141E+02  0.14997935656E+04  0.14992285021E+04 0.  0.
        3    1    3    3  502    0 -0.21235805608E+03 -0.14314782935E+03 -0.72535847276E+03  0.76924129454E+03  0.10100000352E+00 0. -1.
       -3    1    3    3    0  502  0.21235805608E+03  0.14314782935E+03  0.68419249162E+03  0.73055227110E+03  0.10100000352E+00 0.  1.
</event>
<event>
 5   0  0.1228286E-04  0.1519307E+04  0.7818609E-02  0.8871715E-01
        2   -1    0    0  501    0  0.00000000000E+00  0.00000000000E+00  0.24461160012E+04  0.24461160012E+04  0.25500000920E-02 0.  1.
       -2   -1    0    0    0  501  0.00000000000E+00  0.00000000000E+00 -0.23591408927E+03  0.23591408928E+03  0.25500000920E-02 0. -1.
    10030    2    1    2    0    0  0.00000000000E+00  0.00000000000E+00  0.22102019119E+04  0.26820300905E+04  0.15193067217E+04 0.  0.
        2    1    3    3  502    0 -0.54589490642E+03  0.27058446976E+03  0.19060409450E+04  0.20010520454E+04  0.25500000920E-02 0.  1.
       -2    1    3    3    0  502  0.54589490642E+03 -0.27058446976E+03  0.30416096691E+03  0.68097804512E+03  0.25500000920E-02 0. -1.
</event>
<event>
 5   0  0.6668433E-05  0.1503598E+04  0.7818609E-02  0.8882064E-01
        1   -1    0    0  501    0  0.00000000000E+00  0.00000000000E+00  0.19582624379E+04  0.19582624379E+04  0.50400001928E-02 0. -1.
       -1   -1    0    0    0  501  0.00000000000E+00  0.00000000000E+00 -0.28862418241E+03  0.28862418246E+03  0.50400001928E-02 0.  1.
    10030    2    1    2    0    0  0.00000000000E+00  0.00000000000E+00  0.16696382555E+04  0.22468866203E+04  0.15035982111E+04 0.  0.
        1    1    3    3  502    0  0.40833699908E+03 -0.24165011216E+03  0.17062486123E+04  0.17709935654E+04  0.50400001928E-02 0. -1.
       -1    1    3    3    0  502 -0.40833699908E+03  0.24165011216E+03 -0.36610356848E+02  0.47589305498E+03  0.50400001928E-02 0.  1.
</event>
<event>
 5   0  0.6509279E-05  0.1500367E+04  0.7818609E-02  0.8884209E-01
        1   -1    0    0  501    0  0.00000000000E+00  0.00000000000E+00  0.87233571032E+03  0.87233571033E+03  0.50400001928E-02 0.  1.
       -1   -1    0    0    0  501  0.00000000000E+00  0.00000000000E+00 -0.64513603919E+03  0.64513603921E+03  0.50400001928E-02 0. -1.
    10030    2    1    2    0    0  0.00000000000E+00  0.00000000000E+00  0.22719967113E+03  0.15174717495E+04  0.15003668952E+04 0.  0.
        2    1    3    3  502    0  0.28388392639E+03 -0.28635861816E+03  0.75341264067E+03  0.85453025048E+03  0.25500000920E-02 0.  1.
       -2    1    3    3    0  502 -0.28388392639E+03  0.28635861816E+03 -0.52621296954E+03  0.66294149906E+03  0.25500000920E-02 0. -1.
</event>
<event>
 5   0  0.1254487E-04  0.1499042E+04  0.7818609E-02  0.8885090E-01
       -2   -1    0    0    0  501  0.00000000000E+00  0.00000000000E+00  0.10033215915E+04  0.10033215915E+04  0.25500000920E-02 0.  1.
        2   -1    0    0  501    0  0.00000000000E+00  0.00000000000E+00 -0.55992197973E+03  0.55992197973E+03  0.25500000920E-02 0. -1.
    10030    2    1    2    0    0  0.00000000000E+00  0.00000000000E+00  0.44339961180E+03  0.15632435713E+04  0.14990421099E+04 0.  0.
        5    1    3    3  502    0  0.54612507333E+03  0.45405623733E+03  0.47141322897E+03  0.85245069348E+03  0.46999998093E+01 0.  1.
       -5    1    3    3    0  502 -0.54612507333E+03 -0.45405623733E+03 -0.28013617161E+02  0.71079287779E+03  0.46999998093E+01 0. -1.
</event>
<event>
 5   0  0.6668433E-05  0.1516843E+04  0.7818609E-02  0.8873329E-01
        1   -1    0    0  501    0  0.00000000000E+00  0.00000000000E+00  0.10761783761E+04  0.10761783762E+04  0.50400001928E-02 0.  1.
       -1   -1    0    0    0  501  0.00000000000E+00  0.00000000000E+00 -0.53448695091E+03  0.53448695093E+03  0.50400001928E-02 0. -1.
    10030    2    1    2    0    0  0.00000000000E+00  0.00000000000E+00  0.54169142524E+03  0.16106653271E+04  0.15168431678E+04 0.  0.
        1    1    3    3  502    0 -0.14076933170E+03  0.72917404497E+03  0.43429014541E+03  0.86030153029E+03  0.50400001928E-02 0.  1.
       -1    1    3    3    0  502  0.14076933170E+03 -0.72917404497E+03  0.10740127983E+03  0.75036379679E+03  0.50400001928E-02 0. -1.
</event>
<event>
 5   0  0.1216921E-04  0.1499055E+04  0.7818609E-02  0.8885081E-01
        2   -1    0    0  501    0  0.00000000000E+00  0.00000000000E+00  0.80621279371E+03  0.80621279372E+03  0.25500000920E-02 0. -1.
       -2   -1    0    0    0  501  0.00000000000E+00  0.00000000000E+00 -0.69682824444E+03  0.69682824444E+03  0.25500000920E-02 0.  1.
    10030    2    1    2    0    0  0.00000000000E+00  0.00000000000E+00  0.10938454928E+03  0.15030410382E+04  0.14990554969E+04 0.  0.
        4    1    3    3  502    0  0.24221679580E+03 -0.42247216170E+03  0.62597771813E+03  0.79309609763E+03  0.12699999809E+01 0. -1.
       -4    1    3    3    0  502 -0.24221679580E+03  0.42247216170E+03 -0.51659316886E+03  0.70994494053E+03  0.12699999809E+01 0.  1.
</event>
<event>
 5   0  0.4462875E-05  0.1500236E+04  0.7818609E-02  0.8884296E-01
       -3   -1    0    0    0  501  0.00000000000E+00  0.00000000000E+00  0.55480200565E+03  0.55480201484E+03  0.10100000352E+00 0.  1.
        3   -1    0    0  501    0  0.00000000000E+00  0.00000000000E+00 -0.10141940549E+04  0.10141940599E+04  0.10100000352E+00 0. -1.
    10030    2    1    2    0    0  0.00000000000E+00  0.00000000000E+00 -0.45939204922E+03  0.15689960747E+04  0.15002358573E+04 0.  0.
        1    1    3    3  502    0 -0.13208268780E+03  0.63488211273E+03 -0.62401217654E+03  0.89995129311E+03  0.50400001928E-02 0. -1.
       -1    1    3    3    0  502  0.13208268780E+03 -0.63488211273E+03  0.16462012732E+03  0.66904478163E+03  0.50400001928E-02 0.  1.
</event>
<event>
 5   0  0.1186664E-04  0.1515026E+04  0.7818609E-02  0.8874522E-01
       -2   -1    0    0    0  501  0.00000000000E+00  0.00000000000E+00  0.10992418718E+04  0.10992418718E+04  0.25500000920E-02 0.  1.
        2   -1    0    0  501    0  0.00000000000E+00  0.00000000000E+00 -0.52201973579E+03  0.52201973580E+03  0.25500000920E-02 0. -1.
    10030    2    1    2    0    0  0.00000000000E+00  0.00000000000E+00  0.57722213600E+03  0.16212616076E+04  0.15150260083E+04 0.  0.
        3    1    3    3  502    0 -0.63806514945E+03  0.35174196982E+03  0.51045522334E+03  0.88961457582E+03  0.10100000352E+00 0.  1.
       -3    1    3    3    0  502  0.63806514945E+03 -0.35174196982E+03  0.66766912656E+02  0.73164703177E+03  0.10100000352E+00 0. -1.
</event>
<event>
 5   0  0.1254487E-04  0.1497768E+04  0.7818609E-02  0.8885938E-01
        2   -1    0    0  501    0  0.00000000000E+00  0.00000000000E+00  0.10525313654E+04  0.10525313654E+04  0.25500000920E-02 0.  1.
       -2   -1    0    0    0  501  0.00000000000E+00  0.00000000000E+00 -0.53283675095E+03  0.53283675096E+03  0.25500000920E-02 0. -1.
    10030    2    1    2    0    0  0.00000000000E+00  0.00000000000E+00  0.51969461443E+03  0.15853681163E+04  0.14977681970E+04 0.  0.
        5    1    3    3  502    0 -0.39197891445E+02 -0.12227672152E+03  0.10407763178E+04  0.10486779796E+04  0.46999998093E+01 0.  1.
       -5    1    3    3    0  502  0.39197891445E+02  0.12227672152E+03 -0.52108170333E+03  0.53669013673E+03  0.46999998093E+01 0. -1.
</event>
<event>
 5   0  0.6361716E-05  0.1499562E+04  0.7818609E-02  0.8884744E-01
        1   -1    0    0  501    0  0.00000000000E+00  0.00000000000E+00  0.44932177568E+03  0.44932177571E+03  0.50400001928E-02 0.  1.
       -1   -1    0    0    0  501  0.00000000000E+00  0.00000000000E+00 -0.12511558452E+04  0.12511558452E+04  0.50400001928E-02 0. -1.
    10030    2    1    2    0    0  0.00000000000E+00  0.00000000000E+00 -0.80183406954E+03  0.17004776209E+04  0.14995620241E+04 0.  0.
        3    1    3    3  502    0 -0.43535209319E+03  0.59381277728E+03 -0.24044144691E+03  0.77456901506E+03  0.10100000352E+00 0.  1.
       -3    1    3    3    0  502  0.43535209319E+03 -0.59381277728E+03 -0.56139262263E+03  0.92590860588E+03  0.10100000352E+00 0. -1.
</event>
<event>
 5   0  0.1228286E-04  0.1504624E+04  0.7818609E-02  0.8881384E-01
        2   -1    0    0  501    0  0.00000000000E+00  0.00000000000E+00  0.52655236685E+03  0.52655236686E+03  0.25500000920E-02 0.  1.
       -2   -1    0    0    0  501  0.00000000000E+00  0.00000000000E+00 -0.10748662535E+04  0.10748662535E+04  0.25500000920E-02 0. -1.
    10030    2    1    2    0    0  0.00000000000E+00  0.00000000000E+00 -0.54831388661E+03  0.16014186203E+04  0.15046240325E+04 0.  0.
        2    1    3    3  502    0 -0.25427756083E+03 -0.54026475272E+03 -0.76123282514E+03  0.96748048820E+03  0.25500000920E-02 0. -1.
       -2    1    3    3    0  502  0.25427756083E+03  0.54026475272E+03  0.21291893852E+03  0.63393813212E+03  0.25500000920E-02 0.  1.
</event>
<event>
 5   0  0.1216921E-04  0.1511318E+04  0.7818609E-02  0.8876962E-01
        2   -1    0    0  501    0  0.00000000000E+00  0.00000000000E+00  0.89909364377E+03  0.89909364377E+03  0.25500000920E-02 0.  1.
       -2   -1    0    0    0  501  0.00000000000E+00  0.00000000000E+00 -0.63510655658E+03  0.63510655658E+03  0.25500000920E-02 0. -1.
    10030    2    1    2    0    0  0.00000000000E+00  0.00000000000E+00  0.26398708719E+03  0.15342002004E+04  0.15113176610E+04 0.  0.
        4    1    3    3  502    0  0.60873407172E+03 -0.12438819076E+03 -0.30462211214E+03  0.69197242443E+03  0.12699999809E+01 0. -1.
       -4    1    3    3    0  502 -0.60873407172E+03  0.12438819076E+03  0.56860919933E+03  0.84222777592E+03  0.12699999809E+01 0.  1.
</event>
<event>
 5   0  0.1216921E-04  0.1500117E+04  0.7818609E-02  0.8884375E-01
       -2   -1    0    0    0  501  0.00000000000E+00  0.00000000000E+00  0.37876343400E+03  0.37876343401E+03  0.25500000920E-02 0.  1.
        2   -1    0    0  501    0  0.00000000000E+00  0.00000000000E+00 -0.14853276857E+04  0.14853276858E+04  0.25500000920E-02 0. -1.
    10030    2    1    2    0    0  0.00000000000E+00  0.00000000000E+00 -0.11065642518E+04  0.18640911198E+04  0.15001170819E+04 0.  0.
        4    1    3    3  502    0 -0.47161616909E+03 -0.40829031854E+03 -0.10708245038E+04  0.12392697552E+04  0.12699999809E+01 0. -1.
       -4    1    3    3    0  502  0.47161616909E+03  0.40829031854E+03 -0.35739747909E+02  0.62482136458E+03  0.12699999809E+01 0.  1.
</event>
<event>
 5   0  0.6542036E-05  0.1503232E+04  0.7818609E-02  0.8882307E-01
        1   -1    0    0  501    0  0.00000000000E+00  0.00000000000E+00  0.10004028095E+04  0.10004028095E+04  0.50400001928E-02 0.  1.
       -1   -1    0    0    0  501  0.00000000000E+00  0.00000000000E+00 -0.56469884024E+03  0.56469884026E+03  0.50400001928E-02 0. -1.
    10030    2    1    2    0    0  0.00000000000E+00  0.00000000000E+00  0.43570396924E+03  0.15651016498E+04  0.15032315940E+04 0.  0.
        4    1    3    3  502    0 -0.18456812363E+03  0.37122163642E+03 -0.43489166107E+03  0.60083547280E+03  0.12699999809E+01 0. -1.
       -4    1    3    3    0  502  0.18456812363E+03 -0.37122163642E+03  0.87059563031E+03  0.96426617695E+03  0.12699999809E+01 0.  1.
</event>
<event>
 5   0  0.6364378E-05  0.1499235E+04  0.7818609E-02  0.8884962E-01
        1   -1    0    0  501    0  0.00000000000E+00  0.00000000000E+00  0.10568605920E+04  0.10568605920E+04  0.50400001928E-02 0. -1.
       -1   -1    0    0    0  501  0.00000000000E+00  0.00000000000E+00 -0.53169362387E+03  0.53169362389E+03  0.50400001928E-02 0.  1.
    10030    2    1    2    0    0  0.00000000000E+00  0.00000000000E+00  0.52516696814E+03  0.15885542159E+04  0.14992345222E+04 0.  0.
        5    1    3    3  502    0 -0.63168392105E+03  0.64990072425E+02 -0.15946297019E+03  0.65475095608E+03  0.46999998093E+01 0.  1.
       -5    1    3    3    0  502  0.63168392105E+03 -0.64990072425E+02  0.68462993833E+03  0.93380325983E+03  0.46999998093E+01 0. -1.
</event>
<event>
 5   0  0.6668433E-05  0.1500532E+04  0.7818609E-02  0.8884099E-01
       -1   -1    0    0    0  501  0.00000000000E+00  0.00000000000E+00  0.32762902386E+03  0.32762902390E+03  0.50400001928E-02 0.  1.
        1   -1    0    0  501    0  0.00000000000E+00  0.00000000000E+00 -0.17180980616E+04  0.17180980616E+04  0.50400001928E-02 0. -1.
    10030    2    1    2    0    0  0.00000000000E+00  0.00000000000E+00 -0.13904690377E+04  0.20457270855E+04  0.15005316269E+04 0.  0.
        1    1    3    3  502    0 -0.40820911927E+03  0.34225763121E+03 -0.14155139145E+04  0.15124333418E+04  0.50400001928E-02 0. -1.
       -1    1    3    3    0  502  0.40820911927E+03 -0.34225763121E+03  0.25044876795E+02  0.53329374369E+03  0.50400001928E-02 0.  1.
</event>
<event>
 5   0  0.6542036E-05  0.1527179E+04  0.7818609E-02  0.8866578E-01
       -1   -1    0    0    0  501  0.00000000000E+00  0.00000000000E+00  0.95730128508E+03  0.95730128510E+03  0.50400001928E-02 0.  1.
        1   -1    0    0  501    0  0.00000000000E+00  0.00000000000E+00 -0.60907581582E+03  0.60907581584E+03  0.50400001928E-02 0. -1.
    10030    2    1    2    0    0  0.00000000000E+00  0.00000000000E+00  0.34822546926E+03  0.15663771009E+04  0.15271791790E+04 0.  0.
        4    1    3    3  502    0  0.44785211919E+03 -0.14495104275E+03  0.79078092285E+03  0.92028169943E+03  0.12699999809E+01 0.  1.
       -4    1    3    3    0  502 -0.44785211919E+03  0.14495104275E+03 -0.44255545359E+03  0.64609540151E+03  0.12699999809E+01 0. -1.
</event>
<event>
 5   0  0.6668433E-05  0.1463656E+04  0.7818609E-02  0.8908987E-01
        1   -1    0    0  501    0  0.00000000000E+00  0.00000000000E+00  0.15707765845E+04  0.15707765845E+04  0.50400001928E-02 0.  1.
       -1   -1    0    0    0  501  0.00000000000E+00  0.00000000000E+00 -0.34096030195E+03  0.34096030198E+03  0.50400001928E-02 0. -1.
    10030    2    1    2    0    0  0.00000000000E+00  0.00000000000E+00  0.12298162825E+04  0.19117368865E+04  0.14636563238E+04 0.  0.
        1    1    3    3  502    0  0.54044625798E+03 -0.48725145395E+03  0.51309370170E+03  0.89037143030E+03  0.50400001928E-02 0. -1.
       -1    1    3    3    0  502 -0.54044625798E+03  0.48725145395E+03  0.71672258082E+03  0.10213654562E+04  0.50400001928E-02 0.  1.
</event>
<event>
 5   0  0.1228286E-04  0.1499963E+04  0.7818609E-02  0.8884478E-01
        2   -1    0    0  501    0  0.00000000000E+00  0.00000000000E+00  0.26008091921E+04  0.26008091921E+04  0.25500000920E-02 0.  1.
       -2   -1    0    0    0  501  0.00000000000E+00  0.00000000000E+00 -0.21626806002E+03  0.21626806004E+03  0.25500000920E-02 0. -1.
    10030    2    1    2    0    0  0.00000000000E+00  0.00000000000E+00  0.23845411321E+04  0.28170772522E+04  0.14999626108E+04 0.  0.
        2    1    3    3  502    0 -0.23443481483E+03 -0.10083667807E+03  0.25167550333E+04  0.25296607709E+04  0.25500000920E-02 0.  1.
       -2    1    3    3    0  502  0.23443481483E+03  0.10083667807E+03 -0.13221390119E+03  0.28741648129E+03  0.25500000920E-02 0. -1.
</event>
<event>
 5   0  0.6542036E-05  0.1499467E+04  0.7818609E-02  0.8884807E-01
       -1   -1    0    0    0  501  0.00000000000E+00  0.00000000000E+00  0.59451750649E+03  0.59451750651E+03  0.50400001928E-02 0. -1.
        1   -1    0    0  501    0  0.00000000000E+00  0.00000000000E+00 -0.94547331800E+03  0.94547331801E+03  0.50400001928E-02 0.  1.
    10030    2    1    2    0    0  0.00000000000E+00  0.00000000000E+00 -0.35095581151E+03  0.15399908245E+04  0.14994671580E+04 0.  0.
        4    1    3    3  502    0 -0.71272049770E+03  0.11009167083E+03 -0.38597587762E+03  0.81796679323E+03  0.12699999809E+01 0.  1.
       -4    1    3    3    0  502  0.71272049770E+03 -0.11009167083E+03  0.35020066110E+02  0.72202403129E+03  0.12699999809E+01 0. -1.
</event>
<event>
 5   0  0.1216921E-04  0.1500855E+04  0.7818609E-02  0.8883885E-01
        2   -1    0    0  501    0  0.00000000000E+00  0.00000000000E+00  0.12640341492E+04  0.12640341492E+04  0.25500000920E-02 0.  1.
       -2   -1    0    0    0  501  0.00000000000E+00  0.00000000000E+00 -0.44551112598E+03  0.44551112599E+03  0.25500000920E-02 0. -1.
    10030    2    1    2    0    0  0.00000000000E+00  0.00000000000E+00  0.81852302321E+03  0.17095452752E+04  0.15008547926E+04 0.  0.
        4    1    3    3  502    0 -0.48757016225E+03 -0.33507493873E+03 -0.11660340055E+03  0.60299074919E+03  0.12699999809E+01 0. -1.
       -4    1    3    3    0  502  0.48757016225E+03  0.33507493873E+03  0.93512642376E+03  0.11065545260E+04  0.12699999809E+01 0.  1.
</event>
<event>
 5   0  0.6668433E-05  0.1501960E+04  0.7818609E-02  0.8883151E-01
        1   -1    0    0  501    0  0.00000000000E+00  0.00000000000E+00  0.94678059230E+03  0.94678059232E+03  0.50400001928E-02 0. -1.
       -1   -1    0    0    0  501  0.00000000000E+00  0.00000000000E+00 -0.59567226455E+03  0.59567226457E+03  0.50400001928E-02 0.  1.
    10030    2    1    2    0    0  0.00000000000E+00  0.00000000000E+00  0.35110832775E+03  0.15424528569E+04  0.15019599721E+04 0.  0.
        1    1    3    3  502    0 -0.45219808583E+03 -0.28665093086E+03 -0.36525421498E+03  0.64812229292E+03  0.50400001928E-02 0.  1.
       -1    1    3    3    0  502  0.45219808583E+03  0.28665093086E+03  0.71636254273E+03  0.89433056397E+03  0.50400001928E-02 0. -1.
</event>
<event>
 5   0  0.6361716E-05  0.1499503E+04  0.7818609E-02  0.8884784E-01
        1   -1    0    0  501    0  0.00000000000E+00  0.00000000000E+00  0.98018974393E+03  0.98018974394E+03  0.50400001928E-02 0. -1.
       -1   -1    0    0    0  501  0.00000000000E+00  0.00000000000E+00 -0.57348790565E+03  0.57348790568E+03  0.50400001928E-02 0.  1.
    10030    2    1    2    0    0  0.00000000000E+00  0.00000000000E+00  0.40670183828E+03  0.15536776496E+04  0.14995025354E+04 0.  0.
        3    1    3    3  502    0 -0.54450857924E+03  0.12564898701E+03  0.72125952004E+03  0.91241030587E+03  0.10100000352E+00 0. -1.
       -3    1    3    3    0  502  0.54450857924E+03 -0.12564898701E+03 -0.31455768177E+03  0.64126734375E+03  0.10100000352E+00 0.  1.
</event>
<event>
 5   0  0.1228286E-04  0.1493312E+04  0.7818609E-02  0.8888913E-01
       -2   -1    0    0    0  501  0.00000000000E+00  0.00000000000E+00  0.31230393629E+03  0.31230393630E+03  0.25500000920E-02 0.  1.
        2   -1    0    0  501    0  0.00000000000E+00  0.00000000000E+00 -0.17851044147E+04  0.17851044147E+04  0.25500000920E-02 0. -1.
    10030    2    1    2    0    0  0.00000000000E+00  0.00000000000E+00 -0.14728004784E+04  0.20974083510E+04  0.14933119372E+04 0.  0.
        2    1    3    3  502    0 -0.31549184868E+03 -0.29509941404E+03 -0.15917564926E+04  0.16493354730E+04  0.25500000920E-02 0. -1.
       -2    1    3    3    0  502  0.31549184868E+03  0.29509941404E+03  0.11895601413E+03  0.44807287806E+03  0.25500000920E-02 0.  1.
</event>
<event>
 5   0  0.1186664E-04  0.1500736E+04  0.7818609E-02  0.8883964E-01
       -2   -1    0    0    0  501  0.00000000000E+00  0.00000000000E+00  0.19842906221E+03  0.19842906223E+03  0.25500000920E-02 0.  1.
        2   -1    0    0  501    0  0.00000000000E+00  0.00000000000E+00 -0.28375477884E+04  0.28375477884E+04  0.25500000920E-02 0. -1.
    10030    2    1    2    0    0  0.00000000000E+00  0.00000000000E+00 -0.26391187262E+04  0.30359768506E+04  0.15007357484E+04 0.  0.
        3    1    3    3  502    0 -0.35792258927E+03  0.30459966831E+03 -0.25029016075E+04  0.25466460305E+04  0.10100000352E+00 0. -1.
       -3    1    3    3    0  502  0.35792258927E+03 -0.30459966831E+03 -0.13621711867E+03  0.48933082007E+03  0.10100000352E+00 0.  1.
</event>
<event>
 5   0  0.1254487E-04  0.1498167E+04  0.7818609E-02  0.8885673E-01
        2   -1    0    0  501    0  0.00000000000E+00  0.00000000000E+00  0.16950859398E+04  0.16950859398E+04  0.25500000920E-02 0. -1.
       -2   -1    0    0    0  501  0.00000000000E+00  0.00000000000E+00 -0.33103093035E+03  0.33103093036E+03  0.25500000920E-02 0.  1.
    10030    2    1    2    0    0  0.00000000000E+00  0.00000000000E+00  0.13640550095E+04  0.20261168702E+04  0.14981667139E+04 0.  0.
        5    1    3    3  502    0 -0.13577534339E+03  0.64423750605E+03  0.11651702037E+04  0.13383275390E+04  0.46999998093E+01 0. -1.
       -5    1    3    3    0  502  0.13577534339E+03 -0.64423750605E+03  0.19888480572E+03  0.68778933113E+03  0.46999998093E+01 0.  1.
</event>
<event>
 5   0  0.6542036E-05  0.1500848E+04  0.7818609E-02  0.8883889E-01
       -1   -1    0    0    0  501  0.00000000000E+00  0.00000000000E+00  0.63181143503E+03  0.63181143505E+03  0.50400001928E-02 0.  1.
        1   -1    0    0  501    0  0.00000000000E+00  0.00000000000E+00 -0.89130444956E+03  0.89130444957E+03  0.50400001928E-02 0. -1.
    10030    2    1    2    0    0  0.00000000000E+00  0.00000000000E+00 -0.25949301453E+03  0.15231158846E+04  0.15008482180E+04 0.  0.
        4    1    3    3  502    0  0.39783389450E+03  0.33993941726E+02  0.51506012155E+03  0.65170233803E+03  0.12699999809E+01 0.  1.
       -4    1    3    3    0  502 -0.39783389450E+03 -0.33993941726E+02 -0.77455313608E+03  0.87141354659E+03  0.12699999809E+01 0. -1.
</event>
<event>
 5   0  0.6668433E-05  0.1500854E+04  0.7818609E-02  0.8883885E-01
        1   -1    0    0  501    0  0.00000000000E+00  0.00000000000E+00  0.89650640755E+03  0.89650640757E+03  0.50400001928E-02 0.  1.
       -1   -1    0    0    0  501  0.00000000000E+00  0.00000000000E+00 -0.62814995513E+03  0.62814995515E+03  0.50400001928E-02 0. -1.
    10030    2    1    2    0    0  0.00000000000E+00  0.00000000000E+00  0.26835645242E+03  0.15246563627E+04  0.15008537033E+04 0.  0.
        1    1    3    3  502    0  0.19558016492E+03 -0.42483383734E+03  0.73034583628E+03  0.86726030167E+03  0.50400001928E-02 0.  1.
       -1    1    3    3    0  502 -0.19558016492E+03  0.42483383734E+03 -0.46198938386E+03  0.65739606105E+03  0.50400001928E-02 0. -1.
</event>
<event>
 5   0  0.6364378E-05  0.1500778E+04  0.7818609E-02  0.8883936E-01
        1   -1    0    0  501    0  0.00000000000E+00  0.00000000000E+00  0.16378556894E+04  0.16378556894E+04  0.50400001928E-02 0.  1.
       -1   -1    0    0    0  501  0.00000000000E+00  0.00000000000E+00 -0.34379298647E+03  0.34379298651E+03  0.50400001928E-02 0. -1.
    10030    2    1    2    0    0  0.00000000000E+00  0.00000000000E+00  0.12940627029E+04  0.19816486759E+04  0.15007775303E+04 0.  0.
        5    1    3    3  502    0 -0.43191305842E+03 -0.38154393679E+03  0.12494757689E+02  0.57645717508E+03  0.46999998093E+01 0. -1.
       -5    1    3    3    0  502  0.43191305842E+03  0.38154393679E+03  0.12815679452E+04  0.14051915008E+04  0.46999998093E+01 0.  1.
</event>
<event>
 5   0  0.1186664E-04  0.1500804E+04  0.7818609E-02  0.8883918E-01
        2   -1    0    0  501    0  0.00000000000E+00  0.00000000000E+00  0.14654231810E+04  0.14654231810E+04  0.25500000920E-02 0. -1.
       -2   -1    0    0    0  501  0.00000000000E+00  0.00000000000E+00 -0.38425989792E+03  0.38425989793E+03  0.25500000920E-02 0.  1.
    10030    2    1    2    0    0  0.00000000000E+00  0.00000000000E+00  0.10811632831E+04  0.18496830789E+04  0.15008042670E+04 0.  0.
        3    1    3    3  502    0 -0.56169520694E+03  0.49739213560E+03  0.52302567817E+03  0.91457985561E+03  0.10100000352E+00 0. -1.
       -3    1    3    3    0  502  0.56169520694E+03 -0.49739213560E+03  0.55813760493E+03  0.93510322334E+03  0.10100000352E+00 0.  1.
</event>
<event>
 5   0  0.1228286E-04  0.1498993E+04  0.7818609E-02  0.8885123E-01
       -2   -1    0    0    0  501  0.00000000000E+00  0.00000000000E+00  0.52566569142E+03  0.52566569143E+03  0.25500000920E-02 0.  1.
        2   -1    0    0  501    0  0.00000000000E+00  0.00000000000E+00 -0.10686349176E+04  0.10686349176E+04  0.25500000920E-02 0. -1.
    10030    2    1    2    0    0  0.00000000000E+00  0.00000000000E+00 -0.54296922621E+03  0.15943006091E+04  0.14989926122E+04 0.  0.
        2    1    3    3  502    0 -0.48787013202E+03  0.38224219270E+02  0.33229466510E+03  0.59152185176E+03  0.25500000920E-02 0.  1.
       -2    1    3    3    0  502  0.48787013202E+03 -0.38224219270E+02 -0.87526389131E+03  0.10027787573E+04  0.25500000920E-02 0. -1.
</event>
<event>
 5   0  0.6509279E-05  0.1499607E+04  0.7818609E-02  0.8884714E-01
        1   -1    0    0  501    0  0.00000000000E+00  0.00000000000E+00  0.18510942589E+04  0.18510942589E+04  0.50400001928E-02 0. -1.
       -1   -1    0    0    0  501  0.00000000000E+00  0.00000000000E+00 -0.30371502936E+03  0.30371502941E+03  0.50400001928E-02 0.  1.
    10030    2    1    2    0    0  0.00000000000E+00  0.00000000000E+00  0.15473792295E+04  0.21548092883E+04  0.14996068115E+04 0.  0.
        2    1    3    3  502    0  0.33620120612E+03  0.50716913188E+03  0.14414095642E+03  0.62532263245E+03  0.25500000920E-02 0.  1.
       -2    1    3    3    0  502 -0.33620120612E+03 -0.50716913188E+03  0.14032382731E+04  0.15294866558E+04  0.25500000920E-02 0. -1.
</event>
<event>
 5   0  0.6509279E-05  0.1501385E+04  0.7818609E-02  0.8883532E-01
        1   -1    0    0  501    0  0.00000000000E+00  0.00000000000E+00  0.93414231037E+03  0.93414231039E+03  0.50400001928E-02 0. -1.
       -1   -1    0    0    0  501  0.00000000000E+00  0.00000000000E+00 -0.60326948441E+03  0.60326948443E+03  0.50400001928E-02 0.  1.
    10030    2    1    2    0    0  0.00000000000E+00  0.00000000000E+00  0.33087282596E+03  0.15374117948E+04  0.15013854268E+04 0.  0.
        2    1    3    3  502    0 -0.51740059607E+03  0.50444055904E+03  0.37372799373E+03  0.81353320014E+03  0.25500000920E-02 0. -1.
       -2    1    3    3    0  502  0.51740059607E+03 -0.50444055904E+03 -0.42855167774E+02  0.72387859468E+03  0.25500000920E-02 0.  1.
</event>
<event>
 5   0  0.1219810E-04  0.1498089E+04  0.7818609E-02  0.8885725E-01
        2   -1    0    0  501    0  0.00000000000E+00  0.00000000000E+00  0.14517332786E+04  0.14517332786E+04  0.25500000920E-02 0.  1.
       -2   -1    0    0    0  501  0.00000000000E+00  0.00000000000E+00 -0.38648134575E+03  0.38648134576E+03  0.25500000920E-02 0. -1.
    10030    2    1    2    0    0  0.00000000000E+00  0.00000000000E+00  0.10652519329E+04  0.18382146244E+04  0.14980892246E+04 0.  0.
        1    1    3    3  502    0 -0.44652502127E+03 -0.58884552277E+03  0.68262714859E+03  0.10060335324E+04  0.50400001928E-02 0.  1.
       -1    1    3    3    0  502  0.44652502127E+03  0.58884552277E+03  0.38262478429E+03  0.83218109199E+03  0.50400001928E-02 0. -1.
</event>
<event>
 5   0  0.6361716E-05  0.1499451E+04  0.7818609E-02  0.8884818E-01
        1   -1    0    0  501    0  0.00000000000E+00  0.00000000000E+00  0.12453603564E+04  0.12453603564E+04  0.50400001928E-02 0.  1.
       -1   -1    0    0    0  501  0.00000000000E+00  0.00000000000E+00 -0.45134596893E+03  0.45134596896E+03  0.50400001928E-02 0. -1.
    10030    2    1    2    0    0  0.00000000000E+00  0.00000000000E+00  0.79401438743E+03  0.16967063253E+04  0.14994510686E+04 0.  0.
        3    1    3    3  502    0 -0.59755970973E+03  0.35357658076E+03  0.76967335969E+02  0.69858284131E+03  0.10100000352E+00 0. -1.
       -3    1    3    3    0  502  0.59755970973E+03 -0.35357658076E+03  0.71704705146E+03  0.99812348403E+03  0.10100000352E+00 0.  1.
</event>
<event>
 5   0  0.1219810E-04  0.1500967E+04  0.7818609E-02  0.8883810E-01
        2   -1    0    0  501    0  0.00000000000E+00  0.00000000000E+00  0.12458597428E+04  0.12458597428E+04  0.25500000920E-02 0.  1.
       -2   -1    0    0    0  501  0.00000000000E+00  0.00000000000E+00 -0.45207792730E+03  0.45207792731E+03  0.25500000920E-02 0. -1.
    10030    2    1    2    0    0  0.00000000000E+00  0.00000000000E+00  0.79378181553E+03  0.16979376701E+04  0.15009672751E+04 0.  0.
        1    1    3    3  502    0  0.20550833596E+03  0.68105815004E+03  0.12645427753E+03  0.72254035473E+03  0.50400001928E-02 0. -1.
       -1    1    3    3    0  502 -0.20550833596E+03 -0.68105815004E+03  0.66732753800E+03  0.97539731540E+03  0.50400001928E-02 0.  1.
</event>
<event>
 5   0  0.6509279E-05  0.1499066E+04  0.7818609E-02  0.8885074E-01
        1   -1    0    0  501    0  0.00000000000E+00  0.00000000000E+00  0.95810890872E+03  0.95810890874E+03  0.50400001928E-02 0.  1.
       -1   -1    0    0    0  501  0.00000000000E+00  0.00000000000E+00 -0.58636292050E+03  0.58636292052E+03  0.50400001928E-02 0. -1.
    10030    2    1    2    0    0  0.00000000000E+00  0.00000000000E+00  0.37174598822E+03  0.15444718293E+04  0.14990657596E+04 0.  0.
        2    1    3    3  502    0  0.68384855856E+03  0.14522343524E+03  0.46435788617E+03  0.83926571695E+03  0.25500000920E-02 0.  1.
       -2    1    3    3    0  502 -0.68384855856E+03 -0.14522343524E+03 -0.92611897946E+02  0.70520611231E+03  0.25500000920E-02 0. -1.
</event>
<event>
 5   0  0.6542036E-05  0.1498582E+04  0.7818609E-02  0.8885397E-01
        1   -1    0    0  501    0  0.00000000000E+00  0.00000000000E+00  0.97379542210E+03  0.97379542211E+03  0.50400001928E-02 0.  1.
       -1   -1    0    0    0  501  0.00000000000E+00  0.00000000000E+00 -0.57654476666E+03  0.57654476669E+03  0.50400001928E-02 0. -1.
    10030    2    1    2    0    0  0.00000000000E+00  0.00000000000E+00  0.39725065543E+03  0.15503401888E+04  0.14985815352E+04 0.  0.
        4    1    3    3  502    0 -0.44080242313E+03  0.60590187547E+03  0.20208486652E+03  0.77605654762E+03  0.12699999809E+01 0. -1.
       -4    1    3    3    0  502  0.44080242313E+03 -0.60590187547E+03  0.19516578892E+03  0.77428364118E+03  0.12699999809E+01 0.  1.
</event>
<event>
 5   0  0.1216921E-04  0.1520639E+04  0.7818609E-02  0.8870843E-01
        2   -1    0    0  501    0  0.00000000000E+00  0.00000000000E+00  0.10662836147E+04  0.10662836147E+04  0.25500000920E-02 0. -1.
       -2   -1    0    0    0  501  0.00000000000E+00  0.00000000000E+00 -0.54215037659E+03  0.54215037660E+03  0.25500000920E-02 0.  1.
    10030    2    1    2    0    0  0.00000000000E+00  0.00000000000E+00  0.52413323806E+03  0.16084339912E+04  0.15206394224E+04 0.  0.
        4    1    3    3  502    0  0.41947114098E+03 -0.38859544476E+03  0.79211971013E+03  0.97694304126E+03  0.12699999809E+01 0. -1.
       -4    1    3    3    0  502 -0.41947114098E+03  0.38859544476E+03 -0.26798647207E+03  0.63149094999E+03  0.12699999809E+01 0.  1.
</event>
<event>
 5   0  0.1228286E-04  0.1499344E+04  0.7818609E-02  0.8884889E-01
        2   -1    0    0  501    0  0.00000000000E+00  0.00000000000E+00  0.92951900954E+03  0.92951900955E+03  0.25500000920E-02 0.  1.
       -2   -1    0    0    0  501  0.00000000000E+00  0.00000000000E+00 -0.60462242763E+03  0.60462242763E+03  0.25500000920E-02 0. -1.
    10030    2    1    2    0    0  0.00000000000E+00  0.00000000000E+00  0.32489658192E+03  0.15341414372E+04  0.14993439100E+04 0.  0.
        2    1    3    3  502    0 -0.68720470095E+03 -0.28122878130E+03  0.26813196822E+03  0.78945213967E+03  0.25500000920E-02 0.  1.
       -2    1    3    3    0  502  0.68720470095E+03  0.28122878130E+03  0.56764613696E+02  0.74468929751E+03  0.25500000920E-02 0. -1.
</event>
<event>
 5   0  0.6364378E-05  0.1495107E+04  0.7818609E-02  0.8887713E-01
        1   -1    0    0  501    0  0.00000000000E+00  0.00000000000E+00  0.44955839726E+03  0.44955839729E+03  0.50400001928E-02 0.  1.
       -1   -1    0    0    0  501  0.00000000000E+00  0.00000000000E+00 -0.12430786281E+04  0.12430786281E+04  0.50400001928E-02 0. -1.
    10030    2    1    2    0    0  0.00000000000E+00  0.00000000000E+00 -0.79352023087E+03  0.16926370254E+04  0.14951072681E+04 0.  0.
        5    1    3    3  502    0  0.43838745828E+03 -0.89713638178E+02 -0.10746917110E+04  0.11641376483E+04  0.46999998093E+01 0. -1.
       -5    1    3    3    0  502 -0.43838745828E+03  0.89713638178E+02  0.28117148011E+03  0.52849937718E+03  0.46999998093E+01 0.  1.
</event>
<event>
 5   0  0.1254487E-04  0.1500759E+04  0.7818609E-02  0.8883948E-01
       -2   -1    0    0    0  501  0.00000000000E+00  0.00000000000E+00  0.25754455341E+03  0.25754455342E+03  0.25500000920E-02 0. -1.
        2   -1    0    0  501    0  0.00000000000E+00  0.00000000000E+00 -0.21862988473E+04  0.21862988473E+04  0.25500000920E-02 0.  1.
    10030    2    1    2    0    0  0.00000000000E+00  0.00000000000E+00 -0.19287542939E+04  0.24438434008E+04  0.15007589550E+04 0.  0.
        5    1    3    3  502    0  0.24296120150E+03  0.44071008116E+03 -0.58024195710E+02  0.50660084717E+03  0.46999998093E+01 0. -1.
       -5    1    3    3    0  502 -0.24296120150E+03 -0.44071008116E+03 -0.18707300982E+04  0.19372425536E+04  0.46999998093E+01 0.  1.
</event>
<event>
 5   0  0.1228286E-04  0.1473323E+04  0.7818609E-02  0.8902389E-01
        2   -1    0    0  501    0  0.00000000000E+00  0.00000000000E+00  0.18847477312E+04  0.18847477312E+04  0.25500000920E-02 0. -1.
       -2   -1    0    0    0  501  0.00000000000E+00  0.00000000000E+00 -0.28792734831E+03  0.28792734832E+03  0.25500000920E-02 0.  1.
    10030    2    1    2    0    0  0.00000000000E+00  0.00000000000E+00  0.15968203829E+04  0.21726750795E+04  0.14733233406E+04 0.  0.
        2    1    3    3  502    0 -0.86704199120E+02 -0.63789473252E+03  0.27031315261E+03  0.69820950180E+03  0.25500000920E-02 0. -1.
       -2    1    3    3    0  502  0.86704199120E+02  0.63789473252E+03  0.13265072303E+04  0.14744655777E+04  0.25500000920E-02 0.  1.
</event>
<event>
 5   0  0.4462875E-05  0.1493060E+04  0.7818609E-02  0.8889081E-01
        4   -1    0    0  501    0  0.00000000000E+00  0.00000000000E+00  0.39631281348E+03  0.39631484836E+03  0.12699999809E+01 0. -1.
       -4   -1    0    0    0  501  0.00000000000E+00  0.00000000000E+00 -0.14062248145E+04  0.14062253879E+04  0.12699999809E+01 0.  1.
    10030    2    1    2    0    0  0.00000000000E+00  0.00000000000E+00 -0.10099120010E+04  0.18025402363E+04  0.14930602981E+04 0.  0.
        5    1    3    3  502    0 -0.45981577776E+03  0.28713342816E+02  0.20419081221E+03  0.50395533861E+03  0.46999998093E+01 0. -1.
       -5    1    3    3    0  502  0.45981577776E+03 -0.28713342816E+02 -0.12141028132E+04  0.12985848977E+04  0.46999998093E+01 0.  1.
</event>
<event>
 5   0  0.6361716E-05  0.1503488E+04  0.7818609E-02  0.8882137E-01
       -1   -1    0    0    0  501  0.00000000000E+00  0.00000000000E+00  0.82003920629E+03  0.82003920630E+03  0.50400001928E-02 0. -1.
        1   -1    0    0  501    0  0.00000000000E+00  0.00000000000E+00 -0.68913670616E+03  0.68913670617E+03  0.50400001928E-02 0.  1.
    10030    2    1    2    0    0  0.00000000000E+00  0.00000000000E+00  0.13090250013E+03  0.15091759125E+04  0.15034881011E+04 0.  0.
        3    1    3    3  502    0  0.52633196906E+03  0.26708962220E+03 -0.40188162668E+03  0.71405256109E+03  0.10100000352E+00 0.  1.
       -3    1    3    3    0  502 -0.52633196906E+03 -0.26708962220E+03  0.53278412681E+03  0.79512335139E+03  0.10100000352E+00 0. -1.
</event>
<event>
 5   0  0.1219810E-04  0.1500571E+04  0.7818609E-02  0.8884073E-01
       -2   -1    0    0    0  501  0.00000000000E+00  0.00000000000E+00  0.74048921368E+03  0.74048921368E+03  0.25500000920E-02 0. -1.
        2   -1    0    0  501    0  0.00000000000E+00  0.00000000000E+00 -0.76021151115E+03  0.76021151115E+03  0.25500000920E-02 0.  1.
    10030    2    1    2    0    0  0.00000000000E+00  0.00000000000E+00 -0.19722297470E+02  0.15007007248E+04  0.15005711234E+04 0.  0.
        1    1    3    3  502    0  0.10593771377E+03 -0.72288648199E+03 -0.18058253854E+03  0.75259399299E+03  0.50400001928E-02 0.  1.
       -1    1    3    3    0  502 -0.10593771377E+03  0.72288648199E+03  0.16086024107E+03  0.74810673184E+03  0.50400001928E-02 0. -1.
</event>
<event>
 5   0  0.6361716E-05  0.1500728E+04  0.7818609E-02  0.8883969E-01
        1   -1    0    0  501    0  0.00000000000E+00  0.00000000000E+00  0.62006134464E+03  0.62006134466E+03  0.50400001928E-02 0. -1.
       -1   -1    0    0    0  501  0.00000000000E+00  0.00000000000E+00 -0.90804937630E+03  0.90804937631E+03  0.50400001928E-02 0.  1.
    10030    2    1    2    0    0  0.00000000000E+00  0.00000000000E+00 -0.28798803165E+03  0.15281107210E+04  0.15007282463E+04 0.  0.
        3    1    3    3  502    0  0.27688609192E+03 -0.36071313856E+03  0.46377732514E+03  0.64951466015E+03  0.10100000352E+00 0. -1.
       -3    1    3    3    0  502 -0.27688609192E+03  0.36071313856E+03 -0.75176535679E+03  0.87859606083E+03  0.10100000352E+00 0.  1.
</event>
<event>
 5   0  0.1228286E-04  0.1500353E+04  0.7818609E-02  0.8884218E-01
        2   -1    0    0  501    0  0.00000000000E+00  0.00000000000E+00  0.12878024062E+04  0.12878024062E+04  0.25500000920E-02 0.  1.
       -2   -1    0    0    0  501  0.00000000000E+00  0.00000000000E+00 -0.43699612605E+03  0.43699612606E+03  0.25500000920E-02 0. -1.
    10030    2    1    2    0    0  0.00000000000E+00  0.00000000000E+00  0.85080628019E+03  0.17247985323E+04  0.15003528420E+04 0.  0.
        2    1    3    3  502    0 -0.52109946259E+03  0.17854853943E+03  0.10108400280E+04  0.11511827800E+04  0.25500000920E-02 0.  1.
       -2    1    3    3    0  502  0.52109946259E+03 -0.17854853943E+03 -0.16003374778E+03  0.57361575229E+03  0.25500000920E-02 0. -1.
</event>
<event>
 5   0  0.1186664E-04  0.1499695E+04  0.7818609E-02  0.8884655E-01
       -2   -1    0    0    0  501  0.00000000000E+00  0.00000000000E+00  0.53885991848E+03  0.53885991848E+03  0.25500000920E-02 0.  1.
        2   -1    0    0  501    0  0.00000000000E+00  0.00000000000E+00 -0.10434467783E+04  0.10434467783E+04  0.25500000920E-02 0. -1.
    10030    2    1    2    0    0  0.00000000000E+00  0.00000000000E+00 -0.50458685982E+03  0.15823066968E+04  0.14996954970E+04 0.  0.
        3    1    3    3  502    0 -0.35359684110E+03 -0.42218868027E+03  0.28465857950E+03  0.61992299915E+03  0.10100000352E+00 0.  1.
       -3    1    3    3    0  502  0.35359684110E+03  0.42218868027E+03 -0.78924543932E+03  0.96238369764E+03  0.10100000352E+00 0. -1.
</event>
<event>
 5   0  0.1219810E-04  0.1500082E+04  0.7818609E-02  0.8884398E-01
        2   -1    0    0  501    0  0.00000000000E+00  0.00000000000E+00  0.22211511658E+04  0.22211511658E+04  0.25500000920E-02 0.  1.
       -2   -1    0    0    0  501  0.00000000000E+00  0.00000000000E+00 -0.25327488664E+03  0.25327488665E+03  0.25500000920E-02 0. -1.
    10030    2    1    2    0    0  0.00000000000E+00  0.00000000000E+00  0.19678762791E+04  0.24744260524E+04  0.15000824107E+04 0.  0.
        1    1    3    3  502    0 -0.53080218652E+03  0.52579661400E+03  0.10927165080E+04  0.13237229345E+04  0.50400001928E-02 0. -1.
       -1    1    3    3    0  502  0.53080218652E+03 -0.52579661400E+03  0.87515977114E+03  0.11507031179E+04  0.50400001928E-02 0.  1.
</event>
<event>
 5   0  0.1254487E-04  0.1499148E+04  0.7818609E-02  0.8885020E-01
        2   -1    0    0  501    0  0.00000000000E+00  0.00000000000E+00  0.16829332891E+04  0.16829332891E+04  0.25500000920E-02 0. -1.
       -2   -1    0    0    0  501  0.00000000000E+00  0.00000000000E+00 -0.33385816214E+03  0.33385816215E+03  0.25500000920E-02 0.  1.
    10030    2    1    2    0    0  0.00000000000E+00  0.00000000000E+00  0.13490751270E+04  0.20167914513E+04  0.14991477778E+04 0.  0.
        5    1    3    3  502    0  0.30182837207E+03 -0.41734785320E+02 -0.24676328401E+03  0.39211779713E+03  0.46999998093E+01 0.  1.
       -5    1    3    3    0  502 -0.30182837207E+03  0.41734785320E+02  0.15958384110E+04  0.16246736542E+04  0.46999998093E+01 0. -1.
</event>
<event>
 5   0  0.6542036E-05  0.1504788E+04  0.7818609E-02  0.8881275E-01
       -1   -1    0    0    0  501  0.00000000000E+00  0.00000000000E+00  0.23501272121E+04  0.23501272121E+04  0.50400001928E-02 0. -1.
        1   -1    0    0  501    0  0.00000000000E+00  0.00000000000E+00 -0.24087915826E+03  0.24087915831E+03  0.50400001928E-02 0.  1.
    10030    2    1    2    0    0  0.00000000000E+00  0.00000000000E+00  0.21092480538E+04  0.25910063704E+04  0.15047879116E+04 0.  0.
        4    1    3    3  502    0  0.50579067062E+03  0.40667833168E+03  0.39922955006E+03  0.76196936584E+03  0.12699999809E+01 0.  1.
       -4    1    3    3    0  502 -0.50579067062E+03 -0.40667833168E+03  0.17100185038E+04  0.18290370046E+04  0.12699999809E+01 0. -1.
</event>
<event>
 5   0  0.6364378E-05  0.1499941E+04  0.7818609E-02  0.8884492E-01
       -1   -1    0    0    0  501  0.00000000000E+00  0.00000000000E+00  0.88672541344E+03  0.88672541345E+03  0.50400001928E-02 0. -1.
        1   -1    0    0  501    0  0.00000000000E+00  0.00000000000E+00 -0.63430675542E+03  0.63430675544E+03  0.50400001928E-02 0.  1.
    10030    2    1    2    0    0  0.00000000000E+00  0.00000000000E+00  0.25241865801E+03  0.15210321689E+04  0.14999412255E+04 0.  0.
        5    1    3    3  502    0 -0.19189644057E+03  0.70725539000E+03 -0.35403518044E+02  0.73369607445E+03  0.46999998093E+01 0. -1.
       -5    1    3    3    0  502  0.19189644057E+03 -0.70725539000E+03  0.28782217606E+03  0.78733609444E+03  0.46999998093E+01 0.  1.
</event>
<event>
 5   0  0.1216921E-04  0.1512763E+04  0.7818609E-02  0.8876010E-01
       -2   -1    0    0    0  501  0.00000000000E+00  0.00000000000E+00  0.58366721922E+03  0.58366721923E+03  0.25500000920E-02 0. -1.
        2   -1    0    0  501    0  0.00000000000E+00  0.00000000000E+00 -0.98020441705E+03  0.98020441705E+03  0.25500000920E-02 0.  1.
    10030    2    1    2    0    0  0.00000000000E+00  0.00000000000E+00 -0.39653719783E+03  0.15638716363E+04  0.15127632814E+04 0.  0.
        4    1    3    3  502    0  0.42484985900E+03  0.62388558304E+03 -0.24871210575E+03  0.79472633520E+03  0.12699999809E+01 0.  1.
       -4    1    3    3    0  502 -0.42484985900E+03 -0.62388558304E+03 -0.14782509208E+03  0.76914530108E+03  0.12699999809E+01 0. -1.
</event>
<event>
 5   0  0.6542036E-05  0.1500830E+04  0.7818609E-02  0.8883901E-01
        1   -1    0    0  501    0  0.00000000000E+00  0.00000000000E+00  0.40663056256E+03  0.40663056259E+03  0.50400001928E-02 0.  1.
       -1   -1    0    0    0  501  0.00000000000E+00  0.00000000000E+00 -0.13848507321E+04  0.13848507321E+04  0.50400001928E-02 0. -1.
    10030    2    1    2    0    0  0.00000000000E+00  0.00000000000E+00 -0.97822016951E+03  0.17914812947E+04  0.15008299468E+04 0.  0.
        4    1    3    3  502    0  0.56975255281E+03  0.14624937882E+03 -0.10453022573E+04  0.11994437353E+04  0.12699999809E+01 0. -1.
       -4    1    3    3    0  502 -0.56975255281E+03 -0.14624937882E+03  0.67082087793E+02  0.59203755932E+03  0.12699999809E+01 0.  1.
</event>
<event>
 5   0  0.6361716E-05  0.1498886E+04  0.7818609E-02  0.8885194E-01
       -1   -1    0    0    0  501  0.00000000000E+00  0.00000000000E+00  0.14900971409E+04  0.14900971409E+04  0.50400001928E-02 0. -1.
        1   -1    0    0  501    0  0.00000000000E+00  0.00000000000E+00 -0.37693152237E+03  0.37693152241E+03  0.50400001928E-02 0.  1.
    10030    2    1    2    0    0  0.00000000000E+00  0.00000000000E+00  0.11131656185E+04  0.18670286633E+04  0.14988856979E+04 0.  0.
        3    1    3    3  502    0 -0.90054141518E+02 -0.72014039894E+03  0.32370805689E+03  0.79466902475E+03  0.10100000352E+00 0. -1.
       -3    1    3    3    0  502  0.90054141518E+02  0.72014039894E+03  0.78945756164E+03  0.10723596386E+04  0.10100000352E+00 0.  1.
</event>
<event>
 5   0  0.1219810E-04  0.1499797E+04  0.7818609E-02  0.8884588E-01
        2   -1    0    0  501    0  0.00000000000E+00  0.00000000000E+00  0.50933806652E+03  0.50933806653E+03  0.25500000920E-02 0.  1.
       -2   -1    0    0    0  501  0.00000000000E+00  0.00000000000E+00 -0.11040749833E+04  0.11040749833E+04  0.25500000920E-02 0. -1.
    10030    2    1    2    0    0  0.00000000000E+00  0.00000000000E+00 -0.59473691675E+03  0.16134130498E+04  0.14997965426E+04 0.  0.
        1    1    3    3  502    0 -0.35286302077E+03  0.65711333826E+03 -0.21378317974E+03  0.77589528850E+03  0.50400001928E-02 0.  1.
       -1    1    3    3    0  502  0.35286302077E+03 -0.65711333826E+03 -0.38095373701E+03  0.83751776131E+03  0.50400001928E-02 0. -1.
</event>
<event>
 5   0  0.6364378E-05  0.1498345E+04  0.7818609E-02  0.8885554E-01
        1   -1    0    0  501    0  0.00000000000E+00  0.00000000000E+00  0.11310796038E+04  0.11310796038E+04  0.50400001928E-02 0. -1.
       -1   -1    0    0    0  501  0.00000000000E+00  0.00000000000E+00 -0.49621561993E+03  0.49621561995E+03  0.50400001928E-02 0.  1.
    10030    2    1    2    0    0  0.00000000000E+00  0.00000000000E+00  0.63486398384E+03  0.16272952237E+04  0.14983449093E+04 0.  0.
        5    1    3    3  502    0  0.29843832901E+03 -0.11026979485E+03  0.10540449060E+04  0.11010257116E+04  0.46999998093E+01 0. -1.
       -5    1    3    3    0  502 -0.29843832901E+03  0.11026979485E+03 -0.41918092214E+03  0.52626951209E+03  0.46999998093E+01 0.  1.
</event>
<event>
 5   0  0.1216921E-04  0.1498063E+04  0.7818609E-02  0.8885742E-01
       -2   -1    0    0    0  501  0.00000000000E+00  0.00000000000E+00  0.83624568322E+03  0.83624568323E+03  0.25500000920E-02 0. -1.
        2   -1    0    0  501    0  0.00000000000E+00  0.00000000000E+00 -0.67091344162E+03  0.67091344163E+03  0.25500000920E-02 0.  1.
    10030    2    1    2    0    0  0.00000000000E+00  0.00000000000E+00  0.16533224160E+03  0.15071591249E+04  0.14980633757E+04 0.  0.
        4    1    3    3  502    0 -0.47324521958E+03 -0.57943954312E+03  0.11943435158E+03  0.75761296137E+03  0.12699999809E+01 0. -1.
       -4    1    3    3    0  502  0.47324521958E+03  0.57943954312E+03  0.45897890018E+02  0.74954616349E+03  0.12699999809E+01 0.  1.
</event>
<event>
 5   0  0.1219810E-04  0.1503065E+04  0.7818609E-02  0.8882417E-01
       -2   -1    0    0    0  501  0.00000000000E+00  0.00000000000E+00  0.49559097905E+03  0.49559097906E+03  0.25500000920E-02 0. -1.
        2   -1    0    0  501    0  0.00000000000E+00  0.00000000000E+00 -0.11396517750E+04  0.11396517750E+04  0.25500000920E-02 0.  1.
    10030    2    1    2    0    0  0.00000000000E+00  0.00000000000E+00 -0.64406079596E+03  0.16352427541E+04  0.15030650538E+04 0.  0.
        1    1    3    3  502    0 -0.16229277464E+02 -0.66157190547E+03 -0.70952658318E+03  0.97024159250E+03  0.50400001928E-02 0.  1.
       -1    1    3    3    0  502  0.16229277464E+02  0.66157190547E+03  0.65465787218E+02  0.66500116156E+03  0.50400001928E-02 0. -1.
</event>
<event>
 5   0  0.1186664E-04  0.1505170E+04  0.7818609E-02  0.8881022E-01
        2   -1    0    0  501    0  0.00000000000E+00  0.00000000000E+00  0.14367981103E+04  0.14367981103E+04  0.25500000920E-02 0.  1.
       -2   -1    0    0    0  501  0.00000000000E+00  0.00000000000E+00 -0.39419892419E+03  0.39419892420E+03  0.25500000920E-02 0. -1.
    10030    2    1    2    0    0  0.00000000000E+00  0.00000000000E+00  0.10425991861E+04  0.18309970345E+04  0.15051701158E+04 0.  0.
        3    1    3    3  502    0  0.43754902029E+03  0.59838523999E+03  0.67930152908E+03  0.10054673631E+04  0.10100000352E+00 0. -1.
       -3    1    3    3    0  502 -0.43754902029E+03 -0.59838523999E+03  0.36329765700E+03  0.82552967141E+03  0.10100000352E+00 0.  1.
</event>
<event>
 5   0  0.1228286E-04  0.1501068E+04  0.7818609E-02  0.8883743E-01
        2   -1    0    0  501    0  0.00000000000E+00  0.00000000000E+00  0.23083602895E+04  0.23083602895E+04  0.25500000920E-02 0. -1.
       -2   -1    0    0    0  501  0.00000000000E+00  0.00000000000E+00 -0.24402664290E+03  0.24402664292E+03  0.25500000920E-02 0.  1.
    10030    2    1    2    0    0  0.00000000000E+00  0.00000000000E+00  0.20643336465E+04  0.25523869324E+04  0.15010681691E+04 0.  0.
        2    1    3    3  502    0  0.17686488534E+03 -0.15298996289E+00 -0.20808581147E+03  0.27309506772E+03  0.25500000920E-02 0.  1.
       -2    1    3    3    0  502 -0.17686488534E+03  0.15298996289E+00  0.22724194580E+04  0.22792918646E+04  0.25500000920E-02 0. -1.
</event>
<event>
 5   0  0.1219810E-04  0.1494031E+04  0.7818609E-02  0.8888432E-01
        2   -1    0    0  501    0  0.00000000000E+00  0.00000000000E+00  0.11476596496E+04  0.11476596496E+04  0.25500000920E-02 0.  1.
       -2   -1    0    0    0  501  0.00000000000E+00  0.00000000000E+00 -0.48623460473E+03  0.48623460473E+03  0.25500000920E-02 0. -1.
    10030    2    1    2    0    0  0.00000000000E+00  0.00000000000E+00  0.66142504482E+03  0.16338942543E+04  0.14940305701E+04 0.  0.
        1    1    3    3  502    0  0.15895863111E+02  0.65313527022E+03  0.72682687783E+03  0.97730019442E+03  0.50400001928E-02 0.  1.
       -1    1    3    3    0  502 -0.15895863111E+02 -0.65313527022E+03 -0.65401833002E+02  0.65659405986E+03  0.50400001928E-02 0. -1.
</event>
<event>
 5   0  0.1254487E-04  0.1499727E+04  0.7818609E-02  0.8884634E-01
       -2   -1    0    0    0  501  0.00000000000E+00  0.00000000000E+00  0.60528416687E+03  0.60528416687E+03  0.25500000920E-02 0.  1.
        2   -1    0    0  501    0  0.00000000000E+00  0.00000000000E+00 -0.92897793092E+03  0.92897793092E+03  0.25500000920E-02 0. -1.
    10030    2    1    2    0    0  0.00000000000E+00  0.00000000000E+00 -0.32369376405E+03  0.15342620978E+04  0.14997274859E+04 0.  0.
        5    1    3    3  502    0 -0.49016211858E+02 -0.61907862491E+03  0.26808342406E+03  0.67642571292E+03  0.46999998093E+01 0.  1.
       -5    1    3    3    0  502  0.49016211858E+02  0.61907862491E+03 -0.59177718811E+03  0.85783638487E+03  0.46999998093E+01 0. -1.
</event>
<event>
 5   0  0.1228286E-04  0.1454760E+04  0.7818609E-02  0.8915107E-01
       -2   -1    0    0    0  501  0.00000000000E+00  0.00000000000E+00  0.35462671466E+03  0.35462671467E+03  0.25500000920E-02 0. -1.
        2   -1    0    0  501    0  0.00000000000E+00  0.00000000000E+00 -0.14919386537E+04  0.14919386537E+04  0.25500000920E-02 0.  1.
    10030    2    1    2    0    0  0.00000000000E+00  0.00000000000E+00 -0.11373119390E+04  0.18465653684E+04  0.14547595035E+04 0.  0.
        2    1    3    3  502    0  0.38822811782E+03 -0.61489628764E+03 -0.58923266340E+03  0.93595600732E+03  0.25500000920E-02 0. -1.
       -2    1    3    3    0  502 -0.38822811782E+03  0.61489628764E+03 -0.54807927564E+03  0.91060936104E+03  0.25500000920E-02 0.  1.
</event>
<event>
 5   0  0.6361716E-05  0.1501265E+04  0.7818609E-02  0.8883612E-01
       -1   -1    0    0    0  501  0.00000000000E+00  0.00000000000E+00  0.73370832150E+03  0.73370832152E+03  0.50400001928E-02 0. -1.
        1   -1    0    0  501    0  0.00000000000E+00  0.00000000000E+00 -0.76794656083E+03  0.76794656084E+03  0.50400001928E-02 0.  1.
    10030    2    1    2    0    0  0.00000000000E+00  0.00000000000E+00 -0.34238239321E+02  0.15016548824E+04  0.15012645099E+04 0.  0.
        3    1    3    3  502    0 -0.40422857851E+03  0.30073893205E+03 -0.57368461997E+03  0.76351732287E+03  0.10100000352E+00 0.  1.
       -3    1    3    3    0  502  0.40422857851E+03 -0.30073893205E+03  0.53944638064E+03  0.73813755949E+03  0.10100000352E+00 0. -1.
</event>
<event>
 5   0  0.6668433E-05  0.1501252E+04  0.7818609E-02  0.8883621E-01
       -1   -1    0    0    0  501  0.00000000000E+00  0.00000000000E+00  0.69581054551E+03  0.69581054553E+03  0.50400001928E-02 0. -1.
        1   -1    0    0  501    0  0.00000000000E+00  0.00000000000E+00 -0.80975942824E+03  0.80975942825E+03  0.50400001928E-02 0.  1.
    10030    2    1    2    0    0  0.00000000000E+00  0.00000000000E+00 -0.11394888272E+03  0.15055699738E+04  0.15012516771E+04 0.  0.
        1    1    3    3  502    0 -0.74058840283E+03  0.11878153867E+03 -0.86365962908E+02  0.75500948067E+03  0.50400001928E-02 0.  1.
       -1    1    3    3    0  502  0.74058840283E+03 -0.11878153867E+03 -0.27582919815E+02  0.75056049311E+03  0.50400001928E-02 0. -1.
</event>
<event>
 5   0  0.1216921E-04  0.1499278E+04  0.7818609E-02  0.8884933E-01
        2   -1    0    0  501    0  0.00000000000E+00  0.00000000000E+00  0.15581902007E+04  0.15581902007E+04  0.25500000920E-02 0. -1.
       -2   -1    0    0    0  501  0.00000000000E+00  0.00000000000E+00 -0.36064821818E+03  0.36064821819E+03  0.25500000920E-02 0.  1.
    10030    2    1    2    0    0  0.00000000000E+00  0.00000000000E+00  0.11975419825E+04  0.19188384189E+04  0.14992778521E+04 0.  0.
        4    1    3    3  502    0 -0.49308667533E+03  0.29087214140E+03  0.12181613005E+04  0.13459790634E+04  0.12699999809E+01 0. -1.
       -4    1    3    3    0  502  0.49308667533E+03 -0.29087214140E+03 -0.20619318003E+02  0.57285935552E+03  0.12699999809E+01 0.  1.
</event>
<event>
 5   0  0.1254487E-04  0.1508882E+04  0.7818609E-02  0.8878568E-01
        2   -1    0    0  501    0  0.00000000000E+00  0.00000000000E+00  0.79098025722E+03  0.79098025722E+03  0.25500000920E-02 0. -1.
       -2   -1    0    0    0  501  0.00000000000E+00  0.00000000000E+00 -0.71959011419E+03  0.71959011419E+03  0.25500000920E-02 0.  1.
    10030    2    1    2    0    0  0.00000000000E+00  0.00000000000E+00  0.71390143032E+02  0.15105703714E+04  0.15088824654E+04 0.  0.
        5    1    3    3  502    0 -0.39584667775E+03  0.59844541928E+03  0.26903942445E+03  0.76631313055E+03  0.46999998093E+01 0. -1.
       -5    1    3    3    0  502  0.39584667775E+03 -0.59844541928E+03 -0.19764928142E+03  0.74425724087E+03  0.46999998093E+01 0.  1.
</event>
<event>
 5   0  0.1254487E-04  0.1499035E+04  0.7818609E-02  0.8885095E-01
       -2   -1    0    0    0  501  0.00000000000E+00  0.00000000000E+00  0.71613178019E+03  0.71613178020E+03  0.25500000920E-02 0. -1.
        2   -1    0    0  501    0  0.00000000000E+00  0.00000000000E+00 -0.78445952358E+03  0.78445952358E+03  0.25500000920E-02 0.  1.
    10030    2    1    2    0    0  0.00000000000E+00  0.00000000000E+00 -0.68327743386E+02  0.15005913038E+04  0.14990348830E+04 0.  0.
        5    1    3    3  502    0 -0.55377247448E+03  0.48781673324E+03  0.96835236685E+02  0.74433075430E+03  0.46999998093E+01 0.  1.
       -5    1    3    3    0  502  0.55377247448E+03 -0.48781673324E+03 -0.16516298007E+03  0.75626054949E+03  0.46999998093E+01 0. -1.
</event>
<event>
 5   0  0.6542036E-05  0.1512286E+04  0.7818609E-02  0.8876324E-01
       -1   -1    0    0    0  501  0.00000000000E+00  0.00000000000E+00  0.18954539214E+03  0.18954539221E+03  0.50400001928E-02 0. -1.
        1   -1    0    0  501    0  0.00000000000E+00  0.00000000000E+00 -0.30164401207E+04  0.30164401207E+04  0.50400001928E-02 0.  1.
    10030    2    1    2    0    0  0.00000000000E+00  0.00000000000E+00 -0.28268947286E+04  0.32059855129E+04  0.15122861180E+04 0.  0.
        4    1    3    3  502    0 -0.19155218808E+03  0.57807112361E+03 -0.23636345722E+04  0.24408253662E+04  0.12699999809E+01 0.  1.
       -4    1    3    3    0  502  0.19155218808E+03 -0.57807112361E+03 -0.46326015642E+03  0.76516014672E+03  0.12699999809E+01 0. -1.
</event>
<event>
 5   0  0.6364378E-05  0.1508478E+04  0.7818609E-02  0.8878835E-01
       -1   -1    0    0    0  501  0.00000000000E+00  0.00000000000E+00  0.61051879456E+03  0.61051879459E+03  0.50400001928E-02 0. -1.
        1   -1    0    0  501    0  0.00000000000E+00  0.00000000000E+00 -0.93179130947E+03  0.93179130948E+03  0.50400001928E-02 0.  1.
    10030    2    1    2    0    0  0.00000000000E+00  0.00000000000E+00 -0.32127251490E+03  0.15423101041E+04  0.15084775200E+04 0.  0.
        5    1    3    3  502    0  0.97487393639E+02 -0.57895014612E+03  0.32344543249E+03  0.67031791070E+03  0.46999998093E+01 0. -1.
       -5    1    3    3    0  502 -0.97487393639E+02  0.57895014612E+03 -0.64471794739E+03  0.87199219337E+03  0.46999998093E+01 0.  1.
</event>
<event>
 5   0  0.1219810E-04  0.1499787E+04  0.7818609E-02  0.8884595E-01
        2   -1    0    0  501    0  0.00000000000E+00  0.00000000000E+00  0.18082329965E+04  0.18082329965E+04  0.25500000920E-02 0.  1.
       -2   -1    0    0    0  501  0.00000000000E+00  0.00000000000E+00 -0.31098875147E+03  0.31098875148E+03  0.25500000920E-02 0. -1.
    10030    2    1    2    0    0  0.00000000000E+00  0.00000000000E+00  0.14972442450E+04  0.21192217479E+04  0.14997868141E+04 0.  0.
        1    1    3    3  502    0 -0.11377738671E+03  0.72491906751E+03  0.96701036604E+03  0.12139036190E+04  0.50400001928E-02 0.  1.
       -1    1    3    3    0  502  0.11377738671E+03 -0.72491906751E+03  0.53023387894E+03  0.90531812893E+03  0.50400001928E-02 0. -1.
</event>
<event>
 5   0  0.1216921E-04  0.1498718E+04  0.7818609E-02  0.8885306E-01
       -2   -1    0    0    0  501  0.00000000000E+00  0.00000000000E+00  0.54690823042E+03  0.54690823042E+03  0.25500000920E-02 0. -1.
        2   -1    0    0  501    0  0.00000000000E+00  0.00000000000E+00 -0.10267521876E+04  0.10267521876E+04  0.25500000920E-02 0.  1.
    10030    2    1    2    0    0  0.00000000000E+00  0.00000000000E+00 -0.47984395720E+03  0.15736604180E+04  0.14987184152E+04 0.  0.
        4    1    3    3  502    0 -0.25038000257E+03 -0.62764784103E+03 -0.58000928260E+03  0.89053036941E+03  0.12699999809E+01 0. -1.
       -4    1    3    3    0  502  0.25038000257E+03  0.62764784103E+03  0.10016532541E+03  0.68313004863E+03  0.12699999809E+01 0.  1.
</event>
<event>
 5   0  0.1228286E-04  0.1501541E+04  0.7818609E-02  0.8883429E-01
        2   -1    0    0  501    0  0.00000000000E+00  0.00000000000E+00  0.13519451724E+04  0.13519451724E+04  0.25500000920E-02 0. -1.
       -2   -1    0    0    0  501  0.00000000000E+00  0.00000000000E+00 -0.41692235610E+03  0.41692235611E+03  0.25500000920E-02 0.  1.
    10030    2    1    2    0    0  0.00000000000E+00  0.00000000000E+00  0.93502281626E+03  0.17688675285E+04  0.15015407641E+04 0.  0.
        2    1    3    3  502    0 -0.17590340144E+03 -0.26056311667E+03  0.12706695444E+04  0.13089829011E+04  0.25500000920E-02 0. -1.
       -2    1    3    3    0  502  0.17590340144E+03  0.26056311667E+03 -0.33564672810E+03  0.45988462738E+03  0.25500000920E-02 0.  1.
</event>
<event>
 5   0  0.1228286E-04  0.1500714E+04  0.7818609E-02  0.8883978E-01
        2   -1    0    0  501    0  0.00000000000E+00  0.00000000000E+00  0.53450986325E+03  0.53450986325E+03  0.25500000920E-02 0.  1.
       -2   -1    0    0    0  501  0.00000000000E+00  0.00000000000E+00 -0.10533679931E+04  0.10533679931E+04  0.25500000920E-02 0. -1.
    10030    2    1    2    0    0  0.00000000000E+00  0.00000000000E+00 -0.51885812983E+03  0.15878778563E+04  0.15007139393E+04 0.  0.
        2    1    3    3  502    0 -0.13856778471E+03  0.38411738870E+03  0.40664856214E+03  0.57629007658E+03  0.25500000920E-02 0.  1.
       -2    1    3    3    0  502  0.13856778471E+03 -0.38411738870E+03 -0.92550669198E+03  0.10115877798E+04  0.25500000920E-02 0. -1.
</event>
<event>
 5   0  0.6509279E-05  0.1499641E+04  0.7818609E-02  0.8884692E-01
       -1   -1    0    0    0  501  0.00000000000E+00  0.00000000000E+00  0.78207291824E+03  0.78207291826E+03  0.50400001928E-02 0. -1.
        1   -1    0    0  501    0  0.00000000000E+00  0.00000000000E+00 -0.71889841163E+03  0.71889841165E+03  0.50400001928E-02 0.  1.
    10030    2    1    2    0    0  0.00000000000E+00  0.00000000000E+00  0.63174506605E+02  0.15009713299E+04  0.14996412621E+04 0.  0.
        2    1    3    3  502    0 -0.48120783832E+02  0.46626300957E+03 -0.55417892216E+03  0.72583130389E+03  0.25500000920E-02 0.  1.
       -2    1    3    3    0  502  0.48120783832E+02 -0.46626300957E+03  0.61735342876E+03  0.77514002602E+03  0.25500000920E-02 0. -1.
</event>
<event>
 5   0  0.6361716E-05  0.1498742E+04  0.7818609E-02  0.8885290E-01
       -1   -1    0    0    0  501  0.00000000000E+00  0.00000000000E+00  0.10866934341E+04  0.10866934341E+04  0.50400001928E-02 0. -1.
        1   -1    0    0  501    0  0.00000000000E+00  0.00000000000E+00 -0.51675770951E+03  0.51675770953E+03  0.50400001928E-02 0.  1.
    10030    2    1    2    0    0  0.00000000000E+00  0.00000000000E+00  0.56993572454E+03  0.16034511436E+04  0.14987424194E+04 0.  0.
        3    1    3    3  502    0  0.21726421513E+03 -0.59473968420E+03  0.71376621111E+03  0.95413900741E+03  0.10100000352E+00 0. -1.
       -3    1    3    3    0  502 -0.21726421513E+03  0.59473968420E+03 -0.14383048657E+03  0.64931213619E+03  0.10100000352E+00 0.  1.
</event>
<event>
 5   0  0.1254487E-04  0.1496713E+04  0.7818609E-02  0.8886642E-01
        2   -1    0    0  501    0  0.00000000000E+00  0.00000000000E+00  0.73510931075E+03  0.73510931075E+03  0.25500000920E-02 0. -1.
       -2   -1    0    0    0  501  0.00000000000E+00  0.00000000000E+00 -0.76184231646E+03  0.76184231646E+03  0.25500000920E-02 0.  1.
    10030    2    1    2    0    0  0.00000000000E+00  0.00000000000E+00 -0.26733005707E+02  0.14969516272E+04  0.14967129052E+04 0.  0.
        5    1    3    3  502    0  0.24454923309E+03  0.22281198170E+03  0.65798252953E+03  0.73648666366E+03  0.46999998093E+01 0. -1.
       -5    1    3    3    0  502 -0.24454923309E+03 -0.22281198170E+03 -0.68471553523E+03  0.76046496355E+03  0.46999998093E+01 0.  1.
</event>
<event>
 5   0  0.1219810E-04  0.1500484E+04  0.7818609E-02  0.8884131E-01
        2   -1    0    0  501    0  0.00000000000E+00  0.00000000000E+00  0.11354016684E+04  0.11354016684E+04  0.25500000920E-02 0.  1.
       -2   -1    0    0    0  501  0.00000000000E+00  0.00000000000E+00 -0.49573898822E+03  0.49573898823E+03  0.25500000920E-02 0. -1.
    10030    2    1    2    0    0  0.00000000000E+00  0.00000000000E+00  0.63966268016E+03  0.16311406566E+04  0.15004837544E+04 0.  0.
        1    1    3    3  502    0 -0.43107954270E+03  0.91185162331E+02  0.97992812800E+03  0.10744316833E+04  0.50400001928E-02 0.  1.
       -1    1    3    3    0  502  0.43107954270E+03 -0.91185162331E+02 -0.34026544784E+03  0.55670897333E+03  0.50400001928E-02 0. -1.
</event>
<event>
 5   0  0.6542036E-05  0.1501117E+04  0.7818609E-02  0.8883710E-01
        1   -1    0    0  501    0  0.00000000000E+00  0.00000000000E+00  0.69710760559E+03  0.69710760561E+03  0.50400001928E-02 0.  1.
       -1   -1    0    0    0  501  0.00000000000E+00  0.00000000000E+00 -0.80810805009E+03  0.80810805011E+03  0.50400001928E-02 0. -1.
    10030    2    1    2    0    0  0.00000000000E+00  0.00000000000E+00 -0.11100044450E+03  0.15052156557E+04  0.15011172744E+04 0.  0.
        4    1    3    3  502    0  0.27952391533E+03 -0.69271610028E+03 -0.12882606623E+03  0.75801516018E+03  0.12699999809E+01 0.  1.
       -4    1    3    3    0  502 -0.27952391533E+03  0.69271610028E+03  0.17825621728E+02  0.74720049553E+03  0.12699999809E+01 0. -1.
</event>
<event>
 5   0  0.6361716E-05  0.1499840E+04  0.7818609E-02  0.8884559E-01
       -1   -1    0    0    0  501  0.00000000000E+00  0.00000000000E+00  0.29118415691E+03  0.29118415695E+03  0.50400001928E-02 0. -1.
        1   -1    0    0  501    0  0.00000000000E+00  0.00000000000E+00 -0.19313561395E+04  0.19313561395E+04  0.50400001928E-02 0.  1.
    10030    2    1    2    0    0  0.00000000000E+00  0.00000000000E+00 -0.16401719826E+04  0.22225402965E+04  0.14998404038E+04 0.  0.
        3    1    3    3  502    0  0.67520588682E+03 -0.30854200724E+03 -0.97746346631E+03  0.12274102810E+04  0.10100000352E+00 0.  1.
       -3    1    3    3    0  502 -0.67520588682E+03  0.30854200724E+03 -0.66270851630E+03  0.99513001543E+03  0.10100000352E+00 0. -1.
</event>
<event>
 5   0  0.1254487E-04  0.1500984E+04  0.7818609E-02  0.8883799E-01
        2   -1    0    0  501    0  0.00000000000E+00  0.00000000000E+00  0.53763729515E+03  0.53763729516E+03  0.25500000920E-02 0.  1.
       -2   -1    0    0    0  501  0.00000000000E+00  0.00000000000E+00 -0.10476178739E+04  0.10476178739E+04  0.25500000920E-02 0. -1.
    10030    2    1    2    0    0  0.00000000000E+00  0.00000000000E+00 -0.50998057875E+03  0.15852551691E+04  0.15009842638E+04 0.  0.
        5    1    3    3  502    0 -0.49156890968E+03  0.46533587355E+00 -0.85390495549E+03  0.98529994038E+03  0.46999998093E+01 0. -1.
       -5    1    3    3    0  502  0.49156890968E+03 -0.46533587355E+00  0.34392437674E+03  0.59995522868E+03  0.46999998093E+01 0.  1.
</event>
<event>
 5   0  0.4462875E-05  0.1499652E+04  0.7818609E-02  0.8884684E-01
       -4   -1    0    0    0  501  0.00000000000E+00  0.00000000000E+00  0.99300712679E+03  0.99300793892E+03  0.12699999809E+01 0. -1.
        4   -1    0    0  501    0  0.00000000000E+00  0.00000000000E+00 -0.56619696564E+03  0.56619838997E+03  0.12699999809E+01 0.  1.
    10030    2    1    2    0    0  0.00000000000E+00  0.00000000000E+00  0.42681016114E+03  0.15592063289E+04  0.14996524472E+04 0.  0.
        1    1    3    3  502    0 -0.50142181469E+03  0.32427556837E+03  0.68491281229E+03  0.90867158036E+03  0.50400001928E-02 0. -1.
       -1    1    3    3    0  502  0.50142181469E+03 -0.32427556837E+03 -0.25810265114E+03  0.65053474853E+03  0.50400001928E-02 0.  1.
</event>
<event>
 5   0  0.1228286E-04  0.1481363E+04  0.7818609E-02  0.8896942E-01
       -2   -1    0    0    0  501  0.00000000000E+00  0.00000000000E+00  0.46835265880E+03  0.46835265881E+03  0.25500000920E-02 0. -1.
        2   -1    0    0  501    0  0.00000000000E+00  0.00000000000E+00 -0.11713582260E+04  0.11713582260E+04  0.25500000920E-02 0.  1.
    10030    2    1    2    0    0  0.00000000000E+00  0.00000000000E+00 -0.70300556715E+03  0.16397108848E+04  0.14813625343E+04 0.  0.
        2    1    3    3  502    0  0.75208057146E+02 -0.70247177994E+03 -0.59773597755E+03  0.92542484964E+03  0.25500000920E-02 0.  1.
       -2    1    3    3    0  502 -0.75208057146E+02  0.70247177994E+03 -0.10526958960E+03  0.71428603512E+03  0.25500000920E-02 0. -1.
</event>
<event>
 5   0  0.1216921E-04  0.1503209E+04  0.7818609E-02  0.8882322E-01
        2   -1    0    0  501    0  0.00000000000E+00  0.00000000000E+00  0.17281357087E+04  0.17281357087E+04  0.25500000920E-02 0.  1.
       -2   -1    0    0    0  501  0.00000000000E+00  0.00000000000E+00 -0.32688935561E+03  0.32688935562E+03  0.25500000920E-02 0. -1.
    10030    2    1    2    0    0  0.00000000000E+00  0.00000000000E+00  0.14012463531E+04  0.20550250643E+04  0.15032087922E+04 0.  0.
        4    1    3    3  502    0 -0.49671189441E+03 -0.47571140909E+03  0.11150201659E+04  0.13100746674E+04  0.12699999809E+01 0.  1.
       -4    1    3    3    0  502  0.49671189441E+03  0.47571140909E+03  0.28622618717E+03  0.74495039694E+03  0.12699999809E+01 0. -1.
</event>
<event>
 5   0  0.6668433E-05  0.1506166E+04  0.7818609E-02  0.8880363E-01
        1   -1    0    0  501    0  0.00000000000E+00  0.00000000000E+00  0.15040233939E+04  0.15040233939E+04  0.50400001928E-02 0.  1.
       -1   -1    0    0    0  501  0.00000000000E+00  0.00000000000E+00 -0.37707810348E+03  0.37707810352E+03  0.50400001928E-02 0. -1.
    10030    2    1    2    0    0  0.00000000000E+00  0.00000000000E+00  0.11269452904E+04  0.18811014974E+04  0.15061663772E+04 0.  0.
        1    1    3    3  502    0 -0.63271017630E+03 -0.30469979585E+03  0.90315074592E+03  0.11440478148E+04  0.50400001928E-02 0. -1.
       -1    1    3    3    0  502  0.63271017630E+03  0.30469979585E+03  0.22379454445E+03  0.73705368253E+03  0.50400001928E-02 0.  1.
</event>
<event>
 5   0  0.6668433E-05  0.1501438E+04  0.7818609E-02  0.8883497E-01
       -1   -1    0    0    0  501  0.00000000000E+00  0.00000000000E+00  0.61635797890E+03  0.61635797892E+03  0.50400001928E-02 0. -1.
        1   -1    0    0  501    0  0.00000000000E+00  0.00000000000E+00 -0.91436924752E+03  0.91436924753E+03  0.50400001928E-02 0.  1.
    10030    2    1    2    0    0  0.00000000000E+00  0.00000000000E+00 -0.29801126862E+03  0.15307272265E+04  0.15014376862E+04 0.  0.
        1    1    3    3  502    0  0.40791011244E+03 -0.52779382950E+03 -0.50013951827E+03  0.83372448929E+03  0.50400001928E-02 0.  1.
       -1    1    3    3    0  502 -0.40791011244E+03  0.52779382950E+03  0.20212824965E+03  0.69700273717E+03  0.50400001928E-02 0. -1.
</event>
<event>
 5   0  0.6364378E-05  0.1509415E+04  0.7818609E-02  0.8878216E-01
       -1   -1    0    0    0  501  0.00000000000E+00  0.00000000000E+00  0.74931035767E+03  0.74931035769E+03  0.50400001928E-02 0.  1.
        1   -1    0    0  501    0  0.00000000000E+00  0.00000000000E+00 -0.76014344812E+03  0.76014344814E+03  0.50400001928E-02 0. -1.
    10030    2    1    2    0    0  0.00000000000E+00  0.00000000000E+00 -0.10833090451E+02  0.15094538058E+04  0.15094149317E+04 0.  0.
        5    1    3    3  502    0  0.60900265385E+03  0.54780222355E+02  0.43694783292E+03  0.75155212983E+03  0.46999998093E+01 0.  1.
       -5    1    3    3    0  502 -0.60900265385E+03 -0.54780222355E+02 -0.44778092337E+03  0.75790167600E+03  0.46999998093E+01 0. -1.
</event>
<event>
 5   0  0.1219810E-04  0.1500279E+04  0.7818609E-02  0.8884268E-01
        2   -1    0    0  501    0  0.00000000000E+00  0.00000000000E+00  0.14586332399E+04  0.14586332399E+04  0.25500000920E-02 0. -1.
       -2   -1    0    0    0  501  0.00000000000E+00  0.00000000000E+00 -0.38577826244E+03  0.38577826245E+03  0.25500000920E-02 0.  1.
    10030    2    1    2    0    0  0.00000000000E+00  0.00000000000E+00  0.10728549774E+04  0.18444115023E+04  0.15002786365E+04 0.  0.
        1    1    3    3  502    0 -0.21859651993E+03 -0.45032455339E+03  0.12232670328E+04  0.13217257187E+04  0.50400001928E-02 0. -1.
       -1    1    3    3    0  502  0.21859651993E+03  0.45032455339E+03 -0.15041205542E+03  0.52268578358E+03  0.50400001928E-02 0.  1.
</event>
<event>
 5   0  0.1216921E-04  0.1498806E+04  0.7818609E-02  0.8885248E-01
        2   -1    0    0  501    0  0.00000000000E+00  0.00000000000E+00  0.73851686491E+03  0.73851686491E+03  0.25500000920E-02 0. -1.
       -2   -1    0    0    0  501  0.00000000000E+00  0.00000000000E+00 -0.76044923177E+03  0.76044923177E+03  0.25500000920E-02 0.  1.
    10030    2    1    2    0    0  0.00000000000E+00  0.00000000000E+00 -0.21932366861E+02  0.14989660967E+04  0.14988056346E+04 0.  0.
        4    1    3    3  502    0 -0.51174786121E+02  0.22550606185E+03  0.70194330160E+03  0.73905199697E+03  0.12699999809E+01 0. -1.
       -4    1    3    3    0  502  0.51174786121E+02 -0.22550606185E+03 -0.72387566846E+03  0.75991409972E+03  0.12699999809E+01 0.  1.
</event>
<event>
 5   0  0.6542036E-05  0.1499042E+04  0.7818609E-02  0.8885090E-01
       -1   -1    0    0    0  501  0.00000000000E+00  0.00000000000E+00  0.59729205619E+03  0.59729205621E+03  0.50400001928E-02 0. -1.
        1   -1    0    0  501    0  0.00000000000E+00  0.00000000000E+00 -0.94054810091E+03  0.94054810092E+03  0.50400001928E-02 0.  1.
    10030    2    1    2    0    0  0.00000000000E+00  0.00000000000E+00 -0.34325604472E+03  0.15378401571E+04  0.14990422398E+04 0.  0.
        4    1    3    3  502    0 -0.22642371508E+03 -0.48647777378E+03  0.36522482889E+03  0.64909098874E+03  0.12699999809E+01 0. -1.
       -4    1    3    3    0  502  0.22642371508E+03  0.48647777378E+03 -0.70848087361E+03  0.88874916839E+03  0.12699999809E+01 0.  1.
</event>
<event>
 5   0  0.6364378E-05  0.1503513E+04  0.7818609E-02  0.8882120E-01
        1   -1    0    0  501    0  0.00000000000E+00  0.00000000000E+00  0.10320292938E+04  0.10320292938E+04  0.50400001928E-02 0.  1.
       -1   -1    0    0    0  501  0.00000000000E+00  0.00000000000E+00 -0.54759884262E+03  0.54759884264E+03  0.50400001928E-02 0. -1.
    10030    2    1    2    0    0  0.00000000000E+00  0.00000000000E+00  0.48443045114E+03  0.15796281364E+04  0.15035132814E+04 0.  0.
        5    1    3    3  502    0  0.39891495631E+03  0.21524936638E+03  0.87228397703E+03  0.98303960179E+03  0.46999998093E+01 0.  1.
       -5    1    3    3    0  502 -0.39891495631E+03 -0.21524936638E+03 -0.38785352589E+03  0.59658853462E+03  0.46999998093E+01 0. -1.
</event>
<event>
 5   0  0.1219810E-04  0.1501743E+04  0.7818609E-02  0.8883294E-01
       -2   -1    0    0    0  501  0.00000000000E+00  0.00000000000E+00  0.57811063875E+03  0.57811063876E+03  0.25500000920E-02 0.  1.
        2   -1    0    0  501    0  0.00000000000E+00  0.00000000000E+00 -0.97526010087E+03  0.97526010088E+03  0.25500000920E-02 0. -1.
    10030    2    1    2    0    0  0.00000000000E+00  0.00000000000E+00 -0.39714946212E+03  0.15533707396E+04  0.15017433068E+04 0.  0.
        1    1    3    3  502    0  0.67167756282E+03 -0.27223190666E+03 -0.40165900144E+03  0.82860781607E+03  0.50400001928E-02 0. -1.
       -1    1    3    3    0  502 -0.67167756282E+03  0.27223190666E+03  0.45095393165E+01  0.72476292356E+03  0.50400001928E-02 0.  1.
</event>
<event>
 5   0  0.6361716E-05  0.1492823E+04  0.7818609E-02  0.8889239E-01
        1   -1    0    0  501    0  0.00000000000E+00  0.00000000000E+00  0.44314782029E+03  0.44314782032E+03  0.50400001928E-02 0. -1.
       -1   -1    0    0    0  501  0.00000000000E+00  0.00000000000E+00 -0.12572112307E+04  0.12572112307E+04  0.50400001928E-02 0.  1.
    10030    2    1    2    0    0  0.00000000000E+00  0.00000000000E+00 -0.81406341045E+03  0.17003590511E+04  0.14928233875E+04 0.  0.
        3    1    3    3  502    0 -0.36923450127E+03  0.53540367888E+01  0.33181333924E+03  0.49645028446E+03  0.10100000352E+00 0. -1.
       -3    1    3    3    0  502  0.36923450127E+03 -0.53540367888E+01 -0.11458767497E+04  0.12039087666E+04  0.10100000352E+00 0.  1.
</event>
<event>
 5   0  0.1228286E-04  0.1502687E+04  0.7818609E-02  0.8882668E-01
       -2   -1    0    0    0  501  0.00000000000E+00  0.00000000000E+00  0.12293450532E+04  0.12293450532E+04  0.25500000920E-02 0.  1.
        2   -1    0    0  501    0  0.00000000000E+00  0.00000000000E+00 -0.45920145167E+03  0.45920145168E+03  0.25500000920E-02 0. -1.
    10030    2    1    2    0    0  0.00000000000E+00  0.00000000000E+00  0.77014360151E+03  0.16885465049E+04  0.15026869708E+04 0.  0.
        2    1    3    3  502    0 -0.70038223119E+03  0.24448646479E+03  0.51901263323E+03  0.90536347104E+03  0.25500000920E-02 0.  1.
       -2    1    3    3    0  502  0.70038223119E+03 -0.24448646479E+03  0.25113096829E+03  0.78318303382E+03  0.25500000920E-02 0. -1.
</event>
<event>
 5   0  0.1228286E-04  0.1501066E+04  0.7818609E-02  0.8883745E-01
        2   -1    0    0  501    0  0.00000000000E+00  0.00000000000E+00  0.22327070318E+04  0.22327070318E+04  0.25500000920E-02 0. -1.
       -2   -1    0    0    0  501  0.00000000000E+00  0.00000000000E+00 -0.25229443687E+03  0.25229443688E+03  0.25500000920E-02 0.  1.
    10030    2    1    2    0    0  0.00000000000E+00  0.00000000000E+00  0.19804125949E+04  0.24850014687E+04  0.15010657058E+04 0.  0.
        2    1    3    3  502    0  0.33004878715E+03  0.88959313670E+02  0.20963590704E+04  0.21240450356E+04  0.25500000920E-02 0. -1.
       -2    1    3    3    0  502 -0.33004878715E+03 -0.88959313670E+02 -0.11594647546E+03  0.36095643305E+03  0.25500000920E-02 0.  1.
</event>
<event>
 5   0  0.1216921E-04  0.1498159E+04  0.7818609E-02  0.8885678E-01
       -2   -1    0    0    0  501  0.00000000000E+00  0.00000000000E+00  0.30946327457E+03  0.30946327458E+03  0.25500000920E-02 0. -1.
        2   -1    0    0  501    0  0.00000000000E+00  0.00000000000E+00 -0.18132032280E+04  0.18132032280E+04  0.25500000920E-02 0.  1.
    10030    2    1    2    0    0  0.00000000000E+00  0.00000000000E+00 -0.15037399535E+04  0.21226665026E+04  0.14981586143E+04 0.  0.
        4    1    3    3  502    0  0.47529043663E+03  0.45130287111E+03 -0.23799472649E+03  0.69729361346E+03  0.12699999809E+01 0. -1.
       -4    1    3    3    0  502 -0.47529043663E+03 -0.45130287111E+03 -0.12657452270E+04  0.14253728891E+04  0.12699999809E+01 0.  1.
</event>
<event>
 5   0  0.1254487E-04  0.1507515E+04  0.7818609E-02  0.8879471E-01
        2   -1    0    0  501    0  0.00000000000E+00  0.00000000000E+00  0.13061687674E+04  0.13061687674E+04  0.25500000920E-02 0.  1.
       -2   -1    0    0    0  501  0.00000000000E+00  0.00000000000E+00 -0.43497449449E+03  0.43497449449E+03  0.25500000920E-02 0. -1.
    10030    2    1    2    0    0  0.00000000000E+00  0.00000000000E+00  0.87119427292E+03  0.17411432619E+04  0.15075146425E+04 0.  0.
        5    1    3    3  502    0 -0.53114491168E+01  0.34534318136E+03  0.12093775296E+04  0.12577385355E+04  0.46999998093E+01 0.  1.
       -5    1    3    3    0  502  0.53114491168E+01 -0.34534318136E+03 -0.33818325673E+03  0.48340472643E+03  0.46999998093E+01 0. -1.
</event>
<event>
 5   0  0.1219810E-04  0.1489351E+04  0.7818609E-02  0.8891565E-01
       -2   -1    0    0    0  501  0.00000000000E+00  0.00000000000E+00  0.69045021688E+03  0.69045021688E+03  0.25500000920E-02 0. -1.
        2   -1    0    0  501    0  0.00000000000E+00  0.00000000000E+00 -0.80315944885E+03  0.80315944885E+03  0.25500000920E-02 0.  1.
    10030    2    1    2    0    0  0.00000000000E+00  0.00000000000E+00 -0.11270923197E+03  0.14936096657E+04  0.14893510206E+04 0.  0.
        1    1    3    3  502    0  0.52003359619E+03 -0.45147363274E+03 -0.34049891799E+03  0.76824663710E+03  0.50400001928E-02 0. -1.
       -1    1    3    3    0  502 -0.52003359619E+03  0.45147363274E+03  0.22778968602E+03  0.72536302864E+03  0.50400001928E-02 0.  1.
</event>
<event>
 5   0  0.1254487E-04  0.1501624E+04  0.7818609E-02  0.8883374E-01
       -2   -1    0    0    0  501  0.00000000000E+00  0.00000000000E+00  0.40099238084E+03  0.40099238085E+03  0.25500000920E-02 0. -1.
        2   -1    0    0  501    0  0.00000000000E+00  0.00000000000E+00 -0.14058088252E+04  0.14058088252E+04  0.25500000920E-02 0.  1.
    10030    2    1    2    0    0  0.00000000000E+00  0.00000000000E+00 -0.10048164444E+04  0.18068012061E+04  0.15016239580E+04 0.  0.
        5    1    3    3  502    0  0.44587123069E+03  0.46526743821E+03 -0.96595944327E+03  0.11611953666E+04  0.46999998093E+01 0.  1.
       -5    1    3    3    0  502 -0.44587123069E+03 -0.46526743821E+03 -0.38857001120E+02  0.64560583946E+03  0.46999998093E+01 0. -1.
</event>
<event>
 5   0  0.6542036E-05  0.1496376E+04  0.7818609E-02  0.8886866E-01
       -1   -1    0    0    0  501  0.00000000000E+00  0.00000000000E+00  0.63766716110E+03  0.63766716112E+03  0.50400001928E-02 0.  1.
        1   -1    0    0  501    0  0.00000000000E+00  0.00000000000E+00 -0.87786466672E+03  0.87786466674E+03  0.50400001928E-02 0. -1.
    10030    2    1    2    0    0  0.00000000000E+00  0.00000000000E+00 -0.24019750562E+03  0.15155318279E+04  0.14963762493E+04 0.  0.
        4    1    3    3  502    0  0.18073311863E+03 -0.26497529559E+03 -0.80470111538E+03  0.86626893367E+03  0.12699999809E+01 0. -1.
       -4    1    3    3    0  502 -0.18073311863E+03  0.26497529559E+03  0.56450360976E+03  0.64926289419E+03  0.12699999809E+01 0.  1.
</event>
<event>
 5   0  0.6364378E-05  0.1493977E+04  0.7818609E-02  0.8888468E-01
        1   -1    0    0  501    0  0.00000000000E+00  0.00000000000E+00  0.39304076997E+03  0.39304077000E+03  0.50400001928E-02 0. -1.
       -1   -1    0    0    0  501  0.00000000000E+00  0.00000000000E+00 -0.14196799415E+04  0.14196799415E+04  0.50400001928E-02 0.  1.
    10030    2    1    2    0    0  0.00000000000E+00  0.00000000000E+00 -0.10266391715E+04  0.18127207115E+04  0.14939773725E+04 0.  0.
        5    1    3    3  502    0  0.36170637143E+03  0.17941727345E+03 -0.12758493654E+04  0.13382211142E+04  0.46999998093E+01 0.  1.
       -5    1    3    3    0  502 -0.36170637143E+03 -0.17941727345E+03  0.24921019390E+03  0.47449959735E+03  0.46999998093E+01 0. -1.
</event>
<event>
 5   0  0.1216921E-04  0.1500427E+04  0.7818609E-02  0.8884169E-01
        2   -1    0    0  501    0  0.00000000000E+00  0.00000000000E+00  0.19466599093E+04  0.19466599093E+04  0.25500000920E-02 0.  1.
       -2   -1    0    0    0  501  0.00000000000E+00  0.00000000000E+00 -0.28912101454E+03  0.28912101456E+03  0.25500000920E-02 0. -1.
    10030    2    1    2    0    0  0.00000000000E+00  0.00000000000E+00  0.16575388947E+04  0.22357809238E+04  0.15004269898E+04 0.  0.
        4    1    3    3  502    0 -0.30207230163E+03 -0.68600387794E+03  0.87517056023E+03  0.11522908133E+04  0.12699999809E+01 0.  1.
       -4    1    3    3    0  502  0.30207230163E+03  0.68600387794E+03  0.78236833450E+03  0.10834901106E+04  0.12699999809E+01 0. -1.
</event>
<event>
 5   0  0.1228286E-04  0.1499134E+04  0.7818609E-02  0.8885029E-01
       -2   -1    0    0    0  501  0.00000000000E+00  0.00000000000E+00  0.29605361767E+03  0.29605361768E+03  0.25500000920E-02 0. -1.
        2   -1    0    0  501    0  0.00000000000E+00  0.00000000000E+00 -0.18978007043E+04  0.18978007044E+04  0.25500000920E-02 0.  1.
    10030    2    1    2    0    0  0.00000000000E+00  0.00000000000E+00 -0.16017470867E+04  0.21938543220E+04  0.14991341023E+04 0.  0.
        2    1    3    3  502    0 -0.23309086512E+03  0.21311864457E+03  0.19392517914E+03  0.37061824453E+03  0.25500000920E-02 0. -1.
       -2    1    3    3    0  502  0.23309086512E+03 -0.21311864457E+03 -0.17956722658E+04  0.18232360775E+04  0.25500000920E-02 0.  1.
</event>
<event>
 5   0  0.6364378E-05  0.1529643E+04  0.7818609E-02  0.8864976E-01
        1   -1    0    0  501    0  0.00000000000E+00  0.00000000000E+00  0.87097080053E+03  0.87097080054E+03  0.50400001928E-02 0. -1.
       -1   -1    0    0    0  501  0.00000000000E+00  0.00000000000E+00 -0.67160922633E+03  0.67160922635E+03  0.50400001928E-02 0.  1.
    10030    2    1    2    0    0  0.00000000000E+00  0.00000000000E+00  0.19936157420E+03  0.15425800269E+04  0.15296431290E+04 0.  0.
        5    1    3    3  502    0  0.34454368748E+03 -0.16431196454E+03 -0.56866191712E+03  0.68491403859E+03  0.46999998093E+01 0.  1.
       -5    1    3    3    0  502 -0.34454368748E+03  0.16431196454E+03  0.76802349132E+03  0.85766598830E+03  0.46999998093E+01 0. -1.
</event>
<event>
 5   0  0.6542036E-05  0.1500013E+04  0.7818609E-02  0.8884444E-01
       -1   -1    0    0    0  501  0.00000000000E+00  0.00000000000E+00  0.41216480617E+03  0.41216480621E+03  0.50400001928E-02 0. -1.
        1   -1    0    0  501    0  0.00000000000E+00  0.00000000000E+00 -0.13647696656E+04  0.13647696656E+04  0.50400001928E-02 0.  1.
    10030    2    1    2    0    0  0.00000000000E+00  0.00000000000E+00 -0.95260485939E+03  0.17769344718E+04  0.15000133662E+04 0.  0.
        4    1    3    3  502    0  0.20659772762E+03 -0.71129901676E+02 -0.13262288879E+04  0.13441081653E+04  0.12699999809E+01 0.  1.
       -4    1    3    3    0  502 -0.20659772762E+03  0.71129901676E+02  0.37362402854E+03  0.43282630647E+03  0.12699999809E+01 0. -1.
</event>
<event>
 5   0  0.1254487E-04  0.1495676E+04  0.7818609E-02  0.8887333E-01
        2   -1    0    0  501    0  0.00000000000E+00  0.00000000000E+00  0.20935672335E+04  0.20935672335E+04  0.25500000920E-02 0. -1.
       -2   -1    0    0    0  501  0.00000000000E+00  0.00000000000E+00 -0.26713337256E+03  0.26713337257E+03  0.25500000920E-02 0.  1.
    10030    2    1    2    0    0  0.00000000000E+00  0.00000000000E+00  0.18264338609E+04  0.23607006061E+04  0.14956760021E+04 0.  0.
        5    1    3    3  502    0 -0.23226098569E+02 -0.42254663890E+03  0.18863751114E+04  0.19332662167E+04  0.46999998093E+01 0. -1.
       -5    1    3    3    0  502  0.23226098569E+02  0.42254663890E+03 -0.59941250478E+02  0.42743438936E+03  0.46999998093E+01 0.  1.
</event>
<event>
 5   0  0.6509279E-05  0.1498178E+04  0.7818609E-02  0.8885665E-01
       -1   -1    0    0    0  501  0.00000000000E+00  0.00000000000E+00  0.65017338028E+03  0.65017338030E+03  0.50400001928E-02 0.  1.
        1   -1    0    0  501    0  0.00000000000E+00  0.00000000000E+00 -0.86305336349E+03  0.86305336350E+03  0.50400001928E-02 0. -1.
    10030    2    1    2    0    0  0.00000000000E+00  0.00000000000E+00 -0.21287998321E+03  0.15132267438E+04  0.14981779904E+04 0.  0.
        2    1    3    3  502    0 -0.72520069840E+03 -0.90589583710E+02 -0.27244352602E+03  0.77996666629E+03  0.25500000920E-02 0. -1.
       -2    1    3    3    0  502  0.72520069840E+03  0.90589583710E+02  0.59563542810E+02  0.73326007752E+03  0.25500000920E-02 0.  1.
</event>
<event>
 5   0  0.6361716E-05  0.1500605E+04  0.7818609E-02  0.8884051E-01
       -1   -1    0    0    0  501  0.00000000000E+00  0.00000000000E+00  0.49909521864E+03  0.49909521866E+03  0.50400001928E-02 0.  1.
        1   -1    0    0  501    0  0.00000000000E+00  0.00000000000E+00 -0.11279491740E+04  0.11279491741E+04  0.50400001928E-02 0. -1.
    10030    2    1    2    0    0  0.00000000000E+00  0.00000000000E+00 -0.62885395541E+03  0.16270443927E+04  0.15006052641E+04 0.  0.
        3    1    3    3  502    0 -0.20352048170E+03  0.61988449758E+03  0.87300258842E+02  0.65825429904E+03  0.10100000352E+00 0.  1.
       -3    1    3    3    0  502  0.20352048170E+03 -0.61988449758E+03 -0.71615421425E+03  0.96879009367E+03  0.10100000352E+00 0. -1.
</event>
<event>
 5   0  0.6668433E-05  0.1504363E+04  0.7818609E-02  0.8881557E-01
       -1   -1    0    0    0  501  0.00000000000E+00  0.00000000000E+00  0.89638344772E+03  0.89638344773E+03  0.50400001928E-02 0. -1.
        1   -1    0    0  501    0  0.00000000000E+00  0.00000000000E+00 -0.63117734907E+03  0.63117734909E+03  0.50400001928E-02 0.  1.
    10030    2    1    2    0    0  0.00000000000E+00  0.00000000000E+00  0.26520609865E+03  0.15275607968E+04  0.15043628928E+04 0.  0.
        1    1    3    3  502    0 -0.43002725843E+03  0.58028350064E+03  0.34590066842E+03  0.80081187338E+03  0.50400001928E-02 0.  1.
       -1    1    3    3    0  502  0.43002725843E+03 -0.58028350064E+03 -0.80694569768E+02  0.72674892344E+03  0.50400001928E-02 0. -1.
</event>
<event>
 5   0  0.1219810E-04  0.1503590E+04  0.7818609E-02  0.8882069E-01
       -2   -1    0    0    0  501  0.00000000000E+00  0.00000000000E+00  0.30311958909E+03  0.30311958910E+03  0.25500000920E-02 0. -1.
        2   -1    0    0  501    0  0.00000000000E+00  0.00000000000E+00 -0.18645970330E+04  0.18645970330E+04  0.25500000920E-02 0.  1.
    10030    2    1    2    0    0  0.00000000000E+00  0.00000000000E+00 -0.15614774439E+04  0.21677166221E+04  0.15035902187E+04 0.  0.
        1    1    3    3  502    0 -0.68542884071E+02 -0.11572085204E+03 -0.18471112076E+04  0.18520014189E+04  0.50400001928E-02 0.  1.
       -1    1    3    3    0  502  0.68542884071E+02  0.11572085204E+03  0.28563376365E+03  0.31571520318E+03  0.50400001928E-02 0. -1.
</event>
<event>
 5   0  0.1186664E-04  0.1499750E+04  0.7818609E-02  0.8884619E-01
        2   -1    0    0  501    0  0.00000000000E+00  0.00000000000E+00  0.90488774971E+03  0.90488774971E+03  0.25500000920E-02 0.  1.
       -2   -1    0    0    0  501  0.00000000000E+00  0.00000000000E+00 -0.62141665346E+03  0.62141665347E+03  0.25500000920E-02 0. -1.
    10030    2    1    2    0    0  0.00000000000E+00  0.00000000000E+00  0.28347109625E+03  0.15263044032E+04  0.14997497354E+04 0.  0.
        3    1    3    3  502    0 -0.42727073900E+03 -0.18272688000E+03 -0.45721098157E+03  0.65191355941E+03  0.10100000352E+00 0. -1.
       -3    1    3    3    0  502  0.42727073900E+03  0.18272688000E+03  0.74068207781E+03  0.87439084377E+03  0.10100000352E+00 0.  1.
</event>
<event>
 5   0  0.1254487E-04  0.1502254E+04  0.7818609E-02  0.8882955E-01
        2   -1    0    0  501    0  0.00000000000E+00  0.00000000000E+00  0.15384169095E+04  0.15384169095E+04  0.25500000920E-02 0. -1.
       -2   -1    0    0    0  501  0.00000000000E+00  0.00000000000E+00 -0.36673526891E+03  0.36673526892E+03  0.25500000920E-02 0.  1.
    10030    2    1    2    0    0  0.00000000000E+00  0.00000000000E+00  0.11716816406E+04  0.19051521785E+04  0.15022539586E+04 0.  0.
        5    1    3    3  502    0  0.16933635457E+03  0.53108933478E+03 -0.52603472487E+02  0.55992847562E+03  0.46999998093E+01 0.  1.
       -5    1    3    3    0  502 -0.16933635457E+03 -0.53108933478E+03  0.12242851131E+04  0.13452237028E+04  0.46999998093E+01 0. -1.
</event>
<event>
 5   0  0.1216921E-04  0.1511360E+04  0.7818609E-02  0.8876933E-01
        2   -1    0    0  501    0  0.00000000000E+00  0.00000000000E+00  0.45762547279E+03  0.45762547280E+03  0.25500000920E-02 0.  1.
       -2   -1    0    0    0  501  0.00000000000E+00  0.00000000000E+00 -0.12478599857E+04  0.12478599857E+04  0.25500000920E-02 0. -1.
    10030    2    1    2    0    0  0.00000000000E+00  0.00000000000E+00 -0.79023451295E+03  0.17054854585E+04  0.15113603355E+04 0.  0.
        4    1    3    3  502    0 -0.62486304219E+03  0.10951559126E+03 -0.85847154434E+03  0.10674373478E+04  0.12699999809E+01 0. -1.
       -4    1    3    3    0  502  0.62486304219E+03 -0.10951559126E+03  0.68237031390E+02  0.63804811070E+03  0.12699999809E+01 0.  1.
</event>
<event>
 5   0  0.1219810E-04  0.1505148E+04  0.7818609E-02  0.8881037E-01
       -2   -1    0    0    0  501  0.00000000000E+00  0.00000000000E+00  0.12429022915E+04  0.12429022915E+04  0.25500000920E-02 0.  1.
        2   -1    0    0  501    0  0.00000000000E+00  0.00000000000E+00 -0.45568161446E+03  0.45568161447E+03  0.25500000920E-02 0. -1.
    10030    2    1    2    0    0  0.00000000000E+00  0.00000000000E+00  0.78722067708E+03  0.16985839060E+04  0.15051481294E+04 0.  0.
        1    1    3    3  502    0  0.52750425128E+03 -0.32023278013E+03 -0.92514206341E+02  0.62399410813E+03  0.50400001928E-02 0. -1.
       -1    1    3    3    0  502 -0.52750425128E+03  0.32023278013E+03  0.87973488342E+03  0.10745897979E+04  0.50400001928E-02 0.  1.
</event>
<event>
 5   0  0.6509279E-05  0.1500633E+04  0.7818609E-02  0.8884032E-01
       -1   -1    0    0    0  501  0.00000000000E+00  0.00000000000E+00  0.58423124201E+03  0.58423124203E+03  0.50400001928E-02 0. -1.
        1   -1    0    0  501    0  0.00000000000E+00  0.00000000000E+00 -0.96361685900E+03  0.96361685901E+03  0.50400001928E-02 0.  1.
    10030    2    1    2    0    0  0.00000000000E+00  0.00000000000E+00 -0.37938561699E+03  0.15478481010E+04  0.15006332988E+04 0.  0.
        2    1    3    3  502    0 -0.55325706545E+03  0.47203694233E+03 -0.38006085478E+03  0.82058424841E+03  0.25500000920E-02 0.  1.
       -2    1    3    3    0  502  0.55325706545E+03 -0.47203694233E+03  0.67523779839E+00  0.72726385263E+03  0.25500000920E-02 0. -1.
</event>
<event>
 5   0  0.6361716E-05  0.1507688E+04  0.7818609E-02  0.8879356E-01
        1   -1    0    0  501    0  0.00000000000E+00  0.00000000000E+00  0.62430787489E+03  0.62430787491E+03  0.50400001928E-02 0. -1.
       -1   -1    0    0    0  501  0.00000000000E+00  0.00000000000E+00 -0.91025746514E+03  0.91025746516E+03  0.50400001928E-02 0.  1.
    10030    2    1    2    0    0  0.00000000000E+00  0.00000000000E+00 -0.28594959025E+03  0.15345653401E+04  0.15076881689E+04 0.  0.
        3    1    3    3  502    0 -0.56991953723E+03 -0.49005514189E+03 -0.84340796568E+02  0.75635686100E+03  0.10100000352E+00 0. -1.
       -3    1    3    3    0  502  0.56991953723E+03  0.49005514189E+03 -0.20160879368E+03  0.77820847907E+03  0.10100000352E+00 0.  1.
</event>
<event>
 5   0  0.1186664E-04  0.1502145E+04  0.7818609E-02  0.8883028E-01
       -2   -1    0    0    0  501  0.00000000000E+00  0.00000000000E+00  0.55748753971E+03  0.55748753972E+03  0.25500000920E-02 0.  1.
        2   -1    0    0  501    0  0.00000000000E+00  0.00000000000E+00 -0.10118791435E+04  0.10118791435E+04  0.25500000920E-02 0. -1.
    10030    2    1    2    0    0  0.00000000000E+00  0.00000000000E+00 -0.45439160377E+03  0.15693666832E+04  0.15021451517E+04 0.  0.
        3    1    3    3  502    0  0.37629783955E+03  0.50936557641E+03  0.19467725052E+03  0.66253497760E+03  0.10100000352E+00 0.  1.
       -3    1    3    3    0  502 -0.37629783955E+03 -0.50936557641E+03 -0.64906885428E+03  0.90683170560E+03  0.10100000352E+00 0. -1.
</event>
<event>
 5   0  0.1186664E-04  0.1503041E+04  0.7818609E-02  0.8882433E-01
       -2   -1    0    0    0  501  0.00000000000E+00  0.00000000000E+00  0.83345925528E+03  0.83345925529E+03  0.25500000920E-02 0.  1.
        2   -1    0    0  501    0  0.00000000000E+00  0.00000000000E+00 -0.67763738189E+03  0.67763738190E+03  0.25500000920E-02 0. -1.
    10030    2    1    2    0    0  0.00000000000E+00  0.00000000000E+00  0.15582187339E+03  0.15110966372E+04  0.15030411141E+04 0.  0.
        3    1    3    3  502    0 -0.11871361179E+03 -0.74022060374E+03  0.25058531326E+02  0.75009826291E+03  0.10100000352E+00 0. -1.
       -3    1    3    3    0  502  0.11871361179E+03  0.74022060374E+03  0.13076334207E+03  0.76099837428E+03  0.10100000352E+00 0.  1.
</event>
<event>
 5   0  0.6542036E-05  0.1501298E+04  0.7818609E-02  0.8883590E-01
       -1   -1    0    0    0  501  0.00000000000E+00  0.00000000000E+00  0.43752931299E+03  0.43752931302E+03  0.50400001928E-02 0.  1.
        1   -1    0    0  501    0  0.00000000000E+00  0.00000000000E+00 -0.12878546634E+04  0.12878546634E+04  0.50400001928E-02 0. -1.
    10030    2    1    2    0    0  0.00000000000E+00  0.00000000000E+00 -0.85032535039E+03  0.17253839764E+04  0.15012983263E+04 0.  0.
        4    1    3    3  502    0  0.64136697824E+03 -0.75067533983E+02  0.14699431595E+02  0.64591363325E+03  0.12699999809E+01 0.  1.
       -4    1    3    3    0  502 -0.64136697824E+03  0.75067533983E+02 -0.86502478198E+03  0.10794703432E+04  0.12699999809E+01 0. -1.
</event>
<event>
 5   0  0.6668433E-05  0.1499444E+04  0.7818609E-02  0.8884823E-01
        1   -1    0    0  501    0  0.00000000000E+00  0.00000000000E+00  0.92411881250E+03  0.92411881251E+03  0.50400001928E-02 0.  1.
       -1   -1    0    0    0  501  0.00000000000E+00  0.00000000000E+00 -0.60823671461E+03  0.60823671463E+03  0.50400001928E-02 0. -1.
    10030    2    1    2    0    0  0.00000000000E+00  0.00000000000E+00  0.31588209789E+03  0.15323555271E+04  0.14994438842E+04 0.  0.
        1    1    3    3  502    0 -0.28964005823E+03  0.59819400231E+03 -0.19659663706E+03  0.69309282600E+03  0.50400001928E-02 0. -1.
       -1    1    3    3    0  502  0.28964005823E+03 -0.59819400231E+03  0.51247873495E+03  0.83926270114E+03  0.50400001928E-02 0.  1.
</event>
<event>
 5   0  0.1254487E-04  0.1460961E+04  0.7818609E-02  0.8910837E-01
       -2   -1    0    0    0  501  0.00000000000E+00  0.00000000000E+00  0.52877280016E+03  0.52877280016E+03  0.25500000920E-02 0.  1.
        2   -1    0    0  501    0  0.00000000000E+00  0.00000000000E+00 -0.10091325419E+04  0.10091325419E+04  0.25500000920E-02 0. -1.
    10030    2    1    2    0    0  0.00000000000E+00  0.00000000000E+00 -0.48035974171E+03  0.15379053420E+04  0.14609611082E+04 0.  0.
        5    1    3    3  502    0  0.36552093653E+03  0.47161346525E+03  0.20338518352E+03  0.63040656605E+03  0.46999998093E+01 0.  1.
       -5    1    3    3    0  502 -0.36552093653E+03 -0.47161346525E+03 -0.68374492523E+03  0.90749877599E+03  0.46999998093E+01 0. -1.
</event>
<event>
 5   0  0.6542036E-05  0.1499597E+04  0.7818609E-02  0.8884721E-01
       -1   -1    0    0    0  501  0.00000000000E+00  0.00000000000E+00  0.45143274247E+03  0.45143274250E+03  0.50400001928E-02 0. -1.
        1   -1    0    0  501    0  0.00000000000E+00  0.00000000000E+00 -0.12453627310E+04  0.12453627310E+04  0.50400001928E-02 0.  1.
    10030    2    1    2    0    0  0.00000000000E+00  0.00000000000E+00 -0.79392998852E+03  0.16967954735E+04  0.14995966298E+04 0.  0.
        4    1    3    3  502    0 -0.58853250933E+03 -0.40673093095E+03 -0.65097464147E+03  0.96724875883E+03  0.12699999809E+01 0.  1.
       -4    1    3    3    0  502  0.58853250933E+03  0.40673093095E+03 -0.14295534705E+03  0.72954671466E+03  0.12699999809E+01 0. -1.
</event>
<event>
 5   0  0.6668433E-05  0.1499895E+04  0.7818609E-02  0.8884522E-01
        1   -1    0    0  501    0  0.00000000000E+00  0.00000000000E+00  0.18806757731E+04  0.18806757731E+04  0.50400001928E-02 0. -1.
       -1   -1    0    0    0  501  0.00000000000E+00  0.00000000000E+00 -0.29905290440E+03  0.29905290445E+03  0.50400001928E-02 0.  1.
    10030    2    1    2    0    0  0.00000000000E+00  0.00000000000E+00  0.15816228687E+04  0.21797286775E+04  0.14998953993E+04 0.  0.
        1    1    3    3  502    0  0.41150802600E+03  0.24780641665E+03 -0.46134920462E+02  0.48257155584E+03  0.50400001928E-02 0.  1.
       -1    1    3    3    0  502 -0.41150802600E+03 -0.24780641665E+03  0.16277577891E+04  0.16971571217E+04  0.50400001928E-02 0. -1.
</event>
<event>
 5   0  0.1216921E-04  0.1495038E+04  0.7818609E-02  0.8887759E-01
        2   -1    0    0  501    0  0.00000000000E+00  0.00000000000E+00  0.12576362730E+04  0.12576362730E+04  0.25500000920E-02 0.  1.
       -2   -1    0    0    0  501  0.00000000000E+00  0.00000000000E+00 -0.44431342707E+03  0.44431342708E+03  0.25500000920E-02 0. -1.
    10030    2    1    2    0    0  0.00000000000E+00  0.00000000000E+00  0.81332284591E+03  0.17019497001E+04  0.14950380363E+04 0.  0.
        4    1    3    3  502    0 -0.71298640491E+03 -0.48172811947E+02  0.65636511166E+03  0.97030253329E+03  0.12699999809E+01 0.  1.
       -4    1    3    3    0  502  0.71298640491E+03  0.48172811947E+02  0.15695773425E+03  0.73164716677E+03  0.12699999809E+01 0. -1.
</event>
<event>
 5   0  0.6361716E-05  0.1499885E+04  0.7818609E-02  0.8884529E-01
       -1   -1    0    0    0  501  0.00000000000E+00  0.00000000000E+00  0.32962520988E+03  0.32962520992E+03  0.50400001928E-02 0.  1.
        1   -1    0    0  501    0  0.00000000000E+00  0.00000000000E+00 -0.17062218903E+04  0.17062218903E+04  0.50400001928E-02 0. -1.
    10030    2    1    2    0    0  0.00000000000E+00  0.00000000000E+00 -0.13765966804E+04  0.20358471002E+04  0.14998849939E+04 0.  0.
        3    1    3    3  502    0  0.41452851943E+03 -0.19874498267E+02  0.15955824702E+03  0.44462088738E+03  0.10100000352E+00 0.  1.
       -3    1    3    3    0  502 -0.41452851943E+03  0.19874498267E+02 -0.15361549274E+04  0.15912262128E+04  0.10100000352E+00 0. -1.
</event>
<event>
 5   0  0.6361716E-05  0.1506878E+04  0.7818609E-02  0.8879892E-01
        1   -1    0    0  501    0  0.00000000000E+00  0.00000000000E+00  0.67984357018E+03  0.67984357020E+03  0.50400001928E-02 0.  1.
       -1   -1    0    0    0  501  0.00000000000E+00  0.00000000000E+00 -0.83500193487E+03  0.83500193489E+03  0.50400001928E-02 0. -1.
    10030    2    1    2    0    0  0.00000000000E+00  0.00000000000E+00 -0.15515836469E+03  0.15148455051E+04  0.15068784908E+04 0.  0.
        3    1    3    3  502    0 -0.52069710612E+01  0.24808615628E+03  0.63758691521E+03  0.68417171684E+03  0.10100000352E+00 0.  1.
       -3    1    3    3    0  502  0.52069710612E+01 -0.24808615628E+03 -0.79274527990E+03  0.83067378825E+03  0.10100000352E+00 0. -1.
</event>
<event>
 5   0  0.6668433E-05  0.1499381E+04  0.7818609E-02  0.8884865E-01
       -1   -1    0    0    0  501  0.00000000000E+00  0.00000000000E+00  0.19568535101E+04  0.19568535101E+04  0.50400001928E-02 0. -1.
        1   -1    0    0  501    0  0.00000000000E+00  0.00000000000E+00 -0.28721397226E+03  0.28721397230E+03  0.50400001928E-02 0.  1.
    10030    2    1    2    0    0  0.00000000000E+00  0.00000000000E+00  0.16696395379E+04  0.22440674824E+04  0.14993807653E+04 0.  0.
        1    1    3    3  502    0  0.43539660774E+03 -0.22184126065E+03 -0.16111598682E+02  0.48892058107E+03  0.50400001928E-02 0.  1.
       -1    1    3    3    0  502 -0.43539660774E+03  0.22184126065E+03  0.16857511366E+04  0.17551469014E+04  0.50400001928E-02 0. -1.
</event>
<event>
 5   0  0.6364378E-05  0.1499954E+04  0.7818609E-02  0.8884483E-01
       -1   -1    0    0    0  501  0.00000000000E+00  0.00000000000E+00  0.84216542646E+03  0.84216542647E+03  0.50400001928E-02 0. -1.
        1   -1    0    0  501    0  0.00000000000E+00  0.00000000000E+00 -0.66788020645E+03  0.66788020647E+03  0.50400001928E-02 0.  1.
    10030    2    1    2    0    0  0.00000000000E+00  0.00000000000E+00  0.17428522000E+03  0.15100456329E+04  0.14999541579E+04 0.  0.
        5    1    3    3  502    0 -0.31983605914E+03 -0.24501364251E+02 -0.59531797862E+03  0.67625513473E+03  0.46999998093E+01 0.  1.
       -5    1    3    3    0  502  0.31983605914E+03  0.24501364251E+02  0.76960319863E+03  0.83379049821E+03  0.46999998093E+01 0. -1.
</event>
<event>
 5   0  0.6364378E-05  0.1496187E+04  0.7818609E-02  0.8886993E-01
        1   -1    0    0  501    0  0.00000000000E+00  0.00000000000E+00  0.90016099539E+03  0.90016099541E+03  0.50400001928E-02 0.  1.
       -1   -1    0    0    0  501  0.00000000000E+00  0.00000000000E+00 -0.62171529546E+03  0.62171529548E+03  0.50400001928E-02 0. -1.
    10030    2    1    2    0    0  0.00000000000E+00  0.00000000000E+00  0.27844569994E+03  0.15218762909E+04  0.14961869659E+04 0.  0.
        5    1    3    3  502    0 -0.58687290769E+03 -0.45842864914E+03  0.66974189650E+02  0.74771937798E+03  0.46999998093E+01 0.  1.
       -5    1    3    3    0  502  0.58687290769E+03  0.45842864914E+03  0.21147151029E+03  0.77415691290E+03  0.46999998093E+01 0. -1.
</event>
<event>
 5   0  0.6509279E-05  0.1500324E+04  0.7818609E-02  0.8884237E-01
        1   -1    0    0  501    0  0.00000000000E+00  0.00000000000E+00  0.13081982814E+04  0.13081982814E+04  0.50400001928E-02 0. -1.
       -1   -1    0    0    0  501  0.00000000000E+00  0.00000000000E+00 -0.43016653308E+03  0.43016653311E+03  0.50400001928E-02 0.  1.
    10030    2    1    2    0    0  0.00000000000E+00  0.00000000000E+00  0.87803174830E+03  0.17383648145E+04  0.15003241241E+04 0.  0.
        2    1    3    3  502    0  0.19568388000E+03 -0.65851431209E+02 -0.39659738535E+03  0.44712199449E+03  0.25500000920E-02 0.  1.
       -2    1    3    3    0  502 -0.19568388000E+03  0.65851431209E+02  0.12746291336E+04  0.12912428200E+04  0.25500000920E-02 0. -1.
</event>
<event>
 5   0  0.6509279E-05  0.1499365E+04  0.7818609E-02  0.8884875E-01
        1   -1    0    0  501    0  0.00000000000E+00  0.00000000000E+00  0.54650607788E+03  0.54650607790E+03  0.50400001928E-02 0. -1.
       -1   -1    0    0    0  501  0.00000000000E+00  0.00000000000E+00 -0.10283942728E+04  0.10283942728E+04  0.50400001928E-02 0.  1.
    10030    2    1    2    0    0  0.00000000000E+00  0.00000000000E+00 -0.48188819490E+03  0.15749003507E+04  0.14993648263E+04 0.  0.
        2    1    3    3  502    0  0.83696160979E+02 -0.43231961447E+00 -0.10234713755E+04  0.10268879641E+04  0.25500000920E-02 0.  1.
       -2    1    3    3    0  502 -0.83696160979E+02  0.43231961447E+00  0.54158318065E+03  0.54801238657E+03  0.25500000920E-02 0. -1.
</event>
<event>
 5   0  0.6509279E-05  0.1496701E+04  0.7818609E-02  0.8886650E-01
       -1   -1    0    0    0  501  0.00000000000E+00  0.00000000000E+00  0.35405419394E+03  0.35405419398E+03  0.50400001928E-02 0.  1.
        1   -1    0    0  501    0  0.00000000000E+00  0.00000000000E+00 -0.15817596822E+04  0.15817596822E+04  0.50400001928E-02 0. -1.
    10030    2    1    2    0    0  0.00000000000E+00  0.00000000000E+00 -0.12277054883E+04  0.19358138762E+04  0.14967012385E+04 0.  0.
        2    1    3    3  502    0  0.28217568790E+03  0.60140490012E+02  0.27922946029E+03  0.40150851657E+03  0.25500000920E-02 0.  1.
       -2    1    3    3    0  502 -0.28217568790E+03 -0.60140490012E+02 -0.15069349486E+04  0.15343053596E+04  0.25500000920E-02 0. -1.
</event>
<event>
 5   0  0.1254487E-04  0.1498582E+04  0.7818609E-02  0.8885396E-01
        2   -1    0    0  501    0  0.00000000000E+00  0.00000000000E+00  0.95118939461E+03  0.95118939462E+03  0.25500000920E-02 0. -1.
       -2   -1    0    0    0  501  0.00000000000E+00  0.00000000000E+00 -0.59024760452E+03  0.59024760453E+03  0.25500000920E-02 0.  1.
    10030    2    1    2    0    0  0.00000000000E+00  0.00000000000E+00  0.36094179009E+03  0.15414369991E+04  0.14985823456E+04 0.  0.
        5    1    3    3  502    0 -0.73326359098E+03 -0.10951720934E+03  0.29194753099E+03  0.79682178926E+03  0.46999998093E+01 0. -1.
       -5    1    3    3    0  502  0.73326359098E+03  0.10951720934E+03  0.68994259104E+02  0.74461520988E+03  0.46999998093E+01 0.  1.
</event>
<event>
 5   0  0.6668433E-05  0.1497946E+04  0.7818609E-02  0.8885820E-01
       -1   -1    0    0    0  501  0.00000000000E+00  0.00000000000E+00  0.57407963407E+03  0.57407963410E+03  0.50400001928E-02 0. -1.
        1   -1    0    0  501    0  0.00000000000E+00  0.00000000000E+00 -0.97714750206E+03  0.97714750207E+03  0.50400001928E-02 0.  1.
    10030    2    1    2    0    0  0.00000000000E+00  0.00000000000E+00 -0.40306786799E+03  0.15512271362E+04  0.14979459008E+04 0.  0.
        1    1    3    3  502    0 -0.69718439767E+03  0.24840570962E+03 -0.32046222836E+03  0.80651566678E+03  0.50400001928E-02 0. -1.
       -1    1    3    3    0  502  0.69718439767E+03 -0.24840570962E+03 -0.82605639625E+02  0.74471146939E+03  0.50400001928E-02 0.  1.
</event>
<event>
 5   0  0.4462875E-05  0.1497202E+04  0.7818609E-02  0.8886316E-01
        3   -1    0    0  501    0  0.00000000000E+00  0.00000000000E+00  0.18005974303E+04  0.18005974331E+04  0.10100000352E+00 0. -1.
       -3   -1    0    0    0  501  0.00000000000E+00  0.00000000000E+00 -0.31123192381E+03  0.31123194020E+03  0.10100000352E+00 0.  1.
    10030    2    1    2    0    0  0.00000000000E+00  0.00000000000E+00  0.14893655065E+04  0.21118293733E+04  0.14972019537E+04 0.  0.
        3    1    3    3  502    0  0.25766689226E+03 -0.59497195656E+03  0.21687861753E+03  0.68368135956E+03  0.10100000352E+00 0.  1.
       -3    1    3    3    0  502 -0.25766689226E+03  0.59497195656E+03  0.12724868889E+04  0.14281480138E+04  0.10100000352E+00 0. -1.
</event>
<event>
 5   0  0.1254487E-04  0.1497447E+04  0.7818609E-02  0.8886153E-01
       -2   -1    0    0    0  501  0.00000000000E+00  0.00000000000E+00  0.48117781400E+03  0.48117781401E+03  0.25500000920E-02 0. -1.
        2   -1    0    0  501    0  0.00000000000E+00  0.00000000000E+00 -0.11650303217E+04  0.11650303217E+04  0.25500000920E-02 0.  1.
    10030    2    1    2    0    0  0.00000000000E+00  0.00000000000E+00 -0.68385250772E+03  0.16462081357E+04  0.14974468184E+04 0.  0.
        5    1    3    3  502    0  0.17582506015E+03  0.47679907770E+03  0.26252548837E+03  0.57200833413E+03  0.46999998093E+01 0. -1.
       -5    1    3    3    0  502 -0.17582506015E+03 -0.47679907770E+03 -0.94637799609E+03  0.10741998016E+04  0.46999998093E+01 0.  1.
</event>
<event>
 5   0  0.6542036E-05  0.1497234E+04  0.7818609E-02  0.8886294E-01
       -1   -1    0    0    0  501  0.00000000000E+00  0.00000000000E+00  0.43315311619E+03  0.43315311622E+03  0.50400001928E-02 0. -1.
        1   -1    0    0  501    0  0.00000000000E+00  0.00000000000E+00 -0.12938323739E+04  0.12938323739E+04  0.50400001928E-02 0.  1.
    10030    2    1    2    0    0  0.00000000000E+00  0.00000000000E+00 -0.86067925769E+03  0.17269854901E+04  0.14972341495E+04 0.  0.
        4    1    3    3  502    0 -0.58217223395E+03 -0.40344163635E+03 -0.70988484477E+03  0.10028099370E+04  0.12699999809E+01 0.  1.
       -4    1    3    3    0  502  0.58217223395E+03  0.40344163635E+03 -0.15079441292E+03  0.72417555316E+03  0.12699999809E+01 0. -1.
</event>
<event>
 5   0  0.1216921E-04  0.1502748E+04  0.7818609E-02  0.8882627E-01
        2   -1    0    0  501    0  0.00000000000E+00  0.00000000000E+00  0.13860935211E+04  0.13860935211E+04  0.25500000920E-02 0. -1.
       -2   -1    0    0    0  501  0.00000000000E+00  0.00000000000E+00 -0.40730526249E+03  0.40730526250E+03  0.25500000920E-02 0.  1.
    10030    2    1    2    0    0  0.00000000000E+00  0.00000000000E+00  0.97878825861E+03  0.17933987836E+04  0.15027483961E+04 0.  0.
        4    1    3    3  502    0  0.19629936177E+03 -0.71836465560E+03  0.37017015737E+03  0.83163019195E+03  0.12699999809E+01 0. -1.
       -4    1    3    3    0  502 -0.19629936177E+03  0.71836465560E+03  0.60861810123E+03  0.96176859166E+03  0.12699999809E+01 0.  1.
</event>
<event>
 5   0  0.1219810E-04  0.1499595E+04  0.7818609E-02  0.8884722E-01
       -2   -1    0    0    0  501  0.00000000000E+00  0.00000000000E+00  0.64212304945E+03  0.64212304946E+03  0.25500000920E-02 0. -1.
        2   -1    0    0  501    0  0.00000000000E+00  0.00000000000E+00 -0.87552783997E+03  0.87552783997E+03  0.25500000920E-02 0.  1.
    10030    2    1    2    0    0  0.00000000000E+00  0.00000000000E+00 -0.23340479052E+03  0.15176508894E+04  0.14995954208E+04 0.  0.
        1    1    3    3  502    0  0.34381088895E+03  0.72916753119E+02 -0.78700149567E+03  0.86191306665E+03  0.50400001928E-02 0.  1.
       -1    1    3    3    0  502 -0.34381088895E+03 -0.72916753119E+02  0.55359670515E+03  0.65573782278E+03  0.50400001928E-02 0. -1.
</event>
<event>
 5   0  0.6361716E-05  0.1479679E+04  0.7818609E-02  0.8898080E-01
       -1   -1    0    0    0  501  0.00000000000E+00  0.00000000000E+00  0.54150636340E+03  0.54150636343E+03  0.50400001928E-02 0.  1.
        1   -1    0    0  501    0  0.00000000000E+00  0.00000000000E+00 -0.10108138766E+04  0.10108138766E+04  0.50400001928E-02 0. -1.
    10030    2    1    2    0    0  0.00000000000E+00  0.00000000000E+00 -0.46930751322E+03  0.15523202401E+04  0.14796785414E+04 0.  0.
        3    1    3    3  502    0  0.14468885955E+02  0.44866667819E+03  0.38230830915E+03  0.58963615071E+03  0.10100000352E+00 0.  1.
       -3    1    3    3    0  502 -0.14468885955E+02 -0.44866667819E+03 -0.85161582237E+03  0.96268408935E+03  0.10100000352E+00 0. -1.
</event>
<event>
 5   0  0.1186664E-04  0.1499601E+04  0.7818609E-02  0.8884718E-01
       -2   -1    0    0    0  501  0.00000000000E+00  0.00000000000E+00  0.26443568686E+03  0.26443568687E+03  0.25500000920E-02 0.  1.
        2   -1    0    0  501    0  0.00000000000E+00  0.00000000000E+00 -0.21260394949E+04  0.21260394949E+04  0.25500000920E-02 0. -1.
    10030    2    1    2    0    0  0.00000000000E+00  0.00000000000E+00 -0.18616038080E+04  0.23904751817E+04  0.14996008991E+04 0.  0.
        3    1    3    3  502    0 -0.30529156788E+03  0.27457258604E+01 -0.20224695565E+04  0.20453834842E+04  0.10100000352E+00 0. -1.
       -3    1    3    3    0  502  0.30529156788E+03 -0.27457258604E+01  0.16086574851E+03  0.34509169749E+03  0.10100000352E+00 0.  1.
</event>
<event>
 5   0  0.6542036E-05  0.1500667E+04  0.7818609E-02  0.8884009E-01
       -1   -1    0    0    0  501  0.00000000000E+00  0.00000000000E+00  0.57597981847E+03  0.57597981849E+03  0.50400001928E-02 0.  1.
        1   -1    0    0  501    0  0.00000000000E+00  0.00000000000E+00 -0.97746543630E+03  0.97746543631E+03  0.50400001928E-02 0. -1.
    10030    2    1    2    0    0  0.00000000000E+00  0.00000000000E+00 -0.40148561782E+03  0.15534452548E+04  0.15006670045E+04 0.  0.
        4    1    3    3  502    0  0.60960481709E+02 -0.64186240196E+03  0.19654565817E+03  0.67404401342E+03  0.12699999809E+01 0.  1.
       -4    1    3    3    0  502 -0.60960481709E+02  0.64186240196E+03 -0.59803127599E+03  0.87940124138E+03  0.12699999809E+01 0. -1.
</event>
<event>
 5   0  0.1228286E-04  0.1504222E+04  0.7818609E-02  0.8881650E-01
       -2   -1    0    0    0  501  0.00000000000E+00  0.00000000000E+00  0.39139804759E+03  0.39139804760E+03  0.25500000920E-02 0. -1.
        2   -1    0    0  501    0  0.00000000000E+00  0.00000000000E+00 -0.14452575842E+04  0.14452575842E+04  0.25500000920E-02 0.  1.
    10030    2    1    2    0    0  0.00000000000E+00  0.00000000000E+00 -0.10538595366E+04  0.18366556318E+04  0.15042220537E+04 0.  0.
        2    1    3    3  502    0 -0.99330048445E+02  0.71464031366E+03 -0.26764678853E+03  0.76955314296E+03  0.25500000920E-02 0. -1.
       -2    1    3    3    0  502  0.99330048445E+02 -0.71464031366E+03 -0.78621274804E+03  0.10671024888E+04  0.25500000920E-02 0.  1.
</event>
<event>
 5   0  0.6542036E-05  0.1495102E+04  0.7818609E-02  0.8887716E-01
        1   -1    0    0  501    0  0.00000000000E+00  0.00000000000E+00  0.12883865517E+04  0.12883865517E+04  0.50400001928E-02 0.  1.
       -1   -1    0    0    0  501  0.00000000000E+00  0.00000000000E+00 -0.43374626226E+03  0.43374626229E+03  0.50400001928E-02 0. -1.
    10030    2    1    2    0    0  0.00000000000E+00  0.00000000000E+00  0.85464028945E+03  0.17221328140E+04  0.14951024730E+04 0.  0.
        4    1    3    3  502    0  0.69826240135E+03  0.26694151785E+03  0.42934267787E+03  0.86207012652E+03  0.12699999809E+01 0. -1.
       -4    1    3    3    0  502 -0.69826240135E+03 -0.26694151785E+03  0.42529761158E+03  0.86006268749E+03  0.12699999809E+01 0.  1.
</event>
<event>
 5   0  0.6542036E-05  0.1502912E+04  0.7818609E-02  0.8882519E-01
       -1   -1    0    0    0  501  0.00000000000E+00  0.00000000000E+00  0.45887145010E+03  0.45887145013E+03  0.50400001928E-02 0. -1.
        1   -1    0    0  501    0  0.00000000000E+00  0.00000000000E+00 -0.12305982222E+04  0.12305982222E+04  0.50400001928E-02 0.  1.
    10030    2    1    2    0    0  0.00000000000E+00  0.00000000000E+00 -0.77172677212E+03  0.16894696724E+04  0.15029123604E+04 0.  0.
        4    1    3    3  502    0  0.66331454506E+03  0.29317758457E+03 -0.60713584233E+03  0.94580908524E+03  0.12699999809E+01 0.  1.
       -4    1    3    3    0  502 -0.66331454506E+03 -0.29317758457E+03 -0.16459092979E+03  0.74366058713E+03  0.12699999809E+01 0. -1.
</event>
<event>
 5   0  0.6509279E-05  0.1501995E+04  0.7818609E-02  0.8883128E-01
        1   -1    0    0  501    0  0.00000000000E+00  0.00000000000E+00  0.65947844800E+03  0.65947844802E+03  0.50400001928E-02 0.  1.
       -1   -1    0    0    0  501  0.00000000000E+00  0.00000000000E+00 -0.85521674469E+03  0.85521674470E+03  0.50400001928E-02 0. -1.
    10030    2    1    2    0    0  0.00000000000E+00  0.00000000000E+00 -0.19573829669E+03  0.15146951927E+04  0.15019946891E+04 0.  0.
        2    1    3    3  502    0 -0.13779258208E+03 -0.44544478187E+03 -0.69156544392E+03  0.83406870976E+03  0.25500000920E-02 0. -1.
       -2    1    3    3    0  502  0.13779258208E+03  0.44544478187E+03  0.49582714723E+03  0.68062648296E+03  0.25500000920E-02 0.  1.
</event>
<event>
 5   0  0.1228286E-04  0.1495479E+04  0.7818609E-02  0.8887465E-01
       -2   -1    0    0    0  501  0.00000000000E+00  0.00000000000E+00  0.95416112031E+03  0.95416112031E+03  0.25500000920E-02 0.  1.
        2   -1    0    0  501    0  0.00000000000E+00  0.00000000000E+00 -0.58597492531E+03  0.58597492531E+03  0.25500000920E-02 0. -1.
    10030    2    1    2    0    0  0.00000000000E+00  0.00000000000E+00  0.36818619500E+03  0.15401360456E+04  0.14954791757E+04 0.  0.
        2    1    3    3  502    0 -0.51889267216E+02 -0.69046991621E+03 -0.10660024848E+03  0.70057463145E+03  0.25500000920E-02 0. -1.
       -2    1    3    3    0  502  0.51889267216E+02  0.69046991621E+03  0.47478644348E+03  0.83956141417E+03  0.25500000920E-02 0.  1.
</event>
<event>
 5   0  0.1219810E-04  0.1501058E+04  0.7818609E-02  0.8883750E-01
       -2   -1    0    0    0  501  0.00000000000E+00  0.00000000000E+00  0.54214486528E+03  0.54214486528E+03  0.25500000920E-02 0.  1.
        2   -1    0    0  501    0  0.00000000000E+00  0.00000000000E+00 -0.10390100367E+04  0.10390100367E+04  0.25500000920E-02 0. -1.
    10030    2    1    2    0    0  0.00000000000E+00  0.00000000000E+00 -0.49686517140E+03  0.15811549020E+04  0.15010582352E+04 0.  0.
        1    1    3    3  502    0 -0.38712179247E+03  0.14546529131E+03 -0.90816787422E+03  0.99789394275E+03  0.50400001928E-02 0. -1.
       -1    1    3    3    0  502  0.38712179247E+03 -0.14546529131E+03  0.41130270282E+03  0.58326095922E+03  0.50400001928E-02 0.  1.
</event>
<event>
 5   0  0.4462875E-05  0.1503320E+04  0.7818609E-02  0.8882248E-01
        4   -1    0    0  501    0  0.00000000000E+00  0.00000000000E+00  0.72505286392E+03  0.72505397618E+03  0.12699999809E+01 0.  1.
       -4   -1    0    0    0  501  0.00000000000E+00  0.00000000000E+00 -0.77924168009E+03  0.77924271500E+03  0.12699999809E+01 0. -1.
    10030    2    1    2    0    0  0.00000000000E+00  0.00000000000E+00 -0.54188816173E+02  0.15042966912E+04  0.15033203608E+04 0.  0.
        3    1    3    3  502    0 -0.58284072800E+03  0.19195942921E+03 -0.46147457056E+03  0.76779588833E+03  0.10100000352E+00 0. -1.
       -3    1    3    3    0  502  0.58284072800E+03 -0.19195942921E+03  0.40728575438E+03  0.73650080285E+03  0.10100000352E+00 0.  1.
</event>
<event>
 5   0  0.1219810E-04  0.1463491E+04  0.7818609E-02  0.8909101E-01
       -2   -1    0    0    0  501  0.00000000000E+00  0.00000000000E+00  0.39969152219E+03  0.39969152220E+03  0.25500000920E-02 0.  1.
        2   -1    0    0  501    0  0.00000000000E+00  0.00000000000E+00 -0.13396614441E+04  0.13396614441E+04  0.25500000920E-02 0. -1.
    10030    2    1    2    0    0  0.00000000000E+00  0.00000000000E+00 -0.93996992190E+03  0.17393529663E+04  0.14634907882E+04 0.  0.
        1    1    3    3  502    0 -0.72410477482E+03 -0.10101367867E+03 -0.50603056974E+03  0.88915601877E+03  0.50400001928E-02 0. -1.
       -1    1    3    3    0  502  0.72410477482E+03  0.10101367867E+03 -0.43393935216E+03  0.85019694752E+03  0.50400001928E-02 0.  1.
</event>
<event>
 5   0  0.6668433E-05  0.1500605E+04  0.7818609E-02  0.8884050E-01
        1   -1    0    0  501    0  0.00000000000E+00  0.00000000000E+00  0.17665503838E+04  0.17665503838E+04  0.50400001928E-02 0.  1.
       -1   -1    0    0    0  501  0.00000000000E+00  0.00000000000E+00 -0.31867422645E+03  0.31867422649E+03  0.50400001928E-02 0. -1.
    10030    2    1    2    0    0  0.00000000000E+00  0.00000000000E+00  0.14478761573E+04  0.20852246103E+04  0.15006053140E+04 0.  0.
        1    1    3    3  502    0  0.30299048137E+02  0.74962714625E+03  0.73749539286E+03  0.10520258292E+04  0.50400001928E-02 0. -1.
       -1    1    3    3    0  502 -0.30299048137E+02 -0.74962714625E+03  0.71038076445E+03  0.10331987811E+04  0.50400001928E-02 0.  1.
</event>
<event>
 5   0  0.1254487E-04  0.1500375E+04  0.7818609E-02  0.8884204E-01
       -2   -1    0    0    0  501  0.00000000000E+00  0.00000000000E+00  0.53237816184E+03  0.53237816185E+03  0.25500000920E-02 0. -1.
        2   -1    0    0  501    0  0.00000000000E+00  0.00000000000E+00 -0.10571078305E+04  0.10571078305E+04  0.25500000920E-02 0.  1.
    10030    2    1    2    0    0  0.00000000000E+00  0.00000000000E+00 -0.52472966870E+03  0.15894859924E+04  0.15003747848E+04 0.  0.
        5    1    3    3  502    0  0.25693809357E+03 -0.67832610714E+03 -0.46508160664E+03  0.86166494787E+03  0.46999998093E+01 0.  1.
       -5    1    3    3    0  502 -0.25693809357E+03  0.67832610714E+03 -0.59648062066E+02  0.72782104453E+03  0.46999998093E+01 0. -1.
</event>
<event>
 5   0  0.1216921E-04  0.1498235E+04  0.7818609E-02  0.8885627E-01
       -2   -1    0    0    0  501  0.00000000000E+00  0.00000000000E+00  0.65948129616E+03  0.65948129617E+03  0.25500000920E-02 0. -1.
        2   -1    0    0  501    0  0.00000000000E+00  0.00000000000E+00 -0.85093724097E+03  0.85093724097E+03  0.25500000920E-02 0.  1.
    10030    2    1    2    0    0  0.00000000000E+00  0.00000000000E+00 -0.19145594480E+03  0.15104185371E+04  0.14982352214E+04 0.  0.
        4    1    3    3  502    0 -0.67682289749E+03 -0.26748896793E+03  0.83299880218E+02  0.73251625612E+03  0.12699999809E+01 0.  1.
       -4    1    3    3    0  502  0.67682289749E+03  0.26748896793E+03 -0.27475582502E+03  0.77790228102E+03  0.12699999809E+01 0. -1.
</event>
<event>
 5   0  0.1216921E-04  0.1500301E+04  0.7818609E-02  0.8884253E-01
       -2   -1    0    0    0  501  0.00000000000E+00  0.00000000000E+00  0.14930864266E+04  0.14930864266E+04  0.25500000920E-02 0. -1.
        2   -1    0    0  501    0  0.00000000000E+00  0.00000000000E+00 -0.37688747650E+03  0.37688747651E+03  0.25500000920E-02 0.  1.
    10030    2    1    2    0    0  0.00000000000E+00  0.00000000000E+00  0.11161989501E+04  0.18699739031E+04  0.15003007372E+04 0.  0.
        4    1    3    3  502    0 -0.10344036138E+03  0.27497644124E+02  0.14835188516E+04  0.14873754821E+04  0.12699999809E+01 0. -1.
       -4    1    3    3    0  502  0.10344036138E+03 -0.27497644124E+02 -0.36731990152E+03  0.38259842099E+03  0.12699999809E+01 0.  1.
</event>
<event>
 5   0  0.6509279E-05  0.1499442E+04  0.7818609E-02  0.8884824E-01
        1   -1    0    0  501    0  0.00000000000E+00  0.00000000000E+00  0.14185369435E+04  0.14185369435E+04  0.50400001928E-02 0.  1.
       -1   -1    0    0    0  501  0.00000000000E+00  0.00000000000E+00 -0.39624031448E+03  0.39624031451E+03  0.50400001928E-02 0. -1.
    10030    2    1    2    0    0  0.00000000000E+00  0.00000000000E+00  0.10222966290E+04  0.18147772580E+04  0.14994419290E+04 0.  0.
        2    1    3    3  502    0 -0.44917715416E+03 -0.51312133910E+03  0.13414775594E+03  0.69501744215E+03  0.25500000920E-02 0. -1.
       -2    1    3    3    0  502  0.44917715416E+03  0.51312133910E+03  0.88814887304E+03  0.11197598158E+04  0.25500000920E-02 0.  1.
</event>
<event>
 5   0  0.6361716E-05  0.1499840E+04  0.7818609E-02  0.8884559E-01
        1   -1    0    0  501    0  0.00000000000E+00  0.00000000000E+00  0.13683462166E+04  0.13683462166E+04  0.50400001928E-02 0. -1.
       -1   -1    0    0    0  501  0.00000000000E+00  0.00000000000E+00 -0.41099263478E+03  0.41099263481E+03  0.50400001928E-02 0.  1.
    10030    2    1    2    0    0  0.00000000000E+00  0.00000000000E+00  0.95735358183E+03  0.17793388514E+04  0.14998402807E+04 0.  0.
        3    1    3    3  502    0  0.16617172853E+03  0.21065140666E+03 -0.35210285012E+03  0.44267763187E+03  0.10100000352E+00 0.  1.
       -3    1    3    3    0  502 -0.16617172853E+03 -0.21065140666E+03  0.13094564320E+04  0.13366612196E+04  0.10100000352E+00 0. -1.
</event>
<event>
 5   0  0.6364378E-05  0.1500629E+04  0.7818609E-02  0.8884035E-01
       -1   -1    0    0    0  501  0.00000000000E+00  0.00000000000E+00  0.37116905457E+03  0.37116905460E+03  0.50400001928E-02 0. -1.
        1   -1    0    0  501    0  0.00000000000E+00  0.00000000000E+00 -0.15167528548E+04  0.15167528548E+04  0.50400001928E-02 0.  1.
    10030    2    1    2    0    0  0.00000000000E+00  0.00000000000E+00 -0.11455838003E+04  0.18879219094E+04  0.15006288324E+04 0.  0.
        5    1    3    3  502    0  0.35313483149E+03 -0.21265784721E+03 -0.13615052757E+04  0.14225492171E+04  0.46999998093E+01 0.  1.
       -5    1    3    3    0  502 -0.35313483149E+03  0.21265784721E+03  0.21592147550E+03  0.46537269233E+03  0.46999998093E+01 0. -1.
</event>
<event>
 5   0  0.1216921E-04  0.1502847E+04  0.7818609E-02  0.8882562E-01
       -2   -1    0    0    0  501  0.00000000000E+00  0.00000000000E+00  0.58180104530E+03  0.58180104530E+03  0.25500000920E-02 0. -1.
        2   -1    0    0  501    0  0.00000000000E+00  0.00000000000E+00 -0.97049921399E+03  0.97049921400E+03  0.25500000920E-02 0.  1.
    10030    2    1    2    0    0  0.00000000000E+00  0.00000000000E+00 -0.38869816870E+03  0.15523002593E+04  0.15028472406E+04 0.  0.
        4    1    3    3  502    0  0.57699786231E+02  0.67663012805E+03 -0.52661471991E+03  0.85934991222E+03  0.12699999809E+01 0.  1.
       -4    1    3    3    0  502 -0.57699786231E+02 -0.67663012805E+03  0.13791655121E+03  0.69295034707E+03  0.12699999809E+01 0. -1.
</event>
<event>
 5   0  0.1254487E-04  0.1487239E+04  0.7818609E-02  0.8892984E-01
       -2   -1    0    0    0  501  0.00000000000E+00  0.00000000000E+00  0.29460266343E+03  0.29460266344E+03  0.25500000920E-02 0.  1.
        2   -1    0    0  501    0  0.00000000000E+00  0.00000000000E+00 -0.18770015868E+04  0.18770015868E+04  0.25500000920E-02 0. -1.
    10030    2    1    2    0    0  0.00000000000E+00  0.00000000000E+00 -0.15823989233E+04  0.21716042502E+04  0.14872386046E+04 0.  0.
        5    1    3    3  502    0  0.16796810403E+03  0.13189010082E+03  0.24883871954E+03  0.32794981477E+03  0.46999998093E+01 0.  1.
       -5    1    3    3    0  502 -0.16796810403E+03 -0.13189010082E+03 -0.18312376429E+04  0.18436544354E+04  0.46999998093E+01 0. -1.
</event>
<event>
 5   0  0.1219810E-04  0.1500970E+04  0.7818609E-02  0.8883808E-01
        2   -1    0    0  501    0  0.00000000000E+00  0.00000000000E+00  0.26344024408E+04  0.26344024408E+04  0.25500000920E-02 0.  1.
       -2   -1    0    0    0  501  0.00000000000E+00  0.00000000000E+00 -0.21379705976E+03  0.21379705978E+03  0.25500000920E-02 0. -1.
    10030    2    1    2    0    0  0.00000000000E+00  0.00000000000E+00  0.24206053810E+04  0.28481995005E+04  0.15009696814E+04 0.  0.
        1    1    3    3  502    0 -0.25025955578E+03  0.62421392638E+03  0.18423814419E+04  0.19612858661E+04  0.50400001928E-02 0.  1.
       -1    1    3    3    0  502  0.25025955578E+03 -0.62421392638E+03  0.57822393908E+03  0.88691363441E+03  0.50400001928E-02 0. -1.
</event>
<event>
 5   0  0.1219810E-04  0.1505783E+04  0.7818609E-02  0.8880616E-01
        2   -1    0    0  501    0  0.00000000000E+00  0.00000000000E+00  0.87272775064E+03  0.87272775064E+03  0.25500000920E-02 0.  1.
       -2   -1    0    0    0  501  0.00000000000E+00  0.00000000000E+00 -0.64951009158E+03  0.64951009159E+03  0.25500000920E-02 0. -1.
    10030    2    1    2    0    0  0.00000000000E+00  0.00000000000E+00  0.22321765905E+03  0.15222378422E+04  0.15057828280E+04 0.  0.
        1    1    3    3  502    0  0.53230285313E+03 -0.53926164409E+02 -0.42388828780E+03  0.68259478406E+03  0.50400001928E-02 0. -1.
       -1    1    3    3    0  502 -0.53230285313E+03  0.53926164409E+02  0.64710594686E+03  0.83964305817E+03  0.50400001928E-02 0.  1.
</event>
<event>
 5   0  0.4462875E-05  0.1500818E+04  0.7818609E-02  0.8883909E-01
        3   -1    0    0  501    0  0.00000000000E+00  0.00000000000E+00  0.78827339351E+03  0.78827339998E+03  0.10100000352E+00 0.  1.
       -3   -1    0    0    0  501  0.00000000000E+00  0.00000000000E+00 -0.71436302985E+03  0.71436303699E+03  0.10100000352E+00 0. -1.
    10030    2    1    2    0    0  0.00000000000E+00  0.00000000000E+00  0.73910363655E+02  0.15026364370E+04  0.15008176171E+04 0.  0.
        4    1    3    3  502    0  0.38237388358E+03  0.48555160006E+03  0.46307832826E+03  0.77227799022E+03  0.12699999809E+01 0.  1.
       -4    1    3    3    0  502 -0.38237388358E+03 -0.48555160006E+03 -0.38916796461E+03  0.73035844675E+03  0.12699999809E+01 0. -1.
</event>
<event>
 5   0  0.4462875E-05  0.1498974E+04  0.7818609E-02  0.8885136E-01
       -3   -1    0    0    0  501  0.00000000000E+00  0.00000000000E+00  0.20863061936E+04  0.20863061961E+04  0.10100000352E+00 0.  1.
        3   -1    0    0  501    0  0.00000000000E+00  0.00000000000E+00 -0.26924644637E+03  0.26924646531E+03  0.10100000352E+00 0. -1.
    10030    2    1    2    0    0  0.00000000000E+00  0.00000000000E+00  0.18170597472E+04  0.23555526614E+04  0.14989737207E+04 0.  0.
        4    1    3    3  502    0  0.70567360277E+02 -0.65161940027E+03  0.14797692832E+04  0.16184271190E+04  0.12699999809E+01 0.  1.
       -4    1    3    3    0  502 -0.70567360277E+02  0.65161940027E+03  0.33729046401E+03  0.73712554233E+03  0.12699999809E+01 0. -1.
</event>
<event>
 5   0  0.1216921E-04  0.1503527E+04  0.7818609E-02  0.8882111E-01
       -2   -1    0    0    0  501  0.00000000000E+00  0.00000000000E+00  0.77948993192E+03  0.77948993193E+03  0.25500000920E-02 0. -1.
        2   -1    0    0  501    0  0.00000000000E+00  0.00000000000E+00 -0.72502308887E+03  0.72502308888E+03  0.25500000920E-02 0.  1.
    10030    2    1    2    0    0  0.00000000000E+00  0.00000000000E+00  0.54466843049E+02  0.15045130208E+04  0.15035267849E+04 0.  0.
        4    1    3    3  502    0 -0.14993729605E+03 -0.35324907101E+03  0.67409421198E+03  0.77567436366E+03  0.12699999809E+01 0. -1.
       -4    1    3    3    0  502  0.14993729605E+03  0.35324907101E+03 -0.61962736893E+03  0.72883865714E+03  0.12699999809E+01 0.  1.
</event>
<event>
 5   0  0.6542036E-05  0.1499155E+04  0.7818609E-02  0.8885015E-01
        1   -1    0    0  501    0  0.00000000000E+00  0.00000000000E+00  0.60177181719E+03  0.60177181722E+03  0.50400001928E-02 0.  1.
       -1   -1    0    0    0  501  0.00000000000E+00  0.00000000000E+00 -0.93368624181E+03  0.93368624182E+03  0.50400001928E-02 0. -1.
    10030    2    1    2    0    0  0.00000000000E+00  0.00000000000E+00 -0.33191442461E+03  0.15354580590E+04  0.14991545170E+04 0.  0.
        4    1    3    3  502    0  0.30182789780E+02  0.25943774075E+03  0.55365604686E+03  0.61217282956E+03  0.12699999809E+01 0.  1.
       -4    1    3    3    0  502 -0.30182789780E+02 -0.25943774075E+03 -0.88557047148E+03  0.92328522948E+03  0.12699999809E+01 0. -1.
</event>
<event>
 5   0  0.1216921E-04  0.1500414E+04  0.7818609E-02  0.8884178E-01
       -2   -1    0    0    0  501  0.00000000000E+00  0.00000000000E+00  0.38759414563E+03  0.38759414564E+03  0.25500000920E-02 0. -1.
        2   -1    0    0  501    0  0.00000000000E+00  0.00000000000E+00 -0.14520608134E+04  0.14520608134E+04  0.25500000920E-02 0.  1.
    10030    2    1    2    0    0  0.00000000000E+00  0.00000000000E+00 -0.10644666678E+04  0.18396549590E+04  0.15004136368E+04 0.  0.
        4    1    3    3  502    0  0.25466459039E+03  0.10178855732E+03 -0.13883923070E+04  0.14152207514E+04  0.12699999809E+01 0.  1.
       -4    1    3    3    0  502 -0.25466459039E+03 -0.10178855732E+03  0.32392563924E+03  0.42443420769E+03  0.12699999809E+01 0. -1.
</event>
<event>
 5   0  0.6361716E-05  0.1494505E+04  0.7818609E-02  0.8888115E-01
        1   -1    0    0  501    0  0.00000000000E+00  0.00000000000E+00  0.20915008765E+04  0.20915008765E+04  0.50400001928E-02 0.  1.
       -1   -1    0    0    0  501  0.00000000000E+00  0.00000000000E+00 -0.26697868596E+03  0.26697868601E+03  0.50400001928E-02 0. -1.
    10030    2    1    2    0    0  0.00000000000E+00  0.00000000000E+00  0.18245221905E+04  0.23584795625E+04  0.14945048086E+04 0.  0.
        3    1    3    3  502    0 -0.20337431623E+03  0.13330546580E+03 -0.20279284144E+03  0.31663292067E+03  0.10100000352E+00 0. -1.
       -3    1    3    3    0  502  0.20337431623E+03 -0.13330546580E+03  0.20273150320E+04  0.20418466418E+04  0.10100000352E+00 0.  1.
</event>
<event>
 5   0  0.6542036E-05  0.1500953E+04  0.7818609E-02  0.8883819E-01
       -1   -1    0    0    0  501  0.00000000000E+00  0.00000000000E+00  0.32434548910E+03  0.32434548914E+03  0.50400001928E-02 0.  1.
        1   -1    0    0  501    0  0.00000000000E+00  0.00000000000E+00 -0.17364663905E+04  0.17364663905E+04  0.50400001928E-02 0. -1.
    10030    2    1    2    0    0  0.00000000000E+00  0.00000000000E+00 -0.14121209014E+04  0.20608118797E+04  0.15009530849E+04 0.  0.
        4    1    3    3  502    0  0.22974784694E+03  0.15726358806E+03  0.25081227049E+03  0.37473232744E+03  0.12699999809E+01 0.  1.
       -4    1    3    3    0  502 -0.22974784694E+03 -0.15726358806E+03 -0.16629331719E+04  0.16860795522E+04  0.12699999809E+01 0. -1.
</event>
<event>
 5   0  0.6509279E-05  0.1495023E+04  0.7818609E-02  0.8887769E-01
        1   -1    0    0  501    0  0.00000000000E+00  0.00000000000E+00  0.15098444779E+04  0.15098444779E+04  0.50400001928E-02 0.  1.
       -1   -1    0    0    0  501  0.00000000000E+00  0.00000000000E+00 -0.37008665840E+03  0.37008665844E+03  0.50400001928E-02 0. -1.
    10030    2    1    2    0    0  0.00000000000E+00  0.00000000000E+00  0.11397578195E+04  0.18799311364E+04  0.14950228060E+04 0.  0.
        2    1    3    3  502    0  0.52045059683E+03 -0.25809350451E+03  0.11614094787E+04  0.12985965725E+04  0.25500000920E-02 0.  1.
       -2    1    3    3    0  502 -0.52045059683E+03  0.25809350451E+03 -0.21651659203E+02  0.58133456388E+03  0.25500000920E-02 0. -1.
</event>
<event>
 5   0  0.1219810E-04  0.1501359E+04  0.7818609E-02  0.8883549E-01
       -2   -1    0    0    0  501  0.00000000000E+00  0.00000000000E+00  0.35692648649E+03  0.35692648650E+03  0.25500000920E-02 0. -1.
        2   -1    0    0  501    0  0.00000000000E+00  0.00000000000E+00 -0.15788124240E+04  0.15788124240E+04  0.25500000920E-02 0.  1.
    10030    2    1    2    0    0  0.00000000000E+00  0.00000000000E+00 -0.12218859375E+04  0.19357389105E+04  0.15013593459E+04 0.  0.
        1    1    3    3  502    0  0.60291714678E+03  0.44668543948E+03 -0.58260704948E+03  0.94998312714E+03  0.50400001928E-02 0.  1.
       -1    1    3    3    0  502 -0.60291714678E+03 -0.44668543948E+03 -0.63927888807E+03  0.98575578339E+03  0.50400001928E-02 0. -1.
</event>
<event>
 5   0  0.6361716E-05  0.1499938E+04  0.7818609E-02  0.8884494E-01
       -1   -1    0    0    0  501  0.00000000000E+00  0.00000000000E+00  0.62522602826E+03  0.62522602828E+03  0.50400001928E-02 0.  1.
        1   -1    0    0  501    0  0.00000000000E+00  0.00000000000E+00 -0.89959982554E+03  0.89959982555E+03  0.50400001928E-02 0. -1.
    10030    2    1    2    0    0  0.00000000000E+00  0.00000000000E+00 -0.27437379727E+03  0.15248258538E+04  0.14999376333E+04 0.  0.
        3    1    3    3  502    0  0.12004544092E+03 -0.59306992679E+03 -0.58760793537E+03  0.84346069372E+03  0.10100000352E+00 0. -1.
       -3    1    3    3    0  502 -0.12004544092E+03  0.59306992679E+03  0.31323413809E+03  0.68136516011E+03  0.10100000352E+00 0.  1.
</event>
<event>
 5   0  0.1186664E-04  0.1500170E+04  0.7818609E-02  0.8884340E-01
        2   -1    0    0  501    0  0.00000000000E+00  0.00000000000E+00  0.16436045965E+04  0.16436045965E+04  0.25500000920E-02 0.  1.
       -2   -1    0    0    0  501  0.00000000000E+00  0.00000000000E+00 -0.34231317471E+03  0.34231317472E+03  0.25500000920E-02 0. -1.
    10030    2    1    2    0    0  0.00000000000E+00  0.00000000000E+00  0.13012914218E+04  0.19859177712E+04  0.15001700002E+04 0.  0.
        3    1    3    3  502    0 -0.16136977261E+03  0.12979371993E+03  0.16050101007E+04  0.16183151877E+04  0.10100000352E+00 0.  1.
       -3    1    3    3    0  502  0.16136977261E+03 -0.12979371993E+03 -0.30371867894E+03  0.36760258348E+03  0.10100000352E+00 0. -1.
</event>
<event>
 5   0  0.1228286E-04  0.1496765E+04  0.7818609E-02  0.8886607E-01
       -2   -1    0    0    0  501  0.00000000000E+00  0.00000000000E+00  0.35493112345E+03  0.35493112345E+03  0.25500000920E-02 0. -1.
        2   -1    0    0  501    0  0.00000000000E+00  0.00000000000E+00 -0.15779853751E+04  0.15779853751E+04  0.25500000920E-02 0.  1.
    10030    2    1    2    0    0  0.00000000000E+00  0.00000000000E+00 -0.12230542517E+04  0.19329164986E+04  0.14967646735E+04 0.  0.
        2    1    3    3  502    0  0.12891918423E+03  0.54830585940E+03 -0.12478811584E+04  0.13691117036E+04  0.25500000920E-02 0.  1.
       -2    1    3    3    0  502 -0.12891918423E+03 -0.54830585940E+03  0.24826906714E+02  0.56380479496E+03  0.25500000920E-02 0. -1.
</event>
<event>
 5   0  0.1216921E-04  0.1498797E+04  0.7818609E-02  0.8885253E-01
        2   -1    0    0  501    0  0.00000000000E+00  0.00000000000E+00  0.23148402330E+04  0.23148402330E+04  0.25500000920E-02 0. -1.
       -2   -1    0    0    0  501  0.00000000000E+00  0.00000000000E+00 -0.24260771493E+03  0.24260771495E+03  0.25500000920E-02 0.  1.
    10030    2    1    2    0    0  0.00000000000E+00  0.00000000000E+00  0.20722325181E+04  0.25574479479E+04  0.14987969834E+04 0.  0.
        4    1    3    3  502    0 -0.58634873586E+03 -0.46557453831E+03  0.10909317035E+04  0.13231394807E+04  0.12699999809E+01 0.  1.
       -4    1    3    3    0  502  0.58634873586E+03  0.46557453831E+03  0.98130081455E+03  0.12343084672E+04  0.12699999809E+01 0. -1.
</event>
<event>
 5   0  0.6542036E-05  0.1499810E+04  0.7818609E-02  0.8884580E-01
        1   -1    0    0  501    0  0.00000000000E+00  0.00000000000E+00  0.77605861799E+03  0.77605861801E+03  0.50400001928E-02 0.  1.
       -1   -1    0    0    0  501  0.00000000000E+00  0.00000000000E+00 -0.72463233043E+03  0.72463233044E+03  0.50400001928E-02 0. -1.
    10030    2    1    2    0    0  0.00000000000E+00  0.00000000000E+00  0.51426287563E+02  0.15006909485E+04  0.14998095411E+04 0.  0.
        4    1    3    3  502    0  0.46692641077E+02  0.46465127747E+03 -0.56138080502E+03  0.73022670009E+03  0.12699999809E+01 0. -1.
       -4    1    3    3    0  502 -0.46692641077E+02 -0.46465127747E+03  0.61280709258E+03  0.77046424836E+03  0.12699999809E+01 0.  1.
</event>
<event>
 5   0  0.6668433E-05  0.1496502E+04  0.7818609E-02  0.8886783E-01
       -1   -1    0    0    0  501  0.00000000000E+00  0.00000000000E+00  0.46620005184E+03  0.46620005187E+03  0.50400001928E-02 0.  1.
        1   -1    0    0  501    0  0.00000000000E+00  0.00000000000E+00 -0.12009421867E+04  0.12009421867E+04  0.50400001928E-02 0. -1.
    10030    2    1    2    0    0  0.00000000000E+00  0.00000000000E+00 -0.73474213489E+03  0.16671422386E+04  0.14965016669E+04 0.  0.
        1    1    3    3  502    0 -0.66579922015E+03 -0.45637343200E+02 -0.74434667769E+03  0.99971163105E+03  0.50400001928E-02 0. -1.
       -1    1    3    3    0  502  0.66579922015E+03  0.45637343200E+02  0.96045427995E+01  0.66743060756E+03  0.50400001928E-02 0.  1.
</event>
<event>
 5   0  0.1216921E-04  0.1498644E+04  0.7818609E-02  0.8885355E-01
        2   -1    0    0  501    0  0.00000000000E+00  0.00000000000E+00  0.61411307886E+03  0.61411307887E+03  0.25500000920E-02 0.  1.
       -2   -1    0    0    0  501  0.00000000000E+00  0.00000000000E+00 -0.91430030196E+03  0.91430030196E+03  0.25500000920E-02 0. -1.
    10030    2    1    2    0    0  0.00000000000E+00  0.00000000000E+00 -0.30018722310E+03  0.15284133808E+04  0.14986444187E+04 0.  0.
        4    1    3    3  502    0 -0.53726563327E+03  0.18395426105E+03  0.34848179275E+03  0.66628425137E+03  0.12699999809E+01 0.  1.
       -4    1    3    3    0  502  0.53726563327E+03 -0.18395426105E+03 -0.64866901584E+03  0.86212912946E+03  0.12699999809E+01 0. -1.
</event>
<event>
 5   0  0.1254487E-04  0.1497308E+04  0.7818609E-02  0.8886245E-01
        2   -1    0    0  501    0  0.00000000000E+00  0.00000000000E+00  0.11914864402E+04  0.11914864403E+04  0.25500000920E-02 0. -1.
       -2   -1    0    0    0  501  0.00000000000E+00  0.00000000000E+00 -0.47040624771E+03  0.47040624772E+03  0.25500000920E-02 0.  1.
    10030    2    1    2    0    0  0.00000000000E+00  0.00000000000E+00  0.72108019253E+03  0.16618926880E+04  0.14973078048E+04 0.  0.
        5    1    3    3  502    0 -0.25700341574E+03  0.25385629395E+03 -0.36725537853E+03  0.51516247606E+03  0.46999998093E+01 0.  1.
       -5    1    3    3    0  502  0.25700341574E+03 -0.25385629395E+03  0.10883355711E+04  0.11467302119E+04  0.46999998093E+01 0. -1.
</event>
<event>
 5   0  0.6509279E-05  0.1533655E+04  0.7818609E-02  0.8862376E-01
       -1   -1    0    0    0  501  0.00000000000E+00  0.00000000000E+00  0.77067966656E+03  0.77067966658E+03  0.50400001928E-02 0.  1.
        1   -1    0    0  501    0  0.00000000000E+00  0.00000000000E+00 -0.76299467792E+03  0.76299467794E+03  0.50400001928E-02 0. -1.
    10030    2    1    2    0    0  0.00000000000E+00  0.00000000000E+00  0.76849886364E+01  0.15336743445E+04  0.15336550903E+04 0.  0.
        2    1    3    3  502    0 -0.14051989968E+03  0.70565298434E+03 -0.26136360187E+03  0.76550826835E+03  0.25500000920E-02 0. -1.
       -2    1    3    3    0  502  0.14051989968E+03 -0.70565298434E+03  0.26904859051E+03  0.76816607617E+03  0.25500000920E-02 0.  1.
</event>
<event>
 5   0  0.6361716E-05  0.1500049E+04  0.7818609E-02  0.8884420E-01
       -1   -1    0    0    0  501  0.00000000000E+00  0.00000000000E+00  0.70319773446E+03  0.70319773448E+03  0.50400001928E-02 0. -1.
        1   -1    0    0  501    0  0.00000000000E+00  0.00000000000E+00 -0.79996986358E+03  0.79996986360E+03  0.50400001928E-02 0.  1.
    10030    2    1    2    0    0  0.00000000000E+00  0.00000000000E+00 -0.96772129125E+02  0.15031675981E+04  0.15000493268E+04 0.  0.
        3    1    3    3  502    0  0.55665141015E+03 -0.48761996841E+03 -0.17071751534E+03  0.75945935128E+03  0.10100000352E+00 0.  1.
       -3    1    3    3    0  502 -0.55665141015E+03  0.48761996841E+03  0.73945386213E+02  0.74370824679E+03  0.10100000352E+00 0. -1.
</event>
<event>
 5   0  0.1228286E-04  0.1495947E+04  0.7818609E-02  0.8887153E-01
       -2   -1    0    0    0  501  0.00000000000E+00  0.00000000000E+00  0.38889097941E+03  0.38889097942E+03  0.25500000920E-02 0. -1.
        2   -1    0    0  501    0  0.00000000000E+00  0.00000000000E+00 -0.14386151605E+04  0.14386151605E+04  0.25500000920E-02 0.  1.
    10030    2    1    2    0    0  0.00000000000E+00  0.00000000000E+00 -0.10497241811E+04  0.18275061399E+04  0.14959471364E+04 0.  0.
        2    1    3    3  502    0  0.17043456249E+03  0.48767181842E+03 -0.11856686621E+04  0.12933220476E+04  0.25500000920E-02 0. -1.
       -2    1    3    3    0  502 -0.17043456249E+03 -0.48767181842E+03  0.13594448098E+03  0.53418409232E+03  0.25500000920E-02 0.  1.
</event>
<event>
 5   0  0.1216921E-04  0.1499870E+04  0.7818609E-02  0.8884539E-01
       -2   -1    0    0    0  501  0.00000000000E+00  0.00000000000E+00  0.47246210196E+03  0.47246210197E+03  0.25500000920E-02 0. -1.
        2   -1    0    0  501    0  0.00000000000E+00  0.00000000000E+00 -0.11903661033E+04  0.11903661033E+04  0.25500000920E-02 0.  1.
    10030    2    1    2    0    0  0.00000000000E+00  0.00000000000E+00 -0.71790400135E+03  0.16628282053E+04  0.14998704894E+04 0.  0.
        4    1    3    3  502    0 -0.32614926521E+03 -0.47320027941E+03  0.17516942153E+03  0.60081426978E+03  0.12699999809E+01 0. -1.
       -4    1    3    3    0  502  0.32614926521E+03  0.47320027941E+03 -0.89307342288E+03  0.10620139355E+04  0.12699999809E+01 0.  1.
</event>
<event>
 5   0  0.6668433E-05  0.1500118E+04  0.7818609E-02  0.8884375E-01
       -1   -1    0    0    0  501  0.00000000000E+00  0.00000000000E+00  0.90088998031E+03  0.90088998032E+03  0.50400001928E-02 0.  1.
        1   -1    0    0  501    0  0.00000000000E+00  0.00000000000E+00 -0.62448067937E+03  0.62448067939E+03  0.50400001928E-02 0. -1.
    10030    2    1    2    0    0  0.00000000000E+00  0.00000000000E+00  0.27640930094E+03  0.15253706597E+04  0.15001178447E+04 0.  0.
        1    1    3    3  502    0  0.22246142235E+03  0.71059392492E+03  0.23003311887E+03  0.77932537901E+03  0.50400001928E-02 0.  1.
       -1    1    3    3    0  502 -0.22246142235E+03 -0.71059392492E+03  0.46376182068E+02  0.74604528070E+03  0.50400001928E-02 0. -1.
</event>
<event>
 5   0  0.6668433E-05  0.1500458E+04  0.7818609E-02  0.8884148E-01
       -1   -1    0    0    0  501  0.00000000000E+00  0.00000000000E+00  0.49966573674E+03  0.49966573676E+03  0.50400001928E-02 0.  1.
        1   -1    0    0  501    0  0.00000000000E+00  0.00000000000E+00 -0.11264406521E+04  0.11264406521E+04  0.50400001928E-02 0. -1.
    10030    2    1    2    0    0  0.00000000000E+00  0.00000000000E+00 -0.62677491537E+03  0.16261063889E+04  0.15004583278E+04 0.  0.
        1    1    3    3  502    0 -0.22315053127E+03  0.13749849085E+03  0.44842981633E+03  0.51941437676E+03  0.50400001928E-02 0.  1.
       -1    1    3    3    0  502  0.22315053127E+03 -0.13749849085E+03 -0.10752047317E+04  0.11066920121E+04  0.50400001928E-02 0. -1.
</event>
<event>
 5   0  0.1186664E-04  0.1498506E+04  0.7818609E-02  0.8885447E-01
        2   -1    0    0  501    0  0.00000000000E+00  0.00000000000E+00  0.16757556748E+04  0.16757556748E+04  0.25500000920E-02 0. -1.
       -2   -1    0    0    0  501  0.00000000000E+00  0.00000000000E+00 -0.33500095381E+03  0.33500095382E+03  0.25500000920E-02 0.  1.
    10030    2    1    2    0    0  0.00000000000E+00  0.00000000000E+00  0.13407547210E+04  0.20107566287E+04  0.14985055882E+04 0.  0.
        3    1    3    3  502    0 -0.24837118980E+03 -0.69525117171E+03  0.84178307049E+03  0.11196701245E+04  0.10100000352E+00 0. -1.
       -3    1    3    3    0  502  0.24837118980E+03  0.69525117171E+03  0.49897165054E+03  0.89108650418E+03  0.10100000352E+00 0.  1.
</event>
<event>
 5   0  0.6542036E-05  0.1499075E+04  0.7818609E-02  0.8885068E-01
       -1   -1    0    0    0  501  0.00000000000E+00  0.00000000000E+00  0.57016086579E+03  0.57016086581E+03  0.50400001928E-02 0. -1.
        1   -1    0    0  501    0  0.00000000000E+00  0.00000000000E+00 -0.98534686203E+03  0.98534686204E+03  0.50400001928E-02 0.  1.
    10030    2    1    2    0    0  0.00000000000E+00  0.00000000000E+00 -0.41518599624E+03  0.15555077279E+04  0.14990746746E+04 0.  0.
        4    1    3    3  502    0  0.13269665811E+03 -0.71417857833E+03 -0.39933333949E+03  0.82893194760E+03  0.12699999809E+01 0.  1.
       -4    1    3    3    0  502 -0.13269665811E+03  0.71417857833E+03 -0.15852656747E+02  0.72657578025E+03  0.12699999809E+01 0. -1.
</event>
<event>
 5   0  0.6361716E-05  0.1499290E+04  0.7818609E-02  0.8884925E-01
       -1   -1    0    0    0  501  0.00000000000E+00  0.00000000000E+00  0.39181026124E+03  0.39181026127E+03  0.50400001928E-02 0. -1.
        1   -1    0    0  501    0  0.00000000000E+00  0.00000000000E+00 -0.14342844496E+04  0.14342844496E+04  0.50400001928E-02 0.  1.
    10030    2    1    2    0    0  0.00000000000E+00  0.00000000000E+00 -0.10424741883E+04  0.18260947109E+04  0.14992896517E+04 0.  0.
        3    1    3    3  502    0  0.56622738035E+03  0.34841909711E+03 -0.99392548720E+02  0.67222630299E+03  0.10100000352E+00 0.  1.
       -3    1    3    3    0  502 -0.56622738035E+03 -0.34841909711E+03 -0.94308163962E+03  0.11538684079E+04  0.10100000352E+00 0. -1.
</event>
<event>
 5   0  0.6668433E-05  0.1500280E+04  0.7818609E-02  0.8884267E-01
        1   -1    0    0  501    0  0.00000000000E+00  0.00000000000E+00  0.10095021485E+04  0.10095021485E+04  0.50400001928E-02 0.  1.
       -1   -1    0    0    0  501  0.00000000000E+00  0.00000000000E+00 -0.55741353867E+03  0.55741353869E+03  0.50400001928E-02 0. -1.
    10030    2    1    2    0    0  0.00000000000E+00  0.00000000000E+00  0.45208860984E+03  0.15669156872E+04  0.15002801937E+04 0.  0.
        1    1    3    3  502    0 -0.39749966564E+03 -0.37036305853E+03 -0.31416724924E+03  0.62759528346E+03  0.50400001928E-02 0. -1.
       -1    1    3    3    0  502  0.39749966564E+03  0.37036305853E+03  0.76625585909E+03  0.93932040376E+03  0.50400001928E-02 0.  1.
</event>
<event>
 5   0  0.6361716E-05  0.1497215E+04  0.7818609E-02  0.8886307E-01
       -1   -1    0    0    0  501  0.00000000000E+00  0.00000000000E+00  0.76115243699E+03  0.76115243701E+03  0.50400001928E-02 0.  1.
        1   -1    0    0  501    0  0.00000000000E+00  0.00000000000E+00 -0.73626905081E+03  0.73626905083E+03  0.50400001928E-02 0. -1.
    10030    2    1    2    0    0  0.00000000000E+00  0.00000000000E+00  0.24883386185E+02  0.14974214878E+04  0.14972147239E+04 0.  0.
        3    1    3    3  502    0  0.29910274568E+02 -0.17686236888E+03  0.73934193283E+03  0.76079000118E+03  0.10100000352E+00 0.  1.
       -3    1    3    3    0  502 -0.29910274568E+02  0.17686236888E+03 -0.71445854665E+03  0.73663148665E+03  0.10100000352E+00 0. -1.
</event>
<event>
 5   0  0.4462875E-05  0.1500167E+04  0.7818609E-02  0.8884342E-01
        4   -1    0    0  501    0  0.00000000000E+00  0.00000000000E+00  0.10679439028E+04  0.10679446580E+04  0.12699999809E+01 0. -1.
       -4   -1    0    0    0  501  0.00000000000E+00  0.00000000000E+00 -0.52682851193E+03  0.52683004269E+03  0.12699999809E+01 0.  1.
    10030    2    1    2    0    0  0.00000000000E+00  0.00000000000E+00  0.54111539089E+03  0.15947747007E+04  0.15001668173E+04 0.  0.
        4    1    3    3  502    0 -0.45960363493E+03 -0.17518502015E+02 -0.35933056258E+03  0.58366297232E+03  0.12699999809E+01 0.  1.
       -4    1    3    3    0  502  0.45960363493E+03  0.17518502015E+02  0.90044595346E+03  0.10111117283E+04  0.12699999809E+01 0. -1.
</event>
<event>
 5   0  0.6542036E-05  0.1501649E+04  0.7818609E-02  0.8883357E-01
        1   -1    0    0  501    0  0.00000000000E+00  0.00000000000E+00  0.32704341612E+03  0.32704341616E+03  0.50400001928E-02 0.  1.
       -1   -1    0    0    0  501  0.00000000000E+00  0.00000000000E+00 -0.17237389575E+04  0.17237389575E+04  0.50400001928E-02 0. -1.
    10030    2    1    2    0    0  0.00000000000E+00  0.00000000000E+00 -0.13966955414E+04  0.20507823736E+04  0.15016490631E+04 0.  0.
        4    1    3    3  502    0  0.15977938622E+03  0.28009044164E+03  0.22766017761E+03  0.39472886533E+03  0.12699999809E+01 0.  1.
       -4    1    3    3    0  502 -0.15977938622E+03 -0.28009044164E+03 -0.16243557190E+04  0.16560535083E+04  0.12699999809E+01 0. -1.
</event>
<event>
 5   0  0.6668433E-05  0.1502366E+04  0.7818609E-02  0.8882881E-01
        1   -1    0    0  501    0  0.00000000000E+00  0.00000000000E+00  0.64713752383E+03  0.64713752385E+03  0.50400001928E-02 0. -1.
       -1   -1    0    0    0  501  0.00000000000E+00  0.00000000000E+00 -0.87195670879E+03  0.87195670880E+03  0.50400001928E-02 0.  1.
    10030    2    1    2    0    0  0.00000000000E+00  0.00000000000E+00 -0.22481918496E+03  0.15190942326E+04  0.15023660079E+04 0.  0.
        1    1    3    3  502    0 -0.47410145362E+03 -0.53961424901E+03 -0.33467569538E+03  0.79244151025E+03  0.50400001928E-02 0.  1.
       -1    1    3    3    0  502  0.47410145362E+03  0.53961424901E+03  0.10985651043E+03  0.72665272240E+03  0.50400001928E-02 0. -1.
</event>
<event>
 5   0  0.6361716E-05  0.1498140E+04  0.7818609E-02  0.8885691E-01
       -1   -1    0    0    0  501  0.00000000000E+00  0.00000000000E+00  0.67436481617E+03  0.67436481619E+03  0.50400001928E-02 0. -1.
        1   -1    0    0  501    0  0.00000000000E+00  0.00000000000E+00 -0.83205128447E+03  0.83205128448E+03  0.50400001928E-02 0.  1.
    10030    2    1    2    0    0  0.00000000000E+00  0.00000000000E+00 -0.15768646830E+03  0.15064161007E+04  0.14981403292E+04 0.  0.
        3    1    3    3  502    0 -0.31236799693E+03 -0.62761082193E+03 -0.34418917925E+03  0.78098355336E+03  0.10100000352E+00 0.  1.
       -3    1    3    3    0  502  0.31236799693E+03  0.62761082193E+03  0.18650271095E+03  0.72543254731E+03  0.10100000352E+00 0. -1.
</event>
<event>
 5   0  0.1254487E-04  0.1500450E+04  0.7818609E-02  0.8884154E-01
       -2   -1    0    0    0  501  0.00000000000E+00  0.00000000000E+00  0.43348736634E+03  0.43348736635E+03  0.25500000920E-02 0.  1.
        2   -1    0    0  501    0  0.00000000000E+00  0.00000000000E+00 -0.12983948475E+04  0.12983948475E+04  0.25500000920E-02 0. -1.
    10030    2    1    2    0    0  0.00000000000E+00  0.00000000000E+00 -0.86490748119E+03  0.17318822139E+04  0.15004502830E+04 0.  0.
        5    1    3    3  502    0  0.51290477614E+03  0.13348193269E+03 -0.10453190355E+04  0.11720079828E+04  0.46999998093E+01 0. -1.
       -5    1    3    3    0  502 -0.51290477614E+03 -0.13348193269E+03  0.18041155430E+03  0.55987423111E+03  0.46999998093E+01 0.  1.
</event>
<event>
 5   0  0.1216921E-04  0.1500452E+04  0.7818609E-02  0.8884152E-01
        2   -1    0    0  501    0  0.00000000000E+00  0.00000000000E+00  0.13603892006E+04  0.13603892006E+04  0.25500000920E-02 0. -1.
       -2   -1    0    0    0  501  0.00000000000E+00  0.00000000000E+00 -0.41373385622E+03  0.41373385623E+03  0.25500000920E-02 0.  1.
    10030    2    1    2    0    0  0.00000000000E+00  0.00000000000E+00  0.94665534440E+03  0.17741230569E+04  0.15004520251E+04 0.  0.
        4    1    3    3  502    0  0.45234809471E+03  0.47542630324E+03  0.43436581818E+02  0.65767569375E+03  0.12699999809E+01 0.  1.
       -4    1    3    3    0  502 -0.45234809471E+03 -0.47542630324E+03  0.90321876258E+03  0.11164473631E+04  0.12699999809E+01 0. -1.
</event>
<event>
 5   0  0.6364378E-05  0.1497249E+04  0.7818609E-02  0.8886284E-01
       -1   -1    0    0    0  501  0.00000000000E+00  0.00000000000E+00  0.41385524813E+03  0.41385524816E+03  0.50400001928E-02 0.  1.
        1   -1    0    0  501    0  0.00000000000E+00  0.00000000000E+00 -0.13541896952E+04  0.13541896952E+04  0.50400001928E-02 0. -1.
    10030    2    1    2    0    0  0.00000000000E+00  0.00000000000E+00 -0.94033444705E+03  0.17680449434E+04  0.14972488268E+04 0.  0.
        5    1    3    3  502    0 -0.18348966382E+02  0.68739768583E+03 -0.81959909181E+03  0.10698677602E+04  0.46999998093E+01 0. -1.
       -5    1    3    3    0  502  0.18348966382E+02 -0.68739768583E+03 -0.12073535524E+03  0.69817718314E+03  0.46999998093E+01 0.  1.
</event>
<event>
 5   0  0.1216921E-04  0.1498671E+04  0.7818609E-02  0.8885337E-01
       -2   -1    0    0    0  501  0.00000000000E+00  0.00000000000E+00  0.91959075748E+03  0.91959075748E+03  0.25500000920E-02 0. -1.
        2   -1    0    0  501    0  0.00000000000E+00  0.00000000000E+00 -0.61060207225E+03  0.61060207225E+03  0.25500000920E-02 0.  1.
    10030    2    1    2    0    0  0.00000000000E+00  0.00000000000E+00  0.30898868523E+03  0.15301928297E+04  0.14986714412E+04 0.  0.
        4    1    3    3  502    0  0.37540966082E+03 -0.38388986820E+03 -0.37918321243E+03  0.65733200579E+03  0.12699999809E+01 0.  1.
       -4    1    3    3    0  502 -0.37540966082E+03  0.38388986820E+03  0.68817189766E+03  0.87286082394E+03  0.12699999809E+01 0. -1.
</event>
<event>
 5   0  0.6361716E-05  0.1498810E+04  0.7818609E-02  0.8885245E-01
       -1   -1    0    0    0  501  0.00000000000E+00  0.00000000000E+00  0.53518139870E+03  0.53518139872E+03  0.50400001928E-02 0. -1.
        1   -1    0    0  501    0  0.00000000000E+00  0.00000000000E+00 -0.10493787452E+04  0.10493787453E+04  0.50400001928E-02 0.  1.
    10030    2    1    2    0    0  0.00000000000E+00  0.00000000000E+00 -0.51419734655E+03  0.15845601440E+04  0.14988101743E+04 0.  0.
        3    1    3    3  502    0  0.65086347757E+03  0.20440910812E+03  0.70810297843E+02  0.68587204229E+03  0.10100000352E+00 0. -1.
       -3    1    3    3    0  502 -0.65086347757E+03 -0.20440910812E+03 -0.58500764439E+03  0.89868810169E+03  0.10100000352E+00 0.  1.
</event>
<event>
 5   0  0.1228286E-04  0.1501700E+04  0.7818609E-02  0.8883323E-01
       -2   -1    0    0    0  501  0.00000000000E+00  0.00000000000E+00  0.35880077889E+03  0.35880077890E+03  0.25500000920E-02 0. -1.
        2   -1    0    0  501    0  0.00000000000E+00  0.00000000000E+00 -0.15712772148E+04  0.15712772148E+04  0.25500000920E-02 0.  1.
    10030    2    1    2    0    0  0.00000000000E+00  0.00000000000E+00 -0.12124764359E+04  0.19300779937E+04  0.15016996884E+04 0.  0.
        2    1    3    3  502    0  0.33844357096E+03  0.10966929619E+03  0.24359533356E+03  0.43117292562E+03  0.25500000920E-02 0. -1.
       -2    1    3    3    0  502 -0.33844357096E+03 -0.10966929619E+03 -0.14560717695E+04  0.14989050681E+04  0.25500000920E-02 0.  1.
</event>
<event>
 5   0  0.1219810E-04  0.1501056E+04  0.7818609E-02  0.8883751E-01
        2   -1    0    0  501    0  0.00000000000E+00  0.00000000000E+00  0.11493884620E+04  0.11493884620E+04  0.25500000920E-02 0.  1.
       -2   -1    0    0    0  501  0.00000000000E+00  0.00000000000E+00 -0.49007971151E+03  0.49007971152E+03  0.25500000920E-02 0. -1.
    10030    2    1    2    0    0  0.00000000000E+00  0.00000000000E+00  0.65930875044E+03  0.16394681735E+04  0.15010555831E+04 0.  0.
        1    1    3    3  502    0 -0.97918791856E+02 -0.43847574453E+03  0.98629245331E+03  0.10837997379E+04  0.50400001928E-02 0.  1.
       -1    1    3    3    0  502  0.97918791856E+02  0.43847574453E+03 -0.32698370287E+03  0.55566843559E+03  0.50400001928E-02 0. -1.
</event>
<event>
 5   0  0.6542036E-05  0.1496481E+04  0.7818609E-02  0.8886796E-01
       -1   -1    0    0    0  501  0.00000000000E+00  0.00000000000E+00  0.10079755664E+04  0.10079755664E+04  0.50400001928E-02 0. -1.
        1   -1    0    0  501    0  0.00000000000E+00  0.00000000000E+00 -0.55543398017E+03  0.55543398019E+03  0.50400001928E-02 0.  1.
    10030    2    1    2    0    0  0.00000000000E+00  0.00000000000E+00  0.45254158627E+03  0.15634095466E+04  0.14964810467E+04 0.  0.
        4    1    3    3  502    0  0.23667913876E+03 -0.65771819418E+03  0.50513974252E+03  0.86242565480E+03  0.12699999809E+01 0. -1.
       -4    1    3    3    0  502 -0.23667913876E+03  0.65771819418E+03 -0.52598156257E+02  0.70098389184E+03  0.12699999809E+01 0.  1.
</event>
<event>
 5   0  0.1219810E-04  0.1499445E+04  0.7818609E-02  0.8884822E-01
        2   -1    0    0  501    0  0.00000000000E+00  0.00000000000E+00  0.14203082147E+04  0.14203082147E+04  0.25500000920E-02 0.  1.
       -2   -1    0    0    0  501  0.00000000000E+00  0.00000000000E+00 -0.39574759641E+03  0.39574759641E+03  0.25500000920E-02 0. -1.
    10030    2    1    2    0    0  0.00000000000E+00  0.00000000000E+00  0.10245606183E+04  0.18160558111E+04  0.14994446467E+04 0.  0.
        1    1    3    3  502    0 -0.35368597576E+03  0.19491306564E+03 -0.25276029856E+03  0.47641645769E+03  0.50400001928E-02 0. -1.
       -1    1    3    3    0  502  0.35368597576E+03 -0.19491306564E+03  0.12773209168E+04  0.13396393534E+04  0.50400001928E-02 0.  1.
</event>
<event>
 5   0  0.6509279E-05  0.1494924E+04  0.7818609E-02  0.8887836E-01
       -1   -1    0    0    0  501  0.00000000000E+00  0.00000000000E+00  0.67494607210E+03  0.67494607212E+03  0.50400001928E-02 0. -1.
        1   -1    0    0  501    0  0.00000000000E+00  0.00000000000E+00 -0.82776854589E+03  0.82776854591E+03  0.50400001928E-02 0.  1.
    10030    2    1    2    0    0  0.00000000000E+00  0.00000000000E+00 -0.15282247379E+03  0.15027146180E+04  0.14949235816E+04 0.  0.
        2    1    3    3  502    0 -0.64772789557E+03 -0.31626655794E+03  0.12241537698E+03  0.73113711908E+03  0.25500000920E-02 0. -1.
       -2    1    3    3    0  502  0.64772789557E+03  0.31626655794E+03 -0.27523785077E+03  0.77157749894E+03  0.25500000920E-02 0.  1.
</event>
<event>
 5   0  0.1216921E-04  0.1496449E+04  0.7818609E-02  0.8886818E-01
       -2   -1    0    0    0  501  0.00000000000E+00  0.00000000000E+00  0.53493502705E+03  0.53493502705E+03  0.25500000920E-02 0.  1.
        2   -1    0    0  501    0  0.00000000000E+00  0.00000000000E+00 -0.10465570843E+04  0.10465570843E+04  0.25500000920E-02 0. -1.
    10030    2    1    2    0    0  0.00000000000E+00  0.00000000000E+00 -0.51162205722E+03  0.15814921113E+04  0.14964491868E+04 0.  0.
        4    1    3    3  502    0 -0.55238109544E+03  0.48101420365E+03 -0.94358385464E+02  0.73851517013E+03  0.12699999809E+01 0.  1.
       -4    1    3    3    0  502  0.55238109544E+03 -0.48101420365E+03 -0.41726367175E+03  0.84297694119E+03  0.12699999809E+01 0. -1.
</event>
<event>
 5   0  0.1186664E-04  0.1499014E+04  0.7818609E-02  0.8885109E-01
        2   -1    0    0  501    0  0.00000000000E+00  0.00000000000E+00  0.11870656266E+04  0.11870656266E+04  0.25500000920E-02 0. -1.
       -2   -1    0    0    0  501  0.00000000000E+00  0.00000000000E+00 -0.47323497530E+03  0.47323497530E+03  0.25500000920E-02 0.  1.
    10030    2    1    2    0    0  0.00000000000E+00  0.00000000000E+00  0.71383065133E+03  0.16603006019E+04  0.14990143061E+04 0.  0.
        3    1    3    3  502    0 -0.34257233020E+03 -0.36833692351E+03 -0.25850597624E+03  0.56555569185E+03  0.10100000352E+00 0.  1.
       -3    1    3    3    0  502  0.34257233020E+03  0.36833692351E+03  0.97233662756E+03  0.10947449101E+04  0.10100000352E+00 0. -1.
</event>
<event>
 5   0  0.6509279E-05  0.1502667E+04  0.7818609E-02  0.8882682E-01
        1   -1    0    0  501    0  0.00000000000E+00  0.00000000000E+00  0.72243916140E+03  0.72243916142E+03  0.50400001928E-02 0. -1.
       -1   -1    0    0    0  501  0.00000000000E+00  0.00000000000E+00 -0.78138321503E+03  0.78138321504E+03  0.50400001928E-02 0.  1.
    10030    2    1    2    0    0  0.00000000000E+00  0.00000000000E+00 -0.58944053624E+02  0.15038223765E+04  0.15026667423E+04 0.  0.
        2    1    3    3  502    0 -0.67716251248E+03  0.30858849264E+03  0.74173583349E+02  0.74784867892E+03  0.25500000920E-02 0. -1.
       -2    1    3    3    0  502  0.67716251248E+03 -0.30858849264E+03 -0.13311763697E+03  0.75597369754E+03  0.25500000920E-02 0.  1.
</event>
<event>
 5   0  0.6542036E-05  0.1507957E+04  0.7818609E-02  0.8879179E-01
        1   -1    0    0  501    0  0.00000000000E+00  0.00000000000E+00  0.68578038638E+03  0.68578038640E+03  0.50400001928E-02 0.  1.
       -1   -1    0    0    0  501  0.00000000000E+00  0.00000000000E+00 -0.82895834613E+03  0.82895834615E+03  0.50400001928E-02 0. -1.
    10030    2    1    2    0    0  0.00000000000E+00  0.00000000000E+00 -0.14317795975E+03  0.15147387325E+04  0.15079567301E+04 0.  0.
        4    1    3    3  502    0 -0.33172363078E+02 -0.65509140180E+02 -0.82535702633E+03  0.82861793786E+03  0.12699999809E+01 0. -1.
       -4    1    3    3    0  502  0.33172363078E+02  0.65509140180E+02  0.68217906658E+03  0.68612079469E+03  0.12699999809E+01 0.  1.
</event>
<event>
 5   0  0.6361716E-05  0.1499752E+04  0.7818609E-02  0.8884618E-01
       -1   -1    0    0    0  501  0.00000000000E+00  0.00000000000E+00  0.81480900601E+03  0.81480900603E+03  0.50400001928E-02 0. -1.
        1   -1    0    0  501    0  0.00000000000E+00  0.00000000000E+00 -0.69011732535E+03  0.69011732537E+03  0.50400001928E-02 0.  1.
    10030    2    1    2    0    0  0.00000000000E+00  0.00000000000E+00  0.12469168067E+03  0.15049263314E+04  0.14997517287E+04 0.  0.
        3    1    3    3  502    0  0.20855717159E+03  0.57282093054E+03  0.50053765244E+03  0.78876984222E+03  0.10100000352E+00 0.  1.
       -3    1    3    3    0  502 -0.20855717159E+03 -0.57282093054E+03 -0.37584597178E+03  0.71615648917E+03  0.10100000352E+00 0. -1.
</event>
<event>
 5   0  0.6361716E-05  0.1498394E+04  0.7818609E-02  0.8885521E-01
       -1   -1    0    0    0  501  0.00000000000E+00  0.00000000000E+00  0.74391683073E+03  0.74391683075E+03  0.50400001928E-02 0. -1.
        1   -1    0    0  501    0  0.00000000000E+00  0.00000000000E+00 -0.75451505354E+03  0.75451505356E+03  0.50400001928E-02 0.  1.
    10030    2    1    2    0    0  0.00000000000E+00  0.00000000000E+00 -0.10598222808E+02  0.14984318843E+04  0.14983944039E+04 0.  0.
        3    1    3    3  502    0  0.46669260444E+03  0.50569142830E+03  0.29096938253E+03  0.74712047186E+03  0.10100000352E+00 0. -1.
       -3    1    3    3    0  502 -0.46669260444E+03 -0.50569142830E+03 -0.30156760534E+03  0.75131141246E+03  0.10100000352E+00 0.  1.
</event>
<event>
 5   0  0.1186664E-04  0.1497547E+04  0.7818609E-02  0.8886086E-01
       -2   -1    0    0    0  501  0.00000000000E+00  0.00000000000E+00  0.58642108971E+03  0.58642108972E+03  0.25500000920E-02 0. -1.
        2   -1    0    0  501    0  0.00000000000E+00  0.00000000000E+00 -0.95607363553E+03  0.95607363553E+03  0.25500000920E-02 0.  1.
    10030    2    1    2    0    0  0.00000000000E+00  0.00000000000E+00 -0.36965254582E+03  0.15424947252E+04  0.14975469852E+04 0.  0.
        3    1    3    3  502    0  0.68182477798E+03  0.71917023419E+02  0.12521425411E+03  0.69694741965E+03  0.10100000352E+00 0.  1.
       -3    1    3    3    0  502 -0.68182477798E+03 -0.71917023419E+02 -0.49486679993E+03  0.84554730559E+03  0.10100000352E+00 0. -1.
</event>
<event>
 5   0  0.1254487E-04  0.1499740E+04  0.7818609E-02  0.8884626E-01
        2   -1    0    0  501    0  0.00000000000E+00  0.00000000000E+00  0.29611119637E+03  0.29611119638E+03  0.25500000920E-02 0.  1.
       -2   -1    0    0    0  501  0.00000000000E+00  0.00000000000E+00 -0.18989664989E+04  0.18989664990E+04  0.25500000920E-02 0. -1.
    10030    2    1    2    0    0  0.00000000000E+00  0.00000000000E+00 -0.16028553026E+04  0.21950776953E+04  0.14997403000E+04 0.  0.
        5    1    3    3  502    0 -0.35325666829E+03  0.44201278958E+03 -0.15216174911E+04  0.16234246084E+04  0.46999998093E+01 0. -1.
       -5    1    3    3    0  502  0.35325666829E+03 -0.44201278958E+03 -0.81237811499E+02  0.57165308698E+03  0.46999998093E+01 0.  1.
</event>
<event>
 5   0  0.1228286E-04  0.1515770E+04  0.7818609E-02  0.8874033E-01
        2   -1    0    0  501    0  0.00000000000E+00  0.00000000000E+00  0.48017379062E+03  0.48017379062E+03  0.25500000920E-02 0.  1.
       -2   -1    0    0    0  501  0.00000000000E+00  0.00000000000E+00 -0.11962119140E+04  0.11962119140E+04  0.25500000920E-02 0. -1.
    10030    2    1    2    0    0  0.00000000000E+00  0.00000000000E+00 -0.71603812334E+03  0.16763857046E+04  0.15157699154E+04 0.  0.
        2    1    3    3  502    0  0.96481958445E+02  0.60707434659E+03 -0.84832582676E+03  0.10476186038E+04  0.25500000920E-02 0. -1.
       -2    1    3    3    0  502 -0.96481958445E+02 -0.60707434659E+03  0.13228770342E+03  0.62876710082E+03  0.25500000920E-02 0.  1.
</event>
<event>
 5   0  0.6361716E-05  0.1498429E+04  0.7818609E-02  0.8885498E-01
        1   -1    0    0  501    0  0.00000000000E+00  0.00000000000E+00  0.11155564941E+04  0.11155564941E+04  0.50400001928E-02 0.  1.
       -1   -1    0    0    0  501  0.00000000000E+00  0.00000000000E+00 -0.50317710115E+03  0.50317710117E+03  0.50400001928E-02 0. -1.
    10030    2    1    2    0    0  0.00000000000E+00  0.00000000000E+00  0.61237939299E+03  0.16187335953E+04  0.14984291547E+04 0.  0.
        3    1    3    3  502    0  0.22462202335E+03 -0.57983557032E+03 -0.14528516107E+03  0.63857038000E+03  0.10100000352E+00 0. -1.
       -3    1    3    3    0  502 -0.22462202335E+03  0.57983557032E+03  0.75766455406E+03  0.98016321532E+03  0.10100000352E+00 0.  1.
</event>
<event>
 5   0  0.1228286E-04  0.1501786E+04  0.7818609E-02  0.8883266E-01
       -2   -1    0    0    0  501  0.00000000000E+00  0.00000000000E+00  0.31855773177E+03  0.31855773178E+03  0.25500000920E-02 0.  1.
        2   -1    0    0  501    0  0.00000000000E+00  0.00000000000E+00 -0.17699776542E+04  0.17699776542E+04  0.25500000920E-02 0. -1.
    10030    2    1    2    0    0  0.00000000000E+00  0.00000000000E+00 -0.14514199225E+04  0.20885353860E+04  0.15017856929E+04 0.  0.
        2    1    3    3  502    0  0.18661630599E+03  0.72733355414E+03 -0.72492060642E+03  0.10437191338E+04  0.25500000920E-02 0.  1.
       -2    1    3    3    0  502 -0.18661630599E+03 -0.72733355414E+03 -0.72649931603E+03  0.10448162522E+04  0.25500000920E-02 0. -1.
</event>
<event>
 5   0  0.6668433E-05  0.1503036E+04  0.7818609E-02  0.8882437E-01
       -1   -1    0    0    0  501  0.00000000000E+00  0.00000000000E+00  0.52259879587E+03  0.52259879589E+03  0.50400001928E-02 0.  1.
        1   -1    0    0  501    0  0.00000000000E+00  0.00000000000E+00 -0.10807129160E+04  0.10807129160E+04  0.50400001928E-02 0. -1.
    10030    2    1    2    0    0  0.00000000000E+00  0.00000000000E+00 -0.55811412012E+03  0.16033117119E+04  0.15030359525E+04 0.  0.
        1    1    3    3  502    0  0.14135406046E+03  0.16851784666E+03  0.48749512674E+03  0.53481841187E+03  0.50400001928E-02 0.  1.
       -1    1    3    3    0  502 -0.14135406046E+03 -0.16851784666E+03 -0.10456092469E+04  0.10684933000E+04  0.50400001928E-02 0. -1.
</event>
<event>
 5   0  0.6364378E-05  0.1498781E+04  0.7818609E-02  0.8885264E-01
       -1   -1    0    0    0  501  0.00000000000E+00  0.00000000000E+00  0.12541275792E+04  0.12541275792E+04  0.50400001928E-02 0.  1.
        1   -1    0    0  501    0  0.00000000000E+00  0.00000000000E+00 -0.44779020717E+03  0.44779020720E+03  0.50400001928E-02 0. -1.
    10030    2    1    2    0    0  0.00000000000E+00  0.00000000000E+00  0.80633737202E+03  0.17019177864E+04  0.14987809026E+04 0.  0.
        5    1    3    3  502    0  0.62317331578E+02 -0.55430260269E+03 -0.16508577217E+03  0.58173037340E+03  0.46999998093E+01 0. -1.
       -5    1    3    3    0  502 -0.62317331578E+02  0.55430260269E+03  0.97142314420E+03  0.11201874130E+04  0.46999998093E+01 0.  1.
</event>
<event>
 5   0  0.1216921E-04  0.1502836E+04  0.7818609E-02  0.8882569E-01
       -2   -1    0    0    0  501  0.00000000000E+00  0.00000000000E+00  0.42234800727E+03  0.42234800727E+03  0.25500000920E-02 0. -1.
        2   -1    0    0  501    0  0.00000000000E+00  0.00000000000E+00 -0.13368810832E+04  0.13368810832E+04  0.25500000920E-02 0.  1.
    10030    2    1    2    0    0  0.00000000000E+00  0.00000000000E+00 -0.91453307589E+03  0.17592290904E+04  0.15028360675E+04 0.  0.
        4    1    3    3  502    0 -0.60689989231E+03  0.80404236823E+02 -0.96730047924E+03  0.11447550614E+04  0.12699999809E+01 0.  1.
       -4    1    3    3    0  502  0.60689989231E+03 -0.80404236823E+02  0.52767403345E+02  0.61447402902E+03  0.12699999809E+01 0. -1.
</event>
<event>
 5   0  0.6361716E-05  0.1500078E+04  0.7818609E-02  0.8884401E-01
       -1   -1    0    0    0  501  0.00000000000E+00  0.00000000000E+00  0.19131180387E+04  0.19131180387E+04  0.50400001928E-02 0.  1.
        1   -1    0    0  501    0  0.00000000000E+00  0.00000000000E+00 -0.29405311984E+03  0.29405311988E+03  0.50400001928E-02 0. -1.
    10030    2    1    2    0    0  0.00000000000E+00  0.00000000000E+00  0.16190649188E+04  0.22071711585E+04  0.15000777686E+04 0.  0.
        3    1    3    3  502    0  0.30735545760E+02  0.56497236027E+03  0.15339790122E+04  0.16350015479E+04  0.10100000352E+00 0.  1.
       -3    1    3    3    0  502 -0.30735545760E+02 -0.56497236027E+03  0.85085906648E+02  0.57216961065E+03  0.10100000352E+00 0. -1.
</event>
<event>
 5   0  0.4462875E-05  0.1504471E+04  0.7818609E-02  0.8881485E-01
        3   -1    0    0  501    0  0.00000000000E+00  0.00000000000E+00  0.12213171147E+04  0.12213171188E+04  0.10100000352E+00 0. -1.
       -3   -1    0    0    0  501  0.00000000000E+00  0.00000000000E+00 -0.46331817840E+03  0.46331818941E+03  0.10100000352E+00 0.  1.
    10030    2    1    2    0    0  0.00000000000E+00  0.00000000000E+00  0.75799893627E+03  0.16846353083E+04  0.15044712475E+04 0.  0.
        3    1    3    3  502    0  0.15639592188E+03  0.68945287802E+03  0.91213364784E+02  0.71282876170E+03  0.10100000352E+00 0. -1.
       -3    1    3    3    0  502 -0.15639592188E+03 -0.68945287802E+03  0.66678557148E+03  0.97180654656E+03  0.10100000352E+00 0.  1.
</event>
<event>
 5   0  0.6668433E-05  0.1497033E+04  0.7818609E-02  0.8886428E-01
       -1   -1    0    0    0  501  0.00000000000E+00  0.00000000000E+00  0.49994211792E+03  0.49994211794E+03  0.50400001928E-02 0. -1.
        1   -1    0    0  501    0  0.00000000000E+00  0.00000000000E+00 -0.11206841957E+04  0.11206841957E+04  0.50400001928E-02 0.  1.
    10030    2    1    2    0    0  0.00000000000E+00  0.00000000000E+00 -0.62074207780E+03  0.16206263137E+04  0.14970333735E+04 0.  0.
        1    1    3    3  502    0 -0.17686753826E+03  0.38681115565E+03 -0.97715351115E+03  0.10657082061E+04  0.50400001928E-02 0.  1.
       -1    1    3    3    0  502  0.17686753826E+03 -0.38681115565E+03  0.35641143335E+03  0.55491810754E+03  0.50400001928E-02 0. -1.
</event>
<event>
 5   0  0.6509279E-05  0.1499206E+04  0.7818609E-02  0.8884981E-01
       -1   -1    0    0    0  501  0.00000000000E+00  0.00000000000E+00  0.10117040062E+04  0.10117040062E+04  0.50400001928E-02 0.  1.
        1   -1    0    0  501    0  0.00000000000E+00  0.00000000000E+00 -0.55540426099E+03  0.55540426101E+03  0.50400001928E-02 0. -1.
    10030    2    1    2    0    0  0.00000000000E+00  0.00000000000E+00  0.45629974516E+03  0.15671082672E+04  0.14992060778E+04 0.  0.
        2    1    3    3  502    0 -0.11121523204E+03 -0.42238224391E+02  0.10017732456E+04  0.10088124360E+04  0.25500000920E-02 0.  1.
       -2    1    3    3    0  502  0.11121523204E+03  0.42238224391E+02 -0.54547350043E+03  0.55829583118E+03  0.25500000920E-02 0. -1.
</event>
<event>
 5   0  0.6542036E-05  0.1497134E+04  0.7818609E-02  0.8886361E-01
       -1   -1    0    0    0  501  0.00000000000E+00  0.00000000000E+00  0.66084818233E+03  0.66084818235E+03  0.50400001928E-02 0.  1.
        1   -1    0    0  501    0  0.00000000000E+00  0.00000000000E+00 -0.84792902514E+03  0.84792902515E+03  0.50400001928E-02 0. -1.
    10030    2    1    2    0    0  0.00000000000E+00  0.00000000000E+00 -0.18708084281E+03  0.15087772075E+04  0.14971337349E+04 0.  0.
        4    1    3    3  502    0  0.68759818950E+03 -0.13943092526E+03 -0.35656541657E+03  0.78700239028E+03  0.12699999809E+01 0. -1.
       -4    1    3    3    0  502 -0.68759818950E+03  0.13943092526E+03  0.16948457376E+03  0.72177481721E+03  0.12699999809E+01 0.  1.
</event>
<event>
 5   0  0.4462875E-05  0.1500163E+04  0.7818609E-02  0.8884345E-01
       -3   -1    0    0    0  501  0.00000000000E+00  0.00000000000E+00  0.80222128373E+03  0.80222129009E+03  0.10100000352E+00 0. -1.
        3   -1    0    0  501    0  0.00000000000E+00  0.00000000000E+00 -0.70133037042E+03  0.70133037769E+03  0.10100000352E+00 0.  1.
    10030    2    1    2    0    0  0.00000000000E+00  0.00000000000E+00  0.10089091331E+03  0.15035516678E+04  0.15001628716E+04 0.  0.
        4    1    3    3  502    0  0.57590374213E+03  0.40393218118E+03  0.31140685989E+03  0.76928679469E+03  0.12699999809E+01 0. -1.
       -4    1    3    3    0  502 -0.57590374213E+03 -0.40393218118E+03 -0.21051594658E+03  0.73426487310E+03  0.12699999809E+01 0.  1.
</event>
<event>
 5   0  0.1219810E-04  0.1500212E+04  0.7818609E-02  0.8884312E-01
        2   -1    0    0  501    0  0.00000000000E+00  0.00000000000E+00  0.22508710850E+04  0.22508710850E+04  0.25500000920E-02 0. -1.
       -2   -1    0    0    0  501  0.00000000000E+00  0.00000000000E+00 -0.24997384003E+03  0.24997384004E+03  0.25500000920E-02 0.  1.
    10030    2    1    2    0    0  0.00000000000E+00  0.00000000000E+00  0.20008972449E+04  0.25008449250E+04  0.15002118364E+04 0.  0.
        1    1    3    3  502    0 -0.48808959752E+03  0.26521870326E+03  0.16016684216E+03  0.57812267999E+03  0.50400001928E-02 0.  1.
       -1    1    3    3    0  502  0.48808959752E+03 -0.26521870326E+03  0.18407304028E+04  0.19227222450E+04  0.50400001928E-02 0. -1.
</event>
<event>
 5   0  0.6509279E-05  0.1499434E+04  0.7818609E-02  0.8884830E-01
        1   -1    0    0  501    0  0.00000000000E+00  0.00000000000E+00  0.62716095502E+03  0.62716095504E+03  0.50400001928E-02 0. -1.
       -1   -1    0    0    0  501  0.00000000000E+00  0.00000000000E+00 -0.89622168383E+03  0.89622168384E+03  0.50400001928E-02 0.  1.
    10030    2    1    2    0    0  0.00000000000E+00  0.00000000000E+00 -0.26906072881E+03  0.15233826389E+04  0.14994335559E+04 0.  0.
        2    1    3    3  502    0  0.63244283068E+03  0.22817976294E+03 -0.47152894707E+03  0.82121220536E+03  0.25500000920E-02 0.  1.
       -2    1    3    3    0  502 -0.63244283068E+03 -0.22817976294E+03  0.20246821826E+03  0.70217043352E+03  0.25500000920E-02 0. -1.
</event>
<event>
 5   0  0.1186664E-04  0.1498752E+04  0.7818609E-02  0.8885283E-01
       -2   -1    0    0    0  501  0.00000000000E+00  0.00000000000E+00  0.27219614663E+03  0.27219614665E+03  0.25500000920E-02 0.  1.
        2   -1    0    0  501    0  0.00000000000E+00  0.00000000000E+00 -0.20630884225E+04  0.20630884225E+04  0.25500000920E-02 0. -1.
    10030    2    1    2    0    0  0.00000000000E+00  0.00000000000E+00 -0.17908922758E+04  0.23352845691E+04  0.14987524396E+04 0.  0.
        3    1    3    3  502    0 -0.19916372780E+03  0.70784972503E+03 -0.67047093244E+03  0.99511240830E+03  0.10100000352E+00 0.  1.
       -3    1    3    3    0  502  0.19916372780E+03 -0.70784972503E+03 -0.11204213434E+04  0.13401721608E+04  0.10100000352E+00 0. -1.
</event>
<event>
 5   0  0.6542036E-05  0.1500688E+04  0.7818609E-02  0.8883996E-01
       -1   -1    0    0    0  501  0.00000000000E+00  0.00000000000E+00  0.43794757050E+03  0.43794757053E+03  0.50400001928E-02 0. -1.
        1   -1    0    0  501    0  0.00000000000E+00  0.00000000000E+00 -0.12855788132E+04  0.12855788132E+04  0.50400001928E-02 0.  1.
    10030    2    1    2    0    0  0.00000000000E+00  0.00000000000E+00 -0.84763124272E+03  0.17235263838E+04  0.15006879995E+04 0.  0.
        4    1    3    3  502    0  0.10016592555E+03  0.33755949489E+03 -0.11848022727E+04  0.12360168540E+04  0.12699999809E+01 0.  1.
       -4    1    3    3    0  502 -0.10016592555E+03 -0.33755949489E+03  0.33717102995E+03  0.48750952972E+03  0.12699999809E+01 0. -1.
</event>
<event>
 5   0  0.1219810E-04  0.1505810E+04  0.7818609E-02  0.8880599E-01
       -2   -1    0    0    0  501  0.00000000000E+00  0.00000000000E+00  0.56070524833E+03  0.56070524833E+03  0.25500000920E-02 0.  1.
        2   -1    0    0  501    0  0.00000000000E+00  0.00000000000E+00 -0.10109872749E+04  0.10109872749E+04  0.25500000920E-02 0. -1.
    10030    2    1    2    0    0  0.00000000000E+00  0.00000000000E+00 -0.45028202660E+03  0.15716925233E+04  0.15058099097E+04 0.  0.
        1    1    3    3  502    0 -0.20127442759E+03  0.12217648502E+03  0.52128956894E+03  0.57199764283E+03  0.50400001928E-02 0.  1.
       -1    1    3    3    0  502  0.20127442759E+03 -0.12217648502E+03 -0.97157159554E+03  0.99969488044E+03  0.50400001928E-02 0. -1.
</event>
<event>
 5   0  0.6361716E-05  0.1488331E+04  0.7818609E-02  0.8892250E-01
       -1   -1    0    0    0  501  0.00000000000E+00  0.00000000000E+00  0.76271421720E+03  0.76271421721E+03  0.50400001928E-02 0. -1.
        1   -1    0    0  501    0  0.00000000000E+00  0.00000000000E+00 -0.72606784255E+03  0.72606784257E+03  0.50400001928E-02 0.  1.
    10030    2    1    2    0    0  0.00000000000E+00  0.00000000000E+00  0.36646374644E+02  0.14887820598E+04  0.14883309661E+04 0.  0.
        3    1    3    3  502    0  0.64689227082E+03  0.35659409401E+03  0.10864616956E+03  0.74661433036E+03  0.10100000352E+00 0. -1.
       -3    1    3    3    0  502 -0.64689227082E+03 -0.35659409401E+03 -0.71999794917E+02  0.74216772943E+03  0.10100000352E+00 0.  1.
</event>
<event>
 5   0  0.1216921E-04  0.1494826E+04  0.7818609E-02  0.8887901E-01
        2   -1    0    0  501    0  0.00000000000E+00  0.00000000000E+00  0.10441416852E+04  0.10441416852E+04  0.25500000920E-02 0.  1.
       -2   -1    0    0    0  501  0.00000000000E+00  0.00000000000E+00 -0.53500960779E+03  0.53500960780E+03  0.25500000920E-02 0. -1.
    10030    2    1    2    0    0  0.00000000000E+00  0.00000000000E+00  0.50913207738E+03  0.15791512930E+04  0.14948255195E+04 0.  0.
        4    1    3    3  502    0  0.73501567671E+03  0.10491770893E+03  0.16388399387E+03  0.76033896849E+03  0.12699999809E+01 0. -1.
       -4    1    3    3    0  502 -0.73501567671E+03 -0.10491770893E+03  0.34524808351E+03  0.81881232448E+03  0.12699999809E+01 0.  1.
</event>
<event>
 5   0  0.1216921E-04  0.1502582E+04  0.7818609E-02  0.8882737E-01
       -2   -1    0    0    0  501  0.00000000000E+00  0.00000000000E+00  0.94585368105E+03  0.94585368105E+03  0.25500000920E-02 0. -1.
        2   -1    0    0  501    0  0.00000000000E+00  0.00000000000E+00 -0.59675030130E+03  0.59675030130E+03  0.25500000920E-02 0.  1.
    10030    2    1    2    0    0  0.00000000000E+00  0.00000000000E+00  0.34910337975E+03  0.15426039824E+04  0.15025824026E+04 0.  0.
        4    1    3    3  502    0 -0.33885162256E+03 -0.13338846088E+03  0.84918769252E+03  0.92397740970E+03  0.12699999809E+01 0. -1.
       -4    1    3    3    0  502  0.33885162256E+03  0.13338846088E+03 -0.50008431277E+03  0.61862657265E+03  0.12699999809E+01 0.  1.
</event>
<event>
 5   0  0.1254487E-04  0.1498720E+04  0.7818609E-02  0.8885304E-01
        2   -1    0    0  501    0  0.00000000000E+00  0.00000000000E+00  0.74856037731E+03  0.74856037731E+03  0.25500000920E-02 0. -1.
       -2   -1    0    0    0  501  0.00000000000E+00  0.00000000000E+00 -0.75016094110E+03  0.75016094111E+03  0.25500000920E-02 0.  1.
    10030    2    1    2    0    0  0.00000000000E+00  0.00000000000E+00 -0.16005637922E+01  0.14987213184E+04  0.14987204638E+04 0.  0.
        5    1    3    3  502    0 -0.69225408896E+02  0.54660605815E+03  0.50708614367E+03  0.74881826042E+03  0.46999998093E+01 0. -1.
       -5    1    3    3    0  502  0.69225408896E+02 -0.54660605815E+03 -0.50868670746E+03  0.74990305800E+03  0.46999998093E+01 0.  1.
</event>
<event>
 5   0  0.1228286E-04  0.1501715E+04  0.7818609E-02  0.8883313E-01
       -2   -1    0    0    0  501  0.00000000000E+00  0.00000000000E+00  0.24556183317E+04  0.24556183317E+04  0.25500000920E-02 0.  1.
        2   -1    0    0  501    0  0.00000000000E+00  0.00000000000E+00 -0.22959064506E+03  0.22959064508E+03  0.25500000920E-02 0. -1.
    10030    2    1    2    0    0  0.00000000000E+00  0.00000000000E+00  0.22260276867E+04  0.26852089768E+04  0.15017150154E+04 0.  0.
        2    1    3    3  502    0  0.64770286735E+03  0.37980151956E+03  0.11052612208E+04  0.13361775948E+04  0.25500000920E-02 0. -1.
       -2    1    3    3    0  502 -0.64770286735E+03 -0.37980151956E+03  0.11207664659E+04  0.13490313820E+04  0.25500000920E-02 0.  1.
</event>
<event>
 5   0  0.1186664E-04  0.1484181E+04  0.7818609E-02  0.8895041E-01
        2   -1    0    0  501    0  0.00000000000E+00  0.00000000000E+00  0.15051361254E+04  0.15051361254E+04  0.25500000920E-02 0. -1.
       -2   -1    0    0    0  501  0.00000000000E+00  0.00000000000E+00 -0.36587925832E+03  0.36587925833E+03  0.25500000920E-02 0.  1.
    10030    2    1    2    0    0  0.00000000000E+00  0.00000000000E+00  0.11392568670E+04  0.18710153837E+04  0.14841807022E+04 0.  0.
        3    1    3    3  502    0  0.21984489429E+03  0.70081442419E+03  0.43606353206E+03  0.85418033745E+03  0.10100000352E+00 0.  1.
       -3    1    3    3    0  502 -0.21984489429E+03 -0.70081442419E+03  0.70319333498E+03  0.10168350462E+04  0.10100000352E+00 0. -1.
</event>
<event>
 5   0  0.1186664E-04  0.1502117E+04  0.7818609E-02  0.8883046E-01
        2   -1    0    0  501    0  0.00000000000E+00  0.00000000000E+00  0.17319682936E+04  0.17319682936E+04  0.25500000920E-02 0.  1.
       -2   -1    0    0    0  501  0.00000000000E+00  0.00000000000E+00 -0.32569236330E+03  0.32569236331E+03  0.25500000920E-02 0. -1.
    10030    2    1    2    0    0  0.00000000000E+00  0.00000000000E+00  0.14062759303E+04  0.20576606569E+04  0.15021169684E+04 0.  0.
        3    1    3    3  502    0 -0.15861383310E+02 -0.73538398883E+03  0.91109961367E+03  0.11709584582E+04  0.10100000352E+00 0.  1.
       -3    1    3    3    0  502  0.15861383310E+02  0.73538398883E+03  0.49517631663E+03  0.88670219875E+03  0.10100000352E+00 0. -1.
</event>
<event>
 5   0  0.1228286E-04  0.1499524E+04  0.7818609E-02  0.8884770E-01
       -2   -1    0    0    0  501  0.00000000000E+00  0.00000000000E+00  0.26885941715E+03  0.26885941716E+03  0.25500000920E-02 0.  1.
        2   -1    0    0  501    0  0.00000000000E+00  0.00000000000E+00 -0.20908425252E+04  0.20908425252E+04  0.25500000920E-02 0. -1.
    10030    2    1    2    0    0  0.00000000000E+00  0.00000000000E+00 -0.18219831080E+04  0.23597019423E+04  0.14995235279E+04 0.  0.
        2    1    3    3  502    0 -0.49425351451E+03  0.36554658740E+03 -0.23555240002E+03  0.65832801651E+03  0.25500000920E-02 0.  1.
       -2    1    3    3    0  502  0.49425351451E+03 -0.36554658740E+03 -0.15864307080E+04  0.17013739258E+04  0.25500000920E-02 0. -1.
</event>
<event>
 5   0  0.4462875E-05  0.1496253E+04  0.7818609E-02  0.8886949E-01
        3   -1    0    0  501    0  0.00000000000E+00  0.00000000000E+00  0.18459311029E+04  0.18459311057E+04  0.10100000352E+00 0. -1.
       -3   -1    0    0    0  501  0.00000000000E+00  0.00000000000E+00 -0.30320355335E+03  0.30320357017E+03  0.10100000352E+00 0.  1.
    10030    2    1    2    0    0  0.00000000000E+00  0.00000000000E+00  0.15427275495E+04  0.21491346758E+04  0.14962525063E+04 0.  0.
        5    1    3    3  502    0 -0.28836661644E+03 -0.59562987025E+03  0.27020380377E+03  0.71481636340E+03  0.46999998093E+01 0.  1.
       -5    1    3    3    0  502  0.28836661644E+03  0.59562987025E+03  0.12725237458E+04  0.14343183124E+04  0.46999998093E+01 0. -1.
</event>
<event>
 5   0  0.4462875E-05  0.1503864E+04  0.7818609E-02  0.8881887E-01
        4   -1    0    0  501    0  0.00000000000E+00  0.00000000000E+00  0.82382687145E+03  0.82382785036E+03  0.12699999809E+01 0. -1.
       -4   -1    0    0    0  501  0.00000000000E+00  0.00000000000E+00 -0.68630958656E+03  0.68631076161E+03  0.12699999809E+01 0.  1.
    10030    2    1    2    0    0  0.00000000000E+00  0.00000000000E+00  0.13751728490E+03  0.15101386120E+04  0.15038642305E+04 0.  0.
        3    1    3    3  502    0  0.52282040924E+03  0.50952777931E+03  0.24962718813E+03  0.77153968236E+03  0.10100000352E+00 0. -1.
       -3    1    3    3    0  502 -0.52282040924E+03 -0.50952777931E+03 -0.11210990323E+03  0.73859892960E+03  0.10100000352E+00 0.  1.
</event>
<event>
 5   0  0.1186664E-04  0.1503600E+04  0.7818609E-02  0.8882063E-01
        2   -1    0    0  501    0  0.00000000000E+00  0.00000000000E+00  0.82935462782E+03  0.82935462782E+03  0.25500000920E-02 0.  1.
       -2   -1    0    0    0  501  0.00000000000E+00  0.00000000000E+00 -0.68149759685E+03  0.68149759685E+03  0.25500000920E-02 0. -1.
    10030    2    1    2    0    0  0.00000000000E+00  0.00000000000E+00  0.14785703097E+03  0.15108522247E+04  0.15035999279E+04 0.  0.
        3    1    3    3  502    0 -0.64036171515E+03 -0.31212827441E+03  0.31532879339E+03  0.77905034758E+03  0.10100000352E+00 0.  1.
       -3    1    3    3    0  502  0.64036171515E+03  0.31212827441E+03 -0.16747176242E+03  0.73180187710E+03  0.10100000352E+00 0. -1.
</event>
<event>
 5   0  0.6668433E-05  0.1490085E+04  0.7818609E-02  0.8891073E-01
       -1   -1    0    0    0  501  0.00000000000E+00  0.00000000000E+00  0.73188100221E+03  0.73188100222E+03  0.50400001928E-02 0.  1.
        1   -1    0    0  501    0  0.00000000000E+00  0.00000000000E+00 -0.75844047882E+03  0.75844047884E+03  0.50400001928E-02 0. -1.
    10030    2    1    2    0    0  0.00000000000E+00  0.00000000000E+00 -0.26559476617E+02  0.14903214811E+04  0.14900848000E+04 0.  0.
        1    1    3    3  502    0  0.24302594699E+03  0.26593192862E+01  0.69111864344E+03  0.73260744073E+03  0.50400001928E-02 0.  1.
       -1    1    3    3    0  502 -0.24302594699E+03 -0.26593192862E+01 -0.71767812005E+03  0.75771404033E+03  0.50400001928E-02 0. -1.
</event>
<event>
 5   0  0.1219810E-04  0.1502587E+04  0.7818609E-02  0.8882734E-01
        2   -1    0    0  501    0  0.00000000000E+00  0.00000000000E+00  0.11867284186E+04  0.11867284186E+04  0.25500000920E-02 0.  1.
       -2   -1    0    0    0  501  0.00000000000E+00  0.00000000000E+00 -0.47562877364E+03  0.47562877364E+03  0.25500000920E-02 0. -1.
    10030    2    1    2    0    0  0.00000000000E+00  0.00000000000E+00  0.71109964500E+03  0.16623571923E+04  0.15025873451E+04 0.  0.
        1    1    3    3  502    0  0.43706035134E+02  0.54356791583E+03 -0.21618392499E+03  0.58661042104E+03  0.50400001928E-02 0. -1.
       -1    1    3    3    0  502 -0.43706035134E+02 -0.54356791583E+03  0.92728356999E+03  0.10757467712E+04  0.50400001928E-02 0.  1.
</event>
<event>
 5   0  0.1228286E-04  0.1507888E+04  0.7818609E-02  0.8879224E-01
       -2   -1    0    0    0  501  0.00000000000E+00  0.00000000000E+00  0.33014588261E+03  0.33014588262E+03  0.25500000920E-02 0.  1.
        2   -1    0    0  501    0  0.00000000000E+00  0.00000000000E+00 -0.17217584506E+04  0.17217584506E+04  0.25500000920E-02 0. -1.
    10030    2    1    2    0    0  0.00000000000E+00  0.00000000000E+00 -0.13916125680E+04  0.20519043332E+04  0.15078878782E+04 0.  0.
        2    1    3    3  502    0  0.43185706528E+03  0.60121072074E+03 -0.89052919987E+03  0.11580142967E+04  0.25500000920E-02 0.  1.
       -2    1    3    3    0  502 -0.43185706528E+03 -0.60121072074E+03 -0.50108336813E+03  0.89389003652E+03  0.25500000920E-02 0. -1.
</event>
<event>
 5   0  0.6509279E-05  0.1502416E+04  0.7818609E-02  0.8882848E-01
       -1   -1    0    0    0  501  0.00000000000E+00  0.00000000000E+00  0.50976720424E+03  0.50976720426E+03  0.50400001928E-02 0.  1.
        1   -1    0    0  501    0  0.00000000000E+00  0.00000000000E+00 -0.11070018624E+04  0.11070018624E+04  0.50400001928E-02 0. -1.
    10030    2    1    2    0    0  0.00000000000E+00  0.00000000000E+00 -0.59723465813E+03  0.16167690666E+04  0.15024157141E+04 0.  0.
        2    1    3    3  502    0 -0.63658308046E+03 -0.36615716648E+03 -0.12845478483E+03  0.74552647212E+03  0.25500000920E-02 0.  1.
       -2    1    3    3    0  502  0.63658308046E+03  0.36615716648E+03 -0.46877987330E+03  0.87124259452E+03  0.25500000920E-02 0. -1.
</event>
<event>
 5   0  0.1254487E-04  0.1501929E+04  0.7818609E-02  0.8883171E-01
       -2   -1    0    0    0  501  0.00000000000E+00  0.00000000000E+00  0.19496804636E+03  0.19496804638E+03  0.25500000920E-02 0. -1.
        2   -1    0    0  501    0  0.00000000000E+00  0.00000000000E+00 -0.28925120653E+04  0.28925120653E+04  0.25500000920E-02 0.  1.
    10030    2    1    2    0    0  0.00000000000E+00  0.00000000000E+00 -0.26975440190E+04  0.30874801117E+04  0.15019286620E+04 0.  0.
        5    1    3    3  502    0  0.49674747592E+03  0.19969954920E+02 -0.19179202563E+03  0.53288190533E+03  0.46999998093E+01 0. -1.
       -5    1    3    3    0  502 -0.49674747592E+03 -0.19969954920E+02 -0.25057519933E+04  0.25545982064E+04  0.46999998093E+01 0.  1.
</event>
<event>
 5   0  0.6361716E-05  0.1485572E+04  0.7818609E-02  0.8894104E-01
        1   -1    0    0  501    0  0.00000000000E+00  0.00000000000E+00  0.62717584557E+03  0.62717584559E+03  0.50400001928E-02 0.  1.
       -1   -1    0    0    0  501  0.00000000000E+00  0.00000000000E+00 -0.87970731504E+03  0.87970731505E+03  0.50400001928E-02 0. -1.
    10030    2    1    2    0    0  0.00000000000E+00  0.00000000000E+00 -0.25253146946E+03  0.15068831606E+04  0.14855721850E+04 0.  0.
        3    1    3    3  502    0 -0.21098048832E+03 -0.14217641523E+03  0.58160214252E+03  0.63481332838E+03  0.10100000352E+00 0.  1.
       -3    1    3    3    0  502  0.21098048832E+03  0.14217641523E+03 -0.83413361199E+03  0.87206983226E+03  0.10100000352E+00 0. -1.
</event>
<event>
 5   0  0.6361716E-05  0.1487882E+04  0.7818609E-02  0.8892551E-01
        1   -1    0    0  501    0  0.00000000000E+00  0.00000000000E+00  0.82370737339E+03  0.82370737341E+03  0.50400001928E-02 0.  1.
       -1   -1    0    0    0  501  0.00000000000E+00  0.00000000000E+00 -0.67189927623E+03  0.67189927625E+03  0.50400001928E-02 0. -1.
    10030    2    1    2    0    0  0.00000000000E+00  0.00000000000E+00  0.15180809716E+03  0.14956066497E+04  0.14878822373E+04 0.  0.
        3    1    3    3  502    0 -0.30272873180E+03 -0.53158749807E+03  0.50144382014E+03  0.79099675607E+03  0.10100000352E+00 0.  1.
       -3    1    3    3    0  502  0.30272873180E+03  0.53158749807E+03 -0.34963572297E+03  0.70460989359E+03  0.10100000352E+00 0. -1.
</event>
<event>
 5   0  0.6542036E-05  0.1499406E+04  0.7818609E-02  0.8884848E-01
       -1   -1    0    0    0  501  0.00000000000E+00  0.00000000000E+00  0.17451715354E+04  0.17451715354E+04  0.50400001928E-02 0. -1.
        1   -1    0    0  501    0  0.00000000000E+00  0.00000000000E+00 -0.32206251420E+03  0.32206251424E+03  0.50400001928E-02 0.  1.
    10030    2    1    2    0    0  0.00000000000E+00  0.00000000000E+00  0.14231090212E+04  0.20672340497E+04  0.14994056589E+04 0.  0.
        4    1    3    3  502    0  0.49892854185E+03  0.21055917764E+02 -0.59385050308E+02  0.50289286995E+03  0.12699999809E+01 0.  1.
       -4    1    3    3    0  502 -0.49892854185E+03 -0.21055917764E+02  0.14824940715E+04  0.15643411797E+04  0.12699999809E+01 0. -1.
</event>
<event>
 5   0  0.1216921E-04  0.1497011E+04  0.7818609E-02  0.8886443E-01
        2   -1    0    0  501    0  0.00000000000E+00  0.00000000000E+00  0.12601344650E+04  0.12601344650E+04  0.25500000920E-02 0. -1.
       -2   -1    0    0    0  501  0.00000000000E+00  0.00000000000E+00 -0.44460343490E+03  0.44460343491E+03  0.25500000920E-02 0.  1.
    10030    2    1    2    0    0  0.00000000000E+00  0.00000000000E+00  0.81553103013E+03  0.17047378999E+04  0.14970105031E+04 0.  0.
        4    1    3    3  502    0  0.20896294479E+03 -0.57163727373E+03  0.90390994083E+03  0.10897199085E+04  0.12699999809E+01 0. -1.
       -4    1    3    3    0  502 -0.20896294479E+03  0.57163727373E+03 -0.88378910696E+02  0.61501799141E+03  0.12699999809E+01 0.  1.
</event>
<event>
 5   0  0.1228286E-04  0.1503641E+04  0.7818609E-02  0.8882035E-01
        2   -1    0    0  501    0  0.00000000000E+00  0.00000000000E+00  0.36799790101E+03  0.36799790102E+03  0.25500000920E-02 0. -1.
       -2   -1    0    0    0  501  0.00000000000E+00  0.00000000000E+00 -0.15359710248E+04  0.15359710248E+04  0.25500000920E-02 0.  1.
    10030    2    1    2    0    0  0.00000000000E+00  0.00000000000E+00 -0.11679731238E+04  0.19039689258E+04  0.15036410651E+04 0.  0.
        2    1    3    3  502    0 -0.22940635967E+03  0.51154880396E+03  0.50302682628E+02  0.56288526057E+03  0.25500000920E-02 0. -1.
       -2    1    3    3    0  502  0.22940635967E+03 -0.51154880396E+03 -0.12182758064E+04  0.13410836653E+04  0.25500000920E-02 0.  1.
</event>
<event>
 5   0  0.1216921E-04  0.1499863E+04  0.7818609E-02  0.8884544E-01
        2   -1    0    0  501    0  0.00000000000E+00  0.00000000000E+00  0.11139969214E+04  0.11139969214E+04  0.25500000920E-02 0. -1.
       -2   -1    0    0    0  501  0.00000000000E+00  0.00000000000E+00 -0.50484650735E+03  0.50484650735E+03  0.25500000920E-02 0.  1.
    10030    2    1    2    0    0  0.00000000000E+00  0.00000000000E+00  0.60915041404E+03  0.16188434287E+04  0.14998632671E+04 0.  0.
        4    1    3    3  502    0  0.27488107363E+03  0.62968087740E+03  0.62898127304E+03  0.93149163536E+03  0.12699999809E+01 0. -1.
       -4    1    3    3    0  502 -0.27488107363E+03 -0.62968087740E+03 -0.19830858996E+02  0.68735179339E+03  0.12699999809E+01 0.  1.
</event>
<event>
 5   0  0.1219810E-04  0.1506145E+04  0.7818609E-02  0.8880377E-01
        2   -1    0    0  501    0  0.00000000000E+00  0.00000000000E+00  0.11256153846E+04  0.11256153846E+04  0.25500000920E-02 0. -1.
       -2   -1    0    0    0  501  0.00000000000E+00  0.00000000000E+00 -0.50382977351E+03  0.50382977352E+03  0.25500000920E-02 0.  1.
    10030    2    1    2    0    0  0.00000000000E+00  0.00000000000E+00  0.62178561112E+03  0.16294451582E+04  0.15061454701E+04 0.  0.
        1    1    3    3  502    0  0.63989131276E+03  0.31135684170E+03  0.57746772541E+03  0.91644582433E+03  0.50400001928E-02 0. -1.
       -1    1    3    3    0  502 -0.63989131276E+03 -0.31135684170E+03  0.44317885719E+02  0.71299933383E+03  0.50400001928E-02 0.  1.
</event>
<event>
 5   0  0.1186664E-04  0.1497184E+04  0.7818609E-02  0.8886328E-01
        2   -1    0    0  501    0  0.00000000000E+00  0.00000000000E+00  0.11690305512E+04  0.11690305513E+04  0.25500000920E-02 0.  1.
       -2   -1    0    0    0  501  0.00000000000E+00  0.00000000000E+00 -0.47936311290E+03  0.47936311291E+03  0.25500000920E-02 0. -1.
    10030    2    1    2    0    0  0.00000000000E+00  0.00000000000E+00  0.68966743835E+03  0.16483936642E+04  0.14971841892E+04 0.  0.
        3    1    3    3  502    0 -0.54176743972E+03  0.36279615308E+03  0.74975047688E+03  0.99360897500E+03  0.10100000352E+00 0.  1.
       -3    1    3    3    0  502  0.54176743972E+03 -0.36279615308E+03 -0.60083038524E+02  0.65478468915E+03  0.10100000352E+00 0. -1.
</event>
<event>
 5   0  0.6668433E-05  0.1491520E+04  0.7818609E-02  0.8890112E-01
        1   -1    0    0  501    0  0.00000000000E+00  0.00000000000E+00  0.14022954215E+04  0.14022954215E+04  0.50400001928E-02 0. -1.
       -1   -1    0    0    0  501  0.00000000000E+00  0.00000000000E+00 -0.39660525912E+03  0.39660525915E+03  0.50400001928E-02 0.  1.
    10030    2    1    2    0    0  0.00000000000E+00  0.00000000000E+00  0.10056901624E+04  0.17989006806E+04  0.14915196801E+04 0.  0.
        1    1    3    3  502    0  0.58625052903E+03 -0.10088854152E+03 -0.39611435888E+02  0.59618558057E+03  0.50400001928E-02 0.  1.
       -1    1    3    3    0  502 -0.58625052903E+03  0.10088854152E+03  0.10453015982E+04  0.12027151001E+04  0.50400001928E-02 0. -1.
</event>
<event>
 5   0  0.1228286E-04  0.1500813E+04  0.7818609E-02  0.8883912E-01
        2   -1    0    0  501    0  0.00000000000E+00  0.00000000000E+00  0.17503283428E+04  0.17503283428E+04  0.25500000920E-02 0. -1.
       -2   -1    0    0    0  501  0.00000000000E+00  0.00000000000E+00 -0.32171694422E+03  0.32171694423E+03  0.25500000920E-02 0.  1.
    10030    2    1    2    0    0  0.00000000000E+00  0.00000000000E+00  0.14286113986E+04  0.20720452870E+04  0.15008134939E+04 0.  0.
        2    1    3    3  502    0  0.32155947810E+03 -0.44315107664E+03  0.58378608467E+01  0.54755589240E+03  0.25500000920E-02 0.  1.
       -2    1    3    3    0  502 -0.32155947810E+03  0.44315107664E+03  0.14227735377E+04  0.15244893946E+04  0.25500000920E-02 0. -1.
</event>
<event>
 5   0  0.6509279E-05  0.1499551E+04  0.7818609E-02  0.8884752E-01
        1   -1    0    0  501    0  0.00000000000E+00  0.00000000000E+00  0.60069725268E+03  0.60069725270E+03  0.50400001928E-02 0.  1.
       -1   -1    0    0    0  501  0.00000000000E+00  0.00000000000E+00 -0.93585081795E+03  0.93585081796E+03  0.50400001928E-02 0. -1.
    10030    2    1    2    0    0  0.00000000000E+00  0.00000000000E+00 -0.33515356527E+03  0.15365480707E+04  0.14995506197E+04 0.  0.
        2    1    3    3  502    0  0.65404888220E+03  0.25876411135E+03 -0.43364497136E+03  0.82630912304E+03  0.25500000920E-02 0. -1.
       -2    1    3    3    0  502 -0.65404888220E+03 -0.25876411135E+03  0.98491406082E+02  0.71023894762E+03  0.25500000920E-02 0.  1.
</event>
<event>
 5   0  0.1216921E-04  0.1498877E+04  0.7818609E-02  0.8885200E-01
       -2   -1    0    0    0  501  0.00000000000E+00  0.00000000000E+00  0.72293788282E+03  0.72293788283E+03  0.25500000920E-02 0.  1.
        2   -1    0    0  501    0  0.00000000000E+00  0.00000000000E+00 -0.77691074729E+03  0.77691074730E+03  0.25500000920E-02 0. -1.
    10030    2    1    2    0    0  0.00000000000E+00  0.00000000000E+00 -0.53972864470E+02  0.14998486301E+04  0.14988771942E+04 0.  0.
        4    1    3    3  502    0  0.22177177902E+03 -0.41667787462E+03 -0.60947488280E+03  0.77088547712E+03  0.12699999809E+01 0. -1.
       -4    1    3    3    0  502 -0.22177177902E+03  0.41667787462E+03  0.55550201833E+03  0.72896315301E+03  0.12699999809E+01 0.  1.
</event>
<event>
 5   0  0.1216921E-04  0.1505081E+04  0.7818609E-02  0.8881081E-01
       -2   -1    0    0    0  501  0.00000000000E+00  0.00000000000E+00  0.12411306346E+04  0.12411306346E+04  0.25500000920E-02 0.  1.
        2   -1    0    0  501    0  0.00000000000E+00  0.00000000000E+00 -0.45629129294E+03  0.45629129295E+03  0.25500000920E-02 0. -1.
    10030    2    1    2    0    0  0.00000000000E+00  0.00000000000E+00  0.78483934163E+03  0.16974219275E+04  0.15050808642E+04 0.  0.
        4    1    3    3  502    0 -0.25124052314E+03 -0.66890050366E+03  0.12609342872E+03  0.72556932814E+03  0.12699999809E+01 0. -1.
       -4    1    3    3    0  502  0.25124052314E+03  0.66890050366E+03  0.65874591291E+03  0.97185259939E+03  0.12699999809E+01 0.  1.
</event>
<event>
 5   0  0.6668433E-05  0.1494051E+04  0.7818609E-02  0.8888419E-01
       -1   -1    0    0    0  501  0.00000000000E+00  0.00000000000E+00  0.39550863606E+03  0.39550863609E+03  0.50400001928E-02 0. -1.
        1   -1    0    0  501    0  0.00000000000E+00  0.00000000000E+00 -0.14109604753E+04  0.14109604754E+04  0.50400001928E-02 0.  1.
    10030    2    1    2    0    0  0.00000000000E+00  0.00000000000E+00 -0.10154518393E+04  0.18064691114E+04  0.14940509405E+04 0.  0.
        1    1    3    3  502    0  0.17363418838E+03  0.38852539461E+03 -0.12500693037E+04  0.13205203814E+04  0.50400001928E-02 0.  1.
       -1    1    3    3    0  502 -0.17363418838E+03 -0.38852539461E+03  0.23461746439E+03  0.48594873007E+03  0.50400001928E-02 0. -1.
</event>
<event>
 5   0  0.6361716E-05  0.1500184E+04  0.7818609E-02  0.8884331E-01
       -1   -1    0    0    0  501  0.00000000000E+00  0.00000000000E+00  0.56694244552E+03  0.56694244554E+03  0.50400001928E-02 0.  1.
        1   -1    0    0  501    0  0.00000000000E+00  0.00000000000E+00 -0.99240710294E+03  0.99240710295E+03  0.50400001928E-02 0. -1.
    10030    2    1    2    0    0  0.00000000000E+00  0.00000000000E+00 -0.42546465742E+03  0.15593495485E+04  0.15001836020E+04 0.  0.
        3    1    3    3  502    0 -0.43190388023E+03  0.36255004347E+03 -0.72686524102E+03  0.91995466442E+03  0.10100000352E+00 0. -1.
       -3    1    3    3    0  502  0.43190388023E+03 -0.36255004347E+03  0.30140058360E+03  0.63939488407E+03  0.10100000352E+00 0.  1.
</event>
<event>
 5   0  0.1186664E-04  0.1498151E+04  0.7818609E-02  0.8885683E-01
       -2   -1    0    0    0  501  0.00000000000E+00  0.00000000000E+00  0.29568631043E+03  0.29568631044E+03  0.25500000920E-02 0. -1.
        2   -1    0    0  501    0  0.00000000000E+00  0.00000000000E+00 -0.18976665114E+04  0.18976665114E+04  0.25500000920E-02 0.  1.
    10030    2    1    2    0    0  0.00000000000E+00  0.00000000000E+00 -0.16019802010E+04  0.21933528219E+04  0.14981508725E+04 0.  0.
        3    1    3    3  502    0  0.34828275923E+03 -0.22354597271E+03 -0.17150956000E+04  0.17643204385E+04  0.10100000352E+00 0.  1.
       -3    1    3    3    0  502 -0.34828275923E+03  0.22354597271E+03  0.11311539902E+03  0.42903238338E+03  0.10100000352E+00 0. -1.
</event>
<event>
 5   0  0.6364378E-05  0.1498374E+04  0.7818609E-02  0.8885535E-01
       -1   -1    0    0    0  501  0.00000000000E+00  0.00000000000E+00  0.78395714748E+03  0.78395714749E+03  0.50400001928E-02 0. -1.
        1   -1    0    0  501    0  0.00000000000E+00  0.00000000000E+00 -0.71595919906E+03  0.71595919908E+03  0.50400001928E-02 0.  1.
    10030    2    1    2    0    0  0.00000000000E+00  0.00000000000E+00  0.67997948415E+02  0.14999163466E+04  0.14983742275E+04 0.  0.
        5    1    3    3  502    0  0.67655783855E+03  0.23744734371E+02 -0.28721274897E+03  0.73539620239E+03  0.46999998093E+01 0.  1.
       -5    1    3    3    0  502 -0.67655783855E+03 -0.23744734371E+02  0.35521069739E+03  0.76452014418E+03  0.46999998093E+01 0. -1.
</event>
<event>
 5   0  0.6542036E-05  0.1500363E+04  0.7818609E-02  0.8884212E-01
       -1   -1    0    0    0  501  0.00000000000E+00  0.00000000000E+00  0.26797028752E+03  0.26797028757E+03  0.50400001928E-02 0. -1.
        1   -1    0    0  501    0  0.00000000000E+00  0.00000000000E+00 -0.21001294035E+04  0.21001294035E+04  0.50400001928E-02 0.  1.
    10030    2    1    2    0    0  0.00000000000E+00  0.00000000000E+00 -0.18321591160E+04  0.23680996911E+04  0.15003629963E+04 0.  0.
        4    1    3    3  502    0 -0.99185991892E+02 -0.24070704498E+03 -0.20265401024E+04  0.20431945923E+04  0.12699999809E+01 0.  1.
       -4    1    3    3    0  502  0.99185991892E+02  0.24070704498E+03  0.19438098636E+03  0.32490509883E+03  0.12699999809E+01 0. -1.
</event>
<event>
 5   0  0.1216921E-04  0.1501745E+04  0.7818609E-02  0.8883293E-01
       -2   -1    0    0    0  501  0.00000000000E+00  0.00000000000E+00  0.41965526908E+03  0.41965526909E+03  0.25500000920E-02 0.  1.
        2   -1    0    0  501    0  0.00000000000E+00  0.00000000000E+00 -0.13435063123E+04  0.13435063123E+04  0.25500000920E-02 0. -1.
    10030    2    1    2    0    0  0.00000000000E+00  0.00000000000E+00 -0.92385104323E+03  0.17631615814E+04  0.15017449890E+04 0.  0.
        4    1    3    3  502    0 -0.55789688631E+03 -0.35683329082E+03 -0.87740378175E+03  0.10992806477E+04  0.12699999809E+01 0. -1.
       -4    1    3    3    0  502  0.55789688631E+03  0.35683329082E+03 -0.46447261480E+02  0.66388093374E+03  0.12699999809E+01 0.  1.
</event>
<event>
 5   0  0.1219810E-04  0.1497770E+04  0.7818609E-02  0.8885937E-01
       -2   -1    0    0    0  501  0.00000000000E+00  0.00000000000E+00  0.79845433669E+03  0.79845433670E+03  0.25500000920E-02 0.  1.
        2   -1    0    0  501    0  0.00000000000E+00  0.00000000000E+00 -0.70239331946E+03  0.70239331947E+03  0.25500000920E-02 0. -1.
    10030    2    1    2    0    0  0.00000000000E+00  0.00000000000E+00  0.96061017233E+02  0.15008476562E+04  0.14977703322E+04 0.  0.
        1    1    3    3  502    0 -0.38417779717E+03 -0.62810300673E+03 -0.89082732516E+02  0.74164796241E+03  0.50400001928E-02 0. -1.
       -1    1    3    3    0  502  0.38417779717E+03  0.62810300673E+03  0.18514374975E+03  0.75919969375E+03  0.50400001928E-02 0.  1.
</event>
<event>
 5   0  0.6509279E-05  0.1492512E+04  0.7818609E-02  0.8889447E-01
       -1   -1    0    0    0  501  0.00000000000E+00  0.00000000000E+00  0.88369954393E+03  0.88369954394E+03  0.50400001928E-02 0.  1.
        1   -1    0    0  501    0  0.00000000000E+00  0.00000000000E+00 -0.63018970144E+03  0.63018970146E+03  0.50400001928E-02 0. -1.
    10030    2    1    2    0    0  0.00000000000E+00  0.00000000000E+00  0.25350984249E+03  0.15138892454E+04  0.14925124479E+04 0.  0.
        2    1    3    3  502    0  0.28981114461E+03 -0.47707935449E+03 -0.37561970618E+03  0.67281897543E+03  0.25500000920E-02 0. -1.
       -2    1    3    3    0  502 -0.28981114461E+03  0.47707935449E+03  0.62912954867E+03  0.84107026998E+03  0.25500000920E-02 0.  1.
</event>
<event>
 5   0  0.1228286E-04  0.1503717E+04  0.7818609E-02  0.8881985E-01
       -2   -1    0    0    0  501  0.00000000000E+00  0.00000000000E+00  0.47130672324E+03  0.47130672325E+03  0.25500000920E-02 0.  1.
        2   -1    0    0  501    0  0.00000000000E+00  0.00000000000E+00 -0.11994130041E+04  0.11994130041E+04  0.25500000920E-02 0. -1.
    10030    2    1    2    0    0  0.00000000000E+00  0.00000000000E+00 -0.72810628088E+03  0.16707197274E+04  0.15037172777E+04 0.  0.
        2    1    3    3  502    0 -0.11655016608E+02  0.35630790569E+03 -0.10995379734E+04  0.11558870698E+04  0.25500000920E-02 0. -1.
       -2    1    3    3    0  502  0.11655016608E+02 -0.35630790569E+03  0.37143169256E+03  0.51483265758E+03  0.25500000920E-02 0.  1.
</event>
<event>
 5   0  0.1219810E-04  0.1503716E+04  0.7818609E-02  0.8881986E-01
       -2   -1    0    0    0  501  0.00000000000E+00  0.00000000000E+00  0.60379604314E+03  0.60379604315E+03  0.25500000920E-02 0. -1.
        2   -1    0    0  501    0  0.00000000000E+00  0.00000000000E+00 -0.93622733045E+03  0.93622733046E+03  0.25500000920E-02 0.  1.
    10030    2    1    2    0    0  0.00000000000E+00  0.00000000000E+00 -0.33243128731E+03  0.15400233736E+04  0.15037158743E+04 0.  0.
        1    1    3    3  502    0 -0.72763114680E+03  0.15851153348E+03 -0.27223997686E+03  0.79289822617E+03  0.50400001928E-02 0.  1.
       -1    1    3    3    0  502  0.72763114680E+03 -0.15851153348E+03 -0.60191310452E+02  0.74712514743E+03  0.50400001928E-02 0. -1.
</event>
<event>
 5   0  0.1186664E-04  0.1501871E+04  0.7818609E-02  0.8883209E-01
       -2   -1    0    0    0  501  0.00000000000E+00  0.00000000000E+00  0.46650002541E+03  0.46650002541E+03  0.25500000920E-02 0.  1.
        2   -1    0    0  501    0  0.00000000000E+00  0.00000000000E+00 -0.12087982178E+04  0.12087982178E+04  0.25500000920E-02 0. -1.
    10030    2    1    2    0    0  0.00000000000E+00  0.00000000000E+00 -0.74229819243E+03  0.16752982433E+04  0.15018713651E+04 0.  0.
        3    1    3    3  502    0 -0.28748299367E+03  0.19737467893E+03  0.37070488564E+03  0.50894533889E+03  0.10100000352E+00 0.  1.
       -3    1    3    3    0  502  0.28748299367E+03 -0.19737467893E+03 -0.11130030781E+04  0.11663529044E+04  0.10100000352E+00 0. -1.
</event>
<event>
 5   0  0.1228286E-04  0.1498692E+04  0.7818609E-02  0.8885323E-01
        2   -1    0    0  501    0  0.00000000000E+00  0.00000000000E+00  0.18764163113E+04  0.18764163113E+04  0.25500000920E-02 0.  1.
       -2   -1    0    0    0  501  0.00000000000E+00  0.00000000000E+00 -0.29925117975E+03  0.29925117976E+03  0.25500000920E-02 0. -1.
    10030    2    1    2    0    0  0.00000000000E+00  0.00000000000E+00  0.15771651315E+04  0.21756674911E+04  0.14986924900E+04 0.  0.
        2    1    3    3  502    0 -0.26713423387E+02  0.41578413625E+02 -0.29688279531E+03  0.30096804752E+03  0.25500000920E-02 0. -1.
       -2    1    3    3    0  502  0.26713423387E+02 -0.41578413625E+02  0.18740479269E+04  0.18746994435E+04  0.25500000920E-02 0.  1.
</event>
<event>
 5   0  0.6364378E-05  0.1494343E+04  0.7818609E-02  0.8888224E-01
       -1   -1    0    0    0  501  0.00000000000E+00  0.00000000000E+00  0.90976378301E+03  0.90976378302E+03  0.50400001928E-02 0.  1.
        1   -1    0    0  501    0  0.00000000000E+00  0.00000000000E+00 -0.61363743435E+03  0.61363743437E+03  0.50400001928E-02 0. -1.
    10030    2    1    2    0    0  0.00000000000E+00  0.00000000000E+00  0.29612634866E+03  0.15234012174E+04  0.14943428170E+04 0.  0.
        5    1    3    3  502    0  0.28434947309E+03 -0.38234524169E+03 -0.43862800792E+03  0.64765664207E+03  0.46999998093E+01 0. -1.
       -5    1    3    3    0  502 -0.28434947309E+03  0.38234524169E+03  0.73475435658E+03  0.87574457532E+03  0.46999998093E+01 0.  1.
</event>
<event>
 5   0  0.1216921E-04  0.1473946E+04  0.7818609E-02  0.8901966E-01
       -2   -1    0    0    0  501  0.00000000000E+00  0.00000000000E+00  0.51025203699E+03  0.51025203700E+03  0.25500000920E-02 0.  1.
        2   -1    0    0  501    0  0.00000000000E+00  0.00000000000E+00 -0.10644325780E+04  0.10644325780E+04  0.25500000920E-02 0. -1.
    10030    2    1    2    0    0  0.00000000000E+00  0.00000000000E+00 -0.55418054096E+03  0.15746846150E+04  0.14739455772E+04 0.  0.
        4    1    3    3  502    0 -0.83118870330E+02 -0.23033596833E+03 -0.10196978253E+04  0.10486890258E+04  0.12699999809E+01 0. -1.
       -4    1    3    3    0  502  0.83118870330E+02  0.23033596833E+03  0.46551728435E+03  0.52599558919E+03  0.12699999809E+01 0.  1.
</event>
<event>
 5   0  0.6361716E-05  0.1500262E+04  0.7818609E-02  0.8884279E-01
       -1   -1    0    0    0  501  0.00000000000E+00  0.00000000000E+00  0.48159013499E+03  0.48159013502E+03  0.50400001928E-02 0.  1.
        1   -1    0    0  501    0  0.00000000000E+00  0.00000000000E+00 -0.11684141785E+04  0.11684141785E+04  0.50400001928E-02 0. -1.
    10030    2    1    2    0    0  0.00000000000E+00  0.00000000000E+00 -0.68682404351E+03  0.16500043135E+04  0.15002622997E+04 0.  0.
        3    1    3    3  502    0 -0.74247120409E+02  0.31072025212E+03  0.40303210194E+03  0.51429038038E+03  0.10100000352E+00 0.  1.
       -3    1    3    3    0  502  0.74247120409E+02 -0.31072025212E+03 -0.10898561454E+04  0.11357139331E+04  0.10100000352E+00 0. -1.
</event>
<event>
 5   0  0.6361716E-05  0.1515556E+04  0.7818609E-02  0.8874174E-01
       -1   -1    0    0    0  501  0.00000000000E+00  0.00000000000E+00  0.50132226798E+03  0.50132226801E+03  0.50400001928E-02 0. -1.
        1   -1    0    0  501    0  0.00000000000E+00  0.00000000000E+00 -0.11454261193E+04  0.11454261193E+04  0.50400001928E-02 0.  1.
    10030    2    1    2    0    0  0.00000000000E+00  0.00000000000E+00 -0.64410385132E+03  0.16467483873E+04  0.15155561619E+04 0.  0.
        3    1    3    3  502    0 -0.50648396698E+03  0.43379534214E+03 -0.71309896168E+03  0.97632706970E+03  0.10100000352E+00 0.  1.
       -3    1    3    3    0  502  0.50648396698E+03 -0.43379534214E+03  0.68995110367E+02  0.67042131762E+03  0.10100000352E+00 0. -1.
</event>
<event>
 5   0  0.1186664E-04  0.1499908E+04  0.7818609E-02  0.8884514E-01
        2   -1    0    0  501    0  0.00000000000E+00  0.00000000000E+00  0.15667249440E+04  0.15667249440E+04  0.25500000920E-02 0.  1.
       -2   -1    0    0    0  501  0.00000000000E+00  0.00000000000E+00 -0.35898515861E+03  0.35898515862E+03  0.25500000920E-02 0. -1.
    10030    2    1    2    0    0  0.00000000000E+00  0.00000000000E+00  0.12077397854E+04  0.19257101026E+04  0.14999080005E+04 0.  0.
        3    1    3    3  502    0  0.33324711499E+02  0.76808986629E+02 -0.35296580764E+03  0.36276029053E+03  0.10100000352E+00 0. -1.
       -3    1    3    3    0  502 -0.33324711499E+02 -0.76808986629E+02  0.15607055930E+04  0.15629498121E+04  0.10100000352E+00 0.  1.
</event>
<event>
 5   0  0.4462875E-05  0.1500774E+04  0.7818609E-02  0.8883938E-01
       -3   -1    0    0    0  501  0.00000000000E+00  0.00000000000E+00  0.85004297676E+03  0.85004298276E+03  0.10100000352E+00 0. -1.
        3   -1    0    0  501    0  0.00000000000E+00  0.00000000000E+00 -0.66241437711E+03  0.66241438481E+03  0.10100000352E+00 0.  1.
    10030    2    1    2    0    0  0.00000000000E+00  0.00000000000E+00  0.18762859965E+03  0.15124573676E+04  0.15007740660E+04 0.  0.
        3    1    3    3  502    0  0.75683334904E+02  0.16146490742E+03 -0.64075081102E+03  0.66510186854E+03  0.10100000352E+00 0.  1.
       -3    1    3    3    0  502 -0.75683334904E+02 -0.16146490742E+03  0.82837941067E+03  0.84735549903E+03  0.10100000352E+00 0. -1.
</event>
<event>
 5   0  0.6361716E-05  0.1501732E+04  0.7818609E-02  0.8883302E-01
       -1   -1    0    0    0  501  0.00000000000E+00  0.00000000000E+00  0.70117997681E+03  0.70117997683E+03  0.50400001928E-02 0. -1.
        1   -1    0    0  501    0  0.00000000000E+00  0.00000000000E+00 -0.80407273414E+03  0.80407273415E+03  0.50400001928E-02 0.  1.
    10030    2    1    2    0    0  0.00000000000E+00  0.00000000000E+00 -0.10289275733E+03  0.15052527110E+04  0.15017319349E+04 0.  0.
        3    1    3    3  502    0 -0.73879641981E+03 -0.10588550517E+03  0.31013137960E+02  0.74698976904E+03  0.10100000352E+00 0.  1.
       -3    1    3    3    0  502  0.73879641981E+03  0.10588550517E+03 -0.13390589529E+03  0.75826294194E+03  0.10100000352E+00 0. -1.
</event>
<event>
 5   0  0.6542036E-05  0.1496880E+04  0.7818609E-02  0.8886530E-01
       -1   -1    0    0    0  501  0.00000000000E+00  0.00000000000E+00  0.36561222289E+03  0.36561222292E+03  0.50400001928E-02 0.  1.
        1   -1    0    0  501    0  0.00000000000E+00  0.00000000000E+00 -0.15321213116E+04  0.15321213116E+04  0.50400001928E-02 0. -1.
    10030    2    1    2    0    0  0.00000000000E+00  0.00000000000E+00 -0.11665090887E+04  0.18977335346E+04  0.14968797928E+04 0.  0.
        4    1    3    3  502    0  0.38693763664E+03 -0.57381772812E+03 -0.22204892756E+03  0.72683894976E+03  0.12699999809E+01 0.  1.
       -4    1    3    3    0  502 -0.38693763664E+03  0.57381772812E+03 -0.94446016119E+03  0.11708945848E+04  0.12699999809E+01 0. -1.
</event>
<event>
 5   0  0.6364378E-05  0.1502594E+04  0.7818609E-02  0.8882730E-01
       -1   -1    0    0    0  501  0.00000000000E+00  0.00000000000E+00  0.91324373075E+03  0.91324373076E+03  0.50400001928E-02 0. -1.
        1   -1    0    0  501    0  0.00000000000E+00  0.00000000000E+00 -0.61806835923E+03  0.61806835925E+03  0.50400001928E-02 0.  1.
    10030    2    1    2    0    0  0.00000000000E+00  0.00000000000E+00  0.29517537152E+03  0.15313120900E+04  0.15025938297E+04 0.  0.
        5    1    3    3  502    0 -0.18520995711E+03  0.17681792910E+03  0.86738534689E+03  0.90440407908E+03  0.46999998093E+01 0. -1.
       -5    1    3    3    0  502  0.18520995711E+03 -0.17681792910E+03 -0.57220997537E+03  0.62690801094E+03  0.46999998093E+01 0.  1.
</event>
<event>
 5   0  0.6542036E-05  0.1504549E+04  0.7818609E-02  0.8881434E-01
        1   -1    0    0  501    0  0.00000000000E+00  0.00000000000E+00  0.91089574942E+03  0.91089574944E+03  0.50400001928E-02 0.  1.
       -1   -1    0    0    0  501  0.00000000000E+00  0.00000000000E+00 -0.62127510456E+03  0.62127510458E+03  0.50400001928E-02 0. -1.
    10030    2    1    2    0    0  0.00000000000E+00  0.00000000000E+00  0.28962064486E+03  0.15321708540E+04  0.15045489051E+04 0.  0.
        4    1    3    3  502    0 -0.38838342173E+03  0.62276821739E+03 -0.23244529873E+02  0.73431863379E+03  0.12699999809E+01 0. -1.
       -4    1    3    3    0  502  0.38838342173E+03 -0.62276821739E+03  0.31286517473E+03  0.79785222023E+03  0.12699999809E+01 0.  1.
</event>
<event>
 5   0  0.1186664E-04  0.1496650E+04  0.7818609E-02  0.8886683E-01
       -2   -1    0    0    0  501  0.00000000000E+00  0.00000000000E+00  0.43865094335E+03  0.43865094336E+03  0.25500000920E-02 0. -1.
        2   -1    0    0  501    0  0.00000000000E+00  0.00000000000E+00 -0.12766201379E+04  0.12766201379E+04  0.25500000920E-02 0.  1.
    10030    2    1    2    0    0  0.00000000000E+00  0.00000000000E+00 -0.83796919453E+03  0.17152710812E+04  0.14966504305E+04 0.  0.
        3    1    3    3  502    0  0.17057863839E+02 -0.50030571138E+03  0.21849783866E+03  0.54620334241E+03  0.10100000352E+00 0. -1.
       -3    1    3    3    0  502 -0.17057863839E+02  0.50030571138E+03 -0.10564670332E+04  0.11690677388E+04  0.10100000352E+00 0.  1.
</event>
<event>
 5   0  0.6668433E-05  0.1499384E+04  0.7818609E-02  0.8884862E-01
       -1   -1    0    0    0  501  0.00000000000E+00  0.00000000000E+00  0.84987974326E+03  0.84987974327E+03  0.50400001928E-02 0. -1.
        1   -1    0    0  501    0  0.00000000000E+00  0.00000000000E+00 -0.66131525999E+03  0.66131526001E+03  0.50400001928E-02 0.  1.
    10030    2    1    2    0    0  0.00000000000E+00  0.00000000000E+00  0.18856448327E+03  0.15111950033E+04  0.14993844649E+04 0.  0.
        1    1    3    3  502    0 -0.14315635818E+03  0.12091888971E+03 -0.63733041997E+03  0.66430804979E+03  0.50400001928E-02 0.  1.
       -1    1    3    3    0  502  0.14315635818E+03 -0.12091888971E+03  0.82589490323E+03  0.84688695349E+03  0.50400001928E-02 0. -1.
</event>
<event>
 5   0  0.1186664E-04  0.1502178E+04  0.7818609E-02  0.8883006E-01
        2   -1    0    0  501    0  0.00000000000E+00  0.00000000000E+00  0.14477421642E+04  0.14477421642E+04  0.25500000920E-02 0. -1.
       -2   -1    0    0    0  501  0.00000000000E+00  0.00000000000E+00 -0.38966537210E+03  0.38966537211E+03  0.25500000920E-02 0.  1.
    10030    2    1    2    0    0  0.00000000000E+00  0.00000000000E+00  0.10580767921E+04  0.18374075363E+04  0.15021784037E+04 0.  0.
        3    1    3    3  502    0 -0.50853019010E+03 -0.39575149084E+03  0.10010470576E+04  0.11905114105E+04  0.10100000352E+00 0. -1.
       -3    1    3    3    0  502  0.50853019010E+03  0.39575149084E+03  0.57029734445E+02  0.64689612579E+03  0.10100000352E+00 0.  1.
</event>
<event>
 5   0  0.1216921E-04  0.1498370E+04  0.7818609E-02  0.8885537E-01
       -2   -1    0    0    0  501  0.00000000000E+00  0.00000000000E+00  0.35227810987E+03  0.35227810988E+03  0.25500000920E-02 0. -1.
        2   -1    0    0  501    0  0.00000000000E+00  0.00000000000E+00 -0.15932819378E+04  0.15932819378E+04  0.25500000920E-02 0.  1.
    10030    2    1    2    0    0  0.00000000000E+00  0.00000000000E+00 -0.12410038280E+04  0.19455600477E+04  0.14983702474E+04 0.  0.
        4    1    3    3  502    0  0.41569814904E+03 -0.29270133470E+03 -0.13350011928E+04  0.14285338009E+04  0.12699999809E+01 0.  1.
       -4    1    3    3    0  502 -0.41569814904E+03  0.29270133470E+03  0.93997364851E+02  0.51702624687E+03  0.12699999809E+01 0. -1.
</event>
<event>
 5   0  0.6542036E-05  0.1503694E+04  0.7818609E-02  0.8882000E-01
       -1   -1    0    0    0  501  0.00000000000E+00  0.00000000000E+00  0.69202559202E+03  0.69202559204E+03  0.50400001928E-02 0.  1.
        1   -1    0    0  501    0  0.00000000000E+00  0.00000000000E+00 -0.81683955082E+03  0.81683955083E+03  0.50400001928E-02 0. -1.
    10030    2    1    2    0    0  0.00000000000E+00  0.00000000000E+00 -0.12481395879E+03  0.15088651429E+04  0.15036939499E+04 0.  0.
        4    1    3    3  502    0  0.10748131598E+03  0.45443475276E+03 -0.65367788904E+03  0.80334274959E+03  0.12699999809E+01 0. -1.
       -4    1    3    3    0  502 -0.10748131598E+03 -0.45443475276E+03  0.52886393025E+03  0.70552239328E+03  0.12699999809E+01 0.  1.
</event>
<event>
 5   0  0.6668433E-05  0.1499383E+04  0.7818609E-02  0.8884863E-01
        1   -1    0    0  501    0  0.00000000000E+00  0.00000000000E+00  0.12549555412E+04  0.12549555412E+04  0.50400001928E-02 0.  1.
       -1   -1    0    0    0  501  0.00000000000E+00  0.00000000000E+00 -0.44785424597E+03  0.44785424600E+03  0.50400001928E-02 0. -1.
    10030    2    1    2    0    0  0.00000000000E+00  0.00000000000E+00  0.80710129525E+03  0.17028097872E+04  0.14993827632E+04 0.  0.
        1    1    3    3  502    0 -0.66068975255E+03  0.19624071927E+03  0.68544575415E+02  0.69261802451E+03  0.50400001928E-02 0. -1.
       -1    1    3    3    0  502  0.66068975255E+03 -0.19624071927E+03  0.73855671983E+03  0.10101917627E+04  0.50400001928E-02 0.  1.
</event>
<event>
 5   0  0.1228286E-04  0.1509601E+04  0.7818609E-02  0.8878094E-01
        2   -1    0    0  501    0  0.00000000000E+00  0.00000000000E+00  0.22097304241E+03  0.22097304242E+03  0.25500000920E-02 0. -1.
       -2   -1    0    0    0  501  0.00000000000E+00  0.00000000000E+00 -0.25782488366E+04  0.25782488366E+04  0.25500000920E-02 0.  1.
    10030    2    1    2    0    0  0.00000000000E+00  0.00000000000E+00 -0.23572757942E+04  0.27992218790E+04  0.15096005955E+04 0.  0.
        2    1    3    3  502    0  0.54559092299E+03 -0.51917099837E+03 -0.10856367772E+04  0.13212930004E+04  0.25500000920E-02 0.  1.
       -2    1    3    3    0  502 -0.54559092299E+03  0.51917099837E+03 -0.12716390170E+04  0.14779288786E+04  0.25500000920E-02 0. -1.
</event>
<event>
 5   0  0.1186664E-04  0.1500031E+04  0.7818609E-02  0.8884433E-01
       -2   -1    0    0    0  501  0.00000000000E+00  0.00000000000E+00  0.23882624124E+03  0.23882624125E+03  0.25500000920E-02 0. -1.
        2   -1    0    0  501    0  0.00000000000E+00  0.00000000000E+00 -0.23553652578E+04  0.23553652578E+04  0.25500000920E-02 0.  1.
    10030    2    1    2    0    0  0.00000000000E+00  0.00000000000E+00 -0.21165390166E+04  0.25941914991E+04  0.15000307081E+04 0.  0.
        3    1    3    3  502    0  0.39105758335E+03 -0.23562408011E+03 -0.29183850045E+02  0.45748928723E+03  0.10100000352E+00 0. -1.
       -3    1    3    3    0  502 -0.39105758335E+03  0.23562408011E+03 -0.20873551666E+04  0.21367022119E+04  0.10100000352E+00 0.  1.
</event>
<event>
 5   0  0.6542036E-05  0.1499567E+04  0.7818609E-02  0.8884741E-01
        1   -1    0    0  501    0  0.00000000000E+00  0.00000000000E+00  0.59528196989E+03  0.59528196992E+03  0.50400001928E-02 0.  1.
       -1   -1    0    0    0  501  0.00000000000E+00  0.00000000000E+00 -0.94438450554E+03  0.94438450555E+03  0.50400001928E-02 0. -1.
    10030    2    1    2    0    0  0.00000000000E+00  0.00000000000E+00 -0.34910253564E+03  0.15396664755E+04  0.14995666958E+04 0.  0.
        4    1    3    3  502    0 -0.34889210618E+03 -0.15753247720E+03  0.48738316901E+03  0.61974684304E+03  0.12699999809E+01 0. -1.
       -4    1    3    3    0  502  0.34889210618E+03  0.15753247720E+03 -0.83648570465E+03  0.91991963242E+03  0.12699999809E+01 0.  1.
</event>
<event>
 5   0  0.6509279E-05  0.1500738E+04  0.7818609E-02  0.8883962E-01
       -1   -1    0    0    0  501  0.00000000000E+00  0.00000000000E+00  0.48392635115E+03  0.48392635118E+03  0.50400001928E-02 0.  1.
        1   -1    0    0  501    0  0.00000000000E+00  0.00000000000E+00 -0.11635108439E+04  0.11635108439E+04  0.50400001928E-02 0. -1.
    10030    2    1    2    0    0  0.00000000000E+00  0.00000000000E+00 -0.67958449270E+03  0.16474371950E+04  0.15007378948E+04 0.  0.
        2    1    3    3  502    0 -0.47955117368E+03  0.32560696927E+03 -0.86288472602E+03  0.10394995320E+04  0.25500000920E-02 0. -1.
       -2    1    3    3    0  502  0.47955117368E+03 -0.32560696927E+03  0.18330023331E+03  0.60793766305E+03  0.25500000920E-02 0.  1.
</event>
<event>
 5   0  0.6668433E-05  0.1503847E+04  0.7818609E-02  0.8881899E-01
        1   -1    0    0  501    0  0.00000000000E+00  0.00000000000E+00  0.12779177528E+04  0.12779177529E+04  0.50400001928E-02 0.  1.
       -1   -1    0    0    0  501  0.00000000000E+00  0.00000000000E+00 -0.44242960313E+03  0.44242960315E+03  0.50400001928E-02 0. -1.
    10030    2    1    2    0    0  0.00000000000E+00  0.00000000000E+00  0.83548814972E+03  0.17203473560E+04  0.15038465936E+04 0.  0.
        1    1    3    3  502    0  0.49128252703E+03 -0.56722357499E+03  0.36303027891E+03  0.83360187669E+03  0.50400001928E-02 0.  1.
       -1    1    3    3    0  502 -0.49128252703E+03  0.56722357499E+03  0.47245787081E+03  0.88674547932E+03  0.50400001928E-02 0. -1.
</event>
<event>
 5   0  0.1228286E-04  0.1498366E+04  0.7818609E-02  0.8885541E-01
        2   -1    0    0  501    0  0.00000000000E+00  0.00000000000E+00  0.17685956015E+04  0.17685956015E+04  0.25500000920E-02 0.  1.
       -2   -1    0    0    0  501  0.00000000000E+00  0.00000000000E+00 -0.31735624811E+03  0.31735624812E+03  0.25500000920E-02 0. -1.
    10030    2    1    2    0    0  0.00000000000E+00  0.00000000000E+00  0.14512393534E+04  0.20859518496E+04  0.14983655956E+04 0.  0.
        2    1    3    3  502    0 -0.45991155415E+02 -0.74727703405E+03  0.76340607681E+03  0.10692646960E+04  0.25500000920E-02 0. -1.
       -2    1    3    3    0  502  0.45991155415E+02  0.74727703405E+03  0.68783327660E+03  0.10166871536E+04  0.25500000920E-02 0.  1.
</event>
<event>
 5   0  0.6364378E-05  0.1507143E+04  0.7818609E-02  0.8879716E-01
       -1   -1    0    0    0  501  0.00000000000E+00  0.00000000000E+00  0.55803866497E+03  0.55803866499E+03  0.50400001928E-02 0. -1.
        1   -1    0    0  501    0  0.00000000000E+00  0.00000000000E+00 -0.10176182163E+04  0.10176182163E+04  0.50400001928E-02 0.  1.
    10030    2    1    2    0    0  0.00000000000E+00  0.00000000000E+00 -0.45957955136E+03  0.15756568813E+04  0.15071434051E+04 0.  0.
        5    1    3    3  502    0  0.66423967953E+03  0.10638143680E+03 -0.58481031153E+03  0.89137901727E+03  0.46999998093E+01 0.  1.
       -5    1    3    3    0  502 -0.66423967953E+03 -0.10638143680E+03  0.12523076017E+03  0.68427786406E+03  0.46999998093E+01 0. -1.
</event>
<event>
 5   0  0.6361716E-05  0.1499243E+04  0.7818609E-02  0.8884957E-01
        1   -1    0    0  501    0  0.00000000000E+00  0.00000000000E+00  0.33782725996E+03  0.33782726000E+03  0.50400001928E-02 0.  1.
       -1   -1    0    0    0  501  0.00000000000E+00  0.00000000000E+00 -0.16633716920E+04  0.16633716920E+04  0.50400001928E-02 0. -1.
    10030    2    1    2    0    0  0.00000000000E+00  0.00000000000E+00 -0.13255444320E+04  0.20011989520E+04  0.14992428770E+04 0.  0.
        3    1    3    3  502    0 -0.10704727733E+03 -0.63350052497E+03 -0.14727031121E+03  0.65914383065E+03  0.10100000352E+00 0.  1.
       -3    1    3    3    0  502  0.10704727733E+03  0.63350052497E+03 -0.11782741208E+04  0.13420551213E+04  0.10100000352E+00 0. -1.
</event>
<event>
 5   0  0.1186664E-04  0.1495132E+04  0.7818609E-02  0.8887697E-01
        2   -1    0    0  501    0  0.00000000000E+00  0.00000000000E+00  0.16520610811E+04  0.16520610811E+04  0.25500000920E-02 0.  1.
       -2   -1    0    0    0  501  0.00000000000E+00  0.00000000000E+00 -0.33827741000E+03  0.33827741001E+03  0.25500000920E-02 0. -1.
    10030    2    1    2    0    0  0.00000000000E+00  0.00000000000E+00  0.13137836711E+04  0.19903384911E+04  0.14951320258E+04 0.  0.
        3    1    3    3  502    0  0.63757137697E+03 -0.24358834856E+03  0.25087771068E+03  0.72716722988E+03  0.10100000352E+00 0. -1.
       -3    1    3    3    0  502 -0.63757137697E+03  0.24358834856E+03  0.10629059604E+04  0.12631712612E+04  0.10100000352E+00 0.  1.
</event>
<event>
 5   0  0.1186664E-04  0.1498845E+04  0.7818609E-02  0.8885222E-01
       -2   -1    0    0    0  501  0.00000000000E+00  0.00000000000E+00  0.94187348934E+03  0.94187348934E+03  0.25500000920E-02 0.  1.
        2   -1    0    0  501    0  0.00000000000E+00  0.00000000000E+00 -0.59629438011E+03  0.59629438012E+03  0.25500000920E-02 0. -1.
    10030    2    1    2    0    0  0.00000000000E+00  0.00000000000E+00  0.34557910922E+03  0.15381678695E+04  0.14988447131E+04 0.  0.
        3    1    3    3  502    0 -0.47569952498E+03 -0.52138802955E+03  0.43138941767E+03  0.82718338674E+03  0.10100000352E+00 0.  1.
       -3    1    3    3    0  502  0.47569952498E+03  0.52138802955E+03 -0.85810308442E+02  0.71098448272E+03  0.10100000352E+00 0. -1.
</event>
<event>
 5   0  0.6668433E-05  0.1499740E+04  0.7818609E-02  0.8884626E-01
        1   -1    0    0  501    0  0.00000000000E+00  0.00000000000E+00  0.96454812345E+03  0.96454812346E+03  0.50400001928E-02 0.  1.
       -1   -1    0    0    0  501  0.00000000000E+00  0.00000000000E+00 -0.58297252732E+03  0.58297252734E+03  0.50400001928E-02 0. -1.
    10030    2    1    2    0    0  0.00000000000E+00  0.00000000000E+00  0.38157559612E+03  0.15475206508E+04  0.14997400538E+04 0.  0.
        1    1    3    3  502    0  0.26532570519E+03  0.63269519983E+03 -0.12151648916E+03  0.69675476524E+03  0.50400001928E-02 0. -1.
       -1    1    3    3    0  502 -0.26532570519E+03 -0.63269519983E+03  0.50309208528E+03  0.85076588556E+03  0.50400001928E-02 0.  1.
</event>
<event>
 5   0  0.1219810E-04  0.1495905E+04  0.7818609E-02  0.8887181E-01
        2   -1    0    0  501    0  0.00000000000E+00  0.00000000000E+00  0.54518269139E+03  0.54518269139E+03  0.25500000920E-02 0. -1.
       -2   -1    0    0    0  501  0.00000000000E+00  0.00000000000E+00 -0.10261382215E+04  0.10261382215E+04  0.25500000920E-02 0.  1.
    10030    2    1    2    0    0  0.00000000000E+00  0.00000000000E+00 -0.48095553011E+03  0.15713209129E+04  0.14959048062E+04 0.  0.
        1    1    3    3  502    0  0.70862864076E+03 -0.12554353376E+03 -0.45450757725E+03  0.85117146756E+03  0.50400001928E-02 0.  1.
       -1    1    3    3    0  502 -0.70862864076E+03  0.12554353376E+03 -0.26447952862E+02  0.72014944533E+03  0.50400001928E-02 0. -1.
</event>
<event>
 5   0  0.6509279E-05  0.1508081E+04  0.7818609E-02  0.8879097E-01
       -1   -1    0    0    0  501  0.00000000000E+00  0.00000000000E+00  0.39878197751E+03  0.39878197754E+03  0.50400001928E-02 0. -1.
        1   -1    0    0  501    0  0.00000000000E+00  0.00000000000E+00 -0.14257852118E+04  0.14257852118E+04  0.50400001928E-02 0.  1.
    10030    2    1    2    0    0  0.00000000000E+00  0.00000000000E+00 -0.10270032343E+04  0.18245671894E+04  0.15080814916E+04 0.  0.
        2    1    3    3  502    0  0.29156587870E+03  0.34885704234E+03 -0.12412959507E+04  0.13219408212E+04  0.25500000920E-02 0.  1.
       -2    1    3    3    0  502 -0.29156587870E+03 -0.34885704234E+03  0.21429271640E+03  0.50262636812E+03  0.25500000920E-02 0. -1.
</event>
<event>
 5   0  0.6668433E-05  0.1502569E+04  0.7818609E-02  0.8882747E-01
       -1   -1    0    0    0  501  0.00000000000E+00  0.00000000000E+00  0.42501085777E+03  0.42501085780E+03  0.50400001928E-02 0.  1.
        1   -1    0    0  501    0  0.00000000000E+00  0.00000000000E+00 -0.13280320259E+04  0.13280320260E+04  0.50400001928E-02 0. -1.
    10030    2    1    2    0    0  0.00000000000E+00  0.00000000000E+00 -0.90302116818E+03  0.17530428837E+04  0.15025685083E+04 0.  0.
        1    1    3    3  502    0 -0.11048284422E+03 -0.18255908061E+03  0.38891154479E+03  0.44360620653E+03  0.50400001928E-02 0.  1.
       -1    1    3    3    0  502  0.11048284422E+03  0.18255908061E+03 -0.12919327130E+04  0.13094366772E+04  0.50400001928E-02 0. -1.
</event>
<event>
 5   0  0.4462875E-05  0.1500851E+04  0.7818609E-02  0.8883887E-01
        4   -1    0    0  501    0  0.00000000000E+00  0.00000000000E+00  0.51394098898E+03  0.51394255813E+03  0.12699999809E+01 0. -1.
       -4   -1    0    0    0  501  0.00000000000E+00  0.00000000000E+00 -0.10957217677E+04  0.10957225037E+04  0.12699999809E+01 0.  1.
    10030    2    1    2    0    0  0.00000000000E+00  0.00000000000E+00 -0.58178077873E+03  0.16096650618E+04  0.15008506711E+04 0.  0.
        5    1    3    3  502    0 -0.52775577434E+03 -0.45284260122E+03 -0.59333497834E+03  0.91414499142E+03  0.46999998093E+01 0.  1.
       -5    1    3    3    0  502  0.52775577434E+03  0.45284260122E+03  0.11554199609E+02  0.69552007042E+03  0.46999998093E+01 0. -1.
</event>
<event>
 5   0  0.1186664E-04  0.1500699E+04  0.7818609E-02  0.8883988E-01
        2   -1    0    0  501    0  0.00000000000E+00  0.00000000000E+00  0.22078571784E+04  0.22078571784E+04  0.25500000920E-02 0.  1.
       -2   -1    0    0    0  501  0.00000000000E+00  0.00000000000E+00 -0.25500948245E+03  0.25500948246E+03  0.25500000920E-02 0. -1.
    10030    2    1    2    0    0  0.00000000000E+00  0.00000000000E+00  0.19528476959E+04  0.24628666609E+04  0.15006991923E+04 0.  0.
        3    1    3    3  502    0 -0.62096734949E+03  0.12530717561E+03  0.31644194137E+03  0.70812276468E+03  0.10100000352E+00 0. -1.
       -3    1    3    3    0  502  0.62096734949E+03 -0.12530717561E+03  0.16364057546E+04  0.17547438962E+04  0.10100000352E+00 0.  1.
</event>
<event>
 5   0  0.6542036E-05  0.1495226E+04  0.7818609E-02  0.8887634E-01
        1   -1    0    0  501    0  0.00000000000E+00  0.00000000000E+00  0.30416530598E+04  0.30416530598E+04  0.50400001928E-02 0. -1.
       -1   -1    0    0    0  501  0.00000000000E+00  0.00000000000E+00 -0.18375698200E+03  0.18375698207E+03  0.50400001928E-02 0.  1.
    10030    2    1    2    0    0  0.00000000000E+00  0.00000000000E+00  0.28578960778E+04  0.32254100418E+04  0.14952257176E+04 0.  0.
        4    1    3    3  502    0 -0.29441623027E+03  0.63519798582E+03  0.19946204279E+04  0.21139228136E+04  0.12699999809E+01 0. -1.
       -4    1    3    3    0  502  0.29441623027E+03 -0.63519798582E+03  0.86327564988E+03  0.11114872282E+04  0.12699999809E+01 0.  1.
</event>
<event>
 5   0  0.6509279E-05  0.1500009E+04  0.7818609E-02  0.8884447E-01
       -1   -1    0    0    0  501  0.00000000000E+00  0.00000000000E+00  0.43705535210E+03  0.43705535213E+03  0.50400001928E-02 0. -1.
        1   -1    0    0  501    0  0.00000000000E+00  0.00000000000E+00 -0.12870383290E+04  0.12870383290E+04  0.50400001928E-02 0.  1.
    10030    2    1    2    0    0  0.00000000000E+00  0.00000000000E+00 -0.84998297687E+03  0.17240936811E+04  0.15000093201E+04 0.  0.
        2    1    3    3  502    0 -0.65971470395E+02  0.22305940728E+03 -0.12445299796E+04  0.12660815946E+04  0.25500000920E-02 0.  1.
       -2    1    3    3    0  502  0.65971470395E+02 -0.22305940728E+03  0.39454700269E+03  0.45801208654E+03  0.25500000920E-02 0. -1.
</event>
<event>
 5   0  0.1228286E-04  0.1499814E+04  0.7818609E-02  0.8884577E-01
        2   -1    0    0  501    0  0.00000000000E+00  0.00000000000E+00  0.11717675508E+04  0.11717675508E+04  0.25500000920E-02 0. -1.
       -2   -1    0    0    0  501  0.00000000000E+00  0.00000000000E+00 -0.47992487917E+03  0.47992487918E+03  0.25500000920E-02 0.  1.
    10030    2    1    2    0    0  0.00000000000E+00  0.00000000000E+00  0.69184267161E+03  0.16516924300E+04  0.14998138554E+04 0.  0.
        2    1    3    3  502    0 -0.67197878310E+03 -0.30341517360E+01 -0.20645598910E+02  0.67230270843E+03  0.25500000920E-02 0.  1.
       -2    1    3    3    0  502  0.67197878310E+03  0.30341517360E+01  0.71248827052E+03  0.97938972153E+03  0.25500000920E-02 0. -1.
</event>
<event>
 5   0  0.6361716E-05  0.1499733E+04  0.7818609E-02  0.8884631E-01
        1   -1    0    0  501    0  0.00000000000E+00  0.00000000000E+00  0.80687894692E+03  0.80687894693E+03  0.50400001928E-02 0.  1.
       -1   -1    0    0    0  501  0.00000000000E+00  0.00000000000E+00 -0.69688230410E+03  0.69688230412E+03  0.50400001928E-02 0. -1.
    10030    2    1    2    0    0  0.00000000000E+00  0.00000000000E+00  0.10999664282E+03  0.15037612510E+04  0.14997328558E+04 0.  0.
        3    1    3    3  502    0 -0.19410830833E+03  0.68579829214E+03 -0.17865618556E+03  0.73478934103E+03  0.10100000352E+00 0. -1.
       -3    1    3    3    0  502  0.19410830833E+03 -0.68579829214E+03  0.28865282837E+03  0.76897191001E+03  0.10100000352E+00 0.  1.
</event>
<event>
 5   0  0.1254487E-04  0.1500838E+04  0.7818609E-02  0.8883896E-01
       -2   -1    0    0    0  501  0.00000000000E+00  0.00000000000E+00  0.40000919640E+03  0.40000919640E+03  0.25500000920E-02 0.  1.
        2   -1    0    0  501    0  0.00000000000E+00  0.00000000000E+00 -0.14077889485E+04  0.14077889485E+04  0.25500000920E-02 0. -1.
    10030    2    1    2    0    0  0.00000000000E+00  0.00000000000E+00 -0.10077797521E+04  0.18077981449E+04  0.15008378007E+04 0.  0.
        5    1    3    3  502    0 -0.42310869355E+03 -0.45736120431E+03 -0.10076441884E+04  0.11847232327E+04  0.46999998093E+01 0. -1.
       -5    1    3    3    0  502  0.42310869355E+03  0.45736120431E+03 -0.13556368011E+00  0.62307491215E+03  0.46999998093E+01 0.  1.
</event>
<event>
 5   0  0.6361716E-05  0.1502176E+04  0.7818609E-02  0.8883007E-01
        1   -1    0    0  501    0  0.00000000000E+00  0.00000000000E+00  0.16194847356E+04  0.16194847356E+04  0.50400001928E-02 0.  1.
       -1   -1    0    0    0  501  0.00000000000E+00  0.00000000000E+00 -0.34834129611E+03  0.34834129615E+03  0.50400001928E-02 0. -1.
    10030    2    1    2    0    0  0.00000000000E+00  0.00000000000E+00  0.12711434395E+04  0.19678260317E+04  0.15021763037E+04 0.  0.
        3    1    3    3  502    0  0.24170910300E+03 -0.67244211701E+03  0.93866154319E+03  0.11796979249E+04  0.10100000352E+00 0. -1.
       -3    1    3    3    0  502 -0.24170910300E+03  0.67244211701E+03  0.33248189629E+03  0.78812810682E+03  0.10100000352E+00 0.  1.
</event>
<event>
 5   0  0.1228286E-04  0.1475935E+04  0.7818609E-02  0.8900616E-01
       -2   -1    0    0    0  501  0.00000000000E+00  0.00000000000E+00  0.26927391030E+03  0.26927391032E+03  0.25500000920E-02 0. -1.
        2   -1    0    0  501    0  0.00000000000E+00  0.00000000000E+00 -0.20224605250E+04  0.20224605250E+04  0.25500000920E-02 0.  1.
    10030    2    1    2    0    0  0.00000000000E+00  0.00000000000E+00 -0.17531866146E+04  0.22917344353E+04  0.14759347601E+04 0.  0.
        2    1    3    3  502    0 -0.56285113462E+03 -0.47243308761E+03 -0.98192125774E+03  0.12264435488E+04  0.25500000920E-02 0.  1.
       -2    1    3    3    0  502  0.56285113462E+03  0.47243308761E+03 -0.77126535691E+03  0.10652908865E+04  0.25500000920E-02 0. -1.
</event>
<event>
 5   0  0.1228286E-04  0.1485451E+04  0.7818609E-02  0.8894186E-01
        2   -1    0    0  501    0  0.00000000000E+00  0.00000000000E+00  0.69421646460E+03  0.69421646461E+03  0.25500000920E-02 0.  1.
       -2   -1    0    0    0  501  0.00000000000E+00  0.00000000000E+00 -0.79462406714E+03  0.79462406715E+03  0.25500000920E-02 0. -1.
    10030    2    1    2    0    0  0.00000000000E+00  0.00000000000E+00 -0.10040760254E+03  0.14888405318E+04  0.14854509222E+04 0.  0.
        2    1    3    3  502    0  0.38112574665E+03 -0.48045787054E+03  0.36973258066E+03  0.71609970069E+03  0.25500000920E-02 0.  1.
       -2    1    3    3    0  502 -0.38112574665E+03  0.48045787054E+03 -0.47014018319E+03  0.77274083106E+03  0.25500000920E-02 0. -1.
</event>
<event>
 5   0  0.6668433E-05  0.1500943E+04  0.7818609E-02  0.8883826E-01
       -1   -1    0    0    0  501  0.00000000000E+00  0.00000000000E+00  0.30177393490E+03  0.30177393494E+03  0.50400001928E-02 0.  1.
        1   -1    0    0  501    0  0.00000000000E+00  0.00000000000E+00 -0.18663230737E+04  0.18663230737E+04  0.50400001928E-02 0. -1.
    10030    2    1    2    0    0  0.00000000000E+00  0.00000000000E+00 -0.15645491388E+04  0.21680970086E+04  0.15009432471E+04 0.  0.
        1    1    3    3  502    0 -0.57651826417E+03 -0.47880988780E+03 -0.83960898592E+03  0.11254223504E+04  0.50400001928E-02 0.  1.
       -1    1    3    3    0  502  0.57651826417E+03  0.47880988780E+03 -0.72494015283E+03  0.10426746582E+04  0.50400001928E-02 0. -1.
</event>
<event>
 5   0  0.1186664E-04  0.1504098E+04  0.7818609E-02  0.8881732E-01
        2   -1    0    0  501    0  0.00000000000E+00  0.00000000000E+00  0.16042338757E+04  0.16042338757E+04  0.25500000920E-02 0.  1.
       -2   -1    0    0    0  501  0.00000000000E+00  0.00000000000E+00 -0.35255334880E+03  0.35255334881E+03  0.25500000920E-02 0. -1.
    10030    2    1    2    0    0  0.00000000000E+00  0.00000000000E+00  0.12516805269E+04  0.19567872245E+04  0.15040984345E+04 0.  0.
        3    1    3    3  502    0  0.34370849439E+03  0.13215649780E+03  0.14789207959E+04  0.15240759823E+04  0.10100000352E+00 0.  1.
       -3    1    3    3    0  502 -0.34370849439E+03 -0.13215649780E+03 -0.22724026906E+03  0.43271124218E+03  0.10100000352E+00 0. -1.
</event>
<event>
 5   0  0.1228286E-04  0.1488388E+04  0.7818609E-02  0.8892212E-01
       -2   -1    0    0    0  501  0.00000000000E+00  0.00000000000E+00  0.52224366383E+03  0.52224366384E+03  0.25500000920E-02 0. -1.
        2   -1    0    0  501    0  0.00000000000E+00  0.00000000000E+00 -0.10604712373E+04  0.10604712373E+04  0.25500000920E-02 0.  1.
    10030    2    1    2    0    0  0.00000000000E+00  0.00000000000E+00 -0.53822757345E+03  0.15827149011E+04  0.14883875629E+04 0.  0.
        2    1    3    3  502    0 -0.72312093052E+01 -0.72491441498E+03 -0.44791014316E+03  0.85216001772E+03  0.25500000920E-02 0.  1.
       -2    1    3    3    0  502  0.72312093052E+01  0.72491441498E+03 -0.90317430285E+02  0.73055488340E+03  0.25500000920E-02 0. -1.
</event>
<event>
 5   0  0.6361716E-05  0.1500202E+04  0.7818609E-02  0.8884318E-01
       -1   -1    0    0    0  501  0.00000000000E+00  0.00000000000E+00  0.64806980451E+03  0.64806980453E+03  0.50400001928E-02 0.  1.
        1   -1    0    0  501    0  0.00000000000E+00  0.00000000000E+00 -0.86819620934E+03  0.86819620935E+03  0.50400001928E-02 0. -1.
    10030    2    1    2    0    0  0.00000000000E+00  0.00000000000E+00 -0.22012640483E+03  0.15162660139E+04  0.15002023166E+04 0.  0.
        3    1    3    3  502    0  0.57865953322E+03  0.35673744406E+03 -0.43054405646E+03  0.80465934043E+03  0.10100000352E+00 0. -1.
       -3    1    3    3    0  502 -0.57865953322E+03 -0.35673744406E+03  0.21041765163E+03  0.71160667345E+03  0.10100000352E+00 0.  1.
</event>
<event>
 5   0  0.6364378E-05  0.1499395E+04  0.7818609E-02  0.8884856E-01
        1   -1    0    0  501    0  0.00000000000E+00  0.00000000000E+00  0.40235057880E+03  0.40235057883E+03  0.50400001928E-02 0.  1.
       -1   -1    0    0    0  501  0.00000000000E+00  0.00000000000E+00 -0.13969064230E+04  0.13969064230E+04  0.50400001928E-02 0. -1.
    10030    2    1    2    0    0  0.00000000000E+00  0.00000000000E+00 -0.99455584423E+03  0.17992570019E+04  0.14993946884E+04 0.  0.
        5    1    3    3  502    0 -0.14206960763E+03 -0.69468090945E+03 -0.20516335517E+03  0.73815948932E+03  0.46999998093E+01 0.  1.
       -5    1    3    3    0  502  0.14206960763E+03  0.69468090945E+03 -0.78939248905E+03  0.10610975126E+04  0.46999998093E+01 0. -1.
</event>
<event>
 5   0  0.6542036E-05  0.1498403E+04  0.7818609E-02  0.8885516E-01
       -1   -1    0    0    0  501  0.00000000000E+00  0.00000000000E+00  0.16967384404E+04  0.16967384404E+04  0.50400001928E-02 0. -1.
        1   -1    0    0  501    0  0.00000000000E+00  0.00000000000E+00 -0.33081285858E+03  0.33081285861E+03  0.50400001928E-02 0.  1.
    10030    2    1    2    0    0  0.00000000000E+00  0.00000000000E+00  0.13659255818E+04  0.20275512990E+04  0.14984030082E+04 0.  0.
        4    1    3    3  502    0  0.45297271034E+03 -0.55578504338E+03  0.97700261935E+03  0.12118651005E+04  0.12699999809E+01 0. -1.
       -4    1    3    3    0  502 -0.45297271034E+03  0.55578504338E+03  0.38892296244E+03  0.81568619846E+03  0.12699999809E+01 0.  1.
</event>
<event>
 5   0  0.1186664E-04  0.1492303E+04  0.7818609E-02  0.8889587E-01
        2   -1    0    0  501    0  0.00000000000E+00  0.00000000000E+00  0.52166707147E+03  0.52166707148E+03  0.25500000920E-02 0. -1.
       -2   -1    0    0    0  501  0.00000000000E+00  0.00000000000E+00 -0.10672369704E+04  0.10672369704E+04  0.25500000920E-02 0.  1.
    10030    2    1    2    0    0  0.00000000000E+00  0.00000000000E+00 -0.54556989891E+03  0.15889040419E+04  0.14923034342E+04 0.  0.
        3    1    3    3  502    0  0.21676288405E+03 -0.15404806125E+03  0.46949892209E+03  0.53957965225E+03  0.10100000352E+00 0. -1.
       -3    1    3    3    0  502 -0.21676288405E+03  0.15404806125E+03 -0.10150688210E+04  0.10493243896E+04  0.10100000352E+00 0.  1.
</event>
<event>
 5   0  0.1228286E-04  0.1500013E+04  0.7818609E-02  0.8884444E-01
       -2   -1    0    0    0  501  0.00000000000E+00  0.00000000000E+00  0.84854422956E+03  0.84854422957E+03  0.25500000920E-02 0.  1.
        2   -1    0    0  501    0  0.00000000000E+00  0.00000000000E+00 -0.66291154729E+03  0.66291154730E+03  0.25500000920E-02 0. -1.
    10030    2    1    2    0    0  0.00000000000E+00  0.00000000000E+00  0.18563268227E+03  0.15114557769E+04  0.15000130242E+04 0.  0.
        2    1    3    3  502    0 -0.65782008512E+03 -0.32238981677E+03  0.25481375787E+03  0.77562394854E+03  0.25500000920E-02 0.  1.
       -2    1    3    3    0  502  0.65782008512E+03  0.32238981677E+03 -0.69181075597E+02  0.73583182832E+03  0.25500000920E-02 0. -1.
</event>
<event>
 5   0  0.1216921E-04  0.1501024E+04  0.7818609E-02  0.8883772E-01
        2   -1    0    0  501    0  0.00000000000E+00  0.00000000000E+00  0.10153961500E+04  0.10153961500E+04  0.25500000920E-02 0.  1.
       -2   -1    0    0    0  501  0.00000000000E+00  0.00000000000E+00 -0.55472761204E+03  0.55472761205E+03  0.25500000920E-02 0. -1.
    10030    2    1    2    0    0  0.00000000000E+00  0.00000000000E+00  0.46066853799E+03  0.15701237621E+04  0.15010240259E+04 0.  0.
        4    1    3    3  502    0 -0.38793318357E+03  0.31599782540E+03  0.81547836251E+03  0.95674100633E+03  0.12699999809E+01 0.  1.
       -4    1    3    3    0  502  0.38793318357E+03 -0.31599782540E+03 -0.35480982452E+03  0.61338275575E+03  0.12699999809E+01 0. -1.
</event>
<event>
 5   0  0.6509279E-05  0.1500853E+04  0.7818609E-02  0.8883886E-01
        1   -1    0    0  501    0  0.00000000000E+00  0.00000000000E+00  0.99066655114E+03  0.99066655116E+03  0.50400001928E-02 0. -1.
       -1   -1    0    0    0  501  0.00000000000E+00  0.00000000000E+00 -0.56844547964E+03  0.56844547967E+03  0.50400001928E-02 0.  1.
    10030    2    1    2    0    0  0.00000000000E+00  0.00000000000E+00  0.42222107150E+03  0.15591120308E+04  0.15008529880E+04 0.  0.
        2    1    3    3  502    0 -0.24059863121E+02  0.47964773333E+03  0.81012099302E+03  0.94177324683E+03  0.25500000920E-02 0. -1.
       -2    1    3    3    0  502  0.24059863121E+02 -0.47964773333E+03 -0.38789992152E+03  0.61733878399E+03  0.25500000920E-02 0.  1.
</event>
<event>
 5   0  0.4462875E-05  0.1500812E+04  0.7818609E-02  0.8883913E-01
        3   -1    0    0  501    0  0.00000000000E+00  0.00000000000E+00  0.17363145809E+04  0.17363145838E+04  0.10100000352E+00 0.  1.
       -3   -1    0    0    0  501  0.00000000000E+00  0.00000000000E+00 -0.32431265174E+03  0.32431266747E+03  0.10100000352E+00 0. -1.
    10030    2    1    2    0    0  0.00000000000E+00  0.00000000000E+00  0.14120019291E+04  0.20606272513E+04  0.15008115208E+04 0.  0.
        5    1    3    3  502    0 -0.21826642198E+03  0.66787577126E+03  0.10676745912E+04  0.12781429495E+04  0.46999998093E+01 0.  1.
       -5    1    3    3    0  502  0.21826642198E+03 -0.66787577126E+03  0.34432733795E+03  0.78248430173E+03  0.46999998093E+01 0. -1.
</event>
<event>
 5   0  0.1186664E-04  0.1501735E+04  0.7818609E-02  0.8883300E-01
        2   -1    0    0  501    0  0.00000000000E+00  0.00000000000E+00  0.82635123262E+03  0.82635123263E+03  0.25500000920E-02 0. -1.
       -2   -1    0    0    0  501  0.00000000000E+00  0.00000000000E+00 -0.68227933375E+03  0.68227933376E+03  0.25500000920E-02 0.  1.
    10030    2    1    2    0    0  0.00000000000E+00  0.00000000000E+00  0.14407189887E+03  0.15086305664E+04  0.15017354873E+04 0.  0.
        3    1    3    3  502    0 -0.24891920453E+03  0.67519244318E+03 -0.14332359571E+03  0.73374877785E+03  0.10100000352E+00 0.  1.
       -3    1    3    3    0  502  0.24891920453E+03 -0.67519244318E+03  0.28739549457E+03  0.77488178854E+03  0.10100000352E+00 0. -1.
</event>
<event>
 5   0  0.1228286E-04  0.1498221E+04  0.7818609E-02  0.8885637E-01
        2   -1    0    0  501    0  0.00000000000E+00  0.00000000000E+00  0.29244655685E+04  0.29244655685E+04  0.25500000920E-02 0. -1.
       -2   -1    0    0    0  501  0.00000000000E+00  0.00000000000E+00 -0.19188677622E+03  0.19188677623E+03  0.25500000920E-02 0.  1.
    10030    2    1    2    0    0  0.00000000000E+00  0.00000000000E+00  0.27325787923E+04  0.31163523447E+04  0.14982206381E+04 0.  0.
        2    1    3    3  502    0  0.63562193042E+03 -0.17792792675E+03  0.21031409170E+04  0.22042856671E+04  0.25500000920E-02 0. -1.
       -2    1    3    3    0  502 -0.63562193042E+03  0.17792792675E+03  0.62943787530E+03  0.91206667762E+03  0.25500000920E-02 0.  1.
</event>
<event>
 5   0  0.6668433E-05  0.1504516E+04  0.7818609E-02  0.8881456E-01
        1   -1    0    0  501    0  0.00000000000E+00  0.00000000000E+00  0.10798061220E+04  0.10798061220E+04  0.50400001928E-02 0. -1.
       -1   -1    0    0    0  501  0.00000000000E+00  0.00000000000E+00 -0.52406805642E+03  0.52406805644E+03  0.50400001928E-02 0.  1.
    10030    2    1    2    0    0  0.00000000000E+00  0.00000000000E+00  0.55573806557E+03  0.16038741784E+04  0.15045157303E+04 0.  0.
        1    1    3    3  502    0  0.65312263689E+03  0.20732219205E+03 -0.53016205119E+02  0.68728624908E+03  0.50400001928E-02 0.  1.
       -1    1    3    3    0  502 -0.65312263689E+03 -0.20732219205E+03  0.60875427069E+03  0.91658792936E+03  0.50400001928E-02 0. -1.
</event>
<event>
 5   0  0.6364378E-05  0.1493782E+04  0.7818609E-02  0.8888598E-01
       -1   -1    0    0    0  501  0.00000000000E+00  0.00000000000E+00  0.42703136879E+03  0.42703136882E+03  0.50400001928E-02 0. -1.
        1   -1    0    0  501    0  0.00000000000E+00  0.00000000000E+00 -0.13063360836E+04  0.13063360836E+04  0.50400001928E-02 0.  1.
    10030    2    1    2    0    0  0.00000000000E+00  0.00000000000E+00 -0.87930471481E+03  0.17333674524E+04  0.14937824285E+04 0.  0.
        5    1    3    3  502    0  0.13119706468E+02  0.65990493450E+03 -0.34051049675E+02  0.66092980963E+03  0.46999998093E+01 0. -1.
       -5    1    3    3    0  502 -0.13119706468E+02 -0.65990493450E+03 -0.84525366514E+03  0.10724376428E+04  0.46999998093E+01 0.  1.
</event>
<event>
 5   0  0.6542036E-05  0.1494193E+04  0.7818609E-02  0.8888324E-01
        1   -1    0    0  501    0  0.00000000000E+00  0.00000000000E+00  0.32936653086E+03  0.32936653090E+03  0.50400001928E-02 0. -1.
       -1   -1    0    0    0  501  0.00000000000E+00  0.00000000000E+00 -0.16946255415E+04  0.16946255415E+04  0.50400001928E-02 0.  1.
    10030    2    1    2    0    0  0.00000000000E+00  0.00000000000E+00 -0.13652590106E+04  0.20239920724E+04  0.14941926727E+04 0.  0.
        4    1    3    3  502    0 -0.21058125935E+03 -0.53104002660E+03 -0.13348013644E+04  0.14519105592E+04  0.12699999809E+01 0.  1.
       -4    1    3    3    0  502  0.21058125935E+03  0.53104002660E+03 -0.30457646244E+02  0.57208151321E+03  0.12699999809E+01 0. -1.
</event>
<event>
 5   0  0.6361716E-05  0.1499623E+04  0.7818609E-02  0.8884704E-01
       -1   -1    0    0    0  501  0.00000000000E+00  0.00000000000E+00  0.61911706601E+03  0.61911706603E+03  0.50400001928E-02 0. -1.
        1   -1    0    0  501    0  0.00000000000E+00  0.00000000000E+00 -0.90809526132E+03  0.90809526134E+03  0.50400001928E-02 0.  1.
    10030    2    1    2    0    0  0.00000000000E+00  0.00000000000E+00 -0.28897819532E+03  0.15272123274E+04  0.14996229844E+04 0.  0.
        3    1    3    3  502    0  0.40111832673E+02 -0.39677471496E+03 -0.79113393698E+03  0.88596391010E+03  0.10100000352E+00 0.  1.
       -3    1    3    3    0  502 -0.40111832673E+02  0.39677471496E+03  0.50215574167E+03  0.64124841726E+03  0.10100000352E+00 0. -1.
</event>
<event>
 5   0  0.1186664E-04  0.1496133E+04  0.7818609E-02  0.8887028E-01
       -2   -1    0    0    0  501  0.00000000000E+00  0.00000000000E+00  0.85749304592E+03  0.85749304593E+03  0.25500000920E-02 0. -1.
        2   -1    0    0  501    0  0.00000000000E+00  0.00000000000E+00 -0.65260436587E+03  0.65260436588E+03  0.25500000920E-02 0.  1.
    10030    2    1    2    0    0  0.00000000000E+00  0.00000000000E+00  0.20488868005E+03  0.15100974118E+04  0.14961332902E+04 0.  0.
        3    1    3    3  502    0  0.60499435738E+03 -0.42803754727E+03  0.20522492654E+03  0.76899388490E+03  0.10100000352E+00 0. -1.
       -3    1    3    3    0  502 -0.60499435738E+03  0.42803754727E+03 -0.33624648643E+00  0.74110352691E+03  0.10100000352E+00 0.  1.
</event>
<event>
 5   0  0.6509279E-05  0.1503290E+04  0.7818609E-02  0.8882268E-01
       -1   -1    0    0    0  501  0.00000000000E+00  0.00000000000E+00  0.12631111256E+04  0.12631111256E+04  0.50400001928E-02 0. -1.
        1   -1    0    0  501    0  0.00000000000E+00  0.00000000000E+00 -0.44728461346E+03  0.44728461349E+03  0.50400001928E-02 0.  1.
    10030    2    1    2    0    0  0.00000000000E+00  0.00000000000E+00  0.81582651217E+03  0.17103957391E+04  0.15032899542E+04 0.  0.
        2    1    3    3  502    0  0.23469573745E+03  0.30111591408E+03 -0.32875752252E+03  0.50381980063E+03  0.25500000920E-02 0.  1.
       -2    1    3    3    0  502 -0.23469573745E+03 -0.30111591408E+03  0.11445840347E+04  0.12065759385E+04  0.25500000920E-02 0. -1.
</event>
<event>
 5   0  0.1219810E-04  0.1498833E+04  0.7818609E-02  0.8885229E-01
        2   -1    0    0  501    0  0.00000000000E+00  0.00000000000E+00  0.10919270915E+04  0.10919270915E+04  0.25500000920E-02 0.  1.
       -2   -1    0    0    0  501  0.00000000000E+00  0.00000000000E+00 -0.51434301977E+03  0.51434301978E+03  0.25500000920E-02 0. -1.
    10030    2    1    2    0    0  0.00000000000E+00  0.00000000000E+00  0.57758407174E+03  0.16062701113E+04  0.14988329829E+04 0.  0.
        1    1    3    3  502    0  0.27725851029E+03  0.58918032359E+03  0.68635422735E+03  0.94609083109E+03  0.50400001928E-02 0.  1.
       -1    1    3    3    0  502 -0.27725851029E+03 -0.58918032359E+03 -0.10877015561E+03  0.66017928021E+03  0.50400001928E-02 0. -1.
</event>
<event>
 5   0  0.6509279E-05  0.1510488E+04  0.7818609E-02  0.8877508E-01
       -1   -1    0    0    0  501  0.00000000000E+00  0.00000000000E+00  0.41223115821E+03  0.41223115824E+03  0.50400001928E-02 0. -1.
        1   -1    0    0  501    0  0.00000000000E+00  0.00000000000E+00 -0.13836740182E+04  0.13836740182E+04  0.50400001928E-02 0.  1.
    10030    2    1    2    0    0  0.00000000000E+00  0.00000000000E+00 -0.97144286000E+03  0.17959051765E+04  0.15104880577E+04 0.  0.
        2    1    3    3  502    0 -0.57431818020E+02  0.73647058307E+03 -0.29883870081E+03  0.79686379172E+03  0.25500000920E-02 0. -1.
       -2    1    3    3    0  502  0.57431818020E+02 -0.73647058307E+03 -0.67260415919E+03  0.99904138474E+03  0.25500000920E-02 0.  1.
</event>
<event>
 5   0  0.6361716E-05  0.1505249E+04  0.7818609E-02  0.8880970E-01
        1   -1    0    0  501    0  0.00000000000E+00  0.00000000000E+00  0.15070704139E+04  0.15070704139E+04  0.50400001928E-02 0. -1.
       -1   -1    0    0    0  501  0.00000000000E+00  0.00000000000E+00 -0.37585762999E+03  0.37585763002E+03  0.50400001928E-02 0.  1.
    10030    2    1    2    0    0  0.00000000000E+00  0.00000000000E+00  0.11312127839E+04  0.18829280439E+04  0.15052493668E+04 0.  0.
        3    1    3    3  502    0 -0.27463871921E+02 -0.54441381549E+03 -0.83545096857E+02  0.55147117800E+03  0.10100000352E+00 0.  1.
       -3    1    3    3    0  502  0.27463871921E+02  0.54441381549E+03  0.12147578808E+04  0.13314568660E+04  0.10100000352E+00 0. -1.
</event>
<event>
 5   0  0.1219810E-04  0.1502782E+04  0.7818609E-02  0.8882605E-01
        2   -1    0    0  501    0  0.00000000000E+00  0.00000000000E+00  0.24575539055E+04  0.24575539055E+04  0.25500000920E-02 0.  1.
       -2   -1    0    0    0  501  0.00000000000E+00  0.00000000000E+00 -0.22973603195E+03  0.22973603197E+03  0.25500000920E-02 0. -1.
    10030    2    1    2    0    0  0.00000000000E+00  0.00000000000E+00  0.22278178736E+04  0.26872899375E+04  0.15027823297E+04 0.  0.
        1    1    3    3  502    0  0.54857145717E+03  0.23826906813E+03  0.30054692972E+03  0.66935136471E+03  0.50400001928E-02 0. -1.
       -1    1    3    3    0  502 -0.54857145717E+03 -0.23826906813E+03  0.19272709439E+04  0.20179385728E+04  0.50400001928E-02 0.  1.
</event>
<event>
 5   0  0.6542036E-05  0.1499694E+04  0.7818609E-02  0.8884656E-01
       -1   -1    0    0    0  501  0.00000000000E+00  0.00000000000E+00  0.88455869547E+03  0.88455869548E+03  0.50400001928E-02 0.  1.
        1   -1    0    0  501    0  0.00000000000E+00  0.00000000000E+00 -0.63565131128E+03  0.63565131130E+03  0.50400001928E-02 0. -1.
    10030    2    1    2    0    0  0.00000000000E+00  0.00000000000E+00  0.24890738419E+03  0.15202100068E+04  0.14996944952E+04 0.  0.
        4    1    3    3  502    0 -0.47167965764E+03  0.56196336590E+03  0.28144241548E+03  0.78580911816E+03  0.12699999809E+01 0.  1.
       -4    1    3    3    0  502  0.47167965764E+03 -0.56196336590E+03 -0.32535031288E+02  0.73440088862E+03  0.12699999809E+01 0. -1.
</event>
<event>
 5   0  0.1228286E-04  0.1505347E+04  0.7818609E-02  0.8880905E-01
       -2   -1    0    0    0  501  0.00000000000E+00  0.00000000000E+00  0.63054204894E+03  0.63054204894E+03  0.25500000920E-02 0. -1.
        2   -1    0    0  501    0  0.00000000000E+00  0.00000000000E+00 -0.89846116626E+03  0.89846116627E+03  0.25500000920E-02 0.  1.
    10030    2    1    2    0    0  0.00000000000E+00  0.00000000000E+00 -0.26791911733E+03  0.15290032152E+04  0.15053471954E+04 0.  0.
        2    1    3    3  502    0  0.50710585103E+03 -0.26668500884E+03 -0.62972852817E+03  0.85137257255E+03  0.25500000920E-02 0. -1.
       -2    1    3    3    0  502 -0.50710585103E+03  0.26668500884E+03  0.36180941084E+03  0.67763064266E+03  0.25500000920E-02 0.  1.
</event>
<event>
 5   0  0.6364378E-05  0.1500087E+04  0.7818609E-02  0.8884395E-01
        1   -1    0    0  501    0  0.00000000000E+00  0.00000000000E+00  0.19809030700E+04  0.19809030700E+04  0.50400001928E-02 0. -1.
       -1   -1    0    0    0  501  0.00000000000E+00  0.00000000000E+00 -0.28399447933E+03  0.28399447938E+03  0.50400001928E-02 0.  1.
    10030    2    1    2    0    0  0.00000000000E+00  0.00000000000E+00  0.16969085906E+04  0.22648975494E+04  0.15000873788E+04 0.  0.
        5    1    3    3  502    0  0.53003459978E+03  0.42764192114E+03  0.13228652598E+04  0.14878873866E+04  0.46999998093E+01 0. -1.
       -5    1    3    3    0  502 -0.53003459978E+03 -0.42764192114E+03  0.37404333088E+03  0.77701016277E+03  0.46999998093E+01 0.  1.
</event>
<event>
 5   0  0.1186664E-04  0.1501326E+04  0.7818609E-02  0.8883571E-01
        2   -1    0    0  501    0  0.00000000000E+00  0.00000000000E+00  0.11769972515E+04  0.11769972515E+04  0.25500000920E-02 0. -1.
       -2   -1    0    0    0  501  0.00000000000E+00  0.00000000000E+00 -0.47875667133E+03  0.47875667133E+03  0.25500000920E-02 0.  1.
    10030    2    1    2    0    0  0.00000000000E+00  0.00000000000E+00  0.69824058021E+03  0.16557539229E+04  0.15013264619E+04 0.  0.
        3    1    3    3  502    0  0.27711490309E+03  0.38928326363E+03  0.98760056889E+03  0.10971276237E+04  0.10100000352E+00 0. -1.
       -3    1    3    3    0  502 -0.27711490309E+03 -0.38928326363E+03 -0.28935998868E+03  0.55862629915E+03  0.10100000352E+00 0.  1.
</event>
<event>
 5   0  0.6509279E-05  0.1500380E+04  0.7818609E-02  0.8884200E-01
       -1   -1    0    0    0  501  0.00000000000E+00  0.00000000000E+00  0.10617100264E+04  0.10617100264E+04  0.50400001928E-02 0.  1.
        1   -1    0    0  501    0  0.00000000000E+00  0.00000000000E+00 -0.53007446366E+03  0.53007446369E+03  0.50400001928E-02 0. -1.
    10030    2    1    2    0    0  0.00000000000E+00  0.00000000000E+00  0.53163556272E+03  0.15917844901E+04  0.15003804489E+04 0.  0.
        2    1    3    3  502    0 -0.55505940118E+03  0.32950460547E+03  0.67136311784E+03  0.93133917552E+03  0.25500000920E-02 0.  1.
       -2    1    3    3    0  502  0.55505940118E+03 -0.32950460547E+03 -0.13972755512E+03  0.66044531456E+03  0.25500000920E-02 0. -1.
</event>
<event>
 5   0  0.1228286E-04  0.1498978E+04  0.7818609E-02  0.8885133E-01
        2   -1    0    0  501    0  0.00000000000E+00  0.00000000000E+00  0.13614106144E+04  0.13614106144E+04  0.25500000920E-02 0.  1.
       -2   -1    0    0    0  501  0.00000000000E+00  0.00000000000E+00 -0.41261153807E+03  0.41261153807E+03  0.25500000920E-02 0. -1.
    10030    2    1    2    0    0  0.00000000000E+00  0.00000000000E+00  0.94879907633E+03  0.17740221525E+04  0.14989779552E+04 0.  0.
        2    1    3    3  502    0 -0.47144396238E+03  0.52915511122E+03  0.18579059116E+03  0.73265454694E+03  0.25500000920E-02 0. -1.
       -2    1    3    3    0  502  0.47144396238E+03 -0.52915511122E+03  0.76300848517E+03  0.10413676055E+04  0.25500000920E-02 0.  1.
</event>
<event>
 5   0  0.1219810E-04  0.1497982E+04  0.7818609E-02  0.8885796E-01
        2   -1    0    0  501    0  0.00000000000E+00  0.00000000000E+00  0.11257668947E+04  0.11257668947E+04  0.25500000920E-02 0.  1.
       -2   -1    0    0    0  501  0.00000000000E+00  0.00000000000E+00 -0.49831571760E+03  0.49831571761E+03  0.25500000920E-02 0. -1.
    10030    2    1    2    0    0  0.00000000000E+00  0.00000000000E+00  0.62745117707E+03  0.16240826123E+04  0.14979817595E+04 0.  0.
        1    1    3    3  502    0 -0.65275034692E+03  0.17214455667E+03 -0.38041405371E+02  0.67613897413E+03  0.50400001928E-02 0. -1.
       -1    1    3    3    0  502  0.65275034692E+03 -0.17214455667E+03  0.66549258244E+03  0.94794363815E+03  0.50400001928E-02 0.  1.
</event>
<event>
 5   0  0.6361716E-05  0.1504544E+04  0.7818609E-02  0.8881437E-01
       -1   -1    0    0    0  501  0.00000000000E+00  0.00000000000E+00  0.57283344551E+03  0.57283344553E+03  0.50400001928E-02 0. -1.
        1   -1    0    0  501    0  0.00000000000E+00  0.00000000000E+00 -0.98791971017E+03  0.98791971018E+03  0.50400001928E-02 0.  1.
    10030    2    1    2    0    0  0.00000000000E+00  0.00000000000E+00 -0.41508626466E+03  0.15607531557E+04  0.15045443848E+04 0.  0.
        3    1    3    3  502    0 -0.31923889423E+03  0.25304638906E+03  0.44851385663E+03  0.60589655585E+03  0.10100000352E+00 0. -1.
       -3    1    3    3    0  502  0.31923889423E+03 -0.25304638906E+03 -0.86360012129E+03  0.95485659986E+03  0.10100000352E+00 0.  1.
</event>
<event>
 5   0  0.6542036E-05  0.1503093E+04  0.7818609E-02  0.8882399E-01
       -1   -1    0    0    0  501  0.00000000000E+00  0.00000000000E+00  0.92148097342E+03  0.92148097343E+03  0.50400001928E-02 0.  1.
        1   -1    0    0  501    0  0.00000000000E+00  0.00000000000E+00 -0.61295014380E+03  0.61295014382E+03  0.50400001928E-02 0. -1.
    10030    2    1    2    0    0  0.00000000000E+00  0.00000000000E+00  0.30853082962E+03  0.15344311173E+04  0.15030926721E+04 0.  0.
        4    1    3    3  502    0  0.30984577061E+03 -0.68412923744E+03  0.12569864361E+03  0.76147158647E+03  0.12699999809E+01 0. -1.
       -4    1    3    3    0  502 -0.30984577061E+03  0.68412923744E+03  0.18283218601E+03  0.77295953079E+03  0.12699999809E+01 0.  1.
</event>
<event>
 5   0  0.1228286E-04  0.1505373E+04  0.7818609E-02  0.8880888E-01
       -2   -1    0    0    0  501  0.00000000000E+00  0.00000000000E+00  0.24622060227E+03  0.24622060228E+03  0.25500000920E-02 0. -1.
        2   -1    0    0  501    0  0.00000000000E+00  0.00000000000E+00 -0.23009309617E+04  0.23009309617E+04  0.25500000920E-02 0.  1.
    10030    2    1    2    0    0  0.00000000000E+00  0.00000000000E+00 -0.20547103595E+04  0.25471515640E+04  0.15053725216E+04 0.  0.
        2    1    3    3  502    0 -0.90191820301E+02  0.70326703513E+03 -0.14548006952E+04  0.16183831901E+04  0.25500000920E-02 0.  1.
       -2    1    3    3    0  502  0.90191820301E+02 -0.70326703513E+03 -0.59990966425E+03  0.92876837393E+03  0.25500000920E-02 0. -1.
</event>
<event>
 5   0  0.1216921E-04  0.1500114E+04  0.7818609E-02  0.8884377E-01
       -2   -1    0    0    0  501  0.00000000000E+00  0.00000000000E+00  0.57822061363E+03  0.57822061363E+03  0.25500000920E-02 0.  1.
        2   -1    0    0  501    0  0.00000000000E+00  0.00000000000E+00 -0.97295999055E+03  0.97295999056E+03  0.25500000920E-02 0. -1.
    10030    2    1    2    0    0  0.00000000000E+00  0.00000000000E+00 -0.39473937692E+03  0.15511806042E+04  0.15001140260E+04 0.  0.
        4    1    3    3  502    0 -0.66018617345E+03  0.34078866653E+03 -0.30383688881E+03  0.80268372772E+03  0.12699999809E+01 0. -1.
       -4    1    3    3    0  502  0.66018617345E+03 -0.34078866653E+03 -0.90902488111E+02  0.74849687647E+03  0.12699999809E+01 0.  1.
</event>
<event>
 5   0  0.1186664E-04  0.1502950E+04  0.7818609E-02  0.8882493E-01
       -2   -1    0    0    0  501  0.00000000000E+00  0.00000000000E+00  0.56807420562E+03  0.56807420563E+03  0.25500000920E-02 0. -1.
        2   -1    0    0  501    0  0.00000000000E+00  0.00000000000E+00 -0.99408633235E+03  0.99408633235E+03  0.25500000920E-02 0.  1.
    10030    2    1    2    0    0  0.00000000000E+00  0.00000000000E+00 -0.42601212673E+03  0.15621605380E+04  0.15029501703E+04 0.  0.
        3    1    3    3  502    0  0.48960665797E+03  0.26175531657E+03  0.31338856264E+03  0.63752876537E+03  0.10100000352E+00 0. -1.
       -3    1    3    3    0  502 -0.48960665797E+03 -0.26175531657E+03 -0.73940068936E+03  0.92463177261E+03  0.10100000352E+00 0.  1.
</event>
<event>
 5   0  0.1254487E-04  0.1501703E+04  0.7818609E-02  0.8883321E-01
       -2   -1    0    0    0  501  0.00000000000E+00  0.00000000000E+00  0.46658882308E+03  0.46658882309E+03  0.25500000920E-02 0.  1.
        2   -1    0    0  501    0  0.00000000000E+00  0.00000000000E+00 -0.12082967960E+04  0.12082967960E+04  0.25500000920E-02 0. -1.
    10030    2    1    2    0    0  0.00000000000E+00  0.00000000000E+00 -0.74170797292E+03  0.16748856191E+04  0.15017027402E+04 0.  0.
        5    1    3    3  502    0  0.66516391085E+03 -0.21295344752E+03 -0.63454146114E+02  0.70131356594E+03  0.46999998093E+01 0. -1.
       -5    1    3    3    0  502 -0.66516391085E+03  0.21295344752E+03 -0.67825382681E+03  0.97357205316E+03  0.46999998093E+01 0.  1.
</event>
<event>
 5   0  0.6542036E-05  0.1499578E+04  0.7818609E-02  0.8884734E-01
        1   -1    0    0  501    0  0.00000000000E+00  0.00000000000E+00  0.23536852431E+04  0.23536852431E+04  0.50400001928E-02 0. -1.
       -1   -1    0    0    0  501  0.00000000000E+00  0.00000000000E+00 -0.23885250792E+03  0.23885250797E+03  0.50400001928E-02 0.  1.
    10030    2    1    2    0    0  0.00000000000E+00  0.00000000000E+00  0.21148327352E+04  0.25925377511E+04  0.14995781050E+04 0.  0.
        4    1    3    3  502    0  0.42957200316E+03 -0.16821307102E+03  0.20792707797E+04  0.21298348132E+04  0.12699999809E+01 0. -1.
       -4    1    3    3    0  502 -0.42957200316E+03  0.16821307102E+03  0.35561955471E+02  0.46270293790E+03  0.12699999809E+01 0.  1.
</event>
<event>
 5   0  0.6364378E-05  0.1506518E+04  0.7818609E-02  0.8880130E-01
        1   -1    0    0  501    0  0.00000000000E+00  0.00000000000E+00  0.40496486173E+03  0.40496486176E+03  0.50400001928E-02 0. -1.
       -1   -1    0    0    0  501  0.00000000000E+00  0.00000000000E+00 -0.14011079658E+04  0.14011079658E+04  0.50400001928E-02 0.  1.
    10030    2    1    2    0    0  0.00000000000E+00  0.00000000000E+00 -0.99614310409E+03  0.18060728276E+04  0.15065184947E+04 0.  0.
        5    1    3    3  502    0 -0.26408039745E+03  0.13703375302E+03  0.33152203874E+03  0.44547239864E+03  0.46999998093E+01 0. -1.
       -5    1    3    3    0  502  0.26408039745E+03 -0.13703375302E+03 -0.13276651428E+04  0.13606004289E+04  0.46999998093E+01 0.  1.
</event>
<event>
 5   0  0.6668433E-05  0.1493699E+04  0.7818609E-02  0.8888654E-01
       -1   -1    0    0    0  501  0.00000000000E+00  0.00000000000E+00  0.76465689824E+03  0.76465689825E+03  0.50400001928E-02 0. -1.
        1   -1    0    0  501    0  0.00000000000E+00  0.00000000000E+00 -0.72945635544E+03  0.72945635545E+03  0.50400001928E-02 0.  1.
    10030    2    1    2    0    0  0.00000000000E+00  0.00000000000E+00  0.35200542800E+02  0.14941132537E+04  0.14936985428E+04 0.  0.
        1    1    3    3  502    0 -0.18954844827E+02  0.21813190694E+03  0.73183144156E+03  0.76388354731E+03  0.50400001928E-02 0. -1.
       -1    1    3    3    0  502  0.18954844827E+02 -0.21813190694E+03 -0.69663089876E+03  0.73022970640E+03  0.50400001928E-02 0.  1.
</event>
<event>
 5   0  0.1216921E-04  0.1502420E+04  0.7818609E-02  0.8882845E-01
       -2   -1    0    0    0  501  0.00000000000E+00  0.00000000000E+00  0.45143924915E+03  0.45143924916E+03  0.25500000920E-02 0. -1.
        2   -1    0    0  501    0  0.00000000000E+00  0.00000000000E+00 -0.12500393504E+04  0.12500393504E+04  0.25500000920E-02 0.  1.
    10030    2    1    2    0    0  0.00000000000E+00  0.00000000000E+00 -0.79860010125E+03  0.17014785996E+04  0.15024204814E+04 0.  0.
        4    1    3    3  502    0  0.27388272805E+03  0.62428598260E+03 -0.75665539995E+03  0.10184663686E+04  0.12699999809E+01 0.  1.
       -4    1    3    3    0  502 -0.27388272805E+03 -0.62428598260E+03 -0.41944701303E+02  0.68301223097E+03  0.12699999809E+01 0. -1.
</event>
<event>
 5   0  0.1216921E-04  0.1506298E+04  0.7818609E-02  0.8880276E-01
       -2   -1    0    0    0  501  0.00000000000E+00  0.00000000000E+00  0.25696742033E+03  0.25696742035E+03  0.25500000920E-02 0. -1.
        2   -1    0    0  501    0  0.00000000000E+00  0.00000000000E+00 -0.22074131258E+04  0.22074131258E+04  0.25500000920E-02 0.  1.
    10030    2    1    2    0    0  0.00000000000E+00  0.00000000000E+00 -0.19504457054E+04  0.24643805461E+04  0.15062977880E+04 0.  0.
        4    1    3    3  502    0 -0.44543315905E+02  0.57182131769E+03 -0.17738236102E+04  0.18642466412E+04  0.12699999809E+01 0.  1.
       -4    1    3    3    0  502  0.44543315905E+02 -0.57182131769E+03 -0.17662209522E+03  0.60013390487E+03  0.12699999809E+01 0. -1.
</event>
<event>
 5   0  0.4462875E-05  0.1496712E+04  0.7818609E-02  0.8886643E-01
       -3   -1    0    0    0  501  0.00000000000E+00  0.00000000000E+00  0.10030613528E+04  0.10030613579E+04  0.10100000352E+00 0. -1.
        3   -1    0    0  501    0  0.00000000000E+00  0.00000000000E+00 -0.55832727566E+03  0.55832728480E+03  0.10100000352E+00 0.  1.
    10030    2    1    2    0    0  0.00000000000E+00  0.00000000000E+00  0.44473407715E+03  0.15613886427E+04  0.14967117605E+04 0.  0.
        1    1    3    3  502    0  0.72508970755E+03 -0.17777243785E+03  0.27635669338E+03  0.79607232439E+03  0.50400001928E-02 0. -1.
       -1    1    3    3    0  502 -0.72508970755E+03  0.17777243785E+03  0.16837738377E+03  0.76531631830E+03  0.50400001928E-02 0.  1.
</event>
<event>
 5   0  0.1228286E-04  0.1499600E+04  0.7818609E-02  0.8884719E-01
        2   -1    0    0  501    0  0.00000000000E+00  0.00000000000E+00  0.18234199451E+04  0.18234199451E+04  0.25500000920E-02 0.  1.
       -2   -1    0    0    0  501  0.00000000000E+00  0.00000000000E+00 -0.30832156815E+03  0.30832156816E+03  0.25500000920E-02 0. -1.
    10030    2    1    2    0    0  0.00000000000E+00  0.00000000000E+00  0.15150983769E+04  0.21317415132E+04  0.14995995424E+04 0.  0.
        2    1    3    3  502    0  0.71830780950E+02 -0.32129779992E+03  0.17151735862E+04  0.17464857194E+04  0.25500000920E-02 0.  1.
       -2    1    3    3    0  502 -0.71830780950E+02  0.32129779992E+03 -0.20007520925E+03  0.38525579384E+03  0.25500000920E-02 0. -1.
</event>
<event>
 5   0  0.6509279E-05  0.1512010E+04  0.7818609E-02  0.8876505E-01
       -1   -1    0    0    0  501  0.00000000000E+00  0.00000000000E+00  0.37126982177E+03  0.37126982181E+03  0.50400001928E-02 0.  1.
        1   -1    0    0  501    0  0.00000000000E+00  0.00000000000E+00 -0.15394290721E+04  0.15394290721E+04  0.50400001928E-02 0. -1.
    10030    2    1    2    0    0  0.00000000000E+00  0.00000000000E+00 -0.11681592503E+04  0.19106988939E+04  0.15120099964E+04 0.  0.
        2    1    3    3  502    0  0.71531543793E+03 -0.19048469152E+03 -0.77813996261E+03  0.10739936661E+04  0.25500000920E-02 0.  1.
       -2    1    3    3    0  502 -0.71531543793E+03  0.19048469152E+03 -0.39001928772E+03  0.83670522781E+03  0.25500000920E-02 0. -1.
</event>
<event>
 5   0  0.6361716E-05  0.1501778E+04  0.7818609E-02  0.8883271E-01
       -1   -1    0    0    0  501  0.00000000000E+00  0.00000000000E+00  0.99662419112E+03  0.99662419113E+03  0.50400001928E-02 0. -1.
        1   -1    0    0  501    0  0.00000000000E+00  0.00000000000E+00 -0.56574449964E+03  0.56574449966E+03  0.50400001928E-02 0.  1.
    10030    2    1    2    0    0  0.00000000000E+00  0.00000000000E+00  0.43087969149E+03  0.15623686908E+04  0.15017784848E+04 0.  0.
        3    1    3    3  502    0 -0.20509579080E+03 -0.38301213234E+03  0.85258004971E+03  0.95689880776E+03  0.10100000352E+00 0. -1.
       -3    1    3    3    0  502  0.20509579080E+03  0.38301213234E+03 -0.42170035823E+03  0.60546988303E+03  0.10100000352E+00 0.  1.
</event>
<event>
 5   0  0.1254487E-04  0.1539058E+04  0.7818609E-02  0.8858888E-01
       -2   -1    0    0    0  501  0.00000000000E+00  0.00000000000E+00  0.44639267912E+03  0.44639267913E+03  0.25500000920E-02 0.  1.
        2   -1    0    0  501    0  0.00000000000E+00  0.00000000000E+00 -0.13265776979E+04  0.13265776979E+04  0.25500000920E-02 0. -1.
    10030    2    1    2    0    0  0.00000000000E+00  0.00000000000E+00 -0.88018501873E+03  0.17729703770E+04  0.15390575982E+04 0.  0.
        5    1    3    3  502    0 -0.48731445877E+03  0.57773349678E+03 -0.27354764062E+03  0.80380456376E+03  0.46999998093E+01 0.  1.
       -5    1    3    3    0  502  0.48731445877E+03 -0.57773349678E+03 -0.60663737811E+03  0.96916581324E+03  0.46999998093E+01 0. -1.
</event>
<event>
 5   0  0.1219810E-04  0.1499873E+04  0.7818609E-02  0.8884537E-01
        2   -1    0    0  501    0  0.00000000000E+00  0.00000000000E+00  0.17168267323E+04  0.17168267323E+04  0.25500000920E-02 0.  1.
       -2   -1    0    0    0  501  0.00000000000E+00  0.00000000000E+00 -0.32758389097E+03  0.32758389098E+03  0.25500000920E-02 0. -1.
    10030    2    1    2    0    0  0.00000000000E+00  0.00000000000E+00  0.13892428414E+04  0.20444106233E+04  0.14998730361E+04 0.  0.
        1    1    3    3  502    0  0.16105667476E+03 -0.14875525391E+03  0.16721685060E+04  0.16864800297E+04  0.50400001928E-02 0.  1.
       -1    1    3    3    0  502 -0.16105667476E+03  0.14875525391E+03 -0.28292566469E+03  0.35793059357E+03  0.50400001928E-02 0. -1.
</event>
<event>
 5   0  0.6542036E-05  0.1501024E+04  0.7818609E-02  0.8883772E-01
       -1   -1    0    0    0  501  0.00000000000E+00  0.00000000000E+00  0.26286201022E+03  0.26286201026E+03  0.50400001928E-02 0. -1.
        1   -1    0    0  501    0  0.00000000000E+00  0.00000000000E+00 -0.21428295576E+04  0.21428295576E+04  0.50400001928E-02 0.  1.
    10030    2    1    2    0    0  0.00000000000E+00  0.00000000000E+00 -0.18799675474E+04  0.24056915679E+04  0.15010242971E+04 0.  0.
        4    1    3    3  502    0  0.66785025944E+03 -0.26037435818E+03 -0.12963750083E+04  0.14813536210E+04  0.12699999809E+01 0.  1.
       -4    1    3    3    0  502 -0.66785025944E+03  0.26037435818E+03 -0.58359253908E+03  0.92433794686E+03  0.12699999809E+01 0. -1.
</event>
<event>
 5   0  0.6542036E-05  0.1499171E+04  0.7818609E-02  0.8885004E-01
        1   -1    0    0  501    0  0.00000000000E+00  0.00000000000E+00  0.97517151838E+03  0.97517151839E+03  0.50400001928E-02 0. -1.
       -1   -1    0    0    0  501  0.00000000000E+00  0.00000000000E+00 -0.57618428591E+03  0.57618428593E+03  0.50400001928E-02 0.  1.
    10030    2    1    2    0    0  0.00000000000E+00  0.00000000000E+00  0.39898723246E+03  0.15513558043E+04  0.14991711110E+04 0.  0.
        4    1    3    3  502    0 -0.42584836123E+03 -0.23179667800E+03  0.79105726209E+03  0.92781988096E+03  0.12699999809E+01 0. -1.
       -4    1    3    3    0  502  0.42584836123E+03  0.23179667800E+03 -0.39207002963E+03  0.62353592336E+03  0.12699999809E+01 0.  1.
</event>
<event>
 5   0  0.6364378E-05  0.1499395E+04  0.7818609E-02  0.8884855E-01
        1   -1    0    0  501    0  0.00000000000E+00  0.00000000000E+00  0.11329312435E+04  0.11329312435E+04  0.50400001928E-02 0.  1.
       -1   -1    0    0    0  501  0.00000000000E+00  0.00000000000E+00 -0.49609934454E+03  0.49609934457E+03  0.50400001928E-02 0. -1.
    10030    2    1    2    0    0  0.00000000000E+00  0.00000000000E+00  0.63683189895E+03  0.16290305881E+04  0.14993951412E+04 0.  0.
        5    1    3    3  502    0  0.20502882989E+03  0.25778878944E+03  0.10500894657E+04  0.11005461630E+04  0.46999998093E+01 0.  1.
       -5    1    3    3    0  502 -0.20502882989E+03 -0.25778878944E+03 -0.41325756673E+03  0.52848442504E+03  0.46999998093E+01 0. -1.
</event>
<event>
 5   0  0.1216921E-04  0.1497876E+04  0.7818609E-02  0.8885867E-01
        2   -1    0    0  501    0  0.00000000000E+00  0.00000000000E+00  0.92100942795E+03  0.92100942795E+03  0.25500000920E-02 0. -1.
       -2   -1    0    0    0  501  0.00000000000E+00  0.00000000000E+00 -0.60901435240E+03  0.60901435241E+03  0.25500000920E-02 0.  1.
    10030    2    1    2    0    0  0.00000000000E+00  0.00000000000E+00  0.31199507555E+03  0.15300237804E+04  0.14978757763E+04 0.  0.
        4    1    3    3  502    0 -0.63324287299E+02 -0.58275762569E+03 -0.32015070427E+03  0.66791803539E+03  0.12699999809E+01 0.  1.
       -4    1    3    3    0  502  0.63324287299E+02  0.58275762569E+03  0.63214577982E+03  0.86210574496E+03  0.12699999809E+01 0. -1.
</event>
<event>
 5   0  0.6364378E-05  0.1497293E+04  0.7818609E-02  0.8886255E-01
       -1   -1    0    0    0  501  0.00000000000E+00  0.00000000000E+00  0.59407217072E+03  0.59407217074E+03  0.50400001928E-02 0. -1.
        1   -1    0    0  501    0  0.00000000000E+00  0.00000000000E+00 -0.94344006552E+03  0.94344006553E+03  0.50400001928E-02 0.  1.
    10030    2    1    2    0    0  0.00000000000E+00  0.00000000000E+00 -0.34936789480E+03  0.15375122363E+04  0.14972928741E+04 0.  0.
        5    1    3    3  502    0  0.32926615281E+03 -0.67094978357E+03 -0.13040268590E+03  0.75869411619E+03  0.46999998093E+01 0.  1.
       -5    1    3    3    0  502 -0.32926615281E+03  0.67094978357E+03 -0.21896520890E+03  0.77881812008E+03  0.46999998093E+01 0. -1.
</event>
<event>
 5   0  0.1186664E-04  0.1498423E+04  0.7818609E-02  0.8885502E-01
        2   -1    0    0  501    0  0.00000000000E+00  0.00000000000E+00  0.26821865859E+03  0.26821865860E+03  0.25500000920E-02 0.  1.
       -2   -1    0    0    0  501  0.00000000000E+00  0.00000000000E+00 -0.20927614552E+04  0.20927614552E+04  0.25500000920E-02 0. -1.
    10030    2    1    2    0    0  0.00000000000E+00  0.00000000000E+00 -0.18245427966E+04  0.23609801138E+04  0.14984227311E+04 0.  0.
        3    1    3    3  502    0 -0.28424817125E+03 -0.64483131081E+03 -0.13130960963E+04  0.14902435407E+04  0.10100000352E+00 0. -1.
       -3    1    3    3    0  502  0.28424817125E+03  0.64483131081E+03 -0.51144670031E+03  0.87073657309E+03  0.10100000352E+00 0.  1.
</event>
<event>
 5   0  0.1186664E-04  0.1500427E+04  0.7818609E-02  0.8884169E-01
        2   -1    0    0  501    0  0.00000000000E+00  0.00000000000E+00  0.10928722708E+04  0.10928722708E+04  0.25500000920E-02 0.  1.
       -2   -1    0    0    0  501  0.00000000000E+00  0.00000000000E+00 -0.51499184344E+03  0.51499184344E+03  0.25500000920E-02 0. -1.
    10030    2    1    2    0    0  0.00000000000E+00  0.00000000000E+00  0.57788042736E+03  0.16078641142E+04  0.15004270131E+04 0.  0.
        3    1    3    3  502    0  0.35092350731E+03  0.65238331536E+03  0.16183421795E+03  0.75824905041E+03  0.10100000352E+00 0. -1.
       -3    1    3    3    0  502 -0.35092350731E+03 -0.65238331536E+03  0.41604620941E+03  0.84961506384E+03  0.10100000352E+00 0.  1.
</event>
<event>
 5   0  0.4462875E-05  0.1498839E+04  0.7818609E-02  0.8885225E-01
        3   -1    0    0  501    0  0.00000000000E+00  0.00000000000E+00  0.23556255970E+04  0.23556255991E+04  0.10100000352E+00 0. -1.
       -3   -1    0    0    0  501  0.00000000000E+00  0.00000000000E+00 -0.23842058597E+03  0.23842060736E+03  0.10100000352E+00 0.  1.
    10030    2    1    2    0    0  0.00000000000E+00  0.00000000000E+00  0.21172050110E+04  0.25940462065E+04  0.14988391051E+04 0.  0.
        3    1    3    3  502    0 -0.66309834935E+03 -0.31853484013E+03  0.81101030971E+03  0.10949436506E+04  0.10100000352E+00 0.  1.
       -3    1    3    3    0  502  0.66309834935E+03  0.31853484013E+03  0.13061947013E+04  0.14991025559E+04  0.10100000352E+00 0. -1.
</event>
<event>
 5   0  0.6364378E-05  0.1501569E+04  0.7818609E-02  0.8883410E-01
       -1   -1    0    0    0  501  0.00000000000E+00  0.00000000000E+00  0.93743092724E+03  0.93743092725E+03  0.50400001928E-02 0.  1.
        1   -1    0    0  501    0  0.00000000000E+00  0.00000000000E+00 -0.60130033218E+03  0.60130033220E+03  0.50400001928E-02 0. -1.
    10030    2    1    2    0    0  0.00000000000E+00  0.00000000000E+00  0.33613059506E+03  0.15387312595E+04  0.15015692165E+04 0.  0.
        5    1    3    3  502    0  0.33594841694E+03  0.50440727694E+03 -0.28603534161E+03  0.67016889403E+03  0.46999998093E+01 0. -1.
       -5    1    3    3    0  502 -0.33594841694E+03 -0.50440727694E+03  0.62216593667E+03  0.86856236542E+03  0.46999998093E+01 0.  1.
</event>
<event>
 5   0  0.1186664E-04  0.1499373E+04  0.7818609E-02  0.8884870E-01
        2   -1    0    0  501    0  0.00000000000E+00  0.00000000000E+00  0.12357186122E+04  0.12357186122E+04  0.25500000920E-02 0.  1.
       -2   -1    0    0    0  501  0.00000000000E+00  0.00000000000E+00 -0.45482032809E+03  0.45482032809E+03  0.25500000920E-02 0. -1.
    10030    2    1    2    0    0  0.00000000000E+00  0.00000000000E+00  0.78089828408E+03  0.16905389403E+04  0.14993731285E+04 0.  0.
        3    1    3    3  502    0  0.61485682537E+03 -0.95159500366E+02 -0.81116604311E+02  0.62744255506E+03  0.10100000352E+00 0. -1.
       -3    1    3    3    0  502 -0.61485682537E+03  0.95159500366E+02  0.86201488840E+03  0.10630963852E+04  0.10100000352E+00 0.  1.
</event>
<event>
 5   0  0.1228286E-04  0.1496214E+04  0.7818609E-02  0.8886975E-01
        2   -1    0    0  501    0  0.00000000000E+00  0.00000000000E+00  0.14411520074E+04  0.14411520074E+04  0.25500000920E-02 0. -1.
       -2   -1    0    0    0  501  0.00000000000E+00  0.00000000000E+00 -0.38834488657E+03  0.38834488658E+03  0.25500000920E-02 0.  1.
    10030    2    1    2    0    0  0.00000000000E+00  0.00000000000E+00  0.10528071209E+04  0.18294968940E+04  0.14962139057E+04 0.  0.
        2    1    3    3  502    0 -0.45207541860E+03 -0.41950303020E+03  0.86309438985E+01  0.61678964781E+03  0.25500000920E-02 0.  1.
       -2    1    3    3    0  502  0.45207541860E+03  0.41950303020E+03  0.10441761770E+04  0.12127072462E+04  0.25500000920E-02 0. -1.
</event>
<event>
 5   0  0.1219810E-04  0.1498978E+04  0.7818609E-02  0.8885133E-01
       -2   -1    0    0    0  501  0.00000000000E+00  0.00000000000E+00  0.61905197700E+03  0.61905197700E+03  0.25500000920E-02 0. -1.
        2   -1    0    0  501    0  0.00000000000E+00  0.00000000000E+00 -0.90740999101E+03  0.90740999101E+03  0.25500000920E-02 0.  1.
    10030    2    1    2    0    0  0.00000000000E+00  0.00000000000E+00 -0.28835801401E+03  0.15264619680E+04  0.14989782505E+04 0.  0.
        1    1    3    3  502    0  0.41084532785E+02 -0.74467135747E+03 -0.21977334858E+03  0.77751121808E+03  0.50400001928E-02 0.  1.
       -1    1    3    3    0  502 -0.41084532785E+02  0.74467135747E+03 -0.68584665429E+02  0.74895074993E+03  0.50400001928E-02 0. -1.
</event>
<event>
 5   0  0.6668433E-05  0.1500931E+04  0.7818609E-02  0.8883834E-01
        1   -1    0    0  501    0  0.00000000000E+00  0.00000000000E+00  0.11605515550E+04  0.11605515550E+04  0.50400001928E-02 0. -1.
       -1   -1    0    0    0  501  0.00000000000E+00  0.00000000000E+00 -0.48528542644E+03  0.48528542647E+03  0.50400001928E-02 0.  1.
    10030    2    1    2    0    0  0.00000000000E+00  0.00000000000E+00  0.67526612853E+03  0.16458369814E+04  0.15009313859E+04 0.  0.
        1    1    3    3  502    0 -0.23531665079E+03 -0.71091029532E+03  0.28356353503E+03  0.80073444571E+03  0.50400001928E-02 0. -1.
       -1    1    3    3    0  502  0.23531665079E+03  0.71091029532E+03  0.39170259350E+03  0.84510253573E+03  0.50400001928E-02 0.  1.
</event>
<event>
 5   0  0.1216921E-04  0.1497913E+04  0.7818609E-02  0.8885842E-01
       -2   -1    0    0    0  501  0.00000000000E+00  0.00000000000E+00  0.21944738434E+03  0.21944738436E+03  0.25500000920E-02 0. -1.
        2   -1    0    0  501    0  0.00000000000E+00  0.00000000000E+00 -0.25561276551E+04  0.25561276551E+04  0.25500000920E-02 0.  1.
    10030    2    1    2    0    0  0.00000000000E+00  0.00000000000E+00 -0.23366802707E+04  0.27755750394E+04  0.14979125849E+04 0.  0.
        4    1    3    3  502    0  0.25862068410E+03  0.69533969581E+03 -0.13586814916E+04  0.15480306713E+04  0.12699999809E+01 0.  1.
       -4    1    3    3    0  502 -0.25862068410E+03 -0.69533969581E+03 -0.97799877912E+03  0.12275443681E+04  0.12699999809E+01 0. -1.
</event>
<event>
 5   0  0.1216921E-04  0.1500485E+04  0.7818609E-02  0.8884131E-01
        2   -1    0    0  501    0  0.00000000000E+00  0.00000000000E+00  0.10633359235E+04  0.10633359235E+04  0.25500000920E-02 0.  1.
       -2   -1    0    0    0  501  0.00000000000E+00  0.00000000000E+00 -0.52933756361E+03  0.52933756362E+03  0.25500000920E-02 0. -1.
    10030    2    1    2    0    0  0.00000000000E+00  0.00000000000E+00  0.53399835987E+03  0.15926734871E+04  0.15004847844E+04 0.  0.
        4    1    3    3  502    0  0.70721565272E+03 -0.21713247502E+03  0.39940939259E+03  0.84073180441E+03  0.12699999809E+01 0.  1.
       -4    1    3    3    0  502 -0.70721565272E+03  0.21713247502E+03  0.13458896728E+03  0.75194168269E+03  0.12699999809E+01 0. -1.
</event>
<event>
 5   0  0.1254487E-04  0.1500143E+04  0.7818609E-02  0.8884358E-01
       -2   -1    0    0    0  501  0.00000000000E+00  0.00000000000E+00  0.52152434715E+03  0.52152434716E+03  0.25500000920E-02 0. -1.
        2   -1    0    0  501    0  0.00000000000E+00  0.00000000000E+00 -0.10787748573E+04  0.10787748573E+04  0.25500000920E-02 0.  1.
    10030    2    1    2    0    0  0.00000000000E+00  0.00000000000E+00 -0.55725051016E+03  0.16002992045E+04  0.15001431308E+04 0.  0.
        5    1    3    3  502    0 -0.60756018156E+03 -0.38129309956E+03 -0.44734986102E+02  0.71870516275E+03  0.46999998093E+01 0. -1.
       -5    1    3    3    0  502  0.60756018156E+03  0.38129309956E+03 -0.51251552406E+03  0.88159404172E+03  0.46999998093E+01 0.  1.
</event>
<event>
 5   0  0.6542036E-05  0.1500826E+04  0.7818609E-02  0.8883904E-01
        1   -1    0    0  501    0  0.00000000000E+00  0.00000000000E+00  0.13461281511E+04  0.13461281511E+04  0.50400001928E-02 0.  1.
       -1   -1    0    0    0  501  0.00000000000E+00  0.00000000000E+00 -0.41832521577E+03  0.41832521580E+03  0.50400001928E-02 0. -1.
    10030    2    1    2    0    0  0.00000000000E+00  0.00000000000E+00  0.92780293534E+03  0.17644533669E+04  0.15008255719E+04 0.  0.
        4    1    3    3  502    0 -0.53730331958E+03  0.37546016476E+03  0.34421024796E+02  0.65639287961E+03  0.12699999809E+01 0. -1.
       -4    1    3    3    0  502  0.53730331958E+03 -0.37546016476E+03  0.89338191055E+03  0.11080604873E+04  0.12699999809E+01 0.  1.
</event>
<event>
 5   0  0.6509279E-05  0.1474831E+04  0.7818609E-02  0.8901364E-01
       -1   -1    0    0    0  501  0.00000000000E+00  0.00000000000E+00  0.36885354586E+03  0.36885354589E+03  0.50400001928E-02 0.  1.
        1   -1    0    0  501    0  0.00000000000E+00  0.00000000000E+00 -0.14742488004E+04  0.14742488005E+04  0.50400001928E-02 0. -1.
    10030    2    1    2    0    0  0.00000000000E+00  0.00000000000E+00 -0.11053952546E+04  0.18431023463E+04  0.14748313769E+04 0.  0.
        2    1    3    3  502    0  0.18691532246E+03  0.22263104753E+02 -0.14437188193E+04  0.14559385334E+04  0.25500000920E-02 0. -1.
       -2    1    3    3    0  502 -0.18691532246E+03 -0.22263104753E+02  0.33832356476E+03  0.38716381298E+03  0.25500000920E-02 0.  1.
</event>
<event>
 5   0  0.1186664E-04  0.1490428E+04  0.7818609E-02  0.8890843E-01
       -2   -1    0    0    0  501  0.00000000000E+00  0.00000000000E+00  0.20653642653E+03  0.20653642654E+03  0.25500000920E-02 0. -1.
        2   -1    0    0  501    0  0.00000000000E+00  0.00000000000E+00 -0.26888429607E+04  0.26888429607E+04  0.25500000920E-02 0.  1.
    10030    2    1    2    0    0  0.00000000000E+00  0.00000000000E+00 -0.24823065342E+04  0.28953793873E+04  0.14904281487E+04 0.  0.
        3    1    3    3  502    0  0.32756441524E+03 -0.41672621541E+03 -0.22587471224E+04  0.23201072729E+04  0.10100000352E+00 0.  1.
       -3    1    3    3    0  502 -0.32756441524E+03  0.41672621541E+03 -0.22355941180E+03  0.57527211435E+03  0.10100000352E+00 0. -1.
</event>
<event>
 5   0  0.1219810E-04  0.1498771E+04  0.7818609E-02  0.8885270E-01
       -2   -1    0    0    0  501  0.00000000000E+00  0.00000000000E+00  0.17921511626E+04  0.17921511626E+04  0.25500000920E-02 0.  1.
        2   -1    0    0  501    0  0.00000000000E+00  0.00000000000E+00 -0.31335464198E+03  0.31335464199E+03  0.25500000920E-02 0. -1.
    10030    2    1    2    0    0  0.00000000000E+00  0.00000000000E+00  0.14787965206E+04  0.21055058046E+04  0.14987713447E+04 0.  0.
        1    1    3    3  502    0  0.47762604707E+03  0.56329954376E+03  0.56089268903E+03  0.92737997901E+03  0.50400001928E-02 0.  1.
       -1    1    3    3    0  502 -0.47762604707E+03 -0.56329954376E+03  0.91790383157E+03  0.11781258256E+04  0.50400001928E-02 0. -1.
</event>
<event>
 5   0  0.1216921E-04  0.1498081E+04  0.7818609E-02  0.8885730E-01
       -2   -1    0    0    0  501  0.00000000000E+00  0.00000000000E+00  0.85536203835E+03  0.85536203836E+03  0.25500000920E-02 0.  1.
        2   -1    0    0  501    0  0.00000000000E+00  0.00000000000E+00 -0.65593487011E+03  0.65593487011E+03  0.25500000920E-02 0. -1.
    10030    2    1    2    0    0  0.00000000000E+00  0.00000000000E+00  0.19942716825E+03  0.15112969085E+04  0.14980811560E+04 0.  0.
        4    1    3    3  502    0  0.17078581283E+03 -0.72822504796E+03  0.59605333166E+02  0.75035586423E+03  0.12699999809E+01 0.  1.
       -4    1    3    3    0  502 -0.17078581283E+03  0.72822504796E+03  0.13982183508E+03  0.76094104424E+03  0.12699999809E+01 0. -1.
</event>
<event>
 5   0  0.6361716E-05  0.1496502E+04  0.7818609E-02  0.8886782E-01
       -1   -1    0    0    0  501  0.00000000000E+00  0.00000000000E+00  0.31276301052E+03  0.31276301056E+03  0.50400001928E-02 0.  1.
        1   -1    0    0  501    0  0.00000000000E+00  0.00000000000E+00 -0.17901083258E+04  0.17901083258E+04  0.50400001928E-02 0. -1.
    10030    2    1    2    0    0  0.00000000000E+00  0.00000000000E+00 -0.14773453153E+04  0.21028713363E+04  0.14965021472E+04 0.  0.
        3    1    3    3  502    0  0.38739639817E+03 -0.60452644036E+03 -0.10346029198E+04  0.12593376824E+04  0.10100000352E+00 0. -1.
       -3    1    3    3    0  502 -0.38739639817E+03  0.60452644036E+03 -0.44274239545E+03  0.84353365395E+03  0.10100000352E+00 0.  1.
</event>
<event>
 5   0  0.6668433E-05  0.1502252E+04  0.7818609E-02  0.8882957E-01
       -1   -1    0    0    0  501  0.00000000000E+00  0.00000000000E+00  0.58278789366E+03  0.58278789368E+03  0.50400001928E-02 0. -1.
        1   -1    0    0  501    0  0.00000000000E+00  0.00000000000E+00 -0.96808821156E+03  0.96808821158E+03  0.50400001928E-02 0.  1.
    10030    2    1    2    0    0  0.00000000000E+00  0.00000000000E+00 -0.38530031791E+03  0.15508761053E+04  0.15022517628E+04 0.  0.
        1    1    3    3  502    0 -0.65743181738E+03  0.32589591328E+03 -0.35836156272E+03  0.81660746412E+03  0.50400001928E-02 0. -1.
       -1    1    3    3    0  502  0.65743181738E+03 -0.32589591328E+03 -0.26938755189E+02  0.73426864113E+03  0.50400001928E-02 0.  1.
</event>
<event>
 5   0  0.6542036E-05  0.1501045E+04  0.7818609E-02  0.8883759E-01
       -1   -1    0    0    0  501  0.00000000000E+00  0.00000000000E+00  0.61358612014E+03  0.61358612016E+03  0.50400001928E-02 0.  1.
        1   -1    0    0  501    0  0.00000000000E+00  0.00000000000E+00 -0.91801908586E+03  0.91801908588E+03  0.50400001928E-02 0. -1.
    10030    2    1    2    0    0  0.00000000000E+00  0.00000000000E+00 -0.30443296572E+03  0.15316052060E+04  0.15010446617E+04 0.  0.
        4    1    3    3  502    0  0.72459651615E+02 -0.43551645231E+03  0.46706456071E+03  0.64270980863E+03  0.12699999809E+01 0.  1.
       -4    1    3    3    0  502 -0.72459651615E+02  0.43551645231E+03 -0.77149752643E+03  0.88889539741E+03  0.12699999809E+01 0. -1.
</event>
<event>
 5   0  0.1219810E-04  0.1503110E+04  0.7818609E-02  0.8882387E-01
        2   -1    0    0  501    0  0.00000000000E+00  0.00000000000E+00  0.79562669002E+03  0.79562669003E+03  0.25500000920E-02 0.  1.
       -2   -1    0    0    0  501  0.00000000000E+00  0.00000000000E+00 -0.70992486481E+03  0.70992486482E+03  0.25500000920E-02 0. -1.
    10030    2    1    2    0    0  0.00000000000E+00  0.00000000000E+00  0.85701825209E+02  0.15055515548E+04  0.15031103358E+04 0.  0.
        1    1    3    3  502    0 -0.18525408891E+03 -0.70822395252E+03 -0.12752804556E+03  0.74307714728E+03  0.50400001928E-02 0. -1.
       -1    1    3    3    0  502  0.18525408891E+03  0.70822395252E+03  0.21322987077E+03  0.76247440757E+03  0.50400001928E-02 0.  1.
</event>
<event>
 5   0  0.1216921E-04  0.1499827E+04  0.7818609E-02  0.8884568E-01
        2   -1    0    0  501    0  0.00000000000E+00  0.00000000000E+00  0.14685681206E+04  0.14685681206E+04  0.25500000920E-02 0.  1.
       -2   -1    0    0    0  501  0.00000000000E+00  0.00000000000E+00 -0.38293770882E+03  0.38293770883E+03  0.25500000920E-02 0. -1.
    10030    2    1    2    0    0  0.00000000000E+00  0.00000000000E+00  0.10856304117E+04  0.18515058294E+04  0.14998268051E+04 0.  0.
        4    1    3    3  502    0 -0.34015777179E+03  0.64218681015E+03  0.31432874424E+03  0.79177988179E+03  0.12699999809E+01 0. -1.
       -4    1    3    3    0  502  0.34015777179E+03 -0.64218681015E+03  0.77130166750E+03  0.10597259476E+04  0.12699999809E+01 0.  1.
</event>
<event>
 5   0  0.6364378E-05  0.1522841E+04  0.7818609E-02  0.8869405E-01
        1   -1    0    0  501    0  0.00000000000E+00  0.00000000000E+00  0.19774184149E+04  0.19774184149E+04  0.50400001928E-02 0. -1.
       -1   -1    0    0    0  501  0.00000000000E+00  0.00000000000E+00 -0.29319088915E+03  0.29319088920E+03  0.50400001928E-02 0.  1.
    10030    2    1    2    0    0  0.00000000000E+00  0.00000000000E+00  0.16842275257E+04  0.22706093041E+04  0.15228408497E+04 0.  0.
        5    1    3    3  502    0 -0.28327914045E+03 -0.23203084591E+03 -0.15326093967E+03  0.39698411869E+03  0.46999998093E+01 0.  1.
       -5    1    3    3    0  502  0.28327914045E+03  0.23203084591E+03  0.18374884654E+04  0.18736251854E+04  0.46999998093E+01 0. -1.
</event>
<event>
 5   0  0.1219810E-04  0.1502384E+04  0.7818609E-02  0.8882869E-01
        2   -1    0    0  501    0  0.00000000000E+00  0.00000000000E+00  0.84391238045E+03  0.84391238045E+03  0.25500000920E-02 0. -1.
       -2   -1    0    0    0  501  0.00000000000E+00  0.00000000000E+00 -0.66865868012E+03  0.66865868012E+03  0.25500000920E-02 0.  1.
    10030    2    1    2    0    0  0.00000000000E+00  0.00000000000E+00  0.17525370033E+03  0.15125710606E+04  0.15023838903E+04 0.  0.
        1    1    3    3  502    0  0.29147706661E+02 -0.73262223230E+03 -0.76896065685E+02  0.73722312023E+03  0.50400001928E-02 0.  1.
       -1    1    3    3    0  502 -0.29147706661E+02  0.73262223230E+03  0.25214976602E+03  0.77534794034E+03  0.50400001928E-02 0. -1.
</event>
<event>
 5   0  0.6361716E-05  0.1498479E+04  0.7818609E-02  0.8885465E-01
       -1   -1    0    0    0  501  0.00000000000E+00  0.00000000000E+00  0.11674768180E+04  0.11674768180E+04  0.50400001928E-02 0. -1.
        1   -1    0    0  501    0  0.00000000000E+00  0.00000000000E+00 -0.48083167117E+03  0.48083167120E+03  0.50400001928E-02 0.  1.
    10030    2    1    2    0    0  0.00000000000E+00  0.00000000000E+00  0.68664514679E+03  0.16483084892E+04  0.14984790015E+04 0.  0.
        3    1    3    3  502    0 -0.47923631469E+03  0.28138117771E+03  0.89607817228E+03  0.10544187563E+04  0.10100000352E+00 0. -1.
       -3    1    3    3    0  502  0.47923631469E+03 -0.28138117771E+03 -0.20943302550E+03  0.59388973291E+03  0.10100000352E+00 0.  1.
</event>
<event>
 5   0  0.4462875E-05  0.1497695E+04  0.7818609E-02  0.8885987E-01
       -3   -1    0    0    0  501  0.00000000000E+00  0.00000000000E+00  0.10821002306E+04  0.10821002353E+04  0.10100000352E+00 0.  1.
        3   -1    0    0  501    0  0.00000000000E+00  0.00000000000E+00 -0.51822610706E+03  0.51822611690E+03  0.10100000352E+00 0. -1.
    10030    2    1    2    0    0  0.00000000000E+00  0.00000000000E+00  0.56387412356E+03  0.16003263522E+04  0.14976950312E+04 0.  0.
        4    1    3    3  502    0  0.17386729889E+03  0.21348572029E+03  0.10260525863E+04  0.10623518782E+04  0.12699999809E+01 0.  1.
       -4    1    3    3    0  502 -0.17386729889E+03 -0.21348572029E+03 -0.46217846273E+03  0.53797447403E+03  0.12699999809E+01 0. -1.
</event>
<event>
 5   0  0.6364378E-05  0.1501201E+04  0.7818609E-02  0.8883655E-01
        1   -1    0    0  501    0  0.00000000000E+00  0.00000000000E+00  0.11550183518E+04  0.11550183518E+04  0.50400001928E-02 0.  1.
       -1   -1    0    0    0  501  0.00000000000E+00  0.00000000000E+00 -0.48778536663E+03  0.48778536666E+03  0.50400001928E-02 0. -1.
    10030    2    1    2    0    0  0.00000000000E+00  0.00000000000E+00  0.66723298518E+03  0.16428037185E+04  0.15012009196E+04 0.  0.
        5    1    3    3  502    0 -0.25293886836E+03  0.69552571465E+03  0.19673875259E+03  0.76580827734E+03  0.46999998093E+01 0.  1.
       -5    1    3    3    0  502  0.25293886836E+03 -0.69552571465E+03  0.47049423259E+03  0.87699544114E+03  0.46999998093E+01 0. -1.
</event>
<event>
 5   0  0.4462875E-05  0.1496936E+04  0.7818609E-02  0.8886493E-01
        4   -1    0    0  501    0  0.00000000000E+00  0.00000000000E+00  0.75515950447E+03  0.75516057239E+03  0.12699999809E+01 0. -1.
       -4   -1    0    0    0  501  0.00000000000E+00  0.00000000000E+00 -0.74183328604E+03  0.74183437314E+03  0.12699999809E+01 0.  1.
    10030    2    1    2    0    0  0.00000000000E+00  0.00000000000E+00  0.13326218437E+02  0.14969949455E+04  0.14969356295E+04 0.  0.
        3    1    3    3  502    0 -0.27991934788E+03  0.22386544761E+03 -0.65042721569E+03  0.74264806811E+03  0.10100000352E+00 0.  1.
       -3    1    3    3    0  502  0.27991934788E+03 -0.22386544761E+03  0.66375343413E+03  0.75434687742E+03  0.10100000352E+00 0. -1.
</event>
<event>
 5   0  0.1254487E-04  0.1499689E+04  0.7818609E-02  0.8884660E-01
       -2   -1    0    0    0  501  0.00000000000E+00  0.00000000000E+00  0.73475377115E+03  0.73475377115E+03  0.25500000920E-02 0. -1.
        2   -1    0    0  501    0  0.00000000000E+00  0.00000000000E+00 -0.76524551734E+03  0.76524551734E+03  0.25500000920E-02 0.  1.
    10030    2    1    2    0    0  0.00000000000E+00  0.00000000000E+00 -0.30491746191E+02  0.14999992885E+04  0.14996893408E+04 0.  0.
        5    1    3    3  502    0  0.59952787810E+03  0.32408932977E+03 -0.32800422999E+03  0.75635734622E+03  0.46999998093E+01 0.  1.
       -5    1    3    3    0  502 -0.59952787810E+03 -0.32408932977E+03  0.29751248380E+03  0.74364194228E+03  0.46999998093E+01 0. -1.
</event>
<event>
 5   0  0.1216921E-04  0.1496971E+04  0.7818609E-02  0.8886469E-01
       -2   -1    0    0    0  501  0.00000000000E+00  0.00000000000E+00  0.44533392287E+03  0.44533392287E+03  0.25500000920E-02 0. -1.
        2   -1    0    0  501    0  0.00000000000E+00  0.00000000000E+00 -0.12580018871E+04  0.12580018872E+04  0.25500000920E-02 0.  1.
    10030    2    1    2    0    0  0.00000000000E+00  0.00000000000E+00 -0.81266796428E+03  0.17033358100E+04  0.14969714966E+04 0.  0.
        4    1    3    3  502    0  0.68417743071E+02  0.20722198380E+03 -0.12209991847E+04  0.12403477577E+04  0.12699999809E+01 0.  1.
       -4    1    3    3    0  502 -0.68417743071E+02 -0.20722198380E+03  0.40833122040E+03  0.46298805232E+03  0.12699999809E+01 0. -1.
</event>
<event>
 5   0  0.6668433E-05  0.1500319E+04  0.7818609E-02  0.8884241E-01
        1   -1    0    0  501    0  0.00000000000E+00  0.00000000000E+00  0.73194091989E+03  0.73194091991E+03  0.50400001928E-02 0.  1.
       -1   -1    0    0    0  501  0.00000000000E+00  0.00000000000E+00 -0.76883188767E+03  0.76883188769E+03  0.50400001928E-02 0. -1.
    10030    2    1    2    0    0  0.00000000000E+00  0.00000000000E+00 -0.36890967780E+02  0.15007728076E+04  0.15003193249E+04 0.  0.
        1    1    3    3  502    0 -0.39554847974E+03  0.29935022788E+03 -0.58135029046E+03  0.76422334366E+03  0.50400001928E-02 0. -1.
       -1    1    3    3    0  502  0.39554847974E+03 -0.29935022788E+03  0.54445932268E+03  0.73654946394E+03  0.50400001928E-02 0.  1.
</event>
<event>
 5   0  0.1254487E-04  0.1504096E+04  0.7818609E-02  0.8881734E-01
       -2   -1    0    0    0  501  0.00000000000E+00  0.00000000000E+00  0.59973019024E+03  0.59973019025E+03  0.25500000920E-02 0.  1.
        2   -1    0    0  501    0  0.00000000000E+00  0.00000000000E+00 -0.94305122449E+03  0.94305122449E+03  0.25500000920E-02 0. -1.
    10030    2    1    2    0    0  0.00000000000E+00  0.00000000000E+00 -0.34332103425E+03  0.15427814147E+04  0.15040961276E+04 0.  0.
        5    1    3    3  502    0  0.47298525828E+03  0.21824363484E+03  0.38470048421E+03  0.64758157111E+03  0.46999998093E+01 0. -1.
       -5    1    3    3    0  502 -0.47298525828E+03 -0.21824363484E+03 -0.72802151846E+03  0.89519984363E+03  0.46999998093E+01 0.  1.
</event>
<event>
 5   0  0.6364378E-05  0.1502530E+04  0.7818609E-02  0.8882773E-01
        1   -1    0    0  501    0  0.00000000000E+00  0.00000000000E+00  0.10775553496E+04  0.10775553496E+04  0.50400001928E-02 0. -1.
       -1   -1    0    0    0  501  0.00000000000E+00  0.00000000000E+00 -0.52377704677E+03  0.52377704679E+03  0.50400001928E-02 0.  1.
    10030    2    1    2    0    0  0.00000000000E+00  0.00000000000E+00  0.55377830285E+03  0.16013323964E+04  0.15025295455E+04 0.  0.
        5    1    3    3  502    0 -0.31581020887E+03  0.53781471327E+03 -0.16945331235E+03  0.64631050502E+03  0.46999998093E+01 0.  1.
       -5    1    3    3    0  502  0.31581020887E+03 -0.53781471327E+03  0.72323161519E+03  0.95502189140E+03  0.46999998093E+01 0. -1.
</event>
<event>
 5   0  0.1186664E-04  0.1497979E+04  0.7818609E-02  0.8885798E-01
        2   -1    0    0  501    0  0.00000000000E+00  0.00000000000E+00  0.97051102861E+03  0.97051102861E+03  0.25500000920E-02 0. -1.
       -2   -1    0    0    0  501  0.00000000000E+00  0.00000000000E+00 -0.57803049169E+03  0.57803049169E+03  0.25500000920E-02 0.  1.
    10030    2    1    2    0    0  0.00000000000E+00  0.00000000000E+00  0.39248053692E+03  0.15485415203E+04  0.14979785941E+04 0.  0.
        3    1    3    3  502    0 -0.71142393008E+02  0.25632534885E+02 -0.57407420446E+03  0.57903321956E+03  0.10100000352E+00 0.  1.
       -3    1    3    3    0  502  0.71142393008E+02 -0.25632534885E+02  0.96655474138E+03  0.96950830074E+03  0.10100000352E+00 0. -1.
</event>
<event>
 5   0  0.1254487E-04  0.1507569E+04  0.7818609E-02  0.8879435E-01
        2   -1    0    0  501    0  0.00000000000E+00  0.00000000000E+00  0.16427376991E+04  0.16427376991E+04  0.25500000920E-02 0. -1.
       -2   -1    0    0    0  501  0.00000000000E+00  0.00000000000E+00 -0.34588041106E+03  0.34588041107E+03  0.25500000920E-02 0.  1.
    10030    2    1    2    0    0  0.00000000000E+00  0.00000000000E+00  0.12968572880E+04  0.19886181102E+04  0.15075686261E+04 0.  0.
        5    1    3    3  502    0  0.83409227813E+02 -0.67079149528E+03  0.10884006390E+04  0.12812323640E+04  0.46999998093E+01 0. -1.
       -5    1    3    3    0  502 -0.83409227813E+02  0.67079149528E+03  0.20845664900E+03  0.70738574620E+03  0.46999998093E+01 0.  1.
</event>
<event>
 5   0  0.6542036E-05  0.1502882E+04  0.7818609E-02  0.8882539E-01
        1   -1    0    0  501    0  0.00000000000E+00  0.00000000000E+00  0.94867262069E+03  0.94867262070E+03  0.50400001928E-02 0.  1.
       -1   -1    0    0    0  501  0.00000000000E+00  0.00000000000E+00 -0.59521398297E+03  0.59521398299E+03  0.50400001928E-02 0. -1.
    10030    2    1    2    0    0  0.00000000000E+00  0.00000000000E+00  0.35345863772E+03  0.15438866037E+04  0.15028815111E+04 0.  0.
        4    1    3    3  502    0  0.34538536905E+03  0.55229746598E+03  0.56156770024E+03  0.86004850963E+03  0.12699999809E+01 0.  1.
       -4    1    3    3    0  502 -0.34538536905E+03 -0.55229746598E+03 -0.20810906251E+03  0.68383809405E+03  0.12699999809E+01 0. -1.
</event>
<event>
 5   0  0.1186664E-04  0.1500521E+04  0.7818609E-02  0.8884107E-01
       -2   -1    0    0    0  501  0.00000000000E+00  0.00000000000E+00  0.11940234321E+04  0.11940234321E+04  0.25500000920E-02 0. -1.
        2   -1    0    0  501    0  0.00000000000E+00  0.00000000000E+00 -0.47142339822E+03  0.47142339822E+03  0.25500000920E-02 0.  1.
    10030    2    1    2    0    0  0.00000000000E+00  0.00000000000E+00  0.72260003390E+03  0.16654468303E+04  0.15005206882E+04 0.  0.
        3    1    3    3  502    0 -0.47351433106E+03  0.26090633845E+03 -0.21607075509E+03  0.58221518408E+03  0.10100000352E+00 0.  1.
       -3    1    3    3    0  502  0.47351433106E+03 -0.26090633845E+03  0.93867078900E+03  0.10832316463E+04  0.10100000352E+00 0. -1.
</event>
<event>
 5   0  0.1228286E-04  0.1501481E+04  0.7818609E-02  0.8883469E-01
       -2   -1    0    0    0  501  0.00000000000E+00  0.00000000000E+00  0.29155096752E+03  0.29155096753E+03  0.25500000920E-02 0.  1.
        2   -1    0    0  501    0  0.00000000000E+00  0.00000000000E+00 -0.19331476097E+04  0.19331476097E+04  0.25500000920E-02 0. -1.
    10030    2    1    2    0    0  0.00000000000E+00  0.00000000000E+00 -0.16415966422E+04  0.22246985773E+04  0.15014806772E+04 0.  0.
        2    1    3    3  502    0 -0.62707674780E+03  0.32376013791E+02 -0.21108156228E+03  0.66244160486E+03  0.25500000920E-02 0. -1.
       -2    1    3    3    0  502  0.62707674780E+03 -0.32376013791E+02 -0.14305150799E+04  0.15622569724E+04  0.25500000920E-02 0.  1.
</event>
<event>
 5   0  0.1216921E-04  0.1500224E+04  0.7818609E-02  0.8884304E-01
        2   -1    0    0  501    0  0.00000000000E+00  0.00000000000E+00  0.93836544923E+03  0.93836544924E+03  0.25500000920E-02 0.  1.
       -2   -1    0    0    0  501  0.00000000000E+00  0.00000000000E+00 -0.59962556939E+03  0.59962556940E+03  0.25500000920E-02 0. -1.
    10030    2    1    2    0    0  0.00000000000E+00  0.00000000000E+00  0.33873987984E+03  0.15379910186E+04  0.15002238724E+04 0.  0.
        4    1    3    3  502    0 -0.28119481031E+03  0.47783682821E+03 -0.34858943856E+03  0.65491584598E+03  0.12699999809E+01 0. -1.
       -4    1    3    3    0  502  0.28119481031E+03 -0.47783682821E+03  0.68732931840E+03  0.88307517266E+03  0.12699999809E+01 0.  1.
</event>
<event>
 5   0  0.1254487E-04  0.1493062E+04  0.7818609E-02  0.8889080E-01
       -2   -1    0    0    0  501  0.00000000000E+00  0.00000000000E+00  0.24785233987E+03  0.24785233989E+03  0.25500000920E-02 0. -1.
        2   -1    0    0  501    0  0.00000000000E+00  0.00000000000E+00 -0.22485502110E+04  0.22485502110E+04  0.25500000920E-02 0.  1.
    10030    2    1    2    0    0  0.00000000000E+00  0.00000000000E+00 -0.20006978711E+04  0.24964025509E+04  0.14930618623E+04 0.  0.
        5    1    3    3  502    0  0.53075434609E+03 -0.44933152056E+03 -0.14542208236E+04  0.16119489090E+04  0.46999998093E+01 0.  1.
       -5    1    3    3    0  502 -0.53075434609E+03  0.44933152056E+03 -0.54647704751E+03  0.88445364193E+03  0.46999998093E+01 0. -1.
</event>
<event>
 5   0  0.1219810E-04  0.1500096E+04  0.7818609E-02  0.8884389E-01
       -2   -1    0    0    0  501  0.00000000000E+00  0.00000000000E+00  0.39280108860E+03  0.39280108861E+03  0.25500000920E-02 0. -1.
        2   -1    0    0  501    0  0.00000000000E+00  0.00000000000E+00 -0.14322065624E+04  0.14322065624E+04  0.25500000920E-02 0.  1.
    10030    2    1    2    0    0  0.00000000000E+00  0.00000000000E+00 -0.10394054738E+04  0.18250076511E+04  0.15000963927E+04 0.  0.
        1    1    3    3  502    0 -0.71636382621E+02 -0.62161874865E+03 -0.10228353910E+04  0.11990554103E+04  0.50400001928E-02 0.  1.
       -1    1    3    3    0  502  0.71636382621E+02  0.62161874865E+03 -0.16570082846E+02  0.62595224071E+03  0.50400001928E-02 0. -1.
</event>
<event>
 5   0  0.1219810E-04  0.1496277E+04  0.7818609E-02  0.8886932E-01
       -2   -1    0    0    0  501  0.00000000000E+00  0.00000000000E+00  0.25613933819E+03  0.25613933821E+03  0.25500000920E-02 0.  1.
        2   -1    0    0  501    0  0.00000000000E+00  0.00000000000E+00 -0.21851833712E+04  0.21851833712E+04  0.25500000920E-02 0. -1.
    10030    2    1    2    0    0  0.00000000000E+00  0.00000000000E+00 -0.19290440330E+04  0.24413227094E+04  0.14962772772E+04 0.  0.
        1    1    3    3  502    0  0.59269285192E+03 -0.38634755338E+03 -0.13613800461E+04  0.15342440740E+04  0.50400001928E-02 0. -1.
       -1    1    3    3    0  502 -0.59269285192E+03  0.38634755338E+03 -0.56766398690E+03  0.90707863539E+03  0.50400001928E-02 0.  1.
</event>
<event>
 5   0  0.6668433E-05  0.1498243E+04  0.7818609E-02  0.8885622E-01
       -1   -1    0    0    0  501  0.00000000000E+00  0.00000000000E+00  0.88490127604E+03  0.88490127606E+03  0.50400001928E-02 0.  1.
        1   -1    0    0  501    0  0.00000000000E+00  0.00000000000E+00 -0.63417583547E+03  0.63417583549E+03  0.50400001928E-02 0. -1.
    10030    2    1    2    0    0  0.00000000000E+00  0.00000000000E+00  0.25072544057E+03  0.15190771115E+04  0.14982429791E+04 0.  0.
        1    1    3    3  502    0 -0.11297692764E+03  0.70243797246E+03 -0.11241949376E+03  0.72029232534E+03  0.50400001928E-02 0.  1.
       -1    1    3    3    0  502  0.11297692764E+03 -0.70243797246E+03  0.36314493432E+03  0.79878478621E+03  0.50400001928E-02 0. -1.
</event>
<event>
 5   0  0.6509279E-05  0.1501359E+04  0.7818609E-02  0.8883549E-01
       -1   -1    0    0    0  501  0.00000000000E+00  0.00000000000E+00  0.94645173894E+03  0.94645173896E+03  0.50400001928E-02 0.  1.
        1   -1    0    0  501    0  0.00000000000E+00  0.00000000000E+00 -0.59540275720E+03  0.59540275722E+03  0.50400001928E-02 0. -1.
    10030    2    1    2    0    0  0.00000000000E+00  0.00000000000E+00  0.35104898175E+03  0.15418544962E+04  0.15013593507E+04 0.  0.
        2    1    3    3  502    0 -0.38910452943E+03  0.35907269659E+03 -0.37097961701E+03  0.64649935229E+03  0.25500000920E-02 0. -1.
       -2    1    3    3    0  502  0.38910452943E+03 -0.35907269659E+03  0.72202859875E+03  0.89535514389E+03  0.25500000920E-02 0.  1.
</event>
<event>
 5   0  0.1219810E-04  0.1501188E+04  0.7818609E-02  0.8883663E-01
       -2   -1    0    0    0  501  0.00000000000E+00  0.00000000000E+00  0.19399528560E+04  0.19399528560E+04  0.25500000920E-02 0.  1.
        2   -1    0    0  501    0  0.00000000000E+00  0.00000000000E+00 -0.29041493328E+03  0.29041493329E+03  0.25500000920E-02 0. -1.
    10030    2    1    2    0    0  0.00000000000E+00  0.00000000000E+00  0.16495379228E+04  0.22303677893E+04  0.15011879020E+04 0.  0.
        1    1    3    3  502    0 -0.29674141512E+02  0.29319151720E+03 -0.20087214617E+03  0.35663908867E+03  0.50400001928E-02 0. -1.
       -1    1    3    3    0  502  0.29674141512E+02 -0.29319151720E+03  0.18504100689E+04  0.18737287007E+04  0.50400001928E-02 0.  1.
</event>
<event>
 5   0  0.6364378E-05  0.1499504E+04  0.7818609E-02  0.8884783E-01
       -1   -1    0    0    0  501  0.00000000000E+00  0.00000000000E+00  0.76709920434E+03  0.76709920436E+03  0.50400001928E-02 0. -1.
        1   -1    0    0  501    0  0.00000000000E+00  0.00000000000E+00 -0.73279698216E+03  0.73279698218E+03  0.50400001928E-02 0.  1.
    10030    2    1    2    0    0  0.00000000000E+00  0.00000000000E+00  0.34302222180E+02  0.14998961865E+04  0.14995038939E+04 0.  0.
        5    1    3    3  502    0  0.39014481687E+03  0.53935688521E+03  0.36218637010E+03  0.75783895680E+03  0.46999998093E+01 0. -1.
       -5    1    3    3    0  502 -0.39014481687E+03 -0.53935688521E+03 -0.32788414792E+03  0.74205722974E+03  0.46999998093E+01 0.  1.
</event>
<event>
 5   0  0.1254487E-04  0.1503679E+04  0.7818609E-02  0.8882010E-01
       -2   -1    0    0    0  501  0.00000000000E+00  0.00000000000E+00  0.49881975263E+03  0.49881975263E+03  0.25500000920E-02 0. -1.
        2   -1    0    0  501    0  0.00000000000E+00  0.00000000000E+00 -0.11331998441E+04  0.11331998441E+04  0.25500000920E-02 0.  1.
    10030    2    1    2    0    0  0.00000000000E+00  0.00000000000E+00 -0.63438009152E+03  0.16320195968E+04  0.15036787768E+04 0.  0.
        5    1    3    3  502    0 -0.45452538956E+03 -0.94383315369E+02 -0.95905287988E+03  0.10655074173E+04  0.46999998093E+01 0.  1.
       -5    1    3    3    0  502  0.45452538956E+03  0.94383315369E+02  0.32467278836E+03  0.56651217946E+03  0.46999998093E+01 0. -1.
</event>
<event>
 5   0  0.6361716E-05  0.1499280E+04  0.7818609E-02  0.8884932E-01
       -1   -1    0    0    0  501  0.00000000000E+00  0.00000000000E+00  0.60895071476E+03  0.60895071478E+03  0.50400001928E-02 0.  1.
        1   -1    0    0  501    0  0.00000000000E+00  0.00000000000E+00 -0.92283303551E+03  0.92283303552E+03  0.50400001928E-02 0. -1.
    10030    2    1    2    0    0  0.00000000000E+00  0.00000000000E+00 -0.31388232075E+03  0.15317837503E+04  0.14992796091E+04 0.  0.
        3    1    3    3  502    0  0.16848109797E+03  0.67293733635E+03 -0.44723002919E+03  0.82537582242E+03  0.10100000352E+00 0.  1.
       -3    1    3    3    0  502 -0.16848109797E+03 -0.67293733635E+03  0.13334770844E+03  0.70640792788E+03  0.10100000352E+00 0. -1.
</event>
<event>
 5   0  0.1228286E-04  0.1456977E+04  0.7818609E-02  0.8913577E-01
        2   -1    0    0  501    0  0.00000000000E+00  0.00000000000E+00  0.11501846640E+04  0.11501846640E+04  0.25500000920E-02 0. -1.
       -2   -1    0    0    0  501  0.00000000000E+00  0.00000000000E+00 -0.46140050874E+03  0.46140050874E+03  0.25500000920E-02 0.  1.
    10030    2    1    2    0    0  0.00000000000E+00  0.00000000000E+00  0.68878415531E+03  0.16115851728E+04  0.14569774043E+04 0.  0.
        2    1    3    3  502    0 -0.40413563025E+01 -0.49614427984E+03 -0.24561481233E+03  0.55362633158E+03  0.25500000920E-02 0.  1.
       -2    1    3    3    0  502  0.40413563025E+01  0.49614427984E+03  0.93439896764E+03  0.10579588412E+04  0.25500000920E-02 0. -1.
</event>
<event>
 5   0  0.6542036E-05  0.1503602E+04  0.7818609E-02  0.8882061E-01
       -1   -1    0    0    0  501  0.00000000000E+00  0.00000000000E+00  0.66823344363E+03  0.66823344365E+03  0.50400001928E-02 0. -1.
        1   -1    0    0  501    0  0.00000000000E+00  0.00000000000E+00 -0.84581910976E+03  0.84581910977E+03  0.50400001928E-02 0.  1.
    10030    2    1    2    0    0  0.00000000000E+00  0.00000000000E+00 -0.17758566613E+03  0.15140525534E+04  0.15036018308E+04 0.  0.
        4    1    3    3  502    0 -0.37178842615E+03  0.40826417411E+03 -0.60253174724E+03  0.81728354260E+03  0.12699999809E+01 0.  1.
       -4    1    3    3    0  502  0.37178842615E+03 -0.40826417411E+03  0.42494608111E+03  0.69676901082E+03  0.12699999809E+01 0. -1.
</event>
<event>
 5   0  0.6364378E-05  0.1476784E+04  0.7818609E-02  0.8900039E-01
       -1   -1    0    0    0  501  0.00000000000E+00  0.00000000000E+00  0.40091264302E+03  0.40091264305E+03  0.50400001928E-02 0.  1.
        1   -1    0    0  501    0  0.00000000000E+00  0.00000000000E+00 -0.13599546863E+04  0.13599546863E+04  0.50400001928E-02 0. -1.
    10030    2    1    2    0    0  0.00000000000E+00  0.00000000000E+00 -0.95904204330E+03  0.17608673294E+04  0.14767843820E+04 0.  0.
        5    1    3    3  502    0 -0.24876891067E+03 -0.32110678812E+02 -0.13075793206E+04  0.13314288702E+04  0.46999998093E+01 0. -1.
       -5    1    3    3    0  502  0.24876891067E+03  0.32110678812E+02  0.34853727730E+03  0.42943845924E+03  0.46999998093E+01 0.  1.
</event>
<event>
 5   0  0.6361716E-05  0.1497158E+04  0.7818609E-02  0.8886345E-01
        1   -1    0    0  501    0  0.00000000000E+00  0.00000000000E+00  0.11689988665E+04  0.11689988665E+04  0.50400001928E-02 0.  1.
       -1   -1    0    0    0  501  0.00000000000E+00  0.00000000000E+00 -0.47935945470E+03  0.47935945472E+03  0.50400001928E-02 0. -1.
    10030    2    1    2    0    0  0.00000000000E+00  0.00000000000E+00  0.68963941176E+03  0.16483583212E+04  0.14971581870E+04 0.  0.
        3    1    3    3  502    0  0.44947251991E+03 -0.27914031727E+03 -0.23821298743E+03  0.58025020505E+03  0.10100000352E+00 0. -1.
       -3    1    3    3    0  502 -0.44947251991E+03  0.27914031727E+03  0.92785239919E+03  0.10681081161E+04  0.10100000352E+00 0.  1.
</event>
<event>
 5   0  0.6509279E-05  0.1497927E+04  0.7818609E-02  0.8885833E-01
        1   -1    0    0  501    0  0.00000000000E+00  0.00000000000E+00  0.65893263901E+03  0.65893263903E+03  0.50400001928E-02 0.  1.
       -1   -1    0    0    0  501  0.00000000000E+00  0.00000000000E+00 -0.85129530534E+03  0.85129530536E+03  0.50400001928E-02 0. -1.
    10030    2    1    2    0    0  0.00000000000E+00  0.00000000000E+00 -0.19236266633E+03  0.15102279444E+04  0.14979269170E+04 0.  0.
        2    1    3    3  502    0 -0.85731817430E+02 -0.36724819180E+03 -0.74858495871E+03  0.83821275301E+03  0.25500000920E-02 0. -1.
       -2    1    3    3    0  502  0.85731817430E+02  0.36724819180E+03  0.55622229237E+03  0.67201519137E+03  0.25500000920E-02 0.  1.
</event>
<event>
 5   0  0.1186664E-04  0.1498181E+04  0.7818609E-02  0.8885664E-01
       -2   -1    0    0    0  501  0.00000000000E+00  0.00000000000E+00  0.35373481370E+03  0.35373481371E+03  0.25500000920E-02 0.  1.
        2   -1    0    0  501    0  0.00000000000E+00  0.00000000000E+00 -0.15863188888E+04  0.15863188888E+04  0.25500000920E-02 0. -1.
    10030    2    1    2    0    0  0.00000000000E+00  0.00000000000E+00 -0.12325840751E+04  0.19400537025E+04  0.14981805186E+04 0.  0.
        3    1    3    3  502    0 -0.37280805196E+03  0.37371383549E+02 -0.14562616987E+04  0.15036890002E+04  0.10100000352E+00 0. -1.
       -3    1    3    3    0  502  0.37280805196E+03 -0.37371383549E+02  0.22367762363E+03  0.43636470232E+03  0.10100000352E+00 0.  1.
</event>
<event>
 5   0  0.1219810E-04  0.1498914E+04  0.7818609E-02  0.8885175E-01
       -2   -1    0    0    0  501  0.00000000000E+00  0.00000000000E+00  0.35020452973E+03  0.35020452974E+03  0.25500000920E-02 0.  1.
        2   -1    0    0  501    0  0.00000000000E+00  0.00000000000E+00 -0.16038797746E+04  0.16038797746E+04  0.25500000920E-02 0. -1.
    10030    2    1    2    0    0  0.00000000000E+00  0.00000000000E+00 -0.12536752448E+04  0.19540843043E+04  0.14989142233E+04 0.  0.
        1    1    3    3  502    0 -0.96670646396E+02 -0.65613074269E+03 -0.10818773720E+04  0.12689804622E+04  0.50400001928E-02 0. -1.
       -1    1    3    3    0  502  0.96670646396E+02  0.65613074269E+03 -0.17179787288E+03  0.68510384215E+03  0.50400001928E-02 0.  1.
</event>
<event>
 5   0  0.6509279E-05  0.1500214E+04  0.7818609E-02  0.8884310E-01
        1   -1    0    0  501    0  0.00000000000E+00  0.00000000000E+00  0.11296795893E+04  0.11296795894E+04  0.50400001928E-02 0. -1.
       -1   -1    0    0    0  501  0.00000000000E+00  0.00000000000E+00 -0.49807102396E+03  0.49807102398E+03  0.50400001928E-02 0.  1.
    10030    2    1    2    0    0  0.00000000000E+00  0.00000000000E+00  0.63160856539E+03  0.16277506133E+04  0.15002142112E+04 0.  0.
        2    1    3    3  502    0  0.13899330446E+03  0.26922756556E+03 -0.42872124312E+03  0.52498049969E+03  0.25500000920E-02 0.  1.
       -2    1    3    3    0  502 -0.13899330446E+03 -0.26922756556E+03  0.10603298085E+04  0.11027701137E+04  0.25500000920E-02 0. -1.
</event>
<event>
 5   0  0.6542036E-05  0.1497299E+04  0.7818609E-02  0.8886251E-01
        1   -1    0    0  501    0  0.00000000000E+00  0.00000000000E+00  0.98195999008E+03  0.98195999009E+03  0.50400001928E-02 0. -1.
       -1   -1    0    0    0  501  0.00000000000E+00  0.00000000000E+00 -0.57077288285E+03  0.57077288287E+03  0.50400001928E-02 0.  1.
    10030    2    1    2    0    0  0.00000000000E+00  0.00000000000E+00  0.41118710723E+03  0.15527328730E+04  0.14972990809E+04 0.  0.
        4    1    3    3  502    0  0.20861534948E+03  0.71304040060E+03  0.10983001425E+03  0.75100680546E+03  0.12699999809E+01 0. -1.
       -4    1    3    3    0  502 -0.20861534948E+03 -0.71304040060E+03  0.30135709297E+03  0.80172606750E+03  0.12699999809E+01 0.  1.
</event>
<event>
 5   0  0.6361716E-05  0.1500873E+04  0.7818609E-02  0.8883872E-01
        1   -1    0    0  501    0  0.00000000000E+00  0.00000000000E+00  0.12668360486E+04  0.12668360486E+04  0.50400001928E-02 0. -1.
       -1   -1    0    0    0  501  0.00000000000E+00  0.00000000000E+00 -0.44453668908E+03  0.44453668911E+03  0.50400001928E-02 0.  1.
    10030    2    1    2    0    0  0.00000000000E+00  0.00000000000E+00  0.82229935948E+03  0.17113727377E+04  0.15008732160E+04 0.  0.
        3    1    3    3  502    0  0.88375482770E+02  0.29238181237E+03  0.11927483209E+04  0.12312375552E+04  0.10100000352E+00 0. -1.
       -3    1    3    3    0  502 -0.88375482770E+02 -0.29238181237E+03 -0.37044896146E+03  0.48013518243E+03  0.10100000352E+00 0.  1.
</event>
<event>
 5   0  0.6542036E-05  0.1498522E+04  0.7818609E-02  0.8885436E-01
        1   -1    0    0  501    0  0.00000000000E+00  0.00000000000E+00  0.89634497384E+03  0.89634497385E+03  0.50400001928E-02 0.  1.
       -1   -1    0    0    0  501  0.00000000000E+00  0.00000000000E+00 -0.62631258876E+03  0.62631258878E+03  0.50400001928E-02 0. -1.
    10030    2    1    2    0    0  0.00000000000E+00  0.00000000000E+00  0.27003238508E+03  0.15226575626E+04  0.14985221266E+04 0.  0.
        4    1    3    3  502    0  0.18692710606E+03 -0.52317453441E+03 -0.37581059290E+03  0.67073731898E+03  0.12699999809E+01 0.  1.
       -4    1    3    3    0  502 -0.18692710606E+03  0.52317453441E+03  0.64584297798E+03  0.85192024365E+03  0.12699999809E+01 0. -1.
</event>
<event>
 5   0  0.1228286E-04  0.1500047E+04  0.7818609E-02  0.8884421E-01
       -2   -1    0    0    0  501  0.00000000000E+00  0.00000000000E+00  0.34104138732E+03  0.34104138733E+03  0.25500000920E-02 0.  1.
        2   -1    0    0  501    0  0.00000000000E+00  0.00000000000E+00 -0.16494639218E+04  0.16494639218E+04  0.25500000920E-02 0. -1.
    10030    2    1    2    0    0  0.00000000000E+00  0.00000000000E+00 -0.13084225345E+04  0.19905053092E+04  0.15000472849E+04 0.  0.
        2    1    3    3  502    0 -0.29584548526E+03  0.66477623525E+03 -0.41285203297E+03  0.83659954294E+03  0.25500000920E-02 0. -1.
       -2    1    3    3    0  502  0.29584548526E+03 -0.66477623525E+03 -0.89557050152E+03  0.11539057662E+04  0.25500000920E-02 0.  1.
</event>
<event>
 5   0  0.1219810E-04  0.1501218E+04  0.7818609E-02  0.8883643E-01
        2   -1    0    0  501    0  0.00000000000E+00  0.00000000000E+00  0.10535356689E+04  0.10535356689E+04  0.25500000920E-02 0. -1.
       -2   -1    0    0    0  501  0.00000000000E+00  0.00000000000E+00 -0.53478386057E+03  0.53478386058E+03  0.25500000920E-02 0.  1.
    10030    2    1    2    0    0  0.00000000000E+00  0.00000000000E+00  0.51875180836E+03  0.15883195295E+04  0.15012180019E+04 0.  0.
        1    1    3    3  502    0  0.53875012548E+03  0.29459243421E+03 -0.19738699509E+03  0.64497908947E+03  0.50400001928E-02 0.  1.
       -1    1    3    3    0  502 -0.53875012548E+03 -0.29459243421E+03  0.71613880346E+03  0.94334044005E+03  0.50400001928E-02 0. -1.
</event>
<event>
 5   0  0.6668433E-05  0.1501077E+04  0.7818609E-02  0.8883737E-01
        1   -1    0    0  501    0  0.00000000000E+00  0.00000000000E+00  0.17760058445E+04  0.17760058445E+04  0.50400001928E-02 0. -1.
       -1   -1    0    0    0  501  0.00000000000E+00  0.00000000000E+00 -0.31717685907E+03  0.31717685911E+03  0.50400001928E-02 0.  1.
    10030    2    1    2    0    0  0.00000000000E+00  0.00000000000E+00  0.14588289855E+04  0.20931827037E+04  0.15010768874E+04 0.  0.
        1    1    3    3  502    0  0.94348755133E+02  0.74143120145E+03  0.82487137820E+03  0.11131193578E+04  0.50400001928E-02 0.  1.
       -1    1    3    3    0  502 -0.94348755133E+02 -0.74143120145E+03  0.63395760727E+03  0.98006334587E+03  0.50400001928E-02 0. -1.
</event>
<event>
 5   0  0.1228286E-04  0.1503197E+04  0.7818609E-02  0.8882330E-01
       -2   -1    0    0    0  501  0.00000000000E+00  0.00000000000E+00  0.77973716676E+03  0.77973716676E+03  0.25500000920E-02 0. -1.
        2   -1    0    0  501    0  0.00000000000E+00  0.00000000000E+00 -0.72447535162E+03  0.72447535163E+03  0.25500000920E-02 0.  1.
    10030    2    1    2    0    0  0.00000000000E+00  0.00000000000E+00  0.55261815138E+02  0.15042125184E+04  0.15031970703E+04 0.  0.
        2    1    3    3  502    0 -0.53587349138E+03 -0.31654711922E+03  0.44926798420E+03  0.76759637771E+03  0.25500000920E-02 0. -1.
       -2    1    3    3    0  502  0.53587349138E+03  0.31654711922E+03 -0.39400616906E+03  0.73661614068E+03  0.25500000920E-02 0.  1.
</event>
<event>
 5   0  0.6361716E-05  0.1498996E+04  0.7818609E-02  0.8885121E-01
        1   -1    0    0  501    0  0.00000000000E+00  0.00000000000E+00  0.45767086121E+03  0.45767086124E+03  0.50400001928E-02 0.  1.
       -1   -1    0    0    0  501  0.00000000000E+00  0.00000000000E+00 -0.12274047168E+04  0.12274047168E+04  0.50400001928E-02 0. -1.
    10030    2    1    2    0    0  0.00000000000E+00  0.00000000000E+00 -0.76973385561E+03  0.16850755781E+04  0.14989961626E+04 0.  0.
        3    1    3    3  502    0 -0.47173137489E+03 -0.91452297935E+02 -0.10314683150E+04  0.11379019764E+04  0.10100000352E+00 0. -1.
       -3    1    3    3    0  502  0.47173137489E+03  0.91452297935E+02  0.26173445944E+03  0.54717360163E+03  0.10100000352E+00 0.  1.
</event>
<event>
 5   0  0.1219810E-04  0.1502198E+04  0.7818609E-02  0.8882993E-01
       -2   -1    0    0    0  501  0.00000000000E+00  0.00000000000E+00  0.51005590728E+03  0.51005590728E+03  0.25500000920E-02 0. -1.
        2   -1    0    0  501    0  0.00000000000E+00  0.00000000000E+00 -0.11060544280E+04  0.11060544280E+04  0.25500000920E-02 0.  1.
    10030    2    1    2    0    0  0.00000000000E+00  0.00000000000E+00 -0.59599852074E+03  0.16161103353E+04  0.15021978495E+04 0.  0.
        1    1    3    3  502    0 -0.73449388399E+03  0.14761391038E+03 -0.35571897402E+03  0.82934137763E+03  0.50400001928E-02 0. -1.
       -1    1    3    3    0  502  0.73449388399E+03 -0.14761391038E+03 -0.24027954672E+03  0.78676895767E+03  0.50400001928E-02 0.  1.
</event>
<event>
 5   0  0.6361716E-05  0.1499219E+04  0.7818609E-02  0.8884972E-01
       -1   -1    0    0    0  501  0.00000000000E+00  0.00000000000E+00  0.62587909474E+03  0.62587909476E+03  0.50400001928E-02 0.  1.
        1   -1    0    0  501    0  0.00000000000E+00  0.00000000000E+00 -0.89780025133E+03  0.89780025135E+03  0.50400001928E-02 0. -1.
    10030    2    1    2    0    0  0.00000000000E+00  0.00000000000E+00 -0.27192115659E+03  0.15236793461E+04  0.14992190081E+04 0.  0.
        3    1    3    3  502    0  0.11713396680E+02 -0.65601111644E+03  0.23248228902E+03  0.69608606757E+03  0.10100000352E+00 0.  1.
       -3    1    3    3    0  502 -0.11713396680E+02  0.65601111644E+03 -0.50440344561E+03  0.82759327855E+03  0.10100000352E+00 0. -1.
</event>
<event>
 5   0  0.4462875E-05  0.1506901E+04  0.7818609E-02  0.8879877E-01
       -4   -1    0    0    0  501  0.00000000000E+00  0.00000000000E+00  0.65542275258E+03  0.65542398301E+03  0.12699999809E+01 0.  1.
        4   -1    0    0  501    0  0.00000000000E+00  0.00000000000E+00 -0.86613694490E+03  0.86613787599E+03  0.12699999809E+01 0. -1.
    10030    2    1    2    0    0  0.00000000000E+00  0.00000000000E+00 -0.21071419232E+03  0.15215618590E+04  0.15069007996E+04 0.  0.
        2    1    3    3  502    0 -0.52348433668E+03  0.19635508303E+03  0.40462750157E+03  0.69015547844E+03  0.25500000920E-02 0.  1.
       -2    1    3    3    0  502  0.52348433668E+03 -0.19635508303E+03 -0.61534169390E+03  0.83140638056E+03  0.25500000920E-02 0. -1.
</event>
<event>
 5   0  0.1219810E-04  0.1490554E+04  0.7818609E-02  0.8890759E-01
        2   -1    0    0  501    0  0.00000000000E+00  0.00000000000E+00  0.46978622913E+03  0.46978622913E+03  0.25500000920E-02 0. -1.
       -2   -1    0    0    0  501  0.00000000000E+00  0.00000000000E+00 -0.11823201589E+04  0.11823201589E+04  0.25500000920E-02 0.  1.
    10030    2    1    2    0    0  0.00000000000E+00  0.00000000000E+00 -0.71253392975E+03  0.16521063880E+04  0.14905538958E+04 0.  0.
        1    1    3    3  502    0 -0.22334691224E+01  0.53416810450E+03 -0.93230392364E+03  0.10744911160E+04  0.50400001928E-02 0.  1.
       -1    1    3    3    0  502  0.22334691224E+01 -0.53416810450E+03  0.21976999389E+03  0.57761527204E+03  0.50400001928E-02 0. -1.
</event>
<event>
 5   0  0.6509279E-05  0.1500162E+04  0.7818609E-02  0.8884345E-01
       -1   -1    0    0    0  501  0.00000000000E+00  0.00000000000E+00  0.47727651046E+03  0.47727651048E+03  0.50400001928E-02 0. -1.
        1   -1    0    0  501    0  0.00000000000E+00  0.00000000000E+00 -0.11788162587E+04  0.11788162588E+04  0.50400001928E-02 0.  1.
    10030    2    1    2    0    0  0.00000000000E+00  0.00000000000E+00 -0.70153974829E+03  0.16560927692E+04  0.15001617386E+04 0.  0.
        2    1    3    3  502    0  0.16920975268E+03  0.36803065406E+03 -0.10476916978E+04  0.11232704021E+04  0.25500000920E-02 0.  1.
       -2    1    3    3    0  502 -0.16920975268E+03 -0.36803065406E+03  0.34615194949E+03  0.53282236709E+03  0.25500000920E-02 0. -1.
</event>
<event>
 5   0  0.1228286E-04  0.1504782E+04  0.7818609E-02  0.8881279E-01
        2   -1    0    0  501    0  0.00000000000E+00  0.00000000000E+00  0.12113060598E+04  0.12113060598E+04  0.25500000920E-02 0. -1.
       -2   -1    0    0    0  501  0.00000000000E+00  0.00000000000E+00 -0.46734009447E+03  0.46734009447E+03  0.25500000920E-02 0.  1.
    10030    2    1    2    0    0  0.00000000000E+00  0.00000000000E+00  0.74396596536E+03  0.16786461543E+04  0.15047815635E+04 0.  0.
        2    1    3    3  502    0 -0.54746010623E+03 -0.51460093821E+03  0.41611663921E+03  0.85888285054E+03  0.25500000920E-02 0. -1.
       -2    1    3    3    0  502  0.54746010623E+03  0.51460093821E+03  0.32784932614E+03  0.81976330375E+03  0.25500000920E-02 0.  1.
</event>
<event>
 5   0  0.1219810E-04  0.1497215E+04  0.7818609E-02  0.8886307E-01
       -2   -1    0    0    0  501  0.00000000000E+00  0.00000000000E+00  0.62632765493E+03  0.62632765494E+03  0.25500000920E-02 0. -1.
        2   -1    0    0  501    0  0.00000000000E+00  0.00000000000E+00 -0.89475985550E+03  0.89475985550E+03  0.25500000920E-02 0.  1.
    10030    2    1    2    0    0  0.00000000000E+00  0.00000000000E+00 -0.26843220056E+03  0.15210875104E+04  0.14972145364E+04 0.  0.
        1    1    3    3  502    0 -0.47752103515E+03 -0.53388315633E+03  0.86866397367E+02  0.72152847112E+03  0.50400001928E-02 0. -1.
       -1    1    3    3    0  502  0.47752103515E+03  0.53388315633E+03 -0.35529859793E+03  0.79955903931E+03  0.50400001928E-02 0.  1.
</event>
<event>
 5   0  0.6509279E-05  0.1503374E+04  0.7818609E-02  0.8882212E-01
       -1   -1    0    0    0  501  0.00000000000E+00  0.00000000000E+00  0.59567239485E+03  0.59567239487E+03  0.50400001928E-02 0. -1.
        1   -1    0    0  501    0  0.00000000000E+00  0.00000000000E+00 -0.94856447639E+03  0.94856447641E+03  0.50400001928E-02 0.  1.
    10030    2    1    2    0    0  0.00000000000E+00  0.00000000000E+00 -0.35289208154E+03  0.15442368713E+04  0.15033744355E+04 0.  0.
        2    1    3    3  502    0  0.28749984851E+03 -0.18865875719E+03  0.51014200147E+03  0.61521797050E+03  0.25500000920E-02 0. -1.
       -2    1    3    3    0  502 -0.28749984851E+03  0.18865875719E+03 -0.86303408301E+03  0.92901890078E+03  0.25500000920E-02 0.  1.
</event>
<event>
 5   0  0.6542036E-05  0.1501020E+04  0.7818609E-02  0.8883775E-01
       -1   -1    0    0    0  501  0.00000000000E+00  0.00000000000E+00  0.17924652175E+04  0.17924652175E+04  0.50400001928E-02 0. -1.
        1   -1    0    0  501    0  0.00000000000E+00  0.00000000000E+00 -0.31424055100E+03  0.31424055104E+03  0.50400001928E-02 0.  1.
    10030    2    1    2    0    0  0.00000000000E+00  0.00000000000E+00  0.14782246665E+04  0.21067057686E+04  0.15010199967E+04 0.  0.
        4    1    3    3  502    0  0.42561642672E+03  0.58194761695E+03  0.10316748341E+04  0.12586369404E+04  0.12699999809E+01 0. -1.
       -4    1    3    3    0  502 -0.42561642672E+03 -0.58194761695E+03  0.44654983246E+03  0.84806882819E+03  0.12699999809E+01 0.  1.
</event>
<event>
 5   0  0.1254487E-04  0.1499733E+04  0.7818609E-02  0.8884630E-01
        2   -1    0    0  501    0  0.00000000000E+00  0.00000000000E+00  0.39948954190E+03  0.39948954191E+03  0.25500000920E-02 0. -1.
       -2   -1    0    0    0  501  0.00000000000E+00  0.00000000000E+00 -0.14075465474E+04  0.14075465474E+04  0.25500000920E-02 0.  1.
    10030    2    1    2    0    0  0.00000000000E+00  0.00000000000E+00 -0.10080570055E+04  0.18070360893E+04  0.14997334769E+04 0.  0.
        5    1    3    3  502    0 -0.39328629679E+03 -0.38446453289E+02  0.26383323474E+03  0.47516555722E+03  0.46999998093E+01 0. -1.
       -5    1    3    3    0  502  0.39328629679E+03  0.38446453289E+02 -0.12718902402E+04  0.13318705320E+04  0.46999998093E+01 0.  1.
</event>
<event>
 5   0  0.6364378E-05  0.1499862E+04  0.7818609E-02  0.8884545E-01
        1   -1    0    0  501    0  0.00000000000E+00  0.00000000000E+00  0.51990945997E+03  0.51990945999E+03  0.50400001928E-02 0.  1.
       -1   -1    0    0    0  501  0.00000000000E+00  0.00000000000E+00 -0.10817202005E+04  0.10817202005E+04  0.50400001928E-02 0. -1.
    10030    2    1    2    0    0  0.00000000000E+00  0.00000000000E+00 -0.56181074053E+03  0.16016296605E+04  0.14998620807E+04 0.  0.
        5    1    3    3  502    0  0.69445886557E+02 -0.35221041254E+03 -0.98398596694E+03  0.10474375299E+04  0.46999998093E+01 0. -1.
       -5    1    3    3    0  502 -0.69445886557E+02  0.35221041254E+03  0.42217522641E+03  0.55419213063E+03  0.46999998093E+01 0.  1.
</event>
<event>
 5   0  0.6361716E-05  0.1495499E+04  0.7818609E-02  0.8887452E-01
        1   -1    0    0  501    0  0.00000000000E+00  0.00000000000E+00  0.12512436890E+04  0.12512436890E+04  0.50400001928E-02 0. -1.
       -1   -1    0    0    0  501  0.00000000000E+00  0.00000000000E+00 -0.44685881480E+03  0.44685881482E+03  0.50400001928E-02 0.  1.
    10030    2    1    2    0    0  0.00000000000E+00  0.00000000000E+00  0.80438487422E+03  0.16981025038E+04  0.14954989427E+04 0.  0.
        3    1    3    3  502    0  0.41966144302E+03 -0.44857699698E+03  0.88632626586E+03  0.10783836556E+04  0.10100000352E+00 0. -1.
       -3    1    3    3    0  502 -0.41966144302E+03  0.44857699698E+03 -0.81941391645E+02  0.61971884822E+03  0.10100000352E+00 0.  1.
</event>
<event>
 5   0  0.1186664E-04  0.1500649E+04  0.7818609E-02  0.8884022E-01
        2   -1    0    0  501    0  0.00000000000E+00  0.00000000000E+00  0.11945686393E+04  0.11945686393E+04  0.25500000920E-02 0.  1.
       -2   -1    0    0    0  501  0.00000000000E+00  0.00000000000E+00 -0.47128871482E+03  0.47128871483E+03  0.25500000920E-02 0. -1.
    10030    2    1    2    0    0  0.00000000000E+00  0.00000000000E+00  0.72327992445E+03  0.16658573541E+04  0.15006488180E+04 0.  0.
        3    1    3    3  502    0 -0.51045133203E+03 -0.49776565225E+03  0.62116286026E+03  0.94560801398E+03  0.10100000352E+00 0.  1.
       -3    1    3    3    0  502  0.51045133203E+03  0.49776565225E+03  0.10211706419E+03  0.72024934011E+03  0.10100000352E+00 0. -1.
</event>
<event>
 5   0  0.1254487E-04  0.1496082E+04  0.7818609E-02  0.8887062E-01
       -2   -1    0    0    0  501  0.00000000000E+00  0.00000000000E+00  0.88709747867E+03  0.88709747868E+03  0.25500000920E-02 0. -1.
        2   -1    0    0  501    0  0.00000000000E+00  0.00000000000E+00 -0.63078230271E+03  0.63078230272E+03  0.25500000920E-02 0.  1.
    10030    2    1    2    0    0  0.00000000000E+00  0.00000000000E+00  0.25631517596E+03  0.15178797814E+04  0.14960820704E+04 0.  0.
        5    1    3    3  502    0 -0.73662023126E+03  0.59821869998E+02  0.10908778355E+02  0.73914079354E+03  0.46999998093E+01 0.  1.
       -5    1    3    3    0  502  0.73662023126E+03 -0.59821869998E+02  0.24540639761E+03  0.77873898786E+03  0.46999998093E+01 0. -1.
</event>
<event>
 5   0  0.6364378E-05  0.1502140E+04  0.7818609E-02  0.8883031E-01
       -1   -1    0    0    0  501  0.00000000000E+00  0.00000000000E+00  0.24275947401E+04  0.24275947401E+04  0.50400001928E-02 0. -1.
        1   -1    0    0  501    0  0.00000000000E+00  0.00000000000E+00 -0.23237231856E+03  0.23237231861E+03  0.50400001928E-02 0.  1.
    10030    2    1    2    0    0  0.00000000000E+00  0.00000000000E+00  0.21952224215E+04  0.26599670587E+04  0.15021395652E+04 0.  0.
        5    1    3    3  502    0 -0.13725607068E+02 -0.74993596280E+03  0.10292261465E+04  0.12735465799E+04  0.46999998093E+01 0. -1.
       -5    1    3    3    0  502  0.13725607068E+02  0.74993596280E+03  0.11659962750E+04  0.13864204788E+04  0.46999998093E+01 0.  1.
</event>
<event>
 5   0  0.6509279E-05  0.1502123E+04  0.7818609E-02  0.8883042E-01
       -1   -1    0    0    0  501  0.00000000000E+00  0.00000000000E+00  0.88044704029E+03  0.88044704030E+03  0.50400001928E-02 0. -1.
        1   -1    0    0  501    0  0.00000000000E+00  0.00000000000E+00 -0.64068963370E+03  0.64068963372E+03  0.50400001928E-02 0.  1.
    10030    2    1    2    0    0  0.00000000000E+00  0.00000000000E+00  0.23975740659E+03  0.15211366740E+04  0.15021228868E+04 0.  0.
        2    1    3    3  502    0 -0.48804507029E+03 -0.17608169180E+03  0.66980002302E+03  0.84724543296E+03  0.25500000920E-02 0. -1.
       -2    1    3    3    0  502  0.48804507029E+03  0.17608169180E+03 -0.43004261643E+03  0.67389124106E+03  0.25500000920E-02 0.  1.
</event>
<event>
 5   0  0.1216921E-04  0.1496005E+04  0.7818609E-02  0.8887114E-01
        2   -1    0    0  501    0  0.00000000000E+00  0.00000000000E+00  0.61026697495E+03  0.61026697496E+03  0.25500000920E-02 0. -1.
       -2   -1    0    0    0  501  0.00000000000E+00  0.00000000000E+00 -0.91682454418E+03  0.91682454418E+03  0.25500000920E-02 0.  1.
    10030    2    1    2    0    0  0.00000000000E+00  0.00000000000E+00 -0.30655756922E+03  0.15270915191E+04  0.14960050015E+04 0.  0.
        4    1    3    3  502    0  0.12770263154E+03 -0.51054184503E+03  0.38931645525E+03  0.65462191596E+03  0.12699999809E+01 0. -1.
       -4    1    3    3    0  502 -0.12770263154E+03  0.51054184503E+03 -0.69587402448E+03  0.87246960318E+03  0.12699999809E+01 0.  1.
</event>
<event>
 5   0  0.4462875E-05  0.1500666E+04  0.7818609E-02  0.8884010E-01
       -4   -1    0    0    0  501  0.00000000000E+00  0.00000000000E+00  0.11990801501E+04  0.11990808226E+04  0.12699999809E+01 0.  1.
        4   -1    0    0  501    0  0.00000000000E+00  0.00000000000E+00 -0.46952480378E+03  0.46952652137E+03  0.12699999809E+01 0. -1.
    10030    2    1    2    0    0  0.00000000000E+00  0.00000000000E+00  0.72955534628E+03  0.16686073440E+04  0.15006663404E+04 0.  0.
        2    1    3    3  502    0  0.12471058570E+03  0.18417885897E+03  0.11615806077E+04  0.11826851189E+04  0.25500000920E-02 0.  1.
       -2    1    3    3    0  502 -0.12471058570E+03 -0.18417885897E+03 -0.43202526145E+03  0.48592222506E+03  0.25500000920E-02 0. -1.
</event>
<event>
 5   0  0.6668433E-05  0.1499030E+04  0.7818609E-02  0.8885098E-01
       -1   -1    0    0    0  501  0.00000000000E+00  0.00000000000E+00  0.59962231941E+03  0.59962231943E+03  0.50400001928E-02 0.  1.
        1   -1    0    0  501    0  0.00000000000E+00  0.00000000000E+00 -0.93687820844E+03  0.93687820845E+03  0.50400001928E-02 0. -1.
    10030    2    1    2    0    0  0.00000000000E+00  0.00000000000E+00 -0.33725588903E+03  0.15365005279E+04  0.14990304658E+04 0.  0.
        1    1    3    3  502    0  0.11129731602E+03  0.19080861889E+03 -0.90275571186E+03  0.92938845319E+03  0.50400001928E-02 0. -1.
       -1    1    3    3    0  502 -0.11129731602E+03 -0.19080861889E+03  0.56549982283E+03  0.60711207470E+03  0.50400001928E-02 0.  1.
</event>
<event>
 5   0  0.1228286E-04  0.1498696E+04  0.7818609E-02  0.8885321E-01
        2   -1    0    0  501    0  0.00000000000E+00  0.00000000000E+00  0.15306397823E+04  0.15306397823E+04  0.25500000920E-02 0. -1.
       -2   -1    0    0    0  501  0.00000000000E+00  0.00000000000E+00 -0.36685470785E+03  0.36685470786E+03  0.25500000920E-02 0.  1.
    10030    2    1    2    0    0  0.00000000000E+00  0.00000000000E+00  0.11637850744E+04  0.18974944901E+04  0.14986959800E+04 0.  0.
        2    1    3    3  502    0 -0.65294783119E+03 -0.23203114715E+03  0.22079268960E+03  0.72727486914E+03  0.25500000920E-02 0.  1.
       -2    1    3    3    0  502  0.65294783119E+03  0.23203114715E+03  0.94299238481E+03  0.11702196210E+04  0.25500000920E-02 0. -1.
</event>
<event>
 5   0  0.6509279E-05  0.1490761E+04  0.7818609E-02  0.8890620E-01
        1   -1    0    0  501    0  0.00000000000E+00  0.00000000000E+00  0.64587811584E+03  0.64587811586E+03  0.50400001928E-02 0. -1.
       -1   -1    0    0    0  501  0.00000000000E+00  0.00000000000E+00 -0.86021224691E+03  0.86021224692E+03  0.50400001928E-02 0.  1.
    10030    2    1    2    0    0  0.00000000000E+00  0.00000000000E+00 -0.21433413106E+03  0.15060903628E+04  0.14907612355E+04 0.  0.
        2    1    3    3  502    0 -0.11506776754E+03  0.29522823769E+03  0.57444964728E+03  0.65604321559E+03  0.25500000920E-02 0. -1.
       -2    1    3    3    0  502  0.11506776754E+03 -0.29522823769E+03 -0.78878377835E+03  0.85004714719E+03  0.25500000920E-02 0.  1.
</event>
<event>
 5   0  0.1219810E-04  0.1497252E+04  0.7818609E-02  0.8886282E-01
        2   -1    0    0  501    0  0.00000000000E+00  0.00000000000E+00  0.11361083851E+04  0.11361083851E+04  0.25500000920E-02 0.  1.
       -2   -1    0    0    0  501  0.00000000000E+00  0.00000000000E+00 -0.49329894132E+03  0.49329894133E+03  0.25500000920E-02 0. -1.
    10030    2    1    2    0    0  0.00000000000E+00  0.00000000000E+00  0.64280944379E+03  0.16294073264E+04  0.14972522347E+04 0.  0.
        1    1    3    3  502    0  0.53549979067E+03 -0.71940281219E+02 -0.24250735539E+03  0.59223749232E+03  0.50400001928E-02 0. -1.
       -1    1    3    3    0  502 -0.53549979067E+03  0.71940281219E+02  0.88531679918E+03  0.10371698341E+04  0.50400001928E-02 0.  1.
</event>
<event>
 5   0  0.6361716E-05  0.1511712E+04  0.7818609E-02  0.8876702E-01
       -1   -1    0    0    0  501  0.00000000000E+00  0.00000000000E+00  0.37442201222E+03  0.37442201226E+03  0.50400001928E-02 0.  1.
        1   -1    0    0  501    0  0.00000000000E+00  0.00000000000E+00 -0.15258670868E+04  0.15258670868E+04  0.50400001928E-02 0. -1.
    10030    2    1    2    0    0  0.00000000000E+00  0.00000000000E+00 -0.11514450746E+04  0.19002890991E+04  0.15117119105E+04 0.  0.
        3    1    3    3  502    0  0.55204230595E+03  0.36614401236E+03 -0.11814096297E+03  0.67288144772E+03  0.10100000352E+00 0.  1.
       -3    1    3    3    0  502 -0.55204230595E+03 -0.36614401236E+03 -0.10333041116E+04  0.12274076514E+04  0.10100000352E+00 0. -1.
</event>
<event>
 5   0  0.6361716E-05  0.1499117E+04  0.7818609E-02  0.8885040E-01
       -1   -1    0    0    0  501  0.00000000000E+00  0.00000000000E+00  0.41944912503E+03  0.41944912506E+03  0.50400001928E-02 0. -1.
        1   -1    0    0  501    0  0.00000000000E+00  0.00000000000E+00 -0.13394660281E+04  0.13394660281E+04  0.50400001928E-02 0.  1.
    10030    2    1    2    0    0  0.00000000000E+00  0.00000000000E+00 -0.92001690303E+03  0.17589151531E+04  0.14991168780E+04 0.  0.
        3    1    3    3  502    0 -0.52981521350E+03  0.52962897732E+03 -0.43063303578E+03  0.86409249260E+03  0.10100000352E+00 0.  1.
       -3    1    3    3    0  502  0.52981521350E+03 -0.52962897732E+03 -0.48938386725E+03  0.89482266053E+03  0.10100000352E+00 0. -1.
</event>
<event>
 5   0  0.1216921E-04  0.1497813E+04  0.7818609E-02  0.8885909E-01
        2   -1    0    0  501    0  0.00000000000E+00  0.00000000000E+00  0.10269910387E+04  0.10269910387E+04  0.25500000920E-02 0. -1.
       -2   -1    0    0    0  501  0.00000000000E+00  0.00000000000E+00 -0.54612024640E+03  0.54612024640E+03  0.25500000920E-02 0.  1.
    10030    2    1    2    0    0  0.00000000000E+00  0.00000000000E+00  0.48087079226E+03  0.15731112851E+04  0.14978125371E+04 0.  0.
        4    1    3    3  502    0 -0.13254323415E+03  0.66993113507E+03 -0.82399215468E+02  0.68787112039E+03  0.12699999809E+01 0.  1.
       -4    1    3    3    0  502  0.13254323415E+03 -0.66993113507E+03  0.56327000773E+03  0.88524016468E+03  0.12699999809E+01 0. -1.
</event>
<event>
 5   0  0.1219810E-04  0.1500254E+04  0.7818609E-02  0.8884284E-01
        2   -1    0    0  501    0  0.00000000000E+00  0.00000000000E+00  0.76141338278E+03  0.76141338279E+03  0.25500000920E-02 0. -1.
       -2   -1    0    0    0  501  0.00000000000E+00  0.00000000000E+00 -0.73900751319E+03  0.73900751319E+03  0.25500000920E-02 0.  1.
    10030    2    1    2    0    0  0.00000000000E+00  0.00000000000E+00  0.22405869593E+02  0.15004208960E+04  0.15002535926E+04 0.  0.
        1    1    3    3  502    0 -0.26691729565E+02 -0.37759809371E+03 -0.63647830361E+03  0.74053858765E+03  0.50400001928E-02 0.  1.
       -1    1    3    3    0  502  0.26691729565E+02  0.37759809371E+03  0.65888417320E+03  0.75988230834E+03  0.50400001928E-02 0. -1.
</event>
<event>
 5   0  0.6509279E-05  0.1499179E+04  0.7818609E-02  0.8884999E-01
       -1   -1    0    0    0  501  0.00000000000E+00  0.00000000000E+00  0.51801462031E+03  0.51801462034E+03  0.50400001928E-02 0.  1.
        1   -1    0    0  501    0  0.00000000000E+00  0.00000000000E+00 -0.10846886226E+04  0.10846886226E+04  0.50400001928E-02 0. -1.
    10030    2    1    2    0    0  0.00000000000E+00  0.00000000000E+00 -0.56667400232E+03  0.16027032430E+04  0.14991791955E+04 0.  0.
        2    1    3    3  502    0 -0.72002706985E+02 -0.46381080381E+03 -0.90814359459E+03  0.10222669123E+04  0.25500000920E-02 0. -1.
       -2    1    3    3    0  502  0.72002706985E+02  0.46381080381E+03  0.34146959227E+03  0.58043633070E+03  0.25500000920E-02 0.  1.
</event>
<event>
 5   0  0.6542036E-05  0.1499702E+04  0.7818609E-02  0.8884651E-01
        1   -1    0    0  501    0  0.00000000000E+00  0.00000000000E+00  0.17317971724E+04  0.17317971724E+04  0.50400001928E-02 0.  1.
       -1   -1    0    0    0  501  0.00000000000E+00  0.00000000000E+00 -0.32467804433E+03  0.32467804437E+03  0.50400001928E-02 0. -1.
    10030    2    1    2    0    0  0.00000000000E+00  0.00000000000E+00  0.14071191280E+04  0.20564752167E+04  0.14997019959E+04 0.  0.
        4    1    3    3  502    0  0.33577000329E+02 -0.33330006282E+03  0.16234858392E+04  0.16576864087E+04  0.12699999809E+01 0.  1.
       -4    1    3    3    0  502 -0.33577000329E+02  0.33330006282E+03 -0.21636671111E+03  0.39878880802E+03  0.12699999809E+01 0. -1.
</event>
<event>
 5   0  0.6364378E-05  0.1491515E+04  0.7818609E-02  0.8890115E-01
       -1   -1    0    0    0  501  0.00000000000E+00  0.00000000000E+00  0.65461008904E+03  0.65461008906E+03  0.50400001928E-02 0. -1.
        1   -1    0    0  501    0  0.00000000000E+00  0.00000000000E+00 -0.84959628006E+03  0.84959628008E+03  0.50400001928E-02 0.  1.
    10030    2    1    2    0    0  0.00000000000E+00  0.00000000000E+00 -0.19498619102E+03  0.15042063691E+04  0.14915150640E+04 0.  0.
        5    1    3    3  502    0  0.57806796301E+03  0.44082385320E+03 -0.26517259286E+03  0.77383902293E+03  0.46999998093E+01 0.  1.
       -5    1    3    3    0  502 -0.57806796301E+03 -0.44082385320E+03  0.70186401835E+02  0.73036734621E+03  0.46999998093E+01 0. -1.
</event>
<event>
 5   0  0.1228286E-04  0.1498219E+04  0.7818609E-02  0.8885638E-01
       -2   -1    0    0    0  501  0.00000000000E+00  0.00000000000E+00  0.95078372241E+03  0.95078372241E+03  0.25500000920E-02 0.  1.
        2   -1    0    0  501    0  0.00000000000E+00  0.00000000000E+00 -0.59021289618E+03  0.59021289619E+03  0.25500000920E-02 0. -1.
    10030    2    1    2    0    0  0.00000000000E+00  0.00000000000E+00  0.36057082623E+03  0.15409966186E+04  0.14982186949E+04 0.  0.
        2    1    3    3  502    0 -0.14356993272E+03  0.71911875891E+03  0.22877556840E+02  0.73366715723E+03  0.25500000920E-02 0. -1.
       -2    1    3    3    0  502  0.14356993272E+03 -0.71911875891E+03  0.33769326939E+03  0.80732946136E+03  0.25500000920E-02 0.  1.
</event>
<event>
 5   0  0.6542036E-05  0.1498525E+04  0.7818609E-02  0.8885434E-01
        1   -1    0    0  501    0  0.00000000000E+00  0.00000000000E+00  0.19104233910E+04  0.19104233910E+04  0.50400001928E-02 0. -1.
       -1   -1    0    0    0  501  0.00000000000E+00  0.00000000000E+00 -0.29385867057E+03  0.29385867061E+03  0.50400001928E-02 0.  1.
    10030    2    1    2    0    0  0.00000000000E+00  0.00000000000E+00  0.16165647205E+04  0.22042820617E+04  0.14985252456E+04 0.  0.
        4    1    3    3  502    0  0.65988860039E+03  0.20904380290E+03  0.12301208539E+04  0.14115067143E+04  0.12699999809E+01 0. -1.
       -4    1    3    3    0  502 -0.65988860039E+03 -0.20904380290E+03  0.38644386662E+03  0.79277534737E+03  0.12699999809E+01 0.  1.
</event>
<event>
 5   0  0.1254487E-04  0.1498925E+04  0.7818609E-02  0.8885168E-01
       -2   -1    0    0    0  501  0.00000000000E+00  0.00000000000E+00  0.11558709609E+04  0.11558709609E+04  0.25500000920E-02 0. -1.
        2   -1    0    0  501    0  0.00000000000E+00  0.00000000000E+00 -0.48594894336E+03  0.48594894337E+03  0.25500000920E-02 0.  1.
    10030    2    1    2    0    0  0.00000000000E+00  0.00000000000E+00  0.66992201755E+03  0.16418199043E+04  0.14989253112E+04 0.  0.
        5    1    3    3  502    0 -0.23086700607E+03  0.69477914065E+03  0.51040065873E+03  0.89249568694E+03  0.46999998093E+01 0.  1.
       -5    1    3    3    0  502  0.23086700607E+03 -0.69477914065E+03  0.15952135882E+03  0.74932421734E+03  0.46999998093E+01 0. -1.
</event>
<event>
 5   0  0.6364378E-05  0.1474881E+04  0.7818609E-02  0.8901331E-01
        1   -1    0    0  501    0  0.00000000000E+00  0.00000000000E+00  0.19178866201E+04  0.19178866201E+04  0.50400001928E-02 0. -1.
       -1   -1    0    0    0  501  0.00000000000E+00  0.00000000000E+00 -0.28355100359E+03  0.28355100363E+03  0.50400001928E-02 0.  1.
    10030    2    1    2    0    0  0.00000000000E+00  0.00000000000E+00  0.16343356165E+04  0.22014376238E+04  0.14748812508E+04 0.  0.
        5    1    3    3  502    0 -0.19057112727E+03  0.32567792059E+03 -0.12851417082E+03  0.39864952604E+03  0.46999998093E+01 0.  1.
       -5    1    3    3    0  502  0.19057112727E+03 -0.32567792059E+03  0.17628497873E+04  0.18027880977E+04  0.46999998093E+01 0. -1.
</event>
<event>
 5   0  0.6668433E-05  0.1504910E+04  0.7818609E-02  0.8881195E-01
        1   -1    0    0  501    0  0.00000000000E+00  0.00000000000E+00  0.17601990880E+04  0.17601990881E+04  0.50400001928E-02 0.  1.
       -1   -1    0    0    0  501  0.00000000000E+00  0.00000000000E+00 -0.32166143696E+03  0.32166143700E+03  0.50400001928E-02 0. -1.
    10030    2    1    2    0    0  0.00000000000E+00  0.00000000000E+00  0.14385376511E+04  0.20818605251E+04  0.15049095229E+04 0.  0.
        1    1    3    3  502    0 -0.25314419018E+03  0.41679241877E+03  0.15120190583E+04  0.15887100221E+04  0.50400001928E-02 0.  1.
       -1    1    3    3    0  502  0.25314419018E+03 -0.41679241877E+03 -0.73481407249E+02  0.49315050300E+03  0.50400001928E-02 0. -1.
</event>
<event>
 5   0  0.1228286E-04  0.1499604E+04  0.7818609E-02  0.8884716E-01
       -2   -1    0    0    0  501  0.00000000000E+00  0.00000000000E+00  0.43664793372E+03  0.43664793373E+03  0.25500000920E-02 0.  1.
        2   -1    0    0  501    0  0.00000000000E+00  0.00000000000E+00 -0.12875435926E+04  0.12875435926E+04  0.25500000920E-02 0. -1.
    10030    2    1    2    0    0  0.00000000000E+00  0.00000000000E+00 -0.85089565883E+03  0.17241915263E+04  0.14996042802E+04 0.  0.
        2    1    3    3  502    0  0.30035683424E+03  0.59903737640E+03 -0.81219143919E+03  0.10529553362E+04  0.25500000920E-02 0. -1.
       -2    1    3    3    0  502 -0.30035683424E+03 -0.59903737640E+03 -0.38704219634E+02  0.67123619005E+03  0.25500000920E-02 0.  1.
</event>
<event>
 5   0  0.6364378E-05  0.1499817E+04  0.7818609E-02  0.8884575E-01
       -1   -1    0    0    0  501  0.00000000000E+00  0.00000000000E+00  0.38273861760E+03  0.38273861763E+03  0.50400001928E-02 0.  1.
        1   -1    0    0  501    0  0.00000000000E+00  0.00000000000E+00 -0.14693120179E+04  0.14693120179E+04  0.50400001928E-02 0. -1.
    10030    2    1    2    0    0  0.00000000000E+00  0.00000000000E+00 -0.10865734003E+04  0.18520506355E+04  0.14998165896E+04 0.  0.
        5    1    3    3  502    0  0.23194169147E+03 -0.33381873796E+03 -0.13214473656E+04  0.13825617990E+04  0.46999998093E+01 0. -1.
       -5    1    3    3    0  502 -0.23194169147E+03  0.33381873796E+03  0.23487396529E+03  0.46948883653E+03  0.46999998093E+01 0.  1.
</event>
<event>
 5   0  0.1219810E-04  0.1489972E+04  0.7818609E-02  0.8891149E-01
       -2   -1    0    0    0  501  0.00000000000E+00  0.00000000000E+00  0.49139547609E+03  0.49139547610E+03  0.25500000920E-02 0. -1.
        2   -1    0    0  501    0  0.00000000000E+00  0.00000000000E+00 -0.11294450419E+04  0.11294450419E+04  0.25500000920E-02 0.  1.
    10030    2    1    2    0    0  0.00000000000E+00  0.00000000000E+00 -0.63804956580E+03  0.16208405180E+04  0.14899720589E+04 0.  0.
        1    1    3    3  502    0 -0.20523134344E+03  0.68615382392E+03 -0.95880570948E+02  0.72257875579E+03  0.50400001928E-02 0. -1.
       -1    1    3    3    0  502  0.20523134344E+03 -0.68615382392E+03 -0.54216899486E+03  0.89826176220E+03  0.50400001928E-02 0.  1.
</event>
<event>
 5   0  0.6668433E-05  0.1497146E+04  0.7818609E-02  0.8886353E-01
       -1   -1    0    0    0  501  0.00000000000E+00  0.00000000000E+00  0.58466804210E+03  0.58466804212E+03  0.50400001928E-02 0. -1.
        1   -1    0    0  501    0  0.00000000000E+00  0.00000000000E+00 -0.95842697040E+03  0.95842697041E+03  0.50400001928E-02 0.  1.
    10030    2    1    2    0    0  0.00000000000E+00  0.00000000000E+00 -0.37375892830E+03  0.15430950125E+04  0.14971461122E+04 0.  0.
        1    1    3    3  502    0 -0.53282170827E+03 -0.34721186357E+03 -0.59384786364E+03  0.87012087447E+03  0.50400001928E-02 0.  1.
       -1    1    3    3    0  502  0.53282170827E+03  0.34721186357E+03  0.22008893534E+03  0.67297413806E+03  0.50400001928E-02 0. -1.
</event>
<event>
 5   0  0.6509279E-05  0.1500952E+04  0.7818609E-02  0.8883820E-01
       -1   -1    0    0    0  501  0.00000000000E+00  0.00000000000E+00  0.59665197059E+03  0.59665197061E+03  0.50400001928E-02 0. -1.
        1   -1    0    0  501    0  0.00000000000E+00  0.00000000000E+00 -0.94395779158E+03  0.94395779159E+03  0.50400001928E-02 0.  1.
    10030    2    1    2    0    0  0.00000000000E+00  0.00000000000E+00 -0.34730582099E+03  0.15406097622E+04  0.15009520666E+04 0.  0.
        2    1    3    3  502    0  0.51707693432E+03 -0.54143673274E+03 -0.22690812476E+03  0.78231041707E+03  0.25500000920E-02 0.  1.
       -2    1    3    3    0  502 -0.51707693432E+03  0.54143673274E+03 -0.12039769623E+03  0.75829934514E+03  0.25500000920E-02 0. -1.
</event>
<event>
 5   0  0.1216921E-04  0.1542819E+04  0.7818609E-02  0.8856468E-01
        2   -1    0    0  501    0  0.00000000000E+00  0.00000000000E+00  0.11215988050E+04  0.11215988050E+04  0.25500000920E-02 0. -1.
       -2   -1    0    0    0  501  0.00000000000E+00  0.00000000000E+00 -0.53055751169E+03  0.53055751169E+03  0.25500000920E-02 0.  1.
    10030    2    1    2    0    0  0.00000000000E+00  0.00000000000E+00  0.59104129334E+03  0.16521563167E+04  0.15428190705E+04 0.  0.
        4    1    3    3  502    0 -0.14964898185E+03  0.33660662326E+03 -0.43028192315E+03  0.56643003353E+03  0.12699999809E+01 0.  1.
       -4    1    3    3    0  502  0.14964898185E+03 -0.33660662326E+03  0.10213232165E+04  0.10857262832E+04  0.12699999809E+01 0. -1.
</event>
<event>
 5   0  0.1228286E-04  0.1496588E+04  0.7818609E-02  0.8886725E-01
        2   -1    0    0  501    0  0.00000000000E+00  0.00000000000E+00  0.16637646345E+04  0.16637646345E+04  0.25500000920E-02 0. -1.
       -2   -1    0    0    0  501  0.00000000000E+00  0.00000000000E+00 -0.33655215918E+03  0.33655215919E+03  0.25500000920E-02 0.  1.
    10030    2    1    2    0    0  0.00000000000E+00  0.00000000000E+00  0.13272124753E+04  0.20003167937E+04  0.14965875586E+04 0.  0.
        2    1    3    3  502    0 -0.65391259880E+03  0.31920812221E+03  0.89683199976E+03  0.11549039562E+04  0.25500000920E-02 0.  1.
       -2    1    3    3    0  502  0.65391259880E+03 -0.31920812221E+03  0.43038047558E+03  0.84541283756E+03  0.25500000920E-02 0. -1.
</event>
<event>
 5   0  0.1216921E-04  0.1497678E+04  0.7818609E-02  0.8885998E-01
        2   -1    0    0  501    0  0.00000000000E+00  0.00000000000E+00  0.79757138826E+03  0.79757138827E+03  0.25500000920E-02 0. -1.
       -2   -1    0    0    0  501  0.00000000000E+00  0.00000000000E+00 -0.70308438056E+03  0.70308438056E+03  0.25500000920E-02 0.  1.
    10030    2    1    2    0    0  0.00000000000E+00  0.00000000000E+00  0.94487007706E+02  0.15006557688E+04  0.14976781837E+04 0.  0.
        4    1    3    3  502    0  0.62548411970E+03 -0.38853749978E+03  0.18377371667E+03  0.75892434707E+03  0.12699999809E+01 0. -1.
       -4    1    3    3    0  502 -0.62548411970E+03  0.38853749978E+03 -0.89286708961E+02  0.74173142176E+03  0.12699999809E+01 0.  1.
</event>
<event>
 5   0  0.6509279E-05  0.1499262E+04  0.7818609E-02  0.8884944E-01
        1   -1    0    0  501    0  0.00000000000E+00  0.00000000000E+00  0.10453745404E+04  0.10453745404E+04  0.50400001928E-02 0.  1.
       -1   -1    0    0    0  501  0.00000000000E+00  0.00000000000E+00 -0.53755554358E+03  0.53755554360E+03  0.50400001928E-02 0. -1.
    10030    2    1    2    0    0  0.00000000000E+00  0.00000000000E+00  0.50781899685E+03  0.15829300840E+04  0.14992623244E+04 0.  0.
        2    1    3    3  502    0  0.30360370511E+03 -0.22615505857E+03 -0.42921046261E+03  0.57231367404E+03  0.25500000920E-02 0. -1.
       -2    1    3    3    0  502 -0.30360370511E+03  0.22615505857E+03  0.93702945946E+03  0.10106164100E+04  0.25500000920E-02 0.  1.
</event>
<event>
 5   0  0.1219810E-04  0.1498546E+04  0.7818609E-02  0.8885420E-01
        2   -1    0    0  501    0  0.00000000000E+00  0.00000000000E+00  0.19590088758E+04  0.19590088758E+04  0.25500000920E-02 0. -1.
       -2   -1    0    0    0  501  0.00000000000E+00  0.00000000000E+00 -0.28657878722E+03  0.28657878723E+03  0.25500000920E-02 0.  1.
    10030    2    1    2    0    0  0.00000000000E+00  0.00000000000E+00  0.16724300885E+04  0.22455876630E+04  0.14985464795E+04 0.  0.
        1    1    3    3  502    0 -0.19486358309E+03 -0.16541829766E+03  0.18916552241E+04  0.19088463835E+04  0.50400001928E-02 0. -1.
       -1    1    3    3    0  502  0.19486358309E+03  0.16541829766E+03 -0.21922513552E+03  0.33674127945E+03  0.50400001928E-02 0.  1.
</event>
<event>
 5   0  0.6542036E-05  0.1499249E+04  0.7818609E-02  0.8884953E-01
       -1   -1    0    0    0  501  0.00000000000E+00  0.00000000000E+00  0.15638948205E+04  0.15638948205E+04  0.50400001928E-02 0. -1.
        1   -1    0    0  501    0  0.00000000000E+00  0.00000000000E+00 -0.35931868481E+03  0.35931868484E+03  0.50400001928E-02 0.  1.
    10030    2    1    2    0    0  0.00000000000E+00  0.00000000000E+00  0.12045761357E+04  0.19232135054E+04  0.14992486520E+04 0.  0.
        4    1    3    3  502    0 -0.17723751532E+03  0.37889726745E+02  0.15353641781E+04  0.15460250776E+04  0.12699999809E+01 0. -1.
       -4    1    3    3    0  502  0.17723751532E+03 -0.37889726745E+02 -0.33078804235E+03  0.37718842783E+03  0.12699999809E+01 0.  1.
</event>
<event>
 5   0  0.6509279E-05  0.1494900E+04  0.7818609E-02  0.8887852E-01
        1   -1    0    0  501    0  0.00000000000E+00  0.00000000000E+00  0.14805033935E+04  0.14805033935E+04  0.50400001928E-02 0.  1.
       -1   -1    0    0    0  501  0.00000000000E+00  0.00000000000E+00 -0.37735908255E+03  0.37735908258E+03  0.50400001928E-02 0. -1.
    10030    2    1    2    0    0  0.00000000000E+00  0.00000000000E+00  0.11031443109E+04  0.18578624761E+04  0.14948998660E+04 0.  0.
        2    1    3    3  502    0  0.10280417677E+03 -0.25964295747E+03  0.14132357126E+04  0.14405618153E+04  0.25500000920E-02 0.  1.
       -2    1    3    3    0  502 -0.10280417677E+03  0.25964295747E+03 -0.31009140168E+03  0.41730066083E+03  0.25500000920E-02 0. -1.
</event>
<event>
 5   0  0.6668433E-05  0.1498614E+04  0.7818609E-02  0.8885375E-01
       -1   -1    0    0    0  501  0.00000000000E+00  0.00000000000E+00  0.46562633853E+03  0.46562633855E+03  0.50400001928E-02 0.  1.
        1   -1    0    0  501    0  0.00000000000E+00  0.00000000000E+00 -0.12058183591E+04  0.12058183591E+04  0.50400001928E-02 0. -1.
    10030    2    1    2    0    0  0.00000000000E+00  0.00000000000E+00 -0.74019202058E+03  0.16714446977E+04  0.14986137428E+04 0.  0.
        1    1    3    3  502    0 -0.13489559812E+03  0.50109847791E+03 -0.97295516512E+03  0.11026959056E+04  0.50400001928E-02 0. -1.
       -1    1    3    3    0  502  0.13489559812E+03 -0.50109847791E+03  0.23276314454E+03  0.56874879203E+03  0.50400001928E-02 0.  1.
</event>
<event>
 5   0  0.1219810E-04  0.1507713E+04  0.7818609E-02  0.8879340E-01
       -2   -1    0    0    0  501  0.00000000000E+00  0.00000000000E+00  0.13464190528E+04  0.13464190528E+04  0.25500000920E-02 0. -1.
        2   -1    0    0  501    0  0.00000000000E+00  0.00000000000E+00 -0.42208219504E+03  0.42208219505E+03  0.25500000920E-02 0.  1.
    10030    2    1    2    0    0  0.00000000000E+00  0.00000000000E+00  0.92433685780E+03  0.17685012479E+04  0.15077128497E+04 0.  0.
        1    1    3    3  502    0  0.32145771786E+03  0.35181560828E+03 -0.22298056299E+03  0.52614600454E+03  0.50400001928E-02 0.  1.
       -1    1    3    3    0  502 -0.32145771786E+03 -0.35181560828E+03  0.11473174208E+04  0.12423552433E+04  0.50400001928E-02 0. -1.
</event>
<event>
 5   0  0.6361716E-05  0.1500475E+04  0.7818609E-02  0.8884137E-01
       -1   -1    0    0    0  501  0.00000000000E+00  0.00000000000E+00  0.62476264352E+03  0.62476264354E+03  0.50400001928E-02 0.  1.
        1   -1    0    0  501    0  0.00000000000E+00  0.00000000000E+00 -0.90091235773E+03  0.90091235775E+03  0.50400001928E-02 0. -1.
    10030    2    1    2    0    0  0.00000000000E+00  0.00000000000E+00 -0.27614971421E+03  0.15256750013E+04  0.15004751064E+04 0.  0.
        3    1    3    3  502    0 -0.44030575199E+03  0.19688612805E+02  0.47924557736E+03  0.65110147468E+03  0.10100000352E+00 0.  1.
       -3    1    3    3    0  502  0.44030575199E+03 -0.19688612805E+02 -0.75539529157E+03  0.87457352661E+03  0.10100000352E+00 0. -1.
</event>
<event>
 5   0  0.6364378E-05  0.1535020E+04  0.7818609E-02  0.8861493E-01
       -1   -1    0    0    0  501  0.00000000000E+00  0.00000000000E+00  0.27885969389E+03  0.27885969394E+03  0.50400001928E-02 0. -1.
        1   -1    0    0  501    0  0.00000000000E+00  0.00000000000E+00 -0.21124296964E+04  0.21124296964E+04  0.50400001928E-02 0.  1.
    10030    2    1    2    0    0  0.00000000000E+00  0.00000000000E+00 -0.18335700025E+04  0.23912893903E+04  0.15350198677E+04 0.  0.
        5    1    3    3  502    0  0.37834052201E+03  0.17092855858E+03  0.88815185190E+02  0.42458020426E+03  0.46999998093E+01 0. -1.
       -5    1    3    3    0  502 -0.37834052201E+03 -0.17092855858E+03 -0.19223851877E+04  0.19667091860E+04  0.46999998093E+01 0.  1.
</event>
<event>
 5   0  0.6361716E-05  0.1501915E+04  0.7818609E-02  0.8883180E-01
        1   -1    0    0  501    0  0.00000000000E+00  0.00000000000E+00  0.62935304683E+03  0.62935304685E+03  0.50400001928E-02 0. -1.
       -1   -1    0    0    0  501  0.00000000000E+00  0.00000000000E+00 -0.89605885700E+03  0.89605885702E+03  0.50400001928E-02 0.  1.
    10030    2    1    2    0    0  0.00000000000E+00  0.00000000000E+00 -0.26670581017E+03  0.15254119039E+04  0.15019152730E+04 0.  0.
        3    1    3    3  502    0  0.47943530988E+03 -0.42444834429E+03 -0.53182058585E+03  0.83237477080E+03  0.10100000352E+00 0.  1.
       -3    1    3    3    0  502 -0.47943530988E+03  0.42444834429E+03  0.26511477568E+03  0.69303713307E+03  0.10100000352E+00 0. -1.
</event>
<event>
 5   0  0.1228286E-04  0.1499541E+04  0.7818609E-02  0.8884758E-01
       -2   -1    0    0    0  501  0.00000000000E+00  0.00000000000E+00  0.57071597327E+03  0.57071597327E+03  0.25500000920E-02 0. -1.
        2   -1    0    0  501    0  0.00000000000E+00  0.00000000000E+00 -0.98500160669E+03  0.98500160669E+03  0.25500000920E-02 0.  1.
    10030    2    1    2    0    0  0.00000000000E+00  0.00000000000E+00 -0.41428563342E+03  0.15557175800E+04  0.14995414641E+04 0.  0.
        2    1    3    3  502    0 -0.16688398668E+03 -0.72766096605E+03 -0.13515008550E+03  0.75868721627E+03  0.25500000920E-02 0. -1.
       -2    1    3    3    0  502  0.16688398668E+03  0.72766096605E+03 -0.27913554792E+03  0.79703036369E+03  0.25500000920E-02 0.  1.
</event>
<event>
 5   0  0.1216921E-04  0.1498805E+04  0.7818609E-02  0.8885248E-01
       -2   -1    0    0    0  501  0.00000000000E+00  0.00000000000E+00  0.94617874183E+03  0.94617874183E+03  0.25500000920E-02 0. -1.
        2   -1    0    0  501    0  0.00000000000E+00  0.00000000000E+00 -0.59354953367E+03  0.59354953367E+03  0.25500000920E-02 0.  1.
    10030    2    1    2    0    0  0.00000000000E+00  0.00000000000E+00  0.35262920816E+03  0.15397282755E+04  0.14988047918E+04 0.  0.
        4    1    3    3  502    0  0.65095681302E+03  0.36747310312E+03  0.23087870871E+03  0.78236043162E+03  0.12699999809E+01 0. -1.
       -4    1    3    3    0  502 -0.65095681302E+03 -0.36747310312E+03  0.12175049945E+03  0.75736784388E+03  0.12699999809E+01 0.  1.
</event>
<event>
 5   0  0.1216921E-04  0.1493487E+04  0.7818609E-02  0.8888796E-01
        2   -1    0    0  501    0  0.00000000000E+00  0.00000000000E+00  0.93431343258E+03  0.93431343258E+03  0.25500000920E-02 0.  1.
       -2   -1    0    0    0  501  0.00000000000E+00  0.00000000000E+00 -0.59682934715E+03  0.59682934715E+03  0.25500000920E-02 0. -1.
    10030    2    1    2    0    0  0.00000000000E+00  0.00000000000E+00  0.33748408543E+03  0.15311427797E+04  0.14934867606E+04 0.  0.
        4    1    3    3  502    0 -0.66584190131E+03  0.16255153469E+03  0.47261992971E+03  0.83255008848E+03  0.12699999809E+01 0.  1.
       -4    1    3    3    0  502  0.66584190131E+03 -0.16255153469E+03 -0.13513584427E+03  0.69859269126E+03  0.12699999809E+01 0. -1.
</event>
<event>
 5   0  0.4462875E-05  0.1499823E+04  0.7818609E-02  0.8884571E-01
       -3   -1    0    0    0  501  0.00000000000E+00  0.00000000000E+00  0.13005408775E+04  0.13005408815E+04  0.10100000352E+00 0.  1.
        3   -1    0    0  501    0  0.00000000000E+00  0.00000000000E+00 -0.43241017966E+03  0.43241019145E+03  0.10100000352E+00 0. -1.
    10030    2    1    2    0    0  0.00000000000E+00  0.00000000000E+00  0.86813069789E+03  0.17329510729E+04  0.14998228270E+04 0.  0.
        3    1    3    3  502    0  0.55130621353E+03 -0.18477822860E+03 -0.11313582604E+03  0.59235231086E+03  0.10100000352E+00 0. -1.
       -3    1    3    3    0  502 -0.55130621353E+03  0.18477822860E+03  0.98126652393E+03  0.11405987621E+04  0.10100000352E+00 0.  1.
</event>
<event>
 5   0  0.6361716E-05  0.1502696E+04  0.7818609E-02  0.8882662E-01
       -1   -1    0    0    0  501  0.00000000000E+00  0.00000000000E+00  0.13049379731E+04  0.13049379731E+04  0.50400001928E-02 0. -1.
        1   -1    0    0  501    0  0.00000000000E+00  0.00000000000E+00 -0.43260586255E+03  0.43260586258E+03  0.50400001928E-02 0.  1.
    10030    2    1    2    0    0  0.00000000000E+00  0.00000000000E+00  0.87233211051E+03  0.17375438356E+04  0.15026960005E+04 0.  0.
        3    1    3    3  502    0  0.36721665349E+03 -0.65516882249E+03  0.46013074710E+03  0.88080336692E+03  0.10100000352E+00 0.  1.
       -3    1    3    3    0  502 -0.36721665349E+03  0.65516882249E+03  0.41220136341E+03  0.85674046872E+03  0.10100000352E+00 0. -1.
</event>
<event>
 5   0  0.6542036E-05  0.1493939E+04  0.7818609E-02  0.8888493E-01
        1   -1    0    0  501    0  0.00000000000E+00  0.00000000000E+00  0.12633071419E+04  0.12633071419E+04  0.50400001928E-02 0.  1.
       -1   -1    0    0    0  501  0.00000000000E+00  0.00000000000E+00 -0.44166901160E+03  0.44166901163E+03  0.50400001928E-02 0. -1.
    10030    2    1    2    0    0  0.00000000000E+00  0.00000000000E+00  0.82163813027E+03  0.17049761535E+04  0.14939392447E+04 0.  0.
        4    1    3    3  502    0 -0.35051201930E+03  0.38520057686E+03 -0.20028796264E+03  0.55799197213E+03  0.12699999809E+01 0. -1.
       -4    1    3    3    0  502  0.35051201930E+03 -0.38520057686E+03  0.10219260929E+04  0.11469841814E+04  0.12699999809E+01 0.  1.
</event>
<event>
 5   0  0.1254487E-04  0.1484196E+04  0.7818609E-02  0.8895031E-01
       -2   -1    0    0    0  501  0.00000000000E+00  0.00000000000E+00  0.68368199043E+03  0.68368199044E+03  0.25500000920E-02 0. -1.
        2   -1    0    0  501    0  0.00000000000E+00  0.00000000000E+00 -0.80550480768E+03  0.80550480768E+03  0.25500000920E-02 0.  1.
    10030    2    1    2    0    0  0.00000000000E+00  0.00000000000E+00 -0.12182281725E+03  0.14891867981E+04  0.14841955804E+04 0.  0.
        5    1    3    3  502    0 -0.13236614150E+03 -0.38918012534E+02 -0.79250790940E+03  0.80444159737E+03  0.46999998093E+01 0.  1.
       -5    1    3    3    0  502  0.13236614150E+03  0.38918012534E+02  0.67068509215E+03  0.68474520075E+03  0.46999998093E+01 0. -1.
</event>
<event>
 5   0  0.6364378E-05  0.1495188E+04  0.7818609E-02  0.8887659E-01
        1   -1    0    0  501    0  0.00000000000E+00  0.00000000000E+00  0.63415564926E+03  0.63415564928E+03  0.50400001928E-02 0. -1.
       -1   -1    0    0    0  501  0.00000000000E+00  0.00000000000E+00 -0.88132455225E+03  0.88132455227E+03  0.50400001928E-02 0.  1.
    10030    2    1    2    0    0  0.00000000000E+00  0.00000000000E+00 -0.24716890300E+03  0.15154802015E+04  0.14951882071E+04 0.  0.
        5    1    3    3  502    0 -0.45148470971E+03  0.33078329180E+03  0.37874105206E+03  0.67581277270E+03  0.46999998093E+01 0. -1.
       -5    1    3    3    0  502  0.45148470971E+03 -0.33078329180E+03 -0.62590995505E+03  0.83966742885E+03  0.46999998093E+01 0.  1.
</event>
<event>
 5   0  0.6509279E-05  0.1499880E+04  0.7818609E-02  0.8884533E-01
       -1   -1    0    0    0  501  0.00000000000E+00  0.00000000000E+00  0.11696287028E+04  0.11696287028E+04  0.50400001928E-02 0. -1.
        1   -1    0    0  501    0  0.00000000000E+00  0.00000000000E+00 -0.48084474262E+03  0.48084474265E+03  0.50400001928E-02 0.  1.
    10030    2    1    2    0    0  0.00000000000E+00  0.00000000000E+00  0.68878396014E+03  0.16504734454E+04  0.14998797453E+04 0.  0.
        2    1    3    3  502    0  0.20403508474E+03 -0.72156688027E+03  0.33230084694E+03  0.82019078963E+03  0.25500000920E-02 0.  1.
       -2    1    3    3    0  502 -0.20403508474E+03  0.72156688027E+03  0.35648311320E+03  0.83028265580E+03  0.25500000920E-02 0. -1.
</event>
<event>
 5   0  0.1254487E-04  0.1501515E+04  0.7818609E-02  0.8883446E-01
        2   -1    0    0  501    0  0.00000000000E+00  0.00000000000E+00  0.59416795350E+03  0.59416795350E+03  0.25500000920E-02 0. -1.
       -2   -1    0    0    0  501  0.00000000000E+00  0.00000000000E+00 -0.94861532231E+03  0.94861532232E+03  0.25500000920E-02 0.  1.
    10030    2    1    2    0    0  0.00000000000E+00  0.00000000000E+00 -0.35444736881E+03  0.15427832758E+04  0.15015150012E+04 0.  0.
        5    1    3    3  502    0 -0.11598165203E+03 -0.15232347612E+03 -0.92309567508E+03  0.94275230062E+03  0.46999998093E+01 0.  1.
       -5    1    3    3    0  502  0.11598165203E+03  0.15232347612E+03  0.56864830626E+03  0.60003097520E+03  0.46999998093E+01 0. -1.
</event>
<event>
 5   0  0.6361716E-05  0.1500731E+04  0.7818609E-02  0.8883967E-01
       -1   -1    0    0    0  501  0.00000000000E+00  0.00000000000E+00  0.42483139151E+03  0.42483139154E+03  0.50400001928E-02 0.  1.
        1   -1    0    0  501    0  0.00000000000E+00  0.00000000000E+00 -0.13253457409E+04  0.13253457409E+04  0.50400001928E-02 0. -1.
    10030    2    1    2    0    0  0.00000000000E+00  0.00000000000E+00 -0.90051434937E+03  0.17501771324E+04  0.15007311223E+04 0.  0.
        3    1    3    3  502    0  0.54905950945E+02  0.74834846763E+03 -0.45363169829E+03  0.87682485158E+03  0.10100000352E+00 0. -1.
       -3    1    3    3    0  502 -0.54905950945E+02 -0.74834846763E+03 -0.44688265108E+03  0.87335228086E+03  0.10100000352E+00 0.  1.
</event>
<event>
 5   0  0.6361716E-05  0.1507545E+04  0.7818609E-02  0.8879451E-01
       -1   -1    0    0    0  501  0.00000000000E+00  0.00000000000E+00  0.46873425673E+03  0.46873425675E+03  0.50400001928E-02 0.  1.
        1   -1    0    0  501    0  0.00000000000E+00  0.00000000000E+00 -0.12121428063E+04  0.12121428063E+04  0.50400001928E-02 0. -1.
    10030    2    1    2    0    0  0.00000000000E+00  0.00000000000E+00 -0.74340854957E+03  0.16808770631E+04  0.15075448350E+04 0.  0.
        3    1    3    3  502    0 -0.81079405795E+02  0.67405394907E+03 -0.65596833450E+01  0.67894450138E+03  0.10100000352E+00 0.  1.
       -3    1    3    3    0  502  0.81079405795E+02 -0.67405394907E+03 -0.73684886623E+03  0.10019325617E+04  0.10100000352E+00 0. -1.
</event>
<event>
 5   0  0.6361716E-05  0.1501063E+04  0.7818609E-02  0.8883747E-01
        1   -1    0    0  501    0  0.00000000000E+00  0.00000000000E+00  0.12004281047E+04  0.12004281047E+04  0.50400001928E-02 0. -1.
       -1   -1    0    0    0  501  0.00000000000E+00  0.00000000000E+00 -0.46924694968E+03  0.46924694971E+03  0.50400001928E-02 0.  1.
    10030    2    1    2    0    0  0.00000000000E+00  0.00000000000E+00  0.73118115501E+03  0.16696750544E+04  0.15010625923E+04 0.  0.
        3    1    3    3  502    0  0.45207868968E+03 -0.14583605572E+03 -0.28076135890E+03  0.55178822719E+03  0.10100000352E+00 0.  1.
       -3    1    3    3    0  502 -0.45207868968E+03  0.14583605572E+03  0.10119425139E+04  0.11178868272E+04  0.10100000352E+00 0. -1.
</event>
<event>
 5   0  0.6509279E-05  0.1499939E+04  0.7818609E-02  0.8884494E-01
       -1   -1    0    0    0  501  0.00000000000E+00  0.00000000000E+00  0.35659090473E+03  0.35659090476E+03  0.50400001928E-02 0. -1.
        1   -1    0    0  501    0  0.00000000000E+00  0.00000000000E+00 -0.15773089006E+04  0.15773089006E+04  0.50400001928E-02 0.  1.
    10030    2    1    2    0    0  0.00000000000E+00  0.00000000000E+00 -0.12207179958E+04  0.19338998053E+04  0.14999386760E+04 0.  0.
        2    1    3    3  502    0  0.36359749605E+03  0.56936897206E+03 -0.19044879425E+03  0.70189380160E+03  0.25500000920E-02 0. -1.
       -2    1    3    3    0  502 -0.36359749605E+03 -0.56936897206E+03 -0.10302692016E+04  0.12320060037E+04  0.25500000920E-02 0.  1.
</event>
<event>
 5   0  0.6542036E-05  0.1501839E+04  0.7818609E-02  0.8883231E-01
       -1   -1    0    0    0  501  0.00000000000E+00  0.00000000000E+00  0.23788295000E+03  0.23788295005E+03  0.50400001928E-02 0.  1.
        1   -1    0    0  501    0  0.00000000000E+00  0.00000000000E+00 -0.23704093040E+04  0.23704093040E+04  0.50400001928E-02 0. -1.
    10030    2    1    2    0    0  0.00000000000E+00  0.00000000000E+00 -0.21325263540E+04  0.26082922540E+04  0.15018388169E+04 0.  0.
        4    1    3    3  502    0  0.57539928847E+03  0.34483323016E+03 -0.48017309367E+03  0.82496188432E+03  0.12699999809E+01 0.  1.
       -4    1    3    3    0  502 -0.57539928847E+03 -0.34483323016E+03 -0.16523532603E+04  0.17833303697E+04  0.12699999809E+01 0. -1.
</event>
<event>
 5   0  0.6542036E-05  0.1496870E+04  0.7818609E-02  0.8886537E-01
        1   -1    0    0  501    0  0.00000000000E+00  0.00000000000E+00  0.93569989623E+03  0.93569989624E+03  0.50400001928E-02 0.  1.
       -1   -1    0    0    0  501  0.00000000000E+00  0.00000000000E+00 -0.59864772102E+03  0.59864772105E+03  0.50400001928E-02 0. -1.
    10030    2    1    2    0    0  0.00000000000E+00  0.00000000000E+00  0.33705217521E+03  0.15343476173E+04  0.14968695474E+04 0.  0.
        4    1    3    3  502    0 -0.65765513318E+03  0.35366250498E+02  0.53294383578E+03  0.84722593850E+03  0.12699999809E+01 0.  1.
       -4    1    3    3    0  502  0.65765513318E+03 -0.35366250498E+02 -0.19589166057E+03  0.68712167879E+03  0.12699999809E+01 0. -1.
</event>
<event>
 5   0  0.1186664E-04  0.1503001E+04  0.7818609E-02  0.8882460E-01
       -2   -1    0    0    0  501  0.00000000000E+00  0.00000000000E+00  0.75160656033E+03  0.75160656033E+03  0.25500000920E-02 0. -1.
        2   -1    0    0  501    0  0.00000000000E+00  0.00000000000E+00 -0.75139424240E+03  0.75139424240E+03  0.25500000920E-02 0.  1.
    10030    2    1    2    0    0  0.00000000000E+00  0.00000000000E+00  0.21231793210E+00  0.15030008027E+04  0.15030007877E+04 0.  0.
        3    1    3    3  502    0 -0.25760453314E+03 -0.66092387704E+03 -0.24803163798E+03  0.75146534875E+03  0.10100000352E+00 0.  1.
       -3    1    3    3    0  502  0.25760453314E+03  0.66092387704E+03  0.24824395591E+03  0.75153545398E+03  0.10100000352E+00 0. -1.
</event>
<event>
 5   0  0.1216921E-04  0.1499692E+04  0.7818609E-02  0.8884657E-01
       -2   -1    0    0    0  501  0.00000000000E+00  0.00000000000E+00  0.96065394669E+03  0.96065394669E+03  0.25500000920E-02 0.  1.
        2   -1    0    0  501    0  0.00000000000E+00  0.00000000000E+00 -0.58529852328E+03  0.58529852329E+03  0.25500000920E-02 0. -1.
    10030    2    1    2    0    0  0.00000000000E+00  0.00000000000E+00  0.37535542341E+03  0.15459524700E+04  0.14996924170E+04 0.  0.
        4    1    3    3  502    0 -0.70366514144E+03 -0.15128365134E+03  0.40448984372E+03  0.82561796311E+03  0.12699999809E+01 0.  1.
       -4    1    3    3    0  502  0.70366514144E+03  0.15128365134E+03 -0.29134420314E+02  0.72033450687E+03  0.12699999809E+01 0. -1.
</event>
<event>
 5   0  0.1216921E-04  0.1502334E+04  0.7818609E-02  0.8882902E-01
        2   -1    0    0  501    0  0.00000000000E+00  0.00000000000E+00  0.14534635209E+04  0.14534635209E+04  0.25500000920E-02 0.  1.
       -2   -1    0    0    0  501  0.00000000000E+00  0.00000000000E+00 -0.38821215474E+03  0.38821215475E+03  0.25500000920E-02 0. -1.
    10030    2    1    2    0    0  0.00000000000E+00  0.00000000000E+00  0.10652513662E+04  0.18416756757E+04  0.15023344572E+04 0.  0.
        4    1    3    3  502    0  0.40053075425E+02  0.66230858959E+03  0.96429014064E+03  0.11705186905E+04  0.12699999809E+01 0.  1.
       -4    1    3    3    0  502 -0.40053075425E+02 -0.66230858959E+03  0.10096122553E+03  0.67115698511E+03  0.12699999809E+01 0. -1.
</event>
<event>
 5   0  0.6364378E-05  0.1495130E+04  0.7818609E-02  0.8887698E-01
       -1   -1    0    0    0  501  0.00000000000E+00  0.00000000000E+00  0.35363471347E+03  0.35363471350E+03  0.50400001928E-02 0.  1.
        1   -1    0    0  501    0  0.00000000000E+00  0.00000000000E+00 -0.15803119225E+04  0.15803119225E+04  0.50400001928E-02 0. -1.
    10030    2    1    2    0    0  0.00000000000E+00  0.00000000000E+00 -0.12266772091E+04  0.19339466360E+04  0.14951296318E+04 0.  0.
        5    1    3    3  502    0  0.17811038302E+03  0.39335618400E+03  0.17599035079E+03  0.46631222330E+03  0.46999998093E+01 0.  1.
       -5    1    3    3    0  502 -0.17811038302E+03 -0.39335618400E+03 -0.14026675598E+04  0.14676344127E+04  0.46999998093E+01 0. -1.
</event>
<event>
 5   0  0.6361716E-05  0.1503940E+04  0.7818609E-02  0.8881837E-01
        1   -1    0    0  501    0  0.00000000000E+00  0.00000000000E+00  0.33781881479E+03  0.33781881483E+03  0.50400001928E-02 0.  1.
       -1   -1    0    0    0  501  0.00000000000E+00  0.00000000000E+00 -0.16738528636E+04  0.16738528636E+04  0.50400001928E-02 0. -1.
    10030    2    1    2    0    0  0.00000000000E+00  0.00000000000E+00 -0.13360340488E+04  0.20116716784E+04  0.15039401458E+04 0.  0.
        3    1    3    3  502    0 -0.37407153560E+02 -0.23244728404E+02  0.33609223694E+03  0.33896550631E+03  0.10100000352E+00 0.  1.
       -3    1    3    3    0  502  0.37407153560E+02  0.23244728404E+02 -0.16721262857E+04  0.16727061721E+04  0.10100000352E+00 0. -1.
</event>
<event>
 5   0  0.1216921E-04  0.1499787E+04  0.7818609E-02  0.8884595E-01
       -2   -1    0    0    0  501  0.00000000000E+00  0.00000000000E+00  0.50787743758E+03  0.50787743759E+03  0.25500000920E-02 0. -1.
        2   -1    0    0  501    0  0.00000000000E+00  0.00000000000E+00 -0.11072359556E+04  0.11072359556E+04  0.25500000920E-02 0.  1.
    10030    2    1    2    0    0  0.00000000000E+00  0.00000000000E+00 -0.59935851806E+03  0.16151133932E+04  0.14997868648E+04 0.  0.
        4    1    3    3  502    0  0.26618549281E+03 -0.13409515490E+03 -0.10407071057E+04  0.10825475139E+04  0.12699999809E+01 0.  1.
       -4    1    3    3    0  502 -0.26618549281E+03  0.13409515490E+03  0.44134858761E+03  0.53256587934E+03  0.12699999809E+01 0. -1.
</event>
<event>
 5   0  0.1254487E-04  0.1503254E+04  0.7818609E-02  0.8882292E-01
        2   -1    0    0  501    0  0.00000000000E+00  0.00000000000E+00  0.11671452200E+04  0.11671452200E+04  0.25500000920E-02 0.  1.
       -2   -1    0    0    0  501  0.00000000000E+00  0.00000000000E+00 -0.48403838705E+03  0.48403838705E+03  0.25500000920E-02 0. -1.
    10030    2    1    2    0    0  0.00000000000E+00  0.00000000000E+00  0.68310683293E+03  0.16511836070E+04  0.15032539236E+04 0.  0.
        5    1    3    3  502    0 -0.68849576552E+02  0.18153789545E+02  0.11634162089E+04  0.11656025006E+04  0.46999998093E+01 0.  1.
       -5    1    3    3    0  502  0.68849576552E+02 -0.18153789545E+02 -0.48030937598E+03  0.48558110643E+03  0.46999998093E+01 0. -1.
</event>
<event>
 5   0  0.6364378E-05  0.1502349E+04  0.7818609E-02  0.8882892E-01
        1   -1    0    0  501    0  0.00000000000E+00  0.00000000000E+00  0.13380491710E+04  0.13380491710E+04  0.50400001928E-02 0. -1.
       -1   -1    0    0    0  501  0.00000000000E+00  0.00000000000E+00 -0.42170598386E+03  0.42170598389E+03  0.50400001928E-02 0.  1.
    10030    2    1    2    0    0  0.00000000000E+00  0.00000000000E+00  0.91634318710E+03  0.17597551549E+04  0.15023492831E+04 0.  0.
        5    1    3    3  502    0 -0.24963399310E+03  0.14047355382E+03 -0.35520377804E+03  0.45633514412E+03  0.46999998093E+01 0.  1.
       -5    1    3    3    0  502  0.24963399310E+03 -0.14047355382E+03  0.12715469651E+04  0.13034200107E+04  0.46999998093E+01 0. -1.
</event>
<event>
 5   0  0.6361716E-05  0.1500315E+04  0.7818609E-02  0.8884244E-01
        1   -1    0    0  501    0  0.00000000000E+00  0.00000000000E+00  0.12599202963E+04  0.12599202963E+04  0.50400001928E-02 0.  1.
       -1   -1    0    0    0  501  0.00000000000E+00  0.00000000000E+00 -0.44664406734E+03  0.44664406737E+03  0.50400001928E-02 0. -1.
    10030    2    1    2    0    0  0.00000000000E+00  0.00000000000E+00  0.81327622895E+03  0.17065643637E+04  0.15003145346E+04 0.  0.
        3    1    3    3  502    0  0.40071734568E+03 -0.58543611577E+03  0.68392472099E+03  0.98542522343E+03  0.10100000352E+00 0. -1.
       -3    1    3    3    0  502 -0.40071734568E+03  0.58543611577E+03  0.12935150796E+03  0.72113914024E+03  0.10100000352E+00 0.  1.
</event>
<event>
 5   0  0.1228286E-04  0.1499467E+04  0.7818609E-02  0.8884808E-01
        2   -1    0    0  501    0  0.00000000000E+00  0.00000000000E+00  0.30717136992E+03  0.30717136993E+03  0.25500000920E-02 0.  1.
       -2   -1    0    0    0  501  0.00000000000E+00  0.00000000000E+00 -0.18299238164E+04  0.18299238165E+04  0.25500000920E-02 0. -1.
    10030    2    1    2    0    0  0.00000000000E+00  0.00000000000E+00 -0.15227524465E+04  0.21370951864E+04  0.14994668460E+04 0.  0.
        2    1    3    3  502    0 -0.15586782382E+03  0.46819721869E+03 -0.15658422297E+04  0.16417567733E+04  0.25500000920E-02 0. -1.
       -2    1    3    3    0  502  0.15586782382E+03 -0.46819721869E+03  0.43089783208E+02  0.49533841312E+03  0.25500000920E-02 0.  1.
</event>
<event>
 5   0  0.1254487E-04  0.1500307E+04  0.7818609E-02  0.8884249E-01
       -2   -1    0    0    0  501  0.00000000000E+00  0.00000000000E+00  0.27218767376E+03  0.27218767377E+03  0.25500000920E-02 0. -1.
        2   -1    0    0  501    0  0.00000000000E+00  0.00000000000E+00 -0.20674340760E+04  0.20674340760E+04  0.25500000920E-02 0.  1.
    10030    2    1    2    0    0  0.00000000000E+00  0.00000000000E+00 -0.17952464023E+04  0.23396217498E+04  0.15003067311E+04 0.  0.
        5    1    3    3  502    0 -0.10257814620E+03  0.67616056035E+03 -0.13782527695E+04  0.15386091661E+04  0.46999998093E+01 0.  1.
       -5    1    3    3    0  502  0.10257814620E+03 -0.67616056035E+03 -0.41699363279E+03  0.80101258370E+03  0.46999998093E+01 0. -1.
</event>
<event>
 5   0  0.1219810E-04  0.1500075E+04  0.7818609E-02  0.8884403E-01
        2   -1    0    0  501    0  0.00000000000E+00  0.00000000000E+00  0.95272786262E+03  0.95272786262E+03  0.25500000920E-02 0. -1.
       -2   -1    0    0    0  501  0.00000000000E+00  0.00000000000E+00 -0.59046889201E+03  0.59046889202E+03  0.25500000920E-02 0.  1.
    10030    2    1    2    0    0  0.00000000000E+00  0.00000000000E+00  0.36225897060E+03  0.15431967546E+04  0.15000748854E+04 0.  0.
        1    1    3    3  502    0  0.45922994125E+03  0.18922473045E+03 -0.39703887410E+03  0.63587577806E+03  0.50400001928E-02 0.  1.
       -1    1    3    3    0  502 -0.45922994125E+03 -0.18922473045E+03  0.75929784470E+03  0.90732097658E+03  0.50400001928E-02 0. -1.
</event>
<event>
 5   0  0.1216921E-04  0.1501386E+04  0.7818609E-02  0.8883532E-01
        2   -1    0    0  501    0  0.00000000000E+00  0.00000000000E+00  0.12577766279E+04  0.12577766279E+04  0.25500000920E-02 0. -1.
       -2   -1    0    0    0  501  0.00000000000E+00  0.00000000000E+00 -0.44804453538E+03  0.44804453538E+03  0.25500000920E-02 0.  1.
    10030    2    1    2    0    0  0.00000000000E+00  0.00000000000E+00  0.80973209250E+03  0.17058211633E+04  0.15013859528E+04 0.  0.
        4    1    3    3  502    0  0.60125123948E+03 -0.51003469152E+02  0.91225460311E+03  0.10937616197E+04  0.12699999809E+01 0. -1.
       -4    1    3    3    0  502 -0.60125123948E+03  0.51003469152E+02 -0.10252251061E+03  0.61205954361E+03  0.12699999809E+01 0.  1.
</event>
<event>
 5   0  0.1254487E-04  0.1499880E+04  0.7818609E-02  0.8884533E-01
       -2   -1    0    0    0  501  0.00000000000E+00  0.00000000000E+00  0.65954792184E+03  0.65954792185E+03  0.25500000920E-02 0. -1.
        2   -1    0    0  501    0  0.00000000000E+00  0.00000000000E+00 -0.85272011998E+03  0.85272011999E+03  0.25500000920E-02 0.  1.
    10030    2    1    2    0    0  0.00000000000E+00  0.00000000000E+00 -0.19317219814E+03  0.15122680418E+04  0.14998797059E+04 0.  0.
        5    1    3    3  502    0  0.23995268826E+03 -0.20183943896E+03  0.59026828317E+03  0.66839747743E+03  0.46999998093E+01 0. -1.
       -5    1    3    3    0  502 -0.23995268826E+03  0.20183943896E+03 -0.78344048130E+03  0.84387056440E+03  0.46999998093E+01 0.  1.
</event>
<event>
 5   0  0.1186664E-04  0.1498981E+04  0.7818609E-02  0.8885131E-01
        2   -1    0    0  501    0  0.00000000000E+00  0.00000000000E+00  0.62036372809E+03  0.62036372810E+03  0.25500000920E-02 0. -1.
       -2   -1    0    0    0  501  0.00000000000E+00  0.00000000000E+00 -0.90549446229E+03  0.90549446230E+03  0.25500000920E-02 0.  1.
    10030    2    1    2    0    0  0.00000000000E+00  0.00000000000E+00 -0.28513073420E+03  0.15258581904E+04  0.14989808810E+04 0.  0.
        3    1    3    3  502    0 -0.11952498844E+03  0.27511360419E+01 -0.89572525730E+03  0.90366893185E+03  0.10100000352E+00 0.  1.
       -3    1    3    3    0  502  0.11952498844E+03 -0.27511360419E+01  0.61059452310E+03  0.62218925855E+03  0.10100000352E+00 0. -1.
</event>
<event>
 5   0  0.6542036E-05  0.1475315E+04  0.7818609E-02  0.8901036E-01
        1   -1    0    0  501    0  0.00000000000E+00  0.00000000000E+00  0.13858855114E+04  0.13858855114E+04  0.50400001928E-02 0. -1.
       -1   -1    0    0    0  501  0.00000000000E+00  0.00000000000E+00 -0.39262903426E+03  0.39262903429E+03  0.50400001928E-02 0.  1.
    10030    2    1    2    0    0  0.00000000000E+00  0.00000000000E+00  0.99325647718E+03  0.17785145457E+04  0.14753154103E+04 0.  0.
        4    1    3    3  502    0  0.26039965278E+03  0.67791653904E+03  0.34056894090E+03  0.80210200690E+03  0.12699999809E+01 0.  1.
       -4    1    3    3    0  502 -0.26039965278E+03 -0.67791653904E+03  0.65268753627E+03  0.97641253883E+03  0.12699999809E+01 0. -1.
</event>
<event>
 5   0  0.1254487E-04  0.1499056E+04  0.7818609E-02  0.8885081E-01
       -2   -1    0    0    0  501  0.00000000000E+00  0.00000000000E+00  0.11870053172E+04  0.11870053172E+04  0.25500000920E-02 0. -1.
        2   -1    0    0  501    0  0.00000000000E+00  0.00000000000E+00 -0.47328546872E+03  0.47328546872E+03  0.25500000920E-02 0.  1.
    10030    2    1    2    0    0  0.00000000000E+00  0.00000000000E+00  0.71371984852E+03  0.16602907860E+04  0.14990561937E+04 0.  0.
        5    1    3    3  502    0  0.72753264300E+03 -0.13770427752E+03  0.48556583041E+03  0.88547302632E+03  0.46999998093E+01 0.  1.
       -5    1    3    3    0  502 -0.72753264300E+03  0.13770427752E+03  0.22815401811E+03  0.77481775964E+03  0.46999998093E+01 0. -1.
</event>
<event>
 5   0  0.6364378E-05  0.1505806E+04  0.7818609E-02  0.8880601E-01
        1   -1    0    0  501    0  0.00000000000E+00  0.00000000000E+00  0.12735902390E+04  0.12735902391E+04  0.50400001928E-02 0.  1.
       -1   -1    0    0    0  501  0.00000000000E+00  0.00000000000E+00 -0.44509069142E+03  0.44509069145E+03  0.50400001928E-02 0. -1.
    10030    2    1    2    0    0  0.00000000000E+00  0.00000000000E+00  0.82849954763E+03  0.17186809305E+04  0.15058063091E+04 0.  0.
        5    1    3    3  502    0 -0.40716398682E+03 -0.18014591839E+01  0.11370666482E+04  0.12077782950E+04  0.46999998093E+01 0.  1.
       -5    1    3    3    0  502  0.40716398682E+03  0.18014591839E+01 -0.30856710057E+03  0.51090263551E+03  0.46999998093E+01 0. -1.
</event>
<event>
 5   0  0.6364378E-05  0.1494387E+04  0.7818609E-02  0.8888194E-01
       -1   -1    0    0    0  501  0.00000000000E+00  0.00000000000E+00  0.48962427853E+03  0.48962427856E+03  0.50400001928E-02 0. -1.
        1   -1    0    0  501    0  0.00000000000E+00  0.00000000000E+00 -0.11402575081E+04  0.11402575081E+04  0.50400001928E-02 0.  1.
    10030    2    1    2    0    0  0.00000000000E+00  0.00000000000E+00 -0.65063322960E+03  0.16298817867E+04  0.14943865093E+04 0.  0.
        5    1    3    3  502    0 -0.55676126413E+02 -0.17347384963E+03 -0.11156439581E+04  0.11304320143E+04  0.46999998093E+01 0.  1.
       -5    1    3    3    0  502  0.55676126413E+02  0.17347384963E+03  0.46501072852E+03  0.49944977244E+03  0.46999998093E+01 0. -1.
</event>
<event>
 5   0  0.6364378E-05  0.1496755E+04  0.7818609E-02  0.8886613E-01
        1   -1    0    0  501    0  0.00000000000E+00  0.00000000000E+00  0.52574449500E+03  0.52574449503E+03  0.50400001928E-02 0.  1.
       -1   -1    0    0    0  501  0.00000000000E+00  0.00000000000E+00 -0.10652876849E+04  0.10652876849E+04  0.50400001928E-02 0. -1.
    10030    2    1    2    0    0  0.00000000000E+00  0.00000000000E+00 -0.53954318986E+03  0.15910321799E+04  0.14967553386E+04 0.  0.
        5    1    3    3  502    0 -0.44209132072E+03  0.58013840562E+03 -0.91767238967E+02  0.73515210785E+03  0.46999998093E+01 0. -1.
       -5    1    3    3    0  502  0.44209132072E+03 -0.58013840562E+03 -0.44777595089E+03  0.85588007205E+03  0.46999998093E+01 0.  1.
</event>
<event>
 5   0  0.6668433E-05  0.1493896E+04  0.7818609E-02  0.8888522E-01
       -1   -1    0    0    0  501  0.00000000000E+00  0.00000000000E+00  0.71947764140E+03  0.71947764142E+03  0.50400001928E-02 0. -1.
        1   -1    0    0  501    0  0.00000000000E+00  0.00000000000E+00 -0.77546756301E+03  0.77546756303E+03  0.50400001928E-02 0.  1.
    10030    2    1    2    0    0  0.00000000000E+00  0.00000000000E+00 -0.55989921610E+02  0.14949452044E+04  0.14938963461E+04 0.  0.
        1    1    3    3  502    0  0.35860766621E+03  0.57208608062E+03  0.29168140498E+03  0.73549981914E+03  0.50400001928E-02 0. -1.
       -1    1    3    3    0  502 -0.35860766621E+03 -0.57208608062E+03 -0.34767132659E+03  0.75944538531E+03  0.50400001928E-02 0.  1.
</event>
<event>
 5   0  0.1186664E-04  0.1521468E+04  0.7818609E-02  0.8870301E-01
       -2   -1    0    0    0  501  0.00000000000E+00  0.00000000000E+00  0.32263509003E+03  0.32263509004E+03  0.25500000920E-02 0. -1.
        2   -1    0    0  501    0  0.00000000000E+00  0.00000000000E+00 -0.17937168857E+04  0.17937168857E+04  0.25500000920E-02 0.  1.
    10030    2    1    2    0    0  0.00000000000E+00  0.00000000000E+00 -0.14710817957E+04  0.21163519758E+04  0.15214677242E+04 0.  0.
        3    1    3    3  502    0 -0.58699131595E+03 -0.51891526088E+02 -0.14047584387E+04  0.15233508515E+04  0.10100000352E+00 0.  1.
       -3    1    3    3    0  502  0.58699131595E+03  0.51891526088E+02 -0.66323356982E+02  0.59300112425E+03  0.10100000352E+00 0. -1.
</event>
<event>
 5   0  0.4462875E-05  0.1499803E+04  0.7818609E-02  0.8884584E-01
       -4   -1    0    0    0  501  0.00000000000E+00  0.00000000000E+00  0.52848946001E+03  0.52849098597E+03  0.12699999809E+01 0.  1.
        4   -1    0    0  501    0  0.00000000000E+00  0.00000000000E+00 -0.10640705939E+04  0.10640713517E+04  0.12699999809E+01 0. -1.
    10030    2    1    2    0    0  0.00000000000E+00  0.00000000000E+00 -0.53558113384E+03  0.15925623377E+04  0.14998025365E+04 0.  0.
        5    1    3    3  502    0  0.12605148990E+03 -0.12432590547E+03 -0.10415448020E+04  0.10564958937E+04  0.46999998093E+01 0. -1.
       -5    1    3    3    0  502 -0.12605148990E+03  0.12432590547E+03  0.50596366816E+03  0.53606644399E+03  0.46999998093E+01 0.  1.
</event>
<event>
 5   0  0.6542036E-05  0.1499369E+04  0.7818609E-02  0.8884873E-01
       -1   -1    0    0    0  501  0.00000000000E+00  0.00000000000E+00  0.48799931660E+03  0.48799931663E+03  0.50400001928E-02 0.  1.
        1   -1    0    0  501    0  0.00000000000E+00  0.00000000000E+00 -0.11516959972E+04  0.11516959972E+04  0.50400001928E-02 0. -1.
    10030    2    1    2    0    0  0.00000000000E+00  0.00000000000E+00 -0.66369668059E+03  0.16396953138E+04  0.14993690134E+04 0.  0.
        4    1    3    3  502    0  0.27319646632E+01 -0.29092818753E+03  0.42374145703E+03  0.51400886105E+03  0.12699999809E+01 0.  1.
       -4    1    3    3    0  502 -0.27319646632E+01  0.29092818753E+03 -0.10874381376E+04  0.11256864528E+04  0.12699999809E+01 0. -1.
</event>
<event>
 5   0  0.1216921E-04  0.1502534E+04  0.7818609E-02  0.8882770E-01
       -2   -1    0    0    0  501  0.00000000000E+00  0.00000000000E+00  0.80755102823E+03  0.80755102824E+03  0.25500000920E-02 0. -1.
        2   -1    0    0  501    0  0.00000000000E+00  0.00000000000E+00 -0.69890546302E+03  0.69890546303E+03  0.25500000920E-02 0.  1.
    10030    2    1    2    0    0  0.00000000000E+00  0.00000000000E+00  0.10864556521E+03  0.15064564913E+04  0.15025336273E+04 0.  0.
        4    1    3    3  502    0 -0.24204567876E+02 -0.73491493621E+03 -0.10007403759E+03  0.74209315484E+03  0.12699999809E+01 0. -1.
       -4    1    3    3    0  502  0.24204567876E+02  0.73491493621E+03  0.20871960280E+03  0.76436333642E+03  0.12699999809E+01 0.  1.
</event>
<event>
 5   0  0.1228286E-04  0.1498723E+04  0.7818609E-02  0.8885303E-01
       -2   -1    0    0    0  501  0.00000000000E+00  0.00000000000E+00  0.22280492366E+03  0.22280492367E+03  0.25500000920E-02 0. -1.
        2   -1    0    0  501    0  0.00000000000E+00  0.00000000000E+00 -0.25203333869E+04  0.25203333869E+04  0.25500000920E-02 0.  1.
    10030    2    1    2    0    0  0.00000000000E+00  0.00000000000E+00 -0.22975284633E+04  0.27431383106E+04  0.14987230403E+04 0.  0.
        2    1    3    3  502    0  0.35738079340E+03 -0.31706191894E+03 -0.22054349575E+04  0.22565887183E+04  0.25500000920E-02 0.  1.
       -2    1    3    3    0  502 -0.35738079340E+03  0.31706191894E+03 -0.92093505779E+02  0.48654959228E+03  0.25500000920E-02 0. -1.
</event>
<event>
 5   0  0.6668433E-05  0.1502905E+04  0.7818609E-02  0.8882523E-01
       -1   -1    0    0    0  501  0.00000000000E+00  0.00000000000E+00  0.27440562679E+03  0.27440562684E+03  0.50400001928E-02 0.  1.
        1   -1    0    0  501    0  0.00000000000E+00  0.00000000000E+00 -0.20578328893E+04  0.20578328893E+04  0.50400001928E-02 0. -1.
    10030    2    1    2    0    0  0.00000000000E+00  0.00000000000E+00 -0.17834272625E+04  0.23322385162E+04  0.15029050853E+04 0.  0.
        1    1    3    3  502    0 -0.61482105470E+03 -0.33678085620E+03 -0.13117230277E+04  0.14872940449E+04  0.50400001928E-02 0. -1.
       -1    1    3    3    0  502  0.61482105470E+03  0.33678085620E+03 -0.47170423477E+03  0.84494447127E+03  0.50400001928E-02 0.  1.
</event>
<event>
 5   0  0.1254487E-04  0.1469179E+04  0.7818609E-02  0.8905211E-01
        2   -1    0    0  501    0  0.00000000000E+00  0.00000000000E+00  0.79827914664E+03  0.79827914665E+03  0.25500000920E-02 0. -1.
       -2   -1    0    0    0  501  0.00000000000E+00  0.00000000000E+00 -0.67598108894E+03  0.67598108894E+03  0.25500000920E-02 0.  1.
    10030    2    1    2    0    0  0.00000000000E+00  0.00000000000E+00  0.12229805770E+03  0.14742602356E+04  0.14691788276E+04 0.  0.
        5    1    3    3  502    0  0.25473923316E+03  0.37274653903E+03  0.64260762009E+03  0.78536533070E+03  0.46999998093E+01 0. -1.
       -5    1    3    3    0  502 -0.25473923316E+03 -0.37274653903E+03 -0.52030956239E+03  0.68889490489E+03  0.46999998093E+01 0.  1.
</event>
<event>
 5   0  0.6361716E-05  0.1507685E+04  0.7818609E-02  0.8879358E-01
       -1   -1    0    0    0  501  0.00000000000E+00  0.00000000000E+00  0.60993841279E+03  0.60993841281E+03  0.50400001928E-02 0.  1.
        1   -1    0    0  501    0  0.00000000000E+00  0.00000000000E+00 -0.93169844659E+03  0.93169844661E+03  0.50400001928E-02 0. -1.
    10030    2    1    2    0    0  0.00000000000E+00  0.00000000000E+00 -0.32176003380E+03  0.15416368594E+04  0.15076852082E+04 0.  0.
        3    1    3    3  502    0  0.39589313040E+03 -0.26859678828E+03  0.43482229521E+03  0.64648746622E+03  0.10100000352E+00 0.  1.
       -3    1    3    3    0  502 -0.39589313040E+03  0.26859678828E+03 -0.75658232901E+03  0.89514939320E+03  0.10100000352E+00 0. -1.
</event>
<event>
 5   0  0.1216921E-04  0.1507704E+04  0.7818609E-02  0.8879346E-01
       -2   -1    0    0    0  501  0.00000000000E+00  0.00000000000E+00  0.92834128569E+03  0.92834128570E+03  0.25500000920E-02 0. -1.
        2   -1    0    0  501    0  0.00000000000E+00  0.00000000000E+00 -0.61215904885E+03  0.61215904886E+03  0.25500000920E-02 0.  1.
    10030    2    1    2    0    0  0.00000000000E+00  0.00000000000E+00  0.31618223684E+03  0.15405003346E+04  0.15077035763E+04 0.  0.
        4    1    3    3  502    0 -0.28885715427E+02 -0.57408757950E+02  0.92553613106E+03  0.92776553765E+03  0.12699999809E+01 0. -1.
       -4    1    3    3    0  502  0.28885715427E+02  0.57408757950E+02 -0.60935389422E+03  0.61273479691E+03  0.12699999809E+01 0.  1.
</event>
<event>
 5   0  0.4462875E-05  0.1521001E+04  0.7818609E-02  0.8870606E-01
        4   -1    0    0  501    0  0.00000000000E+00  0.00000000000E+00  0.11867233774E+04  0.11867240569E+04  0.12699999809E+01 0. -1.
       -4   -1    0    0    0  501  0.00000000000E+00  0.00000000000E+00 -0.48735805751E+03  0.48735971224E+03  0.12699999809E+01 0.  1.
    10030    2    1    2    0    0  0.00000000000E+00  0.00000000000E+00  0.69936531988E+03  0.16740837692E+04  0.15210011886E+04 0.  0.
        5    1    3    3  502    0  0.24373243029E+03 -0.22546054818E+03  0.11027216560E+04  0.11516314936E+04  0.46999998093E+01 0. -1.
       -5    1    3    3    0  502 -0.24373243029E+03  0.22546054818E+03 -0.40335633615E+03  0.52245227560E+03  0.46999998093E+01 0.  1.
</event>
<event>
 5   0  0.6361716E-05  0.1497459E+04  0.7818609E-02  0.8886144E-01
       -1   -1    0    0    0  501  0.00000000000E+00  0.00000000000E+00  0.35065589503E+03  0.35065589506E+03  0.50400001928E-02 0. -1.
        1   -1    0    0  501    0  0.00000000000E+00  0.00000000000E+00 -0.15987071002E+04  0.15987071002E+04  0.50400001928E-02 0.  1.
    10030    2    1    2    0    0  0.00000000000E+00  0.00000000000E+00 -0.12480512052E+04  0.19493629953E+04  0.14974592738E+04 0.  0.
        3    1    3    3  502    0 -0.44647133751E+03  0.44215814493E+03 -0.11540206053E+04  0.13140030624E+04  0.10100000352E+00 0.  1.
       -3    1    3    3    0  502  0.44647133751E+03 -0.44215814493E+03 -0.94030599834E+02  0.63535993283E+03  0.10100000352E+00 0. -1.
</event>
<event>
 5   0  0.6668433E-05  0.1501599E+04  0.7818609E-02  0.8883390E-01
       -1   -1    0    0    0  501  0.00000000000E+00  0.00000000000E+00  0.91983044787E+03  0.91983044788E+03  0.50400001928E-02 0.  1.
        1   -1    0    0  501    0  0.00000000000E+00  0.00000000000E+00 -0.61283014484E+03  0.61283014486E+03  0.50400001928E-02 0. -1.
    10030    2    1    2    0    0  0.00000000000E+00  0.00000000000E+00  0.30700030302E+03  0.15326605927E+04  0.15015989167E+04 0.  0.
        1    1    3    3  502    0 -0.18891616766E+03 -0.70436494732E+03 -0.28744505891E+02  0.72982569430E+03  0.50400001928E-02 0. -1.
       -1    1    3    3    0  502  0.18891616766E+03  0.70436494732E+03  0.33574480892E+03  0.80283489844E+03  0.50400001928E-02 0.  1.
</event>
<event>
 5   0  0.6361716E-05  0.1500388E+04  0.7818609E-02  0.8884195E-01
       -1   -1    0    0    0  501  0.00000000000E+00  0.00000000000E+00  0.45679076686E+03  0.45679076689E+03  0.50400001928E-02 0.  1.
        1   -1    0    0  501    0  0.00000000000E+00  0.00000000000E+00 -0.12320542478E+04  0.12320542478E+04  0.50400001928E-02 0. -1.
    10030    2    1    2    0    0  0.00000000000E+00  0.00000000000E+00 -0.77526348091E+03  0.16888450147E+04  0.15003879561E+04 0.  0.
        3    1    3    3  502    0 -0.71533279871E+03  0.19635561272E+03 -0.26161189185E+03  0.78657315725E+03  0.10100000352E+00 0.  1.
       -3    1    3    3    0  502  0.71533279871E+03 -0.19635561272E+03 -0.51365158907E+03  0.90227185743E+03  0.10100000352E+00 0. -1.
</event>
<event>
 5   0  0.1216921E-04  0.1502695E+04  0.7818609E-02  0.8882663E-01
        2   -1    0    0  501    0  0.00000000000E+00  0.00000000000E+00  0.10471392892E+04  0.10471392892E+04  0.25500000920E-02 0.  1.
       -2   -1    0    0    0  501  0.00000000000E+00  0.00000000000E+00 -0.53910957413E+03  0.53910957414E+03  0.25500000920E-02 0. -1.
    10030    2    1    2    0    0  0.00000000000E+00  0.00000000000E+00  0.50802971505E+03  0.15862488633E+04  0.15026946679E+04 0.  0.
        4    1    3    3  502    0 -0.55156988396E+03 -0.49538156298E+03  0.12520978771E+03  0.75187188647E+03  0.12699999809E+01 0.  1.
       -4    1    3    3    0  502  0.55156988396E+03  0.49538156298E+03  0.38281992734E+03  0.83437697685E+03  0.12699999809E+01 0. -1.
</event>
<event>
 5   0  0.1219810E-04  0.1499760E+04  0.7818609E-02  0.8884612E-01
        2   -1    0    0  501    0  0.00000000000E+00  0.00000000000E+00  0.12390905936E+04  0.12390905936E+04  0.25500000920E-02 0.  1.
       -2   -1    0    0    0  501  0.00000000000E+00  0.00000000000E+00 -0.45381684150E+03  0.45381684151E+03  0.25500000920E-02 0. -1.
    10030    2    1    2    0    0  0.00000000000E+00  0.00000000000E+00  0.78527375211E+03  0.16929074351E+04  0.14997602202E+04 0.  0.
        1    1    3    3  502    0  0.67948705387E+03 -0.36569220130E+02  0.36970559374E+02  0.68147398081E+03  0.50400001928E-02 0. -1.
       -1    1    3    3    0  502 -0.67948705387E+03  0.36569220130E+02  0.74830319274E+03  0.10114334543E+04  0.50400001928E-02 0.  1.
</event>
<event>
 5   0  0.4462875E-05  0.1500452E+04  0.7818609E-02  0.8884153E-01
       -4   -1    0    0    0  501  0.00000000000E+00  0.00000000000E+00  0.80671966513E+03  0.80672066479E+03  0.12699999809E+01 0. -1.
        4   -1    0    0  501    0  0.00000000000E+00  0.00000000000E+00 -0.69768609585E+03  0.69768725174E+03  0.12699999809E+01 0.  1.
    10030    2    1    2    0    0  0.00000000000E+00  0.00000000000E+00  0.10903356927E+03  0.15044079165E+04  0.15004515521E+04 0.  0.
        5    1    3    3  502    0  0.14697135553E+02  0.38024238985E+03 -0.59372984043E+03  0.70522159230E+03  0.46999998093E+01 0.  1.
       -5    1    3    3    0  502 -0.14697135553E+02 -0.38024238985E+03  0.70276340970E+03  0.79918632424E+03  0.46999998093E+01 0. -1.
</event>
<event>
 5   0  0.6509279E-05  0.1492381E+04  0.7818609E-02  0.8889536E-01
       -1   -1    0    0    0  501  0.00000000000E+00  0.00000000000E+00  0.10848189785E+04  0.10848189785E+04  0.50400001928E-02 0. -1.
        1   -1    0    0  501    0  0.00000000000E+00  0.00000000000E+00 -0.51326526395E+03  0.51326526397E+03  0.50400001928E-02 0.  1.
    10030    2    1    2    0    0  0.00000000000E+00  0.00000000000E+00  0.57155371454E+03  0.15980842425E+04  0.14923805136E+04 0.  0.
        2    1    3    3  502    0 -0.55620301858E+02 -0.26999688773E+03 -0.45673932828E+03  0.53348172543E+03  0.25500000920E-02 0.  1.
       -2    1    3    3    0  502  0.55620301858E+02  0.26999688773E+03  0.10282930428E+04  0.10646025170E+04  0.25500000920E-02 0. -1.
</event>
<event>
 5   0  0.4462875E-05  0.1499695E+04  0.7818609E-02  0.8884656E-01
        3   -1    0    0  501    0  0.00000000000E+00  0.00000000000E+00  0.10773905489E+04  0.10773905537E+04  0.10100000352E+00 0. -1.
       -3   -1    0    0    0  501  0.00000000000E+00  0.00000000000E+00 -0.52188215040E+03  0.52188216018E+03  0.10100000352E+00 0.  1.
    10030    2    1    2    0    0  0.00000000000E+00  0.00000000000E+00  0.55550839853E+03  0.15992727138E+04  0.14996945130E+04 0.  0.
        4    1    3    3  502    0  0.10349298841E+03 -0.65528844262E+03  0.65046873724E+03  0.92909898972E+03  0.12699999809E+01 0. -1.
       -4    1    3    3    0  502 -0.10349298841E+03  0.65528844262E+03 -0.94960338707E+02  0.67017372412E+03  0.12699999809E+01 0.  1.
</event>
<event>
 5   0  0.1216921E-04  0.1499168E+04  0.7818609E-02  0.8885006E-01
        2   -1    0    0  501    0  0.00000000000E+00  0.00000000000E+00  0.16809450155E+04  0.16809450155E+04  0.25500000920E-02 0.  1.
       -2   -1    0    0    0  501  0.00000000000E+00  0.00000000000E+00 -0.33426203209E+03  0.33426203210E+03  0.25500000920E-02 0. -1.
    10030    2    1    2    0    0  0.00000000000E+00  0.00000000000E+00  0.13466829834E+04  0.20152070476E+04  0.14991678982E+04 0.  0.
        4    1    3    3  502    0  0.73932579139E+03 -0.10534713971E+03  0.76018496857E+03  0.10656375768E+04  0.12699999809E+01 0.  1.
       -4    1    3    3    0  502 -0.73932579139E+03  0.10534713971E+03  0.58649801488E+03  0.94956947087E+03  0.12699999809E+01 0. -1.
</event>
<event>
 5   0  0.6361716E-05  0.1500855E+04  0.7818609E-02  0.8883885E-01
       -1   -1    0    0    0  501  0.00000000000E+00  0.00000000000E+00  0.52716147290E+03  0.52716147293E+03  0.50400001928E-02 0. -1.
        1   -1    0    0  501    0  0.00000000000E+00  0.00000000000E+00 -0.10682516810E+04  0.10682516810E+04  0.50400001928E-02 0.  1.
    10030    2    1    2    0    0  0.00000000000E+00  0.00000000000E+00 -0.54109020808E+03  0.15954131539E+04  0.15008545960E+04 0.  0.
        3    1    3    3  502    0  0.18463181932E+03 -0.77296139567E+02 -0.10393525412E+04  0.10584504320E+04  0.10100000352E+00 0.  1.
       -3    1    3    3    0  502 -0.18463181932E+03  0.77296139567E+02  0.49826233314E+03  0.53696272191E+03  0.10100000352E+00 0. -1.
</event>
<event>
 5   0  0.1216921E-04  0.1500221E+04  0.7818609E-02  0.8884306E-01
        2   -1    0    0  501    0  0.00000000000E+00  0.00000000000E+00  0.22832964472E+04  0.22832964472E+04  0.25500000920E-02 0. -1.
       -2   -1    0    0    0  501  0.00000000000E+00  0.00000000000E+00 -0.24642703204E+03  0.24642703206E+03  0.25500000920E-02 0.  1.
    10030    2    1    2    0    0  0.00000000000E+00  0.00000000000E+00  0.20368694152E+04  0.25297234793E+04  0.15002212727E+04 0.  0.
        4    1    3    3  502    0  0.66451953945E+03 -0.32776005137E+03  0.12154535075E+04  0.14234962983E+04  0.12699999809E+01 0.  1.
       -4    1    3    3    0  502 -0.66451953945E+03  0.32776005137E+03  0.82141590772E+03  0.11062271810E+04  0.12699999809E+01 0. -1.
</event>
<event>
 5   0  0.6361716E-05  0.1500560E+04  0.7818609E-02  0.8884080E-01
        1   -1    0    0  501    0  0.00000000000E+00  0.00000000000E+00  0.15056693335E+04  0.15056693335E+04  0.50400001928E-02 0. -1.
       -1   -1    0    0    0  501  0.00000000000E+00  0.00000000000E+00 -0.37386714990E+03  0.37386714993E+03  0.50400001928E-02 0.  1.
    10030    2    1    2    0    0  0.00000000000E+00  0.00000000000E+00  0.11318021836E+04  0.18795364835E+04  0.15005602986E+04 0.  0.
        3    1    3    3  502    0 -0.11026148910E+03  0.94315406966E+02 -0.35612620834E+03  0.38455022876E+03  0.10100000352E+00 0.  1.
       -3    1    3    3    0  502  0.11026148910E+03 -0.94315406966E+02  0.14879283920E+04  0.14949862547E+04  0.10100000352E+00 0. -1.
</event>
<event>
 5   0  0.6361716E-05  0.1501293E+04  0.7818609E-02  0.8883594E-01
        1   -1    0    0  501    0  0.00000000000E+00  0.00000000000E+00  0.20868121615E+04  0.20868121615E+04  0.50400001928E-02 0.  1.
       -1   -1    0    0    0  501  0.00000000000E+00  0.00000000000E+00 -0.27001470132E+03  0.27001470136E+03  0.50400001928E-02 0. -1.
    10030    2    1    2    0    0  0.00000000000E+00  0.00000000000E+00  0.18167974601E+04  0.23568268628E+04  0.15012927263E+04 0.  0.
        3    1    3    3  502    0 -0.71238230985E+03 -0.63857663756E+02  0.12660510298E+04  0.14541153932E+04  0.10100000352E+00 0.  1.
       -3    1    3    3    0  502  0.71238230985E+03  0.63857663756E+02  0.55074643038E+03  0.90271146962E+03  0.10100000352E+00 0. -1.
</event>
<event>
 5   0  0.1219810E-04  0.1485631E+04  0.7818609E-02  0.8894065E-01
       -2   -1    0    0    0  501  0.00000000000E+00  0.00000000000E+00  0.33425134159E+03  0.33425134160E+03  0.25500000920E-02 0.  1.
        2   -1    0    0  501    0  0.00000000000E+00  0.00000000000E+00 -0.16507772567E+04  0.16507772567E+04  0.25500000920E-02 0. -1.
    10030    2    1    2    0    0  0.00000000000E+00  0.00000000000E+00 -0.13165259151E+04  0.19850285983E+04  0.14856305230E+04 0.  0.
        1    1    3    3  502    0 -0.58821690272E+03  0.15800945862E+03 -0.90110022218E+02  0.61569954506E+03  0.50400001928E-02 0.  1.
       -1    1    3    3    0  502  0.58821690272E+03 -0.15800945862E+03 -0.12264158928E+04  0.13693290532E+04  0.50400001928E-02 0. -1.
</event>
<event>
 5   0  0.1219810E-04  0.1501021E+04  0.7818609E-02  0.8883774E-01
        2   -1    0    0  501    0  0.00000000000E+00  0.00000000000E+00  0.18833183933E+04  0.18833183933E+04  0.25500000920E-02 0. -1.
       -2   -1    0    0    0  501  0.00000000000E+00  0.00000000000E+00 -0.29908180040E+03  0.29908180041E+03  0.25500000920E-02 0.  1.
    10030    2    1    2    0    0  0.00000000000E+00  0.00000000000E+00  0.15842365929E+04  0.21824001937E+04  0.15010213267E+04 0.  0.
        1    1    3    3  502    0 -0.28306927804E+03 -0.54455388413E+03  0.14201799946E+04  0.15471193768E+04  0.50400001928E-02 0. -1.
       -1    1    3    3    0  502  0.28306927804E+03  0.54455388413E+03  0.16405659829E+03  0.63528081693E+03  0.50400001928E-02 0.  1.
</event>
<event>
 5   0  0.1216921E-04  0.1509737E+04  0.7818609E-02  0.8878003E-01
       -2   -1    0    0    0  501  0.00000000000E+00  0.00000000000E+00  0.38919405225E+03  0.38919405226E+03  0.25500000920E-02 0. -1.
        2   -1    0    0  501    0  0.00000000000E+00  0.00000000000E+00 -0.14641197753E+04  0.14641197753E+04  0.25500000920E-02 0.  1.
    10030    2    1    2    0    0  0.00000000000E+00  0.00000000000E+00 -0.10749257230E+04  0.18533138275E+04  0.15097373392E+04 0.  0.
        4    1    3    3  502    0 -0.24807098330E+03 -0.41541822621E+03  0.17380309822E+03  0.51412123597E+03  0.12699999809E+01 0. -1.
       -4    1    3    3    0  502  0.24807098330E+03  0.41541822621E+03 -0.12487288212E+04  0.13391925916E+04  0.12699999809E+01 0.  1.
</event>
<event>
 5   0  0.1216921E-04  0.1500136E+04  0.7818609E-02  0.8884362E-01
       -2   -1    0    0    0  501  0.00000000000E+00  0.00000000000E+00  0.44530986535E+03  0.44530986536E+03  0.25500000920E-02 0.  1.
        2   -1    0    0  501    0  0.00000000000E+00  0.00000000000E+00 -0.12633950880E+04  0.12633950880E+04  0.25500000920E-02 0. -1.
    10030    2    1    2    0    0  0.00000000000E+00  0.00000000000E+00 -0.81808522265E+03  0.17087049534E+04  0.15001363892E+04 0.  0.
        4    1    3    3  502    0  0.64513230367E+03 -0.27395752298E+03 -0.71329936668E+03  0.10000230063E+04  0.12699999809E+01 0. -1.
       -4    1    3    3    0  502 -0.64513230367E+03  0.27395752298E+03 -0.10478585597E+03  0.70868194710E+03  0.12699999809E+01 0.  1.
</event>
<event>
 5   0  0.6668433E-05  0.1497206E+04  0.7818609E-02  0.8886313E-01
       -1   -1    0    0    0  501  0.00000000000E+00  0.00000000000E+00  0.42393477163E+03  0.42393477166E+03  0.50400001928E-02 0. -1.
        1   -1    0    0  501    0  0.00000000000E+00  0.00000000000E+00 -0.13219168875E+04  0.13219168875E+04  0.50400001928E-02 0.  1.
    10030    2    1    2    0    0  0.00000000000E+00  0.00000000000E+00 -0.89798211587E+03  0.17458516592E+04  0.14972061098E+04 0.  0.
        1    1    3    3  502    0  0.98681176875E+02 -0.73560511358E+03 -0.56296642618E+03  0.93154927665E+03  0.50400001928E-02 0.  1.
       -1    1    3    3    0  502 -0.98681176875E+02  0.73560511358E+03 -0.33501568968E+03  0.81430238251E+03  0.50400001928E-02 0. -1.
</event>
<event>
 5   0  0.6361716E-05  0.1497024E+04  0.7818609E-02  0.8886434E-01
       -1   -1    0    0    0  501  0.00000000000E+00  0.00000000000E+00  0.52502011281E+03  0.52502011283E+03  0.50400001928E-02 0.  1.
        1   -1    0    0  501    0  0.00000000000E+00  0.00000000000E+00 -0.10671402494E+04  0.10671402494E+04  0.50400001928E-02 0. -1.
    10030    2    1    2    0    0  0.00000000000E+00  0.00000000000E+00 -0.54212013660E+03  0.15921603623E+04  0.14970238397E+04 0.  0.
        3    1    3    3  502    0 -0.16675073672E+03  0.16894566492E+03  0.48392714236E+03  0.53901199913E+03  0.10100000352E+00 0.  1.
       -3    1    3    3    0  502  0.16675073672E+03 -0.16894566492E+03 -0.10260472790E+04  0.10531483631E+04  0.10100000352E+00 0. -1.
</event>
<event>
 5   0  0.1228286E-04  0.1492703E+04  0.7818609E-02  0.8889320E-01
        2   -1    0    0  501    0  0.00000000000E+00  0.00000000000E+00  0.38987551620E+03  0.38987551621E+03  0.25500000920E-02 0.  1.
       -2   -1    0    0    0  501  0.00000000000E+00  0.00000000000E+00 -0.14287655805E+04  0.14287655805E+04  0.25500000920E-02 0. -1.
    10030    2    1    2    0    0  0.00000000000E+00  0.00000000000E+00 -0.10388900643E+04  0.18186410968E+04  0.14927032100E+04 0.  0.
        2    1    3    3  502    0  0.51602459425E+03  0.48278711904E+02 -0.11737686878E+04  0.12830998201E+04  0.25500000920E-02 0. -1.
       -2    1    3    3    0  502 -0.51602459425E+03 -0.48278711904E+02  0.13487862347E+03  0.53554127663E+03  0.25500000920E-02 0.  1.
</event>
<event>
 5   0  0.6509279E-05  0.1500017E+04  0.7818609E-02  0.8884442E-01
        1   -1    0    0  501    0  0.00000000000E+00  0.00000000000E+00  0.10187559366E+04  0.10187559366E+04  0.50400001928E-02 0. -1.
       -1   -1    0    0    0  501  0.00000000000E+00  0.00000000000E+00 -0.55215649284E+03  0.55215649286E+03  0.50400001928E-02 0.  1.
    10030    2    1    2    0    0  0.00000000000E+00  0.00000000000E+00  0.46659944379E+03  0.15709124295E+04  0.15000169400E+04 0.  0.
        2    1    3    3  502    0 -0.33726160059E+03 -0.66004716646E+02  0.93144863042E+03  0.99282352962E+03  0.25500000920E-02 0. -1.
       -2    1    3    3    0  502  0.33726160059E+03  0.66004716646E+02 -0.46484918663E+03  0.57808889988E+03  0.25500000920E-02 0.  1.
</event>
<event>
 5   0  0.6542036E-05  0.1500348E+04  0.7818609E-02  0.8884221E-01
        1   -1    0    0  501    0  0.00000000000E+00  0.00000000000E+00  0.14095225232E+04  0.14095225232E+04  0.50400001928E-02 0.  1.
       -1   -1    0    0    0  501  0.00000000000E+00  0.00000000000E+00 -0.39925658598E+03  0.39925658601E+03  0.50400001928E-02 0. -1.
    10030    2    1    2    0    0  0.00000000000E+00  0.00000000000E+00  0.10102659372E+04  0.18087791092E+04  0.15003481603E+04 0.  0.
        4    1    3    3  502    0 -0.12801563452E+03 -0.14320633583E+03  0.13793715911E+04  0.13926821807E+04  0.12699999809E+01 0.  1.
       -4    1    3    3    0  502  0.12801563452E+03  0.14320633583E+03 -0.36910565386E+03  0.41609692850E+03  0.12699999809E+01 0. -1.
</event>
<event>
 5   0  0.6542036E-05  0.1498194E+04  0.7818609E-02  0.8885655E-01
       -1   -1    0    0    0  501  0.00000000000E+00  0.00000000000E+00  0.11734828251E+04  0.11734828251E+04  0.50400001928E-02 0. -1.
        1   -1    0    0  501    0  0.00000000000E+00  0.00000000000E+00 -0.47818868961E+03  0.47818868964E+03  0.50400001928E-02 0.  1.
    10030    2    1    2    0    0  0.00000000000E+00  0.00000000000E+00  0.69529413546E+03  0.16516715147E+04  0.14981938652E+04 0.  0.
        4    1    3    3  502    0  0.28450906088E+03  0.12814950762E+03  0.10984227908E+04  0.11418852579E+04  0.12699999809E+01 0. -1.
       -4    1    3    3    0  502 -0.28450906088E+03 -0.12814950762E+03 -0.40312865530E+03  0.50978625683E+03  0.12699999809E+01 0.  1.
</event>
<event>
 5   0  0.1228286E-04  0.1500576E+04  0.7818609E-02  0.8884070E-01
       -2   -1    0    0    0  501  0.00000000000E+00  0.00000000000E+00  0.34062983960E+03  0.34062983961E+03  0.25500000920E-02 0.  1.
        2   -1    0    0  501    0  0.00000000000E+00  0.00000000000E+00 -0.16526211153E+04  0.16526211153E+04  0.25500000920E-02 0. -1.
    10030    2    1    2    0    0  0.00000000000E+00  0.00000000000E+00 -0.13119912757E+04  0.19932509549E+04  0.15005759766E+04 0.  0.
        2    1    3    3  502    0 -0.17262419130E+03  0.29699490884E+03  0.23003422867E+03  0.41342572932E+03  0.25500000920E-02 0.  1.
       -2    1    3    3    0  502  0.17262419130E+03 -0.29699490884E+03 -0.15420255043E+04  0.15798252255E+04  0.25500000920E-02 0. -1.
</event>
<event>
 5   0  0.6668433E-05  0.1538040E+04  0.7818609E-02  0.8859543E-01
        1   -1    0    0  501    0  0.00000000000E+00  0.00000000000E+00  0.70095077283E+03  0.70095077285E+03  0.50400001928E-02 0.  1.
       -1   -1    0    0    0  501  0.00000000000E+00  0.00000000000E+00 -0.84369946399E+03  0.84369946401E+03  0.50400001928E-02 0. -1.
    10030    2    1    2    0    0  0.00000000000E+00  0.00000000000E+00 -0.14274869116E+03  0.15446502369E+04  0.15380400402E+04 0.  0.
        1    1    3    3  502    0 -0.29211826074E+03  0.70601067609E+03  0.16222293269E+02  0.76422988415E+03  0.50400001928E-02 0.  1.
       -1    1    3    3    0  502  0.29211826074E+03 -0.70601067609E+03 -0.15897098443E+03  0.78042035271E+03  0.50400001928E-02 0. -1.
</event>
<event>
 5   0  0.1228286E-04  0.1499629E+04  0.7818609E-02  0.8884700E-01
       -2   -1    0    0    0  501  0.00000000000E+00  0.00000000000E+00  0.11793468501E+04  0.11793468501E+04  0.25500000920E-02 0.  1.
        2   -1    0    0  501    0  0.00000000000E+00  0.00000000000E+00 -0.47672304590E+03  0.47672304591E+03  0.25500000920E-02 0. -1.
    10030    2    1    2    0    0  0.00000000000E+00  0.00000000000E+00  0.70262380423E+03  0.16560698960E+04  0.14996290509E+04 0.  0.
        2    1    3    3  502    0  0.40130470254E+03 -0.53136957330E+03  0.73197834130E+03  0.98954099452E+03  0.25500000920E-02 0.  1.
       -2    1    3    3    0  502 -0.40130470254E+03  0.53136957330E+03 -0.29354537069E+02  0.66652890152E+03  0.25500000920E-02 0. -1.
</event>
<event>
 5   0  0.1228286E-04  0.1481008E+04  0.7818609E-02  0.8897182E-01
        2   -1    0    0  501    0  0.00000000000E+00  0.00000000000E+00  0.52392535596E+03  0.52392535597E+03  0.25500000920E-02 0.  1.
       -2   -1    0    0    0  501  0.00000000000E+00  0.00000000000E+00 -0.10466109892E+04  0.10466109893E+04  0.25500000920E-02 0. -1.
    10030    2    1    2    0    0  0.00000000000E+00  0.00000000000E+00 -0.52268563329E+03  0.15705363452E+04  0.14810078124E+04 0.  0.
        2    1    3    3  502    0 -0.43965347272E+03  0.37005102481E+02  0.36931938454E+03  0.57537931966E+03  0.25500000920E-02 0.  1.
       -2    1    3    3    0  502  0.43965347272E+03 -0.37005102481E+02 -0.89200501783E+03  0.99515702556E+03  0.25500000920E-02 0. -1.
</event>
<event>
 5   0  0.1228286E-04  0.1497605E+04  0.7818609E-02  0.8886047E-01
       -2   -1    0    0    0  501  0.00000000000E+00  0.00000000000E+00  0.48495496146E+03  0.48495496146E+03  0.25500000920E-02 0.  1.
        2   -1    0    0  501    0  0.00000000000E+00  0.00000000000E+00 -0.11562000494E+04  0.11562000494E+04  0.25500000920E-02 0. -1.
    10030    2    1    2    0    0  0.00000000000E+00  0.00000000000E+00 -0.67124508790E+03  0.16411550108E+04  0.14976046880E+04 0.  0.
        2    1    3    3  502    0 -0.20303304807E+03  0.71145855736E+03 -0.20919862422E+03  0.76886914481E+03  0.25500000920E-02 0.  1.
       -2    1    3    3    0  502  0.20303304807E+03 -0.71145855736E+03 -0.46204646369E+03  0.87228586602E+03  0.25500000920E-02 0. -1.
</event>
<event>
 5   0  0.1219810E-04  0.1497572E+04  0.7818609E-02  0.8886069E-01
       -2   -1    0    0    0  501  0.00000000000E+00  0.00000000000E+00  0.92013610780E+03  0.92013610780E+03  0.25500000920E-02 0. -1.
        2   -1    0    0  501    0  0.00000000000E+00  0.00000000000E+00 -0.60934554933E+03  0.60934554933E+03  0.25500000920E-02 0.  1.
    10030    2    1    2    0    0  0.00000000000E+00  0.00000000000E+00  0.31079055847E+03  0.15294816571E+04  0.14975724918E+04 0.  0.
        1    1    3    3  502    0  0.40544093708E+03  0.62648506166E+03  0.21847666008E+03  0.77755896044E+03  0.50400001928E-02 0.  1.
       -1    1    3    3    0  502 -0.40544093708E+03 -0.62648506166E+03  0.92313898394E+02  0.75192269669E+03  0.50400001928E-02 0. -1.
</event>
<event>
 5   0  0.6509279E-05  0.1502096E+04  0.7818609E-02  0.8883061E-01
        1   -1    0    0  501    0  0.00000000000E+00  0.00000000000E+00  0.58021712068E+03  0.58021712070E+03  0.50400001928E-02 0.  1.
       -1   -1    0    0    0  501  0.00000000000E+00  0.00000000000E+00 -0.97217534454E+03  0.97217534455E+03  0.50400001928E-02 0. -1.
    10030    2    1    2    0    0  0.00000000000E+00  0.00000000000E+00 -0.39195822386E+03  0.15523924653E+04  0.15020955752E+04 0.  0.
        2    1    3    3  502    0 -0.34423163552E+03  0.32656899075E+03 -0.79765000219E+03  0.92811004229E+03  0.25500000920E-02 0. -1.
       -2    1    3    3    0  502  0.34423163552E+03 -0.32656899075E+03  0.40569177833E+03  0.62428242296E+03  0.25500000920E-02 0.  1.
</event>
<event>
 5   0  0.1216921E-04  0.1500693E+04  0.7818609E-02  0.8883992E-01
        2   -1    0    0  501    0  0.00000000000E+00  0.00000000000E+00  0.10987992579E+04  0.10987992579E+04  0.25500000920E-02 0. -1.
       -2   -1    0    0    0  501  0.00000000000E+00  0.00000000000E+00 -0.51239581849E+03  0.51239581850E+03  0.25500000920E-02 0.  1.
    10030    2    1    2    0    0  0.00000000000E+00  0.00000000000E+00  0.58640343940E+03  0.16111950764E+04  0.15006933666E+04 0.  0.
        4    1    3    3  502    0  0.65112534452E+03 -0.37075846298E+03  0.33604603097E+03  0.82119096438E+03  0.12699999809E+01 0. -1.
       -4    1    3    3    0  502 -0.65112534452E+03  0.37075846298E+03  0.25035740844E+03  0.79000411202E+03  0.12699999809E+01 0.  1.
</event>
<event>
 5   0  0.1254487E-04  0.1486002E+04  0.7818609E-02  0.8893815E-01
       -2   -1    0    0    0  501  0.00000000000E+00  0.00000000000E+00  0.59058452609E+03  0.59058452609E+03  0.25500000920E-02 0.  1.
        2   -1    0    0  501    0  0.00000000000E+00  0.00000000000E+00 -0.93475289937E+03  0.93475289938E+03  0.25500000920E-02 0. -1.
    10030    2    1    2    0    0  0.00000000000E+00  0.00000000000E+00 -0.34416837329E+03  0.15253374255E+04  0.14860021509E+04 0.  0.
        5    1    3    3  502    0 -0.32685864581E+03  0.26708523057E+03  0.45553973267E+03  0.62105525742E+03  0.46999998093E+01 0.  1.
       -5    1    3    3    0  502  0.32685864581E+03 -0.26708523057E+03 -0.79970810596E+03  0.90428216805E+03  0.46999998093E+01 0. -1.
</event>
<event>
 5   0  0.6364378E-05  0.1501815E+04  0.7818609E-02  0.8883247E-01
       -1   -1    0    0    0  501  0.00000000000E+00  0.00000000000E+00  0.30821193118E+03  0.30821193123E+03  0.50400001928E-02 0. -1.
        1   -1    0    0  501    0  0.00000000000E+00  0.00000000000E+00 -0.18294618434E+04  0.18294618434E+04  0.50400001928E-02 0.  1.
    10030    2    1    2    0    0  0.00000000000E+00  0.00000000000E+00 -0.15212499122E+04  0.21376737746E+04  0.15018148592E+04 0.  0.
        5    1    3    3  502    0  0.63844608670E+03 -0.29840759265E+03 -0.11295541566E+04  0.13313809296E+04  0.46999998093E+01 0. -1.
       -5    1    3    3    0  502 -0.63844608670E+03  0.29840759265E+03 -0.39169575558E+03  0.80629284501E+03  0.46999998093E+01 0.  1.
</event>
<event>
 5   0  0.1254487E-04  0.1519309E+04  0.7818609E-02  0.8871713E-01
       -2   -1    0    0    0  501  0.00000000000E+00  0.00000000000E+00  0.45045362433E+03  0.45045362433E+03  0.25500000920E-02 0.  1.
        2   -1    0    0  501    0  0.00000000000E+00  0.00000000000E+00 -0.12810971837E+04  0.12810971837E+04  0.25500000920E-02 0. -1.
    10030    2    1    2    0    0  0.00000000000E+00  0.00000000000E+00 -0.83064355938E+03  0.17315508080E+04  0.15193088817E+04 0.  0.
        5    1    3    3  502    0 -0.54128322981E+03 -0.14936731944E+03  0.16776925533E+03  0.58606035869E+03  0.46999998093E+01 0.  1.
       -5    1    3    3    0  502  0.54128322981E+03  0.14936731944E+03 -0.99841281470E+03  0.11454904494E+04  0.46999998093E+01 0. -1.
</event>
<event>
 5   0  0.6364378E-05  0.1499977E+04  0.7818609E-02  0.8884468E-01
        1   -1    0    0  501    0  0.00000000000E+00  0.00000000000E+00  0.56537654920E+03  0.56537654922E+03  0.50400001928E-02 0. -1.
       -1   -1    0    0    0  501  0.00000000000E+00  0.00000000000E+00 -0.99488152940E+03  0.99488152941E+03  0.50400001928E-02 0.  1.
    10030    2    1    2    0    0  0.00000000000E+00  0.00000000000E+00 -0.42950498020E+03  0.15602580786E+04  0.14999769145E+04 0.  0.
        5    1    3    3  502    0 -0.63014088011E+03  0.46574068191E+02 -0.63498579349E+03  0.89581009178E+03  0.46999998093E+01 0.  1.
       -5    1    3    3    0  502  0.63014088011E+03 -0.46574068191E+02  0.20548081328E+03  0.66444798685E+03  0.46999998093E+01 0. -1.
</event>
<event>
 5   0  0.1254487E-04  0.1499238E+04  0.7818609E-02  0.8884960E-01
       -2   -1    0    0    0  501  0.00000000000E+00  0.00000000000E+00  0.65220788002E+03  0.65220788002E+03  0.25500000920E-02 0. -1.
        2   -1    0    0  501    0  0.00000000000E+00  0.00000000000E+00 -0.86157857603E+03  0.86157857603E+03  0.25500000920E-02 0.  1.
    10030    2    1    2    0    0  0.00000000000E+00  0.00000000000E+00 -0.20937069601E+03  0.15137864561E+04  0.14992375883E+04 0.  0.
        5    1    3    3  502    0 -0.18833902894E+03 -0.52602137232E+03  0.39990028281E+03  0.68710435900E+03  0.46999998093E+01 0. -1.
       -5    1    3    3    0  502  0.18833902894E+03  0.52602137232E+03 -0.60927097882E+03  0.82668209706E+03  0.46999998093E+01 0.  1.
</event>
<event>
 5   0  0.1228286E-04  0.1518309E+04  0.7818609E-02  0.8872368E-01
       -2   -1    0    0    0  501  0.00000000000E+00  0.00000000000E+00  0.63266319936E+03  0.63266319936E+03  0.25500000920E-02 0.  1.
        2   -1    0    0  501    0  0.00000000000E+00  0.00000000000E+00 -0.91093633872E+03  0.91093633873E+03  0.25500000920E-02 0. -1.
    10030    2    1    2    0    0  0.00000000000E+00  0.00000000000E+00 -0.27827313936E+03  0.15435995381E+04  0.15183094526E+04 0.  0.
        2    1    3    3  502    0  0.38661088522E+03  0.65101240076E+03 -0.19510604819E+03  0.78188969335E+03  0.25500000920E-02 0. -1.
       -2    1    3    3    0  502 -0.38661088522E+03 -0.65101240076E+03 -0.83167091169E+02  0.76170984474E+03  0.25500000920E-02 0.  1.
</event>
<event>
 5   0  0.6668433E-05  0.1498673E+04  0.7818609E-02  0.8885336E-01
        1   -1    0    0  501    0  0.00000000000E+00  0.00000000000E+00  0.14327391440E+04  0.14327391440E+04  0.50400001928E-02 0. -1.
       -1   -1    0    0    0  501  0.00000000000E+00  0.00000000000E+00 -0.39191016778E+03  0.39191016781E+03  0.50400001928E-02 0.  1.
    10030    2    1    2    0    0  0.00000000000E+00  0.00000000000E+00  0.10408289762E+04  0.18246493118E+04  0.14986727973E+04 0.  0.
        1    1    3    3  502    0  0.51852563946E+03  0.47836670543E+02 -0.13562788713E+03  0.53810046425E+03  0.50400001928E-02 0.  1.
       -1    1    3    3    0  502 -0.51852563946E+03 -0.47836670543E+02  0.11764568633E+04  0.12865488476E+04  0.50400001928E-02 0. -1.
</event>
<event>
 5   0  0.6361716E-05  0.1506875E+04  0.7818609E-02  0.8879894E-01
        1   -1    0    0  501    0  0.00000000000E+00  0.00000000000E+00  0.49189503851E+03  0.49189503854E+03  0.50400001928E-02 0. -1.
       -1   -1    0    0    0  501  0.00000000000E+00  0.00000000000E+00 -0.11540432880E+04  0.11540432880E+04  0.50400001928E-02 0.  1.
    10030    2    1    2    0    0  0.00000000000E+00  0.00000000000E+00 -0.66214824952E+03  0.16459383266E+04  0.15068751344E+04 0.  0.
        3    1    3    3  502    0 -0.15006251203E+03  0.35778525171E+03 -0.10365411984E+04  0.11067731068E+04  0.10100000352E+00 0.  1.
       -3    1    3    3    0  502  0.15006251203E+03 -0.35778525171E+03  0.37439294884E+03  0.53916521977E+03  0.10100000352E+00 0. -1.
</event>
<event>
 5   0  0.1216921E-04  0.1500080E+04  0.7818609E-02  0.8884400E-01
        2   -1    0    0  501    0  0.00000000000E+00  0.00000000000E+00  0.16150383007E+04  0.16150383007E+04  0.25500000920E-02 0. -1.
       -2   -1    0    0    0  501  0.00000000000E+00  0.00000000000E+00 -0.34832621662E+03  0.34832621663E+03  0.25500000920E-02 0.  1.
    10030    2    1    2    0    0  0.00000000000E+00  0.00000000000E+00  0.12667120841E+04  0.19633645174E+04  0.15000802392E+04 0.  0.
        4    1    3    3  502    0  0.51945091095E+03 -0.17718766280E+03 -0.35733562408E+02  0.55000292464E+03  0.12699999809E+01 0.  1.
       -4    1    3    3    0  502 -0.51945091095E+03  0.17718766280E+03  0.13024456465E+04  0.14133615927E+04  0.12699999809E+01 0. -1.
</event>
<event>
 5   0  0.1216921E-04  0.1500324E+04  0.7818609E-02  0.8884237E-01
        2   -1    0    0  501    0  0.00000000000E+00  0.00000000000E+00  0.12692605277E+04  0.12692605277E+04  0.25500000920E-02 0. -1.
       -2   -1    0    0    0  501  0.00000000000E+00  0.00000000000E+00 -0.44336310782E+03  0.44336310782E+03  0.25500000920E-02 0.  1.
    10030    2    1    2    0    0  0.00000000000E+00  0.00000000000E+00  0.82589741985E+03  0.17126236355E+04  0.15003243545E+04 0.  0.
        4    1    3    3  502    0 -0.12516695523E+03  0.51835836765E+03 -0.18932708751E+03  0.56586970494E+03  0.12699999809E+01 0.  1.
       -4    1    3    3    0  502  0.12516695523E+03 -0.51835836765E+03  0.10152245074E+04  0.11467539306E+04  0.12699999809E+01 0. -1.
</event>
<event>
 5   0  0.1219810E-04  0.1506974E+04  0.7818609E-02  0.8879829E-01
       -2   -1    0    0    0  501  0.00000000000E+00  0.00000000000E+00  0.36419962786E+03  0.36419962787E+03  0.25500000920E-02 0. -1.
        2   -1    0    0  501    0  0.00000000000E+00  0.00000000000E+00 -0.15588768994E+04  0.15588768994E+04  0.25500000920E-02 0.  1.
    10030    2    1    2    0    0  0.00000000000E+00  0.00000000000E+00 -0.11946772715E+04  0.19230765273E+04  0.15069736383E+04 0.  0.
        1    1    3    3  502    0 -0.66000321272E+03 -0.43977782199E+01 -0.10611840110E+04  0.12496939971E+04  0.50400001928E-02 0.  1.
       -1    1    3    3    0  502  0.66000321272E+03  0.43977782199E+01 -0.13349326054E+03  0.67338253014E+03  0.50400001928E-02 0. -1.
</event>
<event>
 5   0  0.4462875E-05  0.1497536E+04  0.7818609E-02  0.8886093E-01
       -4   -1    0    0    0  501  0.00000000000E+00  0.00000000000E+00  0.10633633848E+04  0.10633641432E+04  0.12699999809E+01 0.  1.
        4   -1    0    0  501    0  0.00000000000E+00  0.00000000000E+00 -0.52724363291E+03  0.52724516247E+03  0.12699999809E+01 0. -1.
    10030    2    1    2    0    0  0.00000000000E+00  0.00000000000E+00  0.53611975190E+03  0.15906093057E+04  0.14975358343E+04 0.  0.
        1    1    3    3  502    0 -0.33858903854E+03  0.52842147492E+03 -0.16571097608E+03  0.64910085487E+03  0.50400001928E-02 0. -1.
       -1    1    3    3    0  502  0.33858903854E+03 -0.52842147492E+03  0.70183072797E+03  0.94150845080E+03  0.50400001928E-02 0.  1.
</event>
<event>
 5   0  0.6361716E-05  0.1501962E+04  0.7818609E-02  0.8883149E-01
       -1   -1    0    0    0  501  0.00000000000E+00  0.00000000000E+00  0.42379670071E+03  0.42379670074E+03  0.50400001928E-02 0.  1.
        1   -1    0    0  501    0  0.00000000000E+00  0.00000000000E+00 -0.13307615830E+04  0.13307615830E+04  0.50400001928E-02 0. -1.
    10030    2    1    2    0    0  0.00000000000E+00  0.00000000000E+00 -0.90696488231E+03  0.17545582838E+04  0.15019618748E+04 0.  0.
        3    1    3    3  502    0  0.53031763998E+03  0.34227270035E+03 -0.92883882531E+03  0.11229999885E+04  0.10100000352E+00 0. -1.
       -3    1    3    3    0  502 -0.53031763998E+03 -0.34227270035E+03  0.21873943000E+02  0.63155829522E+03  0.10100000352E+00 0.  1.
</event>
<event>
 5   0  0.6668433E-05  0.1499638E+04  0.7818609E-02  0.8884693E-01
       -1   -1    0    0    0  501  0.00000000000E+00  0.00000000000E+00  0.75650862610E+03  0.75650862612E+03  0.50400001928E-02 0.  1.
        1   -1    0    0  501    0  0.00000000000E+00  0.00000000000E+00 -0.74318891355E+03  0.74318891356E+03  0.50400001928E-02 0. -1.
    10030    2    1    2    0    0  0.00000000000E+00  0.00000000000E+00  0.13319712555E+02  0.14996975397E+04  0.14996383883E+04 0.  0.
        1    1    3    3  502    0 -0.69012813467E+03  0.28262363162E+03 -0.71291050285E+02  0.74915644113E+03  0.50400001928E-02 0.  1.
       -1    1    3    3    0  502  0.69012813467E+03 -0.28262363162E+03  0.84610762841E+02  0.75054109856E+03  0.50400001928E-02 0. -1.
</event>
<event>
 5   0  0.1228286E-04  0.1500630E+04  0.7818609E-02  0.8884034E-01
       -2   -1    0    0    0  501  0.00000000000E+00  0.00000000000E+00  0.40115560824E+03  0.40115560825E+03  0.25500000920E-02 0. -1.
        2   -1    0    0  501    0  0.00000000000E+00  0.00000000000E+00 -0.14033769657E+04  0.14033769657E+04  0.25500000920E-02 0.  1.
    10030    2    1    2    0    0  0.00000000000E+00  0.00000000000E+00 -0.10022213574E+04  0.18045325739E+04  0.15006299214E+04 0.  0.
        2    1    3    3  502    0 -0.63510080219E+03 -0.86904389605E+01 -0.98143142519E+03  0.11690321617E+04  0.25500000920E-02 0.  1.
       -2    1    3    3    0  502  0.63510080219E+03  0.86904389605E+01 -0.20789932236E+02  0.63550041225E+03  0.25500000920E-02 0. -1.
</event>
<event>
 5   0  0.6364378E-05  0.1500240E+04  0.7818609E-02  0.8884293E-01
        1   -1    0    0  501    0  0.00000000000E+00  0.00000000000E+00  0.12267982713E+04  0.12267982713E+04  0.50400001928E-02 0.  1.
       -1   -1    0    0    0  501  0.00000000000E+00  0.00000000000E+00 -0.45865755344E+03  0.45865755347E+03  0.50400001928E-02 0. -1.
    10030    2    1    2    0    0  0.00000000000E+00  0.00000000000E+00  0.76814071788E+03  0.16854558248E+04  0.15002403724E+04 0.  0.
        5    1    3    3  502    0 -0.73512107076E+03 -0.28535719953E+02  0.54857505967E+03  0.91770036618E+03  0.46999998093E+01 0. -1.
       -5    1    3    3    0  502  0.73512107076E+03  0.28535719953E+02  0.21956565821E+03  0.76775545863E+03  0.46999998093E+01 0.  1.
</event>
<event>
 5   0  0.6361716E-05  0.1500775E+04  0.7818609E-02  0.8883938E-01
       -1   -1    0    0    0  501  0.00000000000E+00  0.00000000000E+00  0.18102080492E+04  0.18102080492E+04  0.50400001928E-02 0.  1.
        1   -1    0    0  501    0  0.00000000000E+00  0.00000000000E+00 -0.31105874893E+03  0.31105874897E+03  0.50400001928E-02 0. -1.
    10030    2    1    2    0    0  0.00000000000E+00  0.00000000000E+00  0.14991493002E+04  0.21212667981E+04  0.15007745349E+04 0.  0.
        3    1    3    3  502    0 -0.42333957937E+03  0.33755872613E+02  0.16240012533E+04  0.16786113127E+04  0.10100000352E+00 0.  1.
       -3    1    3    3    0  502  0.42333957937E+03 -0.33755872613E+02 -0.12485195303E+03  0.44265548543E+03  0.10100000352E+00 0. -1.
</event>
<event>
 5   0  0.6509279E-05  0.1495152E+04  0.7818609E-02  0.8887683E-01
        1   -1    0    0  501    0  0.00000000000E+00  0.00000000000E+00  0.74497670003E+03  0.74497670005E+03  0.50400001928E-02 0. -1.
       -1   -1    0    0    0  501  0.00000000000E+00  0.00000000000E+00 -0.75018400536E+03  0.75018400537E+03  0.50400001928E-02 0.  1.
    10030    2    1    2    0    0  0.00000000000E+00  0.00000000000E+00 -0.52073053222E+01  0.14951607054E+04  0.14951516375E+04 0.  0.
        2    1    3    3  502    0 -0.39367037052E+03  0.42140627224E+03  0.47311973645E+03  0.74592351614E+03  0.25500000920E-02 0. -1.
       -2    1    3    3    0  502  0.39367037052E+03 -0.42140627224E+03 -0.47832704177E+03  0.74923718928E+03  0.25500000920E-02 0.  1.
</event>
<event>
 5   0  0.1228286E-04  0.1494864E+04  0.7818609E-02  0.8887875E-01
        2   -1    0    0  501    0  0.00000000000E+00  0.00000000000E+00  0.53539265718E+03  0.53539265718E+03  0.25500000920E-02 0. -1.
       -2   -1    0    0    0  501  0.00000000000E+00  0.00000000000E+00 -0.10434489804E+04  0.10434489804E+04  0.25500000920E-02 0.  1.
    10030    2    1    2    0    0  0.00000000000E+00  0.00000000000E+00 -0.50805632326E+03  0.15788416376E+04  0.14948644384E+04 0.  0.
        2    1    3    3  502    0 -0.25023387595E+03  0.32225828614E+03 -0.91545779639E+03  0.10022626266E+04  0.25500000920E-02 0.  1.
       -2    1    3    3    0  502  0.25023387595E+03 -0.32225828614E+03  0.40740147313E+03  0.57657901104E+03  0.25500000920E-02 0. -1.
</event>
<event>
 5   0  0.1186664E-04  0.1498221E+04  0.7818609E-02  0.8885637E-01
       -2   -1    0    0    0  501  0.00000000000E+00  0.00000000000E+00  0.33073324008E+03  0.33073324009E+03  0.25500000920E-02 0.  1.
        2   -1    0    0  501    0  0.00000000000E+00  0.00000000000E+00 -0.16967355268E+04  0.16967355268E+04  0.25500000920E-02 0. -1.
    10030    2    1    2    0    0  0.00000000000E+00  0.00000000000E+00 -0.13660022867E+04  0.20274687669E+04  0.14982213966E+04 0.  0.
        3    1    3    3  502    0 -0.32328896986E+03  0.55928947074E+03 -0.16975273306E+03  0.66793448084E+03  0.10100000352E+00 0.  1.
       -3    1    3    3    0  502  0.32328896986E+03 -0.55928947074E+03 -0.11962495536E+04  0.13595342860E+04  0.10100000352E+00 0. -1.
</event>
<event>
 5   0  0.6364378E-05  0.1501231E+04  0.7818609E-02  0.8883635E-01
       -1   -1    0    0    0  501  0.00000000000E+00  0.00000000000E+00  0.73669110656E+03  0.73669110658E+03  0.50400001928E-02 0. -1.
        1   -1    0    0  501    0  0.00000000000E+00  0.00000000000E+00 -0.76480343870E+03  0.76480343871E+03  0.50400001928E-02 0.  1.
    10030    2    1    2    0    0  0.00000000000E+00  0.00000000000E+00 -0.28112332134E+02  0.15014945453E+04  0.15012313500E+04 0.  0.
        5    1    3    3  502    0 -0.52942707733E+03 -0.50097103302E+03  0.16524264835E+03  0.74739027888E+03  0.46999998093E+01 0.  1.
       -5    1    3    3    0  502  0.52942707733E+03  0.50097103302E+03 -0.19335498048E+03  0.75410426641E+03  0.46999998093E+01 0. -1.
</event>
<event>
 5   0  0.6668433E-05  0.1500652E+04  0.7818609E-02  0.8884020E-01
       -1   -1    0    0    0  501  0.00000000000E+00  0.00000000000E+00  0.43881815391E+03  0.43881815394E+03  0.50400001928E-02 0. -1.
        1   -1    0    0  501    0  0.00000000000E+00  0.00000000000E+00 -0.12829666228E+04  0.12829666228E+04  0.50400001928E-02 0.  1.
    10030    2    1    2    0    0  0.00000000000E+00  0.00000000000E+00 -0.84414846889E+03  0.17217847768E+04  0.15006519183E+04 0.  0.
        1    1    3    3  502    0 -0.58234064497E+03  0.43207098124E+03 -0.64331828840E+03  0.96936287314E+03  0.50400001928E-02 0.  1.
       -1    1    3    3    0  502  0.58234064497E+03 -0.43207098124E+03 -0.20083018049E+03  0.75242190361E+03  0.50400001928E-02 0. -1.
</event>
<event>
 5   0  0.6364378E-05  0.1502502E+04  0.7818609E-02  0.8882791E-01
       -1   -1    0    0    0  501  0.00000000000E+00  0.00000000000E+00  0.64070683185E+03  0.64070683187E+03  0.50400001928E-02 0. -1.
        1   -1    0    0  501    0  0.00000000000E+00  0.00000000000E+00 -0.88086811714E+03  0.88086811716E+03  0.50400001928E-02 0.  1.
    10030    2    1    2    0    0  0.00000000000E+00  0.00000000000E+00 -0.24016128529E+03  0.15215749490E+04  0.15025022072E+04 0.  0.
        5    1    3    3  502    0 -0.21073851451E+03 -0.48383439831E+03  0.42135530825E+03  0.67532868463E+03  0.46999998093E+01 0. -1.
       -5    1    3    3    0  502  0.21073851451E+03  0.48383439831E+03 -0.66151659354E+03  0.84624626440E+03  0.46999998093E+01 0.  1.
</event>
<event>
 5   0  0.1254487E-04  0.1498669E+04  0.7818609E-02  0.8885339E-01
        2   -1    0    0  501    0  0.00000000000E+00  0.00000000000E+00  0.15398370671E+04  0.15398370671E+04  0.25500000920E-02 0.  1.
       -2   -1    0    0    0  501  0.00000000000E+00  0.00000000000E+00 -0.36465021116E+03  0.36465021116E+03  0.25500000920E-02 0. -1.
    10030    2    1    2    0    0  0.00000000000E+00  0.00000000000E+00  0.11751868559E+04  0.19044872783E+04  0.14986686247E+04 0.  0.
        5    1    3    3  502    0  0.77180089184E+02  0.46017525970E+03 -0.15748374687E+03  0.49248477777E+03  0.46999998093E+01 0. -1.
       -5    1    3    3    0  502 -0.77180089184E+02 -0.46017525970E+03  0.13326706028E+04  0.14120025005E+04  0.46999998093E+01 0.  1.
</event>
<event>
 5   0  0.4462875E-05  0.1500853E+04  0.7818609E-02  0.8883886E-01
        3   -1    0    0  501    0  0.00000000000E+00  0.00000000000E+00  0.98164196748E+03  0.98164197268E+03  0.10100000352E+00 0. -1.
       -3   -1    0    0    0  501  0.00000000000E+00  0.00000000000E+00 -0.57367114695E+03  0.57367115584E+03  0.10100000352E+00 0.  1.
    10030    2    1    2    0    0  0.00000000000E+00  0.00000000000E+00  0.40797082054E+03  0.15553131285E+04  0.15008526701E+04 0.  0.
        3    1    3    3  502    0 -0.13867030263E+03  0.72293861705E+03  0.35511979723E+03  0.81730029820E+03  0.10100000352E+00 0. -1.
       -3    1    3    3    0  502  0.13867030263E+03 -0.72293861705E+03  0.52851023310E+02  0.73801283032E+03  0.10100000352E+00 0.  1.
</event>
<event>
 5   0  0.1228286E-04  0.1503440E+04  0.7818609E-02  0.8882168E-01
        2   -1    0    0  501    0  0.00000000000E+00  0.00000000000E+00  0.26073846935E+04  0.26073846935E+04  0.25500000920E-02 0.  1.
       -2   -1    0    0    0  501  0.00000000000E+00  0.00000000000E+00 -0.21672408586E+03  0.21672408588E+03  0.25500000920E-02 0. -1.
    10030    2    1    2    0    0  0.00000000000E+00  0.00000000000E+00  0.23906606077E+04  0.28241087794E+04  0.15034401408E+04 0.  0.
        2    1    3    3  502    0 -0.73599456473E+03  0.13964128180E+02  0.14814448306E+04  0.16542556581E+04  0.25500000920E-02 0.  1.
       -2    1    3    3    0  502  0.73599456473E+03 -0.13964128180E+02  0.90921577705E+03  0.11698531213E+04  0.25500000920E-02 0. -1.
</event>
<event>
 5   0  0.1228286E-04  0.1498713E+04  0.7818609E-02  0.8885309E-01
        2   -1    0    0  501    0  0.00000000000E+00  0.00000000000E+00  0.15984562263E+04  0.15984562263E+04  0.25500000920E-02 0. -1.
       -2   -1    0    0    0  501  0.00000000000E+00  0.00000000000E+00 -0.35129864925E+03  0.35129864926E+03  0.25500000920E-02 0.  1.
    10030    2    1    2    0    0  0.00000000000E+00  0.00000000000E+00  0.12471575770E+04  0.19497548756E+04  0.14987134659E+04 0.  0.
        2    1    3    3  502    0 -0.69221723922E+03 -0.84057843713E+02  0.26657439611E+03  0.74652015112E+03  0.25500000920E-02 0.  1.
       -2    1    3    3    0  502  0.69221723922E+03  0.84057843713E+02  0.98058318094E+03  0.12032347244E+04  0.25500000920E-02 0. -1.
</event>
<event>
 5   0  0.1254487E-04  0.1502317E+04  0.7818609E-02  0.8882913E-01
        2   -1    0    0  501    0  0.00000000000E+00  0.00000000000E+00  0.11210004965E+04  0.11210004965E+04  0.25500000920E-02 0.  1.
       -2   -1    0    0    0  501  0.00000000000E+00  0.00000000000E+00 -0.50333545786E+03  0.50333545787E+03  0.25500000920E-02 0. -1.
    10030    2    1    2    0    0  0.00000000000E+00  0.00000000000E+00  0.61766503868E+03  0.16243359544E+04  0.15023172743E+04 0.  0.
        5    1    3    3  502    0  0.49611351497E+03 -0.14133156416E+03 -0.28151176926E+03  0.58768545753E+03  0.46999998093E+01 0. -1.
       -5    1    3    3    0  502 -0.49611351497E+03  0.14133156416E+03  0.89917680794E+03  0.10366504969E+04  0.46999998093E+01 0.  1.
</event>
<event>
 5   0  0.1219810E-04  0.1505689E+04  0.7818609E-02  0.8880679E-01
        2   -1    0    0  501    0  0.00000000000E+00  0.00000000000E+00  0.27231959216E+04  0.27231959216E+04  0.25500000920E-02 0. -1.
       -2   -1    0    0    0  501  0.00000000000E+00  0.00000000000E+00 -0.20812847626E+03  0.20812847627E+03  0.25500000920E-02 0.  1.
    10030    2    1    2    0    0  0.00000000000E+00  0.00000000000E+00  0.25150674453E+04  0.29313243979E+04  0.15056887032E+04 0.  0.
        1    1    3    3  502    0 -0.25257129930E+03  0.14719148962E+03  0.26081883199E+04  0.26245197481E+04  0.50400001928E-02 0. -1.
       -1    1    3    3    0  502  0.25257129930E+03 -0.14719148962E+03 -0.93120874553E+02  0.30680464982E+03  0.50400001928E-02 0.  1.
</event>
<event>
 5   0  0.1228286E-04  0.1500032E+04  0.7818609E-02  0.8884431E-01
       -2   -1    0    0    0  501  0.00000000000E+00  0.00000000000E+00  0.70439008488E+03  0.70439008488E+03  0.25500000920E-02 0.  1.
        2   -1    0    0  501    0  0.00000000000E+00  0.00000000000E+00 -0.79859759064E+03  0.79859759065E+03  0.25500000920E-02 0. -1.
    10030    2    1    2    0    0  0.00000000000E+00  0.00000000000E+00 -0.94207505763E+02  0.15029876755E+04  0.15000322992E+04 0.  0.
        2    1    3    3  502    0 -0.68600604131E+03  0.61942602381E+02  0.25026886826E+03  0.73285447473E+03  0.25500000920E-02 0.  1.
       -2    1    3    3    0  502  0.68600604131E+03 -0.61942602381E+02 -0.34447637402E+03  0.77013320080E+03  0.25500000920E-02 0. -1.
</event>
<event>
 5   0  0.1219810E-04  0.1500265E+04  0.7818609E-02  0.8884277E-01
        2   -1    0    0  501    0  0.00000000000E+00  0.00000000000E+00  0.17442424186E+04  0.17442424186E+04  0.25500000920E-02 0.  1.
       -2   -1    0    0    0  501  0.00000000000E+00  0.00000000000E+00 -0.32260355370E+03  0.32260355371E+03  0.25500000920E-02 0. -1.
    10030    2    1    2    0    0  0.00000000000E+00  0.00000000000E+00  0.14216388649E+04  0.20668459723E+04  0.15002650469E+04 0.  0.
        1    1    3    3  502    0  0.51712849416E+03  0.47932972878E+03  0.35818326850E+03  0.79086921942E+03  0.50400001928E-02 0.  1.
       -1    1    3    3    0  502 -0.51712849416E+03 -0.47932972878E+03  0.10634555964E+04  0.12759767529E+04  0.50400001928E-02 0. -1.
</event>
<event>
 5   0  0.6542036E-05  0.1499738E+04  0.7818609E-02  0.8884627E-01
       -1   -1    0    0    0  501  0.00000000000E+00  0.00000000000E+00  0.30636385641E+03  0.30636385645E+03  0.50400001928E-02 0.  1.
        1   -1    0    0  501    0  0.00000000000E+00  0.00000000000E+00 -0.18354112957E+04  0.18354112957E+04  0.50400001928E-02 0. -1.
    10030    2    1    2    0    0  0.00000000000E+00  0.00000000000E+00 -0.15290474393E+04  0.21417751522E+04  0.14997382208E+04 0.  0.
        4    1    3    3  502    0  0.42827151712E+03  0.11394465255E+03  0.99331422475E+02  0.45416761290E+03  0.12699999809E+01 0.  1.
       -4    1    3    3    0  502 -0.42827151712E+03 -0.11394465255E+03 -0.16283788618E+04  0.16876075393E+04  0.12699999809E+01 0. -1.
</event>
<event>
 5   0  0.6542036E-05  0.1509467E+04  0.7818609E-02  0.8878182E-01
       -1   -1    0    0    0  501  0.00000000000E+00  0.00000000000E+00  0.67548654964E+03  0.67548654965E+03  0.50400001928E-02 0. -1.
        1   -1    0    0  501    0  0.00000000000E+00  0.00000000000E+00 -0.84327759581E+03  0.84327759582E+03  0.50400001928E-02 0.  1.
    10030    2    1    2    0    0  0.00000000000E+00  0.00000000000E+00 -0.16779104617E+03  0.15187641455E+04  0.15094670233E+04 0.  0.
        4    1    3    3  502    0 -0.38584336740E+03  0.53571355382E+03 -0.45187608345E+03  0.80003607644E+03  0.12699999809E+01 0.  1.
       -4    1    3    3    0  502  0.38584336740E+03 -0.53571355382E+03  0.28408503728E+03  0.71872806903E+03  0.12699999809E+01 0. -1.
</event>
<event>
 5   0  0.6542036E-05  0.1493552E+04  0.7818609E-02  0.8888752E-01
        1   -1    0    0  501    0  0.00000000000E+00  0.00000000000E+00  0.12630826419E+04  0.12630826419E+04  0.50400001928E-02 0.  1.
       -1   -1    0    0    0  501  0.00000000000E+00  0.00000000000E+00 -0.44151857524E+03  0.44151857527E+03  0.50400001928E-02 0. -1.
    10030    2    1    2    0    0  0.00000000000E+00  0.00000000000E+00  0.82156406663E+03  0.17046012171E+04  0.14935520727E+04 0.  0.
        4    1    3    3  502    0 -0.32575917486E+03 -0.48955516662E+02  0.11756766167E+04  0.12209556923E+04  0.12699999809E+01 0.  1.
       -4    1    3    3    0  502  0.32575917486E+03  0.48955516662E+02 -0.35411255011E+03  0.48364552481E+03  0.12699999809E+01 0. -1.
</event>
<event>
 5   0  0.1216921E-04  0.1497744E+04  0.7818609E-02  0.8885955E-01
       -2   -1    0    0    0  501  0.00000000000E+00  0.00000000000E+00  0.31582144441E+03  0.31582144442E+03  0.25500000920E-02 0.  1.
        2   -1    0    0  501    0  0.00000000000E+00  0.00000000000E+00 -0.17757157799E+04  0.17757157799E+04  0.25500000920E-02 0. -1.
    10030    2    1    2    0    0  0.00000000000E+00  0.00000000000E+00 -0.14598943355E+04  0.20915372243E+04  0.14977437998E+04 0.  0.
        4    1    3    3  502    0  0.11325962755E+03  0.69849395785E+03 -0.10722532059E+04  0.12846984482E+04  0.12699999809E+01 0. -1.
       -4    1    3    3    0  502 -0.11325962755E+03 -0.69849395785E+03 -0.38764112959E+03  0.80683877611E+03  0.12699999809E+01 0.  1.
</event>
<event>
 5   0  0.6364378E-05  0.1499505E+04  0.7818609E-02  0.8884782E-01
       -1   -1    0    0    0  501  0.00000000000E+00  0.00000000000E+00  0.58871479290E+03  0.58871479292E+03  0.50400001928E-02 0.  1.
        1   -1    0    0  501    0  0.00000000000E+00  0.00000000000E+00 -0.95484025445E+03  0.95484025447E+03  0.50400001928E-02 0. -1.
    10030    2    1    2    0    0  0.00000000000E+00  0.00000000000E+00 -0.36612546155E+03  0.15435550474E+04  0.14995046951E+04 0.  0.
        5    1    3    3  502    0  0.53614969067E+03  0.31916642861E+03 -0.61094524295E+03  0.87326964898E+03  0.46999998093E+01 0. -1.
       -5    1    3    3    0  502 -0.53614969067E+03 -0.31916642861E+03  0.24481978139E+03  0.67028539841E+03  0.46999998093E+01 0.  1.
</event>
<event>
 5   0  0.6509279E-05  0.1499249E+04  0.7818609E-02  0.8884952E-01
       -1   -1    0    0    0  501  0.00000000000E+00  0.00000000000E+00  0.10392806187E+04  0.10392806187E+04  0.50400001928E-02 0. -1.
        1   -1    0    0  501    0  0.00000000000E+00  0.00000000000E+00 -0.54069812876E+03  0.54069812878E+03  0.50400001928E-02 0.  1.
    10030    2    1    2    0    0  0.00000000000E+00  0.00000000000E+00  0.49858248994E+03  0.15799787475E+04  0.14992492599E+04 0.  0.
        2    1    3    3  502    0  0.30130164789E+03 -0.40446430939E+03  0.83373734388E+03  0.97441881097E+03  0.25500000920E-02 0. -1.
       -2    1    3    3    0  502 -0.30130164789E+03  0.40446430939E+03 -0.33515485394E+03  0.60555993652E+03  0.25500000920E-02 0.  1.
</event>
<event>
 5   0  0.6542036E-05  0.1502848E+04  0.7818609E-02  0.8882561E-01
        1   -1    0    0  501    0  0.00000000000E+00  0.00000000000E+00  0.66992535691E+03  0.66992535693E+03  0.50400001928E-02 0.  1.
       -1   -1    0    0    0  501  0.00000000000E+00  0.00000000000E+00 -0.84283756057E+03  0.84283756058E+03  0.50400001928E-02 0. -1.
    10030    2    1    2    0    0  0.00000000000E+00  0.00000000000E+00 -0.17291220365E+03  0.15127629175E+04  0.15028483005E+04 0.  0.
        4    1    3    3  502    0 -0.69416818739E+02 -0.43594870884E+02  0.66541032303E+03  0.67044143546E+03  0.12699999809E+01 0.  1.
       -4    1    3    3    0  502  0.69416818739E+02  0.43594870884E+02 -0.83832252668E+03  0.84232148206E+03  0.12699999809E+01 0. -1.
</event>
<event>
 5   0  0.6542036E-05  0.1485152E+04  0.7818609E-02  0.8894387E-01
        1   -1    0    0  501    0  0.00000000000E+00  0.00000000000E+00  0.13423300257E+04  0.13423300257E+04  0.50400001928E-02 0.  1.
       -1   -1    0    0    0  501  0.00000000000E+00  0.00000000000E+00 -0.41079240636E+03  0.41079240639E+03  0.50400001928E-02 0. -1.
    10030    2    1    2    0    0  0.00000000000E+00  0.00000000000E+00  0.93153761936E+03  0.17531224321E+04  0.14851518191E+04 0.  0.
        4    1    3    3  502    0  0.73197300470E+03  0.12395260973E+03  0.44642124538E+03  0.86628071103E+03  0.12699999809E+01 0.  1.
       -4    1    3    3    0  502 -0.73197300470E+03 -0.12395260973E+03  0.48511637398E+03  0.88684172109E+03  0.12699999809E+01 0. -1.
</event>
<event>
 5   0  0.1186664E-04  0.1494186E+04  0.7818609E-02  0.8888328E-01
        2   -1    0    0  501    0  0.00000000000E+00  0.00000000000E+00  0.62809552082E+03  0.62809552082E+03  0.25500000920E-02 0.  1.
       -2   -1    0    0    0  501  0.00000000000E+00  0.00000000000E+00 -0.88863557580E+03  0.88863557580E+03  0.25500000920E-02 0. -1.
    10030    2    1    2    0    0  0.00000000000E+00  0.00000000000E+00 -0.26054005498E+03  0.15167310966E+04  0.14941860993E+04 0.  0.
        3    1    3    3  502    0 -0.72513295839E+03 -0.57783178088E+01 -0.31269478151E+03  0.78970198992E+03  0.10100000352E+00 0. -1.
       -3    1    3    3    0  502  0.72513295839E+03  0.57783178088E+01  0.52154726529E+02  0.72702910671E+03  0.10100000352E+00 0.  1.
</event>
<event>
 5   0  0.6509279E-05  0.1495863E+04  0.7818609E-02  0.8887209E-01
       -1   -1    0    0    0  501  0.00000000000E+00  0.00000000000E+00  0.10089588355E+04  0.10089588355E+04  0.50400001928E-02 0. -1.
        1   -1    0    0  501    0  0.00000000000E+00  0.00000000000E+00 -0.55443413397E+03  0.55443413399E+03  0.50400001928E-02 0.  1.
    10030    2    1    2    0    0  0.00000000000E+00  0.00000000000E+00  0.45452470155E+03  0.15633929695E+04  0.14958625849E+04 0.  0.
        2    1    3    3  502    0 -0.61211167982E+03 -0.39480420868E+02 -0.22003251542E+03  0.65165460180E+03  0.25500000920E-02 0.  1.
       -2    1    3    3    0  502  0.61211167982E+03  0.39480420868E+02  0.67455721697E+03  0.91173836772E+03  0.25500000920E-02 0. -1.
</event>
<event>
 5   0  0.1186664E-04  0.1497817E+04  0.7818609E-02  0.8885906E-01
        2   -1    0    0  501    0  0.00000000000E+00  0.00000000000E+00  0.61012976131E+03  0.61012976131E+03  0.25500000920E-02 0.  1.
       -2   -1    0    0    0  501  0.00000000000E+00  0.00000000000E+00 -0.91925386834E+03  0.91925386834E+03  0.25500000920E-02 0. -1.
    10030    2    1    2    0    0  0.00000000000E+00  0.00000000000E+00 -0.30912410703E+03  0.15293836297E+04  0.14978172696E+04 0.  0.
        3    1    3    3  502    0  0.20962174934E+03 -0.29995664310E+03  0.51262181409E+03  0.62983839198E+03  0.10100000352E+00 0.  1.
       -3    1    3    3    0  502 -0.20962174934E+03  0.29995664310E+03 -0.82174592112E+03  0.89954523767E+03  0.10100000352E+00 0. -1.
</event>
<event>
 5   0  0.6364378E-05  0.1502240E+04  0.7818609E-02  0.8882965E-01
       -1   -1    0    0    0  501  0.00000000000E+00  0.00000000000E+00  0.50389494414E+03  0.50389494416E+03  0.50400001928E-02 0.  1.
        1   -1    0    0  501    0  0.00000000000E+00  0.00000000000E+00 -0.11196399322E+04  0.11196399322E+04  0.50400001928E-02 0. -1.
    10030    2    1    2    0    0  0.00000000000E+00  0.00000000000E+00 -0.61574498808E+03  0.16235348764E+04  0.15022395297E+04 0.  0.
        5    1    3    3  502    0  0.21966687723E+03 -0.59015380880E+03  0.13460401678E+03  0.64395293797E+03  0.46999998093E+01 0.  1.
       -5    1    3    3    0  502 -0.21966687723E+03  0.59015380880E+03 -0.75034900485E+03  0.97958193842E+03  0.46999998093E+01 0. -1.
</event>
<event>
 5   0  0.1186664E-04  0.1498535E+04  0.7818609E-02  0.8885428E-01
        2   -1    0    0  501    0  0.00000000000E+00  0.00000000000E+00  0.12025755902E+04  0.12025755902E+04  0.25500000920E-02 0.  1.
       -2   -1    0    0    0  501  0.00000000000E+00  0.00000000000E+00 -0.46683267579E+03  0.46683267579E+03  0.25500000920E-02 0. -1.
    10030    2    1    2    0    0  0.00000000000E+00  0.00000000000E+00  0.73574291438E+03  0.16694082660E+04  0.14985347251E+04 0.  0.
        3    1    3    3  502    0  0.24683074766E+03  0.68378479110E+03  0.16576068664E+03  0.74562971639E+03  0.10100000352E+00 0. -1.
       -3    1    3    3    0  502 -0.24683074766E+03 -0.68378479110E+03  0.56998222774E+03  0.92377854958E+03  0.10100000352E+00 0.  1.
</event>
<event>
 5   0  0.6361716E-05  0.1502409E+04  0.7818609E-02  0.8882852E-01
       -1   -1    0    0    0  501  0.00000000000E+00  0.00000000000E+00  0.66432091328E+03  0.66432091330E+03  0.50400001928E-02 0. -1.
        1   -1    0    0  501    0  0.00000000000E+00  0.00000000000E+00 -0.84945146206E+03  0.84945146207E+03  0.50400001928E-02 0.  1.
    10030    2    1    2    0    0  0.00000000000E+00  0.00000000000E+00 -0.18513054878E+03  0.15137723754E+04  0.15024092267E+04 0.  0.
        3    1    3    3  502    0 -0.20964843251E+03 -0.71971798652E+03 -0.43598159854E+02  0.75089763291E+03  0.10100000352E+00 0. -1.
       -3    1    3    3    0  502  0.20964843251E+03  0.71971798652E+03 -0.14153238892E+03  0.76287474246E+03  0.10100000352E+00 0.  1.
</event>
<event>
 5   0  0.6364378E-05  0.1498721E+04  0.7818609E-02  0.8885304E-01
        1   -1    0    0  501    0  0.00000000000E+00  0.00000000000E+00  0.48458817322E+03  0.48458817325E+03  0.50400001928E-02 0.  1.
       -1   -1    0    0    0  501  0.00000000000E+00  0.00000000000E+00 -0.11588001251E+04  0.11588001251E+04  0.50400001928E-02 0. -1.
    10030    2    1    2    0    0  0.00000000000E+00  0.00000000000E+00 -0.67421195188E+03  0.16433882984E+04  0.14987205687E+04 0.  0.
        5    1    3    3  502    0 -0.31369562703E+03  0.66609533554E+03 -0.48995578505E+03  0.88440189040E+03  0.46999998093E+01 0. -1.
       -5    1    3    3    0  502  0.31369562703E+03 -0.66609533554E+03 -0.18425616684E+03  0.75898640796E+03  0.46999998093E+01 0.  1.
</event>
<event>
 5   0  0.1254487E-04  0.1500637E+04  0.7818609E-02  0.8884029E-01
       -2   -1    0    0    0  501  0.00000000000E+00  0.00000000000E+00  0.77039298263E+03  0.77039298263E+03  0.25500000920E-02 0.  1.
        2   -1    0    0  501    0  0.00000000000E+00  0.00000000000E+00 -0.73076739688E+03  0.73076739689E+03  0.25500000920E-02 0. -1.
    10030    2    1    2    0    0  0.00000000000E+00  0.00000000000E+00  0.39625585748E+02  0.15011603795E+04  0.15006372973E+04 0.  0.
        5    1    3    3  502    0 -0.29676178707E+03 -0.67048754010E+03 -0.13941204823E+03  0.74637718942E+03  0.46999998093E+01 0. -1.
       -5    1    3    3    0  502  0.29676178707E+03  0.67048754010E+03  0.17903763397E+03  0.75478319011E+03  0.46999998093E+01 0.  1.
</event>
<event>
 5   0  0.6361716E-05  0.1502518E+04  0.7818609E-02  0.8882780E-01
       -1   -1    0    0    0  501  0.00000000000E+00  0.00000000000E+00  0.52591720504E+03  0.52591720507E+03  0.50400001928E-02 0.  1.
        1   -1    0    0  501    0  0.00000000000E+00  0.00000000000E+00 -0.10731541550E+04  0.10731541550E+04  0.50400001928E-02 0. -1.
    10030    2    1    2    0    0  0.00000000000E+00  0.00000000000E+00 -0.54723694991E+03  0.15990713600E+04  0.15025181979E+04 0.  0.
        3    1    3    3  502    0  0.62693150319E+03  0.41126467455E+03 -0.22360408534E+03  0.78241966962E+03  0.10100000352E+00 0.  1.
       -3    1    3    3    0  502 -0.62693150319E+03 -0.41126467455E+03 -0.32363286457E+03  0.81665169042E+03  0.10100000352E+00 0. -1.
</event>
<event>
 5   0  0.6509279E-05  0.1499178E+04  0.7818609E-02  0.8885000E-01
        1   -1    0    0  501    0  0.00000000000E+00  0.00000000000E+00  0.19113868593E+04  0.19113868593E+04  0.50400001928E-02 0. -1.
       -1   -1    0    0    0  501  0.00000000000E+00  0.00000000000E+00 -0.29396633152E+03  0.29396633156E+03  0.50400001928E-02 0.  1.
    10030    2    1    2    0    0  0.00000000000E+00  0.00000000000E+00  0.16174205278E+04  0.22053531908E+04  0.14991776188E+04 0.  0.
        2    1    3    3  502    0  0.46051179016E+03 -0.26489351006E+03  0.30803434590E+02  0.53215461300E+03  0.25500000920E-02 0.  1.
       -2    1    3    3    0  502 -0.46051179016E+03  0.26489351006E+03  0.15866170932E+04  0.16731985778E+04  0.25500000920E-02 0. -1.
</event>
<event>
 5   0  0.1228286E-04  0.1500513E+04  0.7818609E-02  0.8884112E-01
       -2   -1    0    0    0  501  0.00000000000E+00  0.00000000000E+00  0.43761693579E+03  0.43761693580E+03  0.25500000920E-02 0. -1.
        2   -1    0    0  501    0  0.00000000000E+00  0.00000000000E+00 -0.12862498217E+04  0.12862498217E+04  0.25500000920E-02 0.  1.
    10030    2    1    2    0    0  0.00000000000E+00  0.00000000000E+00 -0.84863288587E+03  0.17238667575E+04  0.15005128532E+04 0.  0.
        2    1    3    3  502    0  0.59132845078E+03 -0.42971788277E+03 -0.61846187933E+03  0.95750816793E+03  0.25500000920E-02 0.  1.
       -2    1    3    3    0  502 -0.59132845078E+03  0.42971788277E+03 -0.23017100655E+03  0.76635858952E+03  0.25500000920E-02 0. -1.
</event>
<event>
 5   0  0.1228286E-04  0.1504254E+04  0.7818609E-02  0.8881629E-01
        2   -1    0    0  501    0  0.00000000000E+00  0.00000000000E+00  0.62371804532E+03  0.62371804533E+03  0.25500000920E-02 0. -1.
       -2   -1    0    0    0  501  0.00000000000E+00  0.00000000000E+00 -0.90697228048E+03  0.90697228048E+03  0.25500000920E-02 0.  1.
    10030    2    1    2    0    0  0.00000000000E+00  0.00000000000E+00 -0.28325423516E+03  0.15306903258E+04  0.15042539386E+04 0.  0.
        2    1    3    3  502    0  0.66732225543E+03 -0.17831859355E+03 -0.44447898365E+03  0.82138789881E+03  0.25500000920E-02 0. -1.
       -2    1    3    3    0  502 -0.66732225543E+03  0.17831859355E+03  0.16122474850E+03  0.70930242699E+03  0.25500000920E-02 0.  1.
</event>
<event>
 5   0  0.1216921E-04  0.1498717E+04  0.7818609E-02  0.8885306E-01
        2   -1    0    0  501    0  0.00000000000E+00  0.00000000000E+00  0.63721618740E+03  0.63721618741E+03  0.25500000920E-02 0.  1.
       -2   -1    0    0    0  501  0.00000000000E+00  0.00000000000E+00 -0.88123678733E+03  0.88123678733E+03  0.25500000920E-02 0. -1.
    10030    2    1    2    0    0  0.00000000000E+00  0.00000000000E+00 -0.24402059993E+03  0.15184529747E+04  0.14987172459E+04 0.  0.
        4    1    3    3  502    0 -0.20360734255E+03  0.54694755724E+03  0.35421027528E+03  0.68269620793E+03  0.12699999809E+01 0.  1.
       -4    1    3    3    0  502  0.20360734255E+03 -0.54694755724E+03 -0.59823087521E+03  0.83575676680E+03  0.12699999809E+01 0. -1.
</event>
<event>
 5   0  0.1219810E-04  0.1496718E+04  0.7818609E-02  0.8886638E-01
        2   -1    0    0  501    0  0.00000000000E+00  0.00000000000E+00  0.10195179251E+04  0.10195179251E+04  0.25500000920E-02 0. -1.
       -2   -1    0    0    0  501  0.00000000000E+00  0.00000000000E+00 -0.54931986371E+03  0.54931986372E+03  0.25500000920E-02 0.  1.
    10030    2    1    2    0    0  0.00000000000E+00  0.00000000000E+00  0.47019806136E+03  0.15688377888E+04  0.14967183404E+04 0.  0.
        1    1    3    3  502    0  0.41530237802E+03  0.37118560174E+03 -0.28876979701E+03  0.62740960450E+03  0.50400001928E-02 0. -1.
       -1    1    3    3    0  502 -0.41530237802E+03 -0.37118560174E+03  0.75896785836E+03  0.94142818429E+03  0.50400001928E-02 0.  1.
</event>
<event>
 5   0  0.4462875E-05  0.1501751E+04  0.7818609E-02  0.8883289E-01
        4   -1    0    0  501    0  0.00000000000E+00  0.00000000000E+00  0.11460724829E+04  0.11460731865E+04  0.12699999809E+01 0.  1.
       -4   -1    0    0    0  501  0.00000000000E+00  0.00000000000E+00 -0.49195157503E+03  0.49195321431E+03  0.12699999809E+01 0. -1.
    10030    2    1    2    0    0  0.00000000000E+00  0.00000000000E+00  0.65412090784E+03  0.16380264008E+04  0.15017510872E+04 0.  0.
        5    1    3    3  502    0 -0.26959176037E+03  0.39367696783E+03 -0.30531797149E+03  0.56648250280E+03  0.46999998093E+01 0. -1.
       -5    1    3    3    0  502  0.26959176037E+03 -0.39367696783E+03  0.95943887933E+03  0.10715438980E+04  0.46999998093E+01 0.  1.
</event>
<event>
 5   0  0.1216921E-04  0.1494073E+04  0.7818609E-02  0.8888404E-01
        2   -1    0    0  501    0  0.00000000000E+00  0.00000000000E+00  0.84158469492E+03  0.84158469492E+03  0.25500000920E-02 0. -1.
       -2   -1    0    0    0  501  0.00000000000E+00  0.00000000000E+00 -0.66311037247E+03  0.66311037247E+03  0.25500000920E-02 0.  1.
    10030    2    1    2    0    0  0.00000000000E+00  0.00000000000E+00  0.17847432245E+03  0.15046950674E+04  0.14940730110E+04 0.  0.
        4    1    3    3  502    0  0.15516134433E+03 -0.55654125464E+03  0.56615290541E+03  0.80891528364E+03  0.12699999809E+01 0. -1.
       -4    1    3    3    0  502 -0.15516134433E+03  0.55654125464E+03 -0.38767858296E+03  0.69577978376E+03  0.12699999809E+01 0.  1.
</event>
<event>
 5   0  0.1186664E-04  0.1504816E+04  0.7818609E-02  0.8881256E-01
       -2   -1    0    0    0  501  0.00000000000E+00  0.00000000000E+00  0.28326137535E+03  0.28326137537E+03  0.25500000920E-02 0.  1.
        2   -1    0    0  501    0  0.00000000000E+00  0.00000000000E+00 -0.19985715893E+04  0.19985715893E+04  0.25500000920E-02 0. -1.
    10030    2    1    2    0    0  0.00000000000E+00  0.00000000000E+00 -0.17153102139E+04  0.22818329646E+04  0.15048164501E+04 0.  0.
        3    1    3    3  502    0 -0.25969371867E+03 -0.50731766017E+03 -0.16025319313E+04  0.17008587939E+04  0.10100000352E+00 0. -1.
       -3    1    3    3    0  502  0.25969371867E+03  0.50731766017E+03 -0.11277828265E+03  0.58097417075E+03  0.10100000352E+00 0.  1.
</event>
<event>
 5   0  0.4462875E-05  0.1495836E+04  0.7818609E-02  0.8887227E-01
       -3   -1    0    0    0  501  0.00000000000E+00  0.00000000000E+00  0.75873089704E+03  0.75873090376E+03  0.10100000352E+00 0. -1.
        3   -1    0    0  501    0  0.00000000000E+00  0.00000000000E+00 -0.73725889371E+03  0.73725890063E+03  0.10100000352E+00 0.  1.
    10030    2    1    2    0    0  0.00000000000E+00  0.00000000000E+00  0.21472003325E+02  0.14959898044E+04  0.14958357022E+04 0.  0.
        5    1    3    3  502    0 -0.34025244877E+03  0.38074092070E+03 -0.53578497366E+03  0.74015066411E+03  0.46999998093E+01 0.  1.
       -5    1    3    3    0  502  0.34025244877E+03 -0.38074092070E+03  0.55725697698E+03  0.75583914028E+03  0.46999998093E+01 0. -1.
</event>
<event>
 5   0  0.4462875E-05  0.1499733E+04  0.7818609E-02  0.8884631E-01
        3   -1    0    0  501    0  0.00000000000E+00  0.00000000000E+00  0.10350514603E+04  0.10350514652E+04  0.10100000352E+00 0.  1.
       -3   -1    0    0    0  501  0.00000000000E+00  0.00000000000E+00 -0.54325755961E+03  0.54325756900E+03  0.10100000352E+00 0. -1.
    10030    2    1    2    0    0  0.00000000000E+00  0.00000000000E+00  0.49179390065E+03  0.15783090342E+04  0.14997326984E+04 0.  0.
        5    1    3    3  502    0  0.15106468143E+02  0.16206028808E+03 -0.52442761024E+03  0.54912489539E+03  0.46999998093E+01 0. -1.
       -5    1    3    3    0  502 -0.15106468143E+02 -0.16206028808E+03  0.10162215109E+04  0.10291841388E+04  0.46999998093E+01 0.  1.
</event>
<event>
 5   0  0.6361716E-05  0.1500839E+04  0.7818609E-02  0.8883895E-01
       -1   -1    0    0    0  501  0.00000000000E+00  0.00000000000E+00  0.66676622133E+03  0.66676622135E+03  0.50400001928E-02 0.  1.
        1   -1    0    0  501    0  0.00000000000E+00  0.00000000000E+00 -0.84456778878E+03  0.84456778879E+03  0.50400001928E-02 0. -1.
    10030    2    1    2    0    0  0.00000000000E+00  0.00000000000E+00 -0.17780156745E+03  0.15113340101E+04  0.15008387964E+04 0.  0.
        3    1    3    3  502    0 -0.17165309604E+03 -0.72880531631E+03 -0.13932377036E+03  0.76159903995E+03  0.10100000352E+00 0.  1.
       -3    1    3    3    0  502  0.17165309604E+03  0.72880531631E+03 -0.38477797085E+02  0.74973497019E+03  0.10100000352E+00 0. -1.
</event>
<event>
 5   0  0.1254487E-04  0.1497461E+04  0.7818609E-02  0.8886143E-01
        2   -1    0    0  501    0  0.00000000000E+00  0.00000000000E+00  0.68337439822E+03  0.68337439822E+03  0.25500000920E-02 0.  1.
       -2   -1    0    0    0  501  0.00000000000E+00  0.00000000000E+00 -0.82033665889E+03  0.82033665889E+03  0.25500000920E-02 0. -1.
    10030    2    1    2    0    0  0.00000000000E+00  0.00000000000E+00 -0.13696226067E+03  0.15037110571E+04  0.14974606113E+04 0.  0.
        5    1    3    3  502    0  0.63460567272E+03 -0.38752583362E+03  0.19487890812E+02  0.74384306104E+03  0.46999998093E+01 0.  1.
       -5    1    3    3    0  502 -0.63460567272E+03  0.38752583362E+03 -0.15645015148E+03  0.75986799608E+03  0.46999998093E+01 0. -1.
</event>
<event>
 5   0  0.6542036E-05  0.1484818E+04  0.7818609E-02  0.8894612E-01
        1   -1    0    0  501    0  0.00000000000E+00  0.00000000000E+00  0.50466315741E+03  0.50466315743E+03  0.50400001928E-02 0. -1.
       -1   -1    0    0    0  501  0.00000000000E+00  0.00000000000E+00 -0.10921564522E+04  0.10921564522E+04  0.50400001928E-02 0.  1.
    10030    2    1    2    0    0  0.00000000000E+00  0.00000000000E+00 -0.58749329478E+03  0.15968196096E+04  0.14848180004E+04 0.  0.
        4    1    3    3  502    0 -0.88591892898E+02 -0.71345076318E+03 -0.94547884825E+02  0.72512166592E+03  0.12699999809E+01 0. -1.
       -4    1    3    3    0  502  0.88591892898E+02  0.71345076318E+03 -0.49294540996E+03  0.87169794371E+03  0.12699999809E+01 0.  1.
</event>
<event>
 5   0  0.1219810E-04  0.1494928E+04  0.7818609E-02  0.8887833E-01
       -2   -1    0    0    0  501  0.00000000000E+00  0.00000000000E+00  0.65145639289E+03  0.65145639289E+03  0.25500000920E-02 0. -1.
        2   -1    0    0  501    0  0.00000000000E+00  0.00000000000E+00 -0.85762098574E+03  0.85762098575E+03  0.25500000920E-02 0.  1.
    10030    2    1    2    0    0  0.00000000000E+00  0.00000000000E+00 -0.20616459285E+03  0.15090773786E+04  0.14949283245E+04 0.  0.
        1    1    3    3  502    0 -0.10347191817E+03 -0.93276495572E+02 -0.84440044052E+03  0.85581484355E+03  0.50400001928E-02 0.  1.
       -1    1    3    3    0  502  0.10347191817E+03  0.93276495572E+02  0.63823584766E+03  0.65326253508E+03  0.50400001928E-02 0. -1.
</event>
<event>
 5   0  0.1228286E-04  0.1500207E+04  0.7818609E-02  0.8884316E-01
        2   -1    0    0  501    0  0.00000000000E+00  0.00000000000E+00  0.13513026551E+04  0.13513026551E+04  0.25500000920E-02 0. -1.
       -2   -1    0    0    0  501  0.00000000000E+00  0.00000000000E+00 -0.41637971031E+03  0.41637971032E+03  0.25500000920E-02 0.  1.
    10030    2    1    2    0    0  0.00000000000E+00  0.00000000000E+00  0.93492294483E+03  0.17676823655E+04  0.15002066632E+04 0.  0.
        2    1    3    3  502    0  0.57294669207E+03 -0.28366361284E+03  0.51831165455E+01  0.63934327392E+03  0.25500000920E-02 0. -1.
       -2    1    3    3    0  502 -0.57294669207E+03  0.28366361284E+03  0.92973982828E+03  0.11283390915E+04  0.25500000920E-02 0.  1.
</event>
<event>
 5   0  0.6364378E-05  0.1500586E+04  0.7818609E-02  0.8884063E-01
       -1   -1    0    0    0  501  0.00000000000E+00  0.00000000000E+00  0.29058645138E+03  0.29058645142E+03  0.50400001928E-02 0. -1.
        1   -1    0    0  501    0  0.00000000000E+00  0.00000000000E+00 -0.19372537900E+04  0.19372537900E+04  0.50400001928E-02 0.  1.
    10030    2    1    2    0    0  0.00000000000E+00  0.00000000000E+00 -0.16466673386E+04  0.22278402414E+04  0.15005861579E+04 0.  0.
        5    1    3    3  502    0 -0.47455767632E+03  0.49095945374E+03 -0.36172686238E+03  0.77273189809E+03  0.46999998093E+01 0. -1.
       -5    1    3    3    0  502  0.47455767632E+03 -0.49095945374E+03 -0.12849404762E+04  0.14551083433E+04  0.46999998093E+01 0.  1.
</event>
<event>
 5   0  0.1216921E-04  0.1491485E+04  0.7818609E-02  0.8890135E-01
        2   -1    0    0  501    0  0.00000000000E+00  0.00000000000E+00  0.14823330848E+04  0.14823330848E+04  0.25500000920E-02 0. -1.
       -2   -1    0    0    0  501  0.00000000000E+00  0.00000000000E+00 -0.37517315938E+03  0.37517315939E+03  0.25500000920E-02 0.  1.
    10030    2    1    2    0    0  0.00000000000E+00  0.00000000000E+00  0.11071599254E+04  0.18575062442E+04  0.14914846116E+04 0.  0.
        4    1    3    3  502    0  0.16338948274E+03 -0.55948626421E+03 -0.25780874897E+02  0.58342717568E+03  0.12699999809E+01 0.  1.
       -4    1    3    3    0  502 -0.16338948274E+03  0.55948626421E+03  0.11329408003E+04  0.12740790685E+04  0.12699999809E+01 0. -1.
</event>
<event>
 5   0  0.1254487E-04  0.1506808E+04  0.7818609E-02  0.8879938E-01
        2   -1    0    0  501    0  0.00000000000E+00  0.00000000000E+00  0.74076732444E+03  0.74076732445E+03  0.25500000920E-02 0. -1.
       -2   -1    0    0    0  501  0.00000000000E+00  0.00000000000E+00 -0.76625604130E+03  0.76625604131E+03  0.25500000920E-02 0.  1.
    10030    2    1    2    0    0  0.00000000000E+00  0.00000000000E+00 -0.25488716863E+02  0.15070233658E+04  0.15068078014E+04 0.  0.
        5    1    3    3  502    0 -0.93230728334E+02  0.40600094903E+03 -0.64058141284E+03  0.76413047040E+03  0.46999998093E+01 0.  1.
       -5    1    3    3    0  502  0.93230728334E+02 -0.40600094903E+03  0.61509269598E+03  0.74289289535E+03  0.46999998093E+01 0. -1.
</event>
<event>
 5   0  0.6542036E-05  0.1503403E+04  0.7818609E-02  0.8882193E-01
        1   -1    0    0  501    0  0.00000000000E+00  0.00000000000E+00  0.14295210636E+04  0.14295210636E+04  0.50400001928E-02 0. -1.
       -1   -1    0    0    0  501  0.00000000000E+00  0.00000000000E+00 -0.39527594570E+03  0.39527594573E+03  0.50400001928E-02 0.  1.
    10030    2    1    2    0    0  0.00000000000E+00  0.00000000000E+00  0.10342451179E+04  0.18247970093E+04  0.15034031932E+04 0.  0.
        4    1    3    3  502    0 -0.27269330818E+03  0.42199599030E+03  0.11957657758E+04  0.12970349493E+04  0.12699999809E+01 0. -1.
       -4    1    3    3    0  502  0.27269330818E+03 -0.42199599030E+03 -0.16152065794E+03  0.52776206002E+03  0.12699999809E+01 0.  1.
</event>
<event>
 5   0  0.1186664E-04  0.1500190E+04  0.7818609E-02  0.8884326E-01
       -2   -1    0    0    0  501  0.00000000000E+00  0.00000000000E+00  0.95413601933E+03  0.95413601933E+03  0.25500000920E-02 0.  1.
        2   -1    0    0  501    0  0.00000000000E+00  0.00000000000E+00 -0.58968814281E+03  0.58968814282E+03  0.25500000920E-02 0. -1.
    10030    2    1    2    0    0  0.00000000000E+00  0.00000000000E+00  0.36444787652E+03  0.15438241621E+04  0.15001902509E+04 0.  0.
        3    1    3    3  502    0  0.66552995470E+02 -0.62942393858E+03  0.59647261182E+03  0.86970304272E+03  0.10100000352E+00 0.  1.
       -3    1    3    3    0  502 -0.66552995470E+02  0.62942393858E+03 -0.23202473530E+03  0.67412111943E+03  0.10100000352E+00 0. -1.
</event>
<event>
 5   0  0.4462875E-05  0.1499704E+04  0.7818609E-02  0.8884650E-01
       -3   -1    0    0    0  501  0.00000000000E+00  0.00000000000E+00  0.47051631031E+03  0.47051632115E+03  0.10100000352E+00 0. -1.
        3   -1    0    0  501    0  0.00000000000E+00  0.00000000000E+00 -0.11950235188E+04  0.11950235230E+04  0.10100000352E+00 0.  1.
    10030    2    1    2    0    0  0.00000000000E+00  0.00000000000E+00 -0.72450720845E+03  0.16655398442E+04  0.14997040633E+04 0.  0.
        4    1    3    3  502    0 -0.49709471877E+03 -0.56112921075E+03 -0.38172221159E+03  0.84123873562E+03  0.12699999809E+01 0. -1.
       -4    1    3    3    0  502  0.49709471877E+03  0.56112921075E+03 -0.34278499686E+03  0.82430110855E+03  0.12699999809E+01 0.  1.
</event>
<event>
 5   0  0.6361716E-05  0.1509118E+04  0.7818609E-02  0.8878412E-01
        1   -1    0    0  501    0  0.00000000000E+00  0.00000000000E+00  0.10395912949E+04  0.10395912949E+04  0.50400001928E-02 0. -1.
       -1   -1    0    0    0  501  0.00000000000E+00  0.00000000000E+00 -0.54767594748E+03  0.54767594750E+03  0.50400001928E-02 0.  1.
    10030    2    1    2    0    0  0.00000000000E+00  0.00000000000E+00  0.49191534740E+03  0.15872672424E+04  0.15091178184E+04 0.  0.
        3    1    3    3  502    0 -0.39959204180E+02  0.28954450481E+03  0.97762987446E+03  0.10203886220E+04  0.10100000352E+00 0. -1.
       -3    1    3    3    0  502  0.39959204180E+02 -0.28954450481E+03 -0.48571452706E+03  0.56687862039E+03  0.10100000352E+00 0.  1.
</event>
<event>
 5   0  0.6361716E-05  0.1491804E+04  0.7818609E-02  0.8889921E-01
        1   -1    0    0  501    0  0.00000000000E+00  0.00000000000E+00  0.69414251312E+03  0.69414251314E+03  0.50400001928E-02 0.  1.
       -1   -1    0    0    0  501  0.00000000000E+00  0.00000000000E+00 -0.80152138670E+03  0.80152138672E+03  0.50400001928E-02 0. -1.
    10030    2    1    2    0    0  0.00000000000E+00  0.00000000000E+00 -0.10737887358E+03  0.14956638999E+04  0.14918043702E+04 0.  0.
        3    1    3    3  502    0  0.63071279229E+03  0.77569804350E+02 -0.44528200996E+03  0.77594573232E+03  0.10100000352E+00 0. -1.
       -3    1    3    3    0  502 -0.63071279229E+03 -0.77569804350E+02  0.33790313638E+03  0.71971816754E+03  0.10100000352E+00 0.  1.
</event>
<event>
 5   0  0.6668433E-05  0.1499288E+04  0.7818609E-02  0.8884927E-01
       -1   -1    0    0    0  501  0.00000000000E+00  0.00000000000E+00  0.32369066048E+03  0.32369066052E+03  0.50400001928E-02 0.  1.
        1   -1    0    0  501    0  0.00000000000E+00  0.00000000000E+00 -0.17361203861E+04  0.17361203861E+04  0.50400001928E-02 0. -1.
    10030    2    1    2    0    0  0.00000000000E+00  0.00000000000E+00 -0.14124297256E+04  0.20598110466E+04  0.14992877702E+04 0.  0.
        1    1    3    3  502    0 -0.34238976596E+03  0.43352196143E+03 -0.10013697606E+02  0.55251454012E+03  0.50400001928E-02 0.  1.
       -1    1    3    3    0  502  0.34238976596E+03 -0.43352196143E+03 -0.14024160280E+04  0.15072965065E+04  0.50400001928E-02 0. -1.
</event>
<event>
 5   0  0.1186664E-04  0.1499292E+04  0.7818609E-02  0.8884924E-01
        2   -1    0    0  501    0  0.00000000000E+00  0.00000000000E+00  0.13777077413E+04  0.13777077413E+04  0.25500000920E-02 0.  1.
       -2   -1    0    0    0  501  0.00000000000E+00  0.00000000000E+00 -0.40790167512E+03  0.40790167513E+03  0.25500000920E-02 0. -1.
    10030    2    1    2    0    0  0.00000000000E+00  0.00000000000E+00  0.96980606618E+03  0.17856094164E+04  0.14992922270E+04 0.  0.
        3    1    3    3  502    0  0.44116912088E+03  0.36836636581E+03  0.10581106284E+04  0.12041271049E+04  0.10100000352E+00 0.  1.
       -3    1    3    3    0  502 -0.44116912088E+03 -0.36836636581E+03 -0.88304562230E+02  0.58148231150E+03  0.10100000352E+00 0. -1.
</event>
<event>
 5   0  0.4462875E-05  0.1499599E+04  0.7818609E-02  0.8884720E-01
        3   -1    0    0  501    0  0.00000000000E+00  0.00000000000E+00  0.92133667462E+03  0.92133668016E+03  0.10100000352E+00 0. -1.
       -3   -1    0    0    0  501  0.00000000000E+00  0.00000000000E+00 -0.61019974354E+03  0.61019975190E+03  0.10100000352E+00 0.  1.
    10030    2    1    2    0    0  0.00000000000E+00  0.00000000000E+00  0.31113693107E+03  0.15315364321E+04  0.14995991641E+04 0.  0.
        3    1    3    3  502    0  0.54923966823E+03  0.47753767165E+03 -0.28528569449E+02  0.72836826570E+03  0.10100000352E+00 0.  1.
       -3    1    3    3    0  502 -0.54923966823E+03 -0.47753767165E+03  0.33966550052E+03  0.80316816636E+03  0.10100000352E+00 0. -1.
</event>
<event>
 5   0  0.1186664E-04  0.1499076E+04  0.7818609E-02  0.8885068E-01
       -2   -1    0    0    0  501  0.00000000000E+00  0.00000000000E+00  0.53529061017E+03  0.53529061017E+03  0.25500000920E-02 0. -1.
        2   -1    0    0  501    0  0.00000000000E+00  0.00000000000E+00 -0.10495367258E+04  0.10495367258E+04  0.25500000920E-02 0.  1.
    10030    2    1    2    0    0  0.00000000000E+00  0.00000000000E+00 -0.51424611566E+03  0.15848273360E+04  0.14990759212E+04 0.  0.
        3    1    3    3  502    0  0.18972090466E+03  0.46307515325E+03 -0.84705221839E+03  0.98383438144E+03  0.10100000352E+00 0. -1.
       -3    1    3    3    0  502 -0.18972090466E+03 -0.46307515325E+03  0.33280610273E+03  0.60099295457E+03  0.10100000352E+00 0.  1.
</event>
<event>
 5   0  0.1254487E-04  0.1495875E+04  0.7818609E-02  0.8887200E-01
       -2   -1    0    0    0  501  0.00000000000E+00  0.00000000000E+00  0.27008395139E+03  0.27008395140E+03  0.25500000920E-02 0. -1.
        2   -1    0    0  501    0  0.00000000000E+00  0.00000000000E+00 -0.20712476546E+04  0.20712476546E+04  0.25500000920E-02 0.  1.
    10030    2    1    2    0    0  0.00000000000E+00  0.00000000000E+00 -0.18011637032E+04  0.23413316060E+04  0.14958753302E+04 0.  0.
        5    1    3    3  502    0  0.32862179820E+02  0.64299953920E+03 -0.14963019655E+04  0.16289475106E+04  0.46999998093E+01 0. -1.
       -5    1    3    3    0  502 -0.32862179820E+02 -0.64299953920E+03 -0.30486173769E+03  0.71238409540E+03  0.46999998093E+01 0.  1.
</event>
<event>
 5   0  0.6509279E-05  0.1501629E+04  0.7818609E-02  0.8883371E-01
        1   -1    0    0  501    0  0.00000000000E+00  0.00000000000E+00  0.11408765073E+04  0.11408765073E+04  0.50400001928E-02 0. -1.
       -1   -1    0    0    0  501  0.00000000000E+00  0.00000000000E+00 -0.49411316907E+03  0.49411316909E+03  0.50400001928E-02 0.  1.
    10030    2    1    2    0    0  0.00000000000E+00  0.00000000000E+00  0.64676333820E+03  0.16349896764E+04  0.15016285913E+04 0.  0.
        2    1    3    3  502    0 -0.36601842638E+03  0.46818521846E+03 -0.17623335728E+03  0.61985892222E+03  0.25500000920E-02 0.  1.
       -2    1    3    3    0  502  0.36601842638E+03 -0.46818521846E+03  0.82299669548E+03  0.10151307541E+04  0.25500000920E-02 0. -1.
</event>
<event>
 5   0  0.6542036E-05  0.1502277E+04  0.7818609E-02  0.8882940E-01
        1   -1    0    0  501    0  0.00000000000E+00  0.00000000000E+00  0.52015131595E+03  0.52015131597E+03  0.50400001928E-02 0. -1.
       -1   -1    0    0    0  501  0.00000000000E+00  0.00000000000E+00 -0.10847017480E+04  0.10847017480E+04  0.50400001928E-02 0.  1.
    10030    2    1    2    0    0  0.00000000000E+00  0.00000000000E+00 -0.56455043202E+03  0.16048530639E+04  0.15022769940E+04 0.  0.
        4    1    3    3  502    0  0.32224570609E+02 -0.10514520959E+03  0.51150347997E+03  0.52319342596E+03  0.12699999809E+01 0. -1.
       -4    1    3    3    0  502 -0.32224570609E+02  0.10514520959E+03 -0.10760539120E+04  0.10816596380E+04  0.12699999809E+01 0.  1.
</event>
<event>
 5   0  0.1228286E-04  0.1499433E+04  0.7818609E-02  0.8884830E-01
        2   -1    0    0  501    0  0.00000000000E+00  0.00000000000E+00  0.77002507853E+03  0.77002507854E+03  0.25500000920E-02 0.  1.
       -2   -1    0    0    0  501  0.00000000000E+00  0.00000000000E+00 -0.72994337593E+03  0.72994337594E+03  0.25500000920E-02 0. -1.
    10030    2    1    2    0    0  0.00000000000E+00  0.00000000000E+00  0.40081702600E+02  0.14999684545E+04  0.14994328333E+04 0.  0.
        2    1    3    3  502    0  0.25837077942E+03  0.12412967746E+03  0.71304445433E+03  0.76850245956E+03  0.25500000920E-02 0.  1.
       -2    1    3    3    0  502 -0.25837077942E+03 -0.12412967746E+03 -0.67296275173E+03  0.73146599491E+03  0.25500000920E-02 0. -1.
</event>
<event>
 5   0  0.1186664E-04  0.1502128E+04  0.7818609E-02  0.8883039E-01
        2   -1    0    0  501    0  0.00000000000E+00  0.00000000000E+00  0.78003968527E+03  0.78003968527E+03  0.25500000920E-02 0.  1.
       -2   -1    0    0    0  501  0.00000000000E+00  0.00000000000E+00 -0.72316424577E+03  0.72316424577E+03  0.25500000920E-02 0. -1.
    10030    2    1    2    0    0  0.00000000000E+00  0.00000000000E+00  0.56875439501E+02  0.15032039310E+04  0.15021275720E+04 0.  0.
        3    1    3    3  502    0 -0.80613924310E+02  0.64513741785E+02 -0.71602825888E+03  0.72343424399E+03  0.10100000352E+00 0. -1.
       -3    1    3    3    0  502  0.80613924310E+02 -0.64513741785E+02  0.77290369838E+03  0.77976968705E+03  0.10100000352E+00 0.  1.
</event>
<event>
 5   0  0.6668433E-05  0.1484345E+04  0.7818609E-02  0.8894931E-01
       -1   -1    0    0    0  501  0.00000000000E+00  0.00000000000E+00  0.50313807107E+03  0.50313807110E+03  0.50400001928E-02 0.  1.
        1   -1    0    0  501    0  0.00000000000E+00  0.00000000000E+00 -0.10947686561E+04  0.10947686561E+04  0.50400001928E-02 0. -1.
    10030    2    1    2    0    0  0.00000000000E+00  0.00000000000E+00 -0.59163058502E+03  0.15979067272E+04  0.14843446903E+04 0.  0.
        1    1    3    3  502    0 -0.39514945865E+03  0.59736321790E+03 -0.86424727232E+02  0.72142577045E+03  0.50400001928E-02 0.  1.
       -1    1    3    3    0  502  0.39514945865E+03 -0.59736321790E+03 -0.50520585778E+03  0.87648095674E+03  0.50400001928E-02 0. -1.
</event>
<event>
 5   0  0.1254487E-04  0.1498211E+04  0.7818609E-02  0.8885643E-01
       -2   -1    0    0    0  501  0.00000000000E+00  0.00000000000E+00  0.72347237683E+03  0.72347237683E+03  0.25500000920E-02 0. -1.
        2   -1    0    0  501    0  0.00000000000E+00  0.00000000000E+00 -0.77564715105E+03  0.77564715106E+03  0.25500000920E-02 0.  1.
    10030    2    1    2    0    0  0.00000000000E+00  0.00000000000E+00 -0.52174774225E+02  0.14991195279E+04  0.14982113175E+04 0.  0.
        5    1    3    3  502    0  0.31362162193E+03  0.32156304661E+03 -0.62593046669E+03  0.77043646968E+03  0.46999998093E+01 0.  1.
       -5    1    3    3    0  502 -0.31362162193E+03 -0.32156304661E+03  0.57375569246E+03  0.72868305821E+03  0.46999998093E+01 0. -1.
</event>
<event>
 5   0  0.6542036E-05  0.1499911E+04  0.7818609E-02  0.8884512E-01
       -1   -1    0    0    0  501  0.00000000000E+00  0.00000000000E+00  0.36697090620E+03  0.36697090623E+03  0.50400001928E-02 0.  1.
        1   -1    0    0  501    0  0.00000000000E+00  0.00000000000E+00 -0.15326377885E+04  0.15326377885E+04  0.50400001928E-02 0. -1.
    10030    2    1    2    0    0  0.00000000000E+00  0.00000000000E+00 -0.11656668823E+04  0.18996086947E+04  0.14999113016E+04 0.  0.
        4    1    3    3  502    0  0.21076967543E+03 -0.71260822291E+03 -0.45494065077E+03  0.87132482121E+03  0.12699999809E+01 0.  1.
       -4    1    3    3    0  502 -0.21076967543E+03  0.71260822291E+03 -0.71072623149E+03  0.10282838735E+04  0.12699999809E+01 0. -1.
</event>
<event>
 5   0  0.6364378E-05  0.1493785E+04  0.7818609E-02  0.8888596E-01
        1   -1    0    0  501    0  0.00000000000E+00  0.00000000000E+00  0.93535648785E+03  0.93535648786E+03  0.50400001928E-02 0.  1.
       -1   -1    0    0    0  501  0.00000000000E+00  0.00000000000E+00 -0.59640209787E+03  0.59640209789E+03  0.50400001928E-02 0. -1.
    10030    2    1    2    0    0  0.00000000000E+00  0.00000000000E+00  0.33895438998E+03  0.15317585858E+04  0.14937852210E+04 0.  0.
        5    1    3    3  502    0 -0.25570291036E+03 -0.37908117846E+03 -0.43607700934E+03  0.63187955047E+03  0.46999998093E+01 0. -1.
       -5    1    3    3    0  502  0.25570291036E+03  0.37908117846E+03  0.77503139932E+03  0.89987903529E+03  0.46999998093E+01 0.  1.
</event>
<event>
 5   0  0.1228286E-04  0.1511246E+04  0.7818609E-02  0.8877009E-01
       -2   -1    0    0    0  501  0.00000000000E+00  0.00000000000E+00  0.50365931649E+03  0.50365931649E+03  0.25500000920E-02 0. -1.
        2   -1    0    0  501    0  0.00000000000E+00  0.00000000000E+00 -0.11336350646E+04  0.11336350646E+04  0.25500000920E-02 0.  1.
    10030    2    1    2    0    0  0.00000000000E+00  0.00000000000E+00 -0.62997574815E+03  0.16372943811E+04  0.15112456608E+04 0.  0.
        2    1    3    3  502    0  0.14027642229E+02  0.74370477581E+03 -0.45901296637E+03  0.87406319658E+03  0.25500000920E-02 0.  1.
       -2    1    3    3    0  502 -0.14027642229E+02 -0.74370477581E+03 -0.17096278178E+03  0.76323118455E+03  0.25500000920E-02 0. -1.
</event>
<event>
 5   0  0.6668433E-05  0.1500811E+04  0.7818609E-02  0.8883914E-01
        1   -1    0    0  501    0  0.00000000000E+00  0.00000000000E+00  0.68714742161E+03  0.68714742162E+03  0.50400001928E-02 0. -1.
       -1   -1    0    0    0  501  0.00000000000E+00  0.00000000000E+00 -0.81948706258E+03  0.81948706259E+03  0.50400001928E-02 0.  1.
    10030    2    1    2    0    0  0.00000000000E+00  0.00000000000E+00 -0.13233964097E+03  0.15066344842E+04  0.15008110102E+04 0.  0.
        1    1    3    3  502    0  0.56867483713E+02  0.51239380939E+03 -0.61356269585E+03  0.80139909431E+03  0.50400001928E-02 0.  1.
       -1    1    3    3    0  502 -0.56867483713E+02 -0.51239380939E+03  0.48122305488E+03  0.70523538990E+03  0.50400001928E-02 0. -1.
</event>
<event>
 5   0  0.6509279E-05  0.1501545E+04  0.7818609E-02  0.8883426E-01
        1   -1    0    0  501    0  0.00000000000E+00  0.00000000000E+00  0.78070475976E+03  0.78070475978E+03  0.50400001928E-02 0.  1.
       -1   -1    0    0    0  501  0.00000000000E+00  0.00000000000E+00 -0.72198769958E+03  0.72198769960E+03  0.50400001928E-02 0. -1.
    10030    2    1    2    0    0  0.00000000000E+00  0.00000000000E+00  0.58717060179E+02  0.15026924594E+04  0.15015448493E+04 0.  0.
        2    1    3    3  502    0 -0.11362783125E+03  0.45133511460E+02 -0.71195785355E+03  0.72237961151E+03  0.25500000920E-02 0. -1.
       -2    1    3    3    0  502  0.11362783125E+03 -0.45133511460E+02  0.77067491373E+03  0.78031284787E+03  0.25500000920E-02 0.  1.
</event>
<event>
 5   0  0.1254487E-04  0.1520505E+04  0.7818609E-02  0.8870931E-01
       -2   -1    0    0    0  501  0.00000000000E+00  0.00000000000E+00  0.69157511387E+03  0.69157511387E+03  0.25500000920E-02 0. -1.
        2   -1    0    0  501    0  0.00000000000E+00  0.00000000000E+00 -0.83575004223E+03  0.83575004224E+03  0.25500000920E-02 0.  1.
    10030    2    1    2    0    0  0.00000000000E+00  0.00000000000E+00 -0.14417492836E+03  0.15273251561E+04  0.15205050880E+04 0.  0.
        5    1    3    3  502    0  0.47882671512E+03 -0.20574243468E+03  0.48389031922E+03  0.71117993756E+03  0.46999998093E+01 0. -1.
       -5    1    3    3    0  502 -0.47882671512E+03  0.20574243468E+03 -0.62806524759E+03  0.81614521856E+03  0.46999998093E+01 0.  1.
</event>
<event>
 5   0  0.1216921E-04  0.1500598E+04  0.7818609E-02  0.8884055E-01
        2   -1    0    0  501    0  0.00000000000E+00  0.00000000000E+00  0.86121827207E+03  0.86121827208E+03  0.25500000920E-02 0. -1.
       -2   -1    0    0    0  501  0.00000000000E+00  0.00000000000E+00 -0.65366532987E+03  0.65366532988E+03  0.25500000920E-02 0.  1.
    10030    2    1    2    0    0  0.00000000000E+00  0.00000000000E+00  0.20755294220E+03  0.15148836020E+04  0.15005979154E+04 0.  0.
        4    1    3    3  502    0  0.23617557254E+03  0.20296621131E+03 -0.58534403909E+03  0.66302597310E+03  0.12699999809E+01 0.  1.
       -4    1    3    3    0  502 -0.23617557254E+03 -0.20296621131E+03  0.79289698129E+03  0.85185762886E+03  0.12699999809E+01 0. -1.
</event>
<event>
 5   0  0.6509279E-05  0.1498790E+04  0.7818609E-02  0.8885258E-01
       -1   -1    0    0    0  501  0.00000000000E+00  0.00000000000E+00  0.59206137003E+03  0.59206137005E+03  0.50400001928E-02 0.  1.
        1   -1    0    0  501    0  0.00000000000E+00  0.00000000000E+00 -0.94853839070E+03  0.94853839072E+03  0.50400001928E-02 0. -1.
    10030    2    1    2    0    0  0.00000000000E+00  0.00000000000E+00 -0.35647702067E+03  0.15405997608E+04  0.14987900976E+04 0.  0.
        2    1    3    3  502    0  0.60923153749E+03 -0.15830506780E+03 -0.59623877617E+03  0.86702032212E+03  0.25500000920E-02 0. -1.
       -2    1    3    3    0  502 -0.60923153749E+03  0.15830506780E+03  0.23976175550E+03  0.67357943865E+03  0.25500000920E-02 0.  1.
</event>
<event>
 5   0  0.6361716E-05  0.1508425E+04  0.7818609E-02  0.8878870E-01
       -1   -1    0    0    0  501  0.00000000000E+00  0.00000000000E+00  0.66892298962E+03  0.66892298964E+03  0.50400001928E-02 0. -1.
        1   -1    0    0  501    0  0.00000000000E+00  0.00000000000E+00 -0.85037669220E+03  0.85037669222E+03  0.50400001928E-02 0.  1.
    10030    2    1    2    0    0  0.00000000000E+00  0.00000000000E+00 -0.18145370258E+03  0.15192996819E+04  0.15084250320E+04 0.  0.
        3    1    3    3  502    0  0.64988810855E+03  0.11598774720E+03 -0.45808742910E+03  0.80352461943E+03  0.10100000352E+00 0.  1.
       -3    1    3    3    0  502 -0.64988810855E+03 -0.11598774720E+03  0.27663372651E+03  0.71577506242E+03  0.10100000352E+00 0. -1.
</event>
<event>
 5   0  0.6509279E-05  0.1503693E+04  0.7818609E-02  0.8882001E-01
       -1   -1    0    0    0  501  0.00000000000E+00  0.00000000000E+00  0.47524440046E+03  0.47524440049E+03  0.50400001928E-02 0. -1.
        1   -1    0    0  501    0  0.00000000000E+00  0.00000000000E+00 -0.11894373896E+04  0.11894373896E+04  0.50400001928E-02 0.  1.
    10030    2    1    2    0    0  0.00000000000E+00  0.00000000000E+00 -0.71419298914E+03  0.16646817901E+04  0.15036933985E+04 0.  0.
        2    1    3    3  502    0  0.39323055712E+03  0.19603969493E+03 -0.10325055870E+04  0.11221094511E+04  0.25500000920E-02 0.  1.
       -2    1    3    3    0  502 -0.39323055712E+03 -0.19603969493E+03  0.31831259789E+03  0.54257233898E+03  0.25500000920E-02 0. -1.
</event>
<event>
 5   0  0.1186664E-04  0.1500502E+04  0.7818609E-02  0.8884119E-01
        2   -1    0    0  501    0  0.00000000000E+00  0.00000000000E+00  0.70662130875E+03  0.70662130875E+03  0.25500000920E-02 0. -1.
       -2   -1    0    0    0  501  0.00000000000E+00  0.00000000000E+00 -0.79657407180E+03  0.79657407180E+03  0.25500000920E-02 0.  1.
    10030    2    1    2    0    0  0.00000000000E+00  0.00000000000E+00 -0.89952763051E+02  0.15031953806E+04  0.15005015337E+04 0.  0.
        3    1    3    3  502    0  0.44635337119E+03  0.47495862659E+02 -0.64721203348E+03  0.78763609327E+03  0.10100000352E+00 0.  1.
       -3    1    3    3    0  502 -0.44635337119E+03 -0.47495862659E+02  0.55725927042E+03  0.71555928728E+03  0.10100000352E+00 0. -1.
</event>
<event>
 5   0  0.4462875E-05  0.1501107E+04  0.7818609E-02  0.8883717E-01
        3   -1    0    0  501    0  0.00000000000E+00  0.00000000000E+00  0.16251504092E+04  0.16251504123E+04  0.10100000352E+00 0. -1.
       -3   -1    0    0    0  501  0.00000000000E+00  0.00000000000E+00 -0.34663264043E+03  0.34663265514E+03  0.10100000352E+00 0.  1.
    10030    2    1    2    0    0  0.00000000000E+00  0.00000000000E+00  0.12785177687E+04  0.19717830675E+04  0.15011065186E+04 0.  0.
        4    1    3    3  502    0  0.17185085047E+03 -0.26812435304E+03  0.15319969374E+04  0.15647490574E+04  0.12699999809E+01 0. -1.
       -4    1    3    3    0  502 -0.17185085047E+03  0.26812435304E+03 -0.25347916866E+03  0.40703401006E+03  0.12699999809E+01 0.  1.
</event>
<event>
 5   0  0.6542036E-05  0.1511392E+04  0.7818609E-02  0.8876912E-01
       -1   -1    0    0    0  501  0.00000000000E+00  0.00000000000E+00  0.43700376491E+03  0.43700376494E+03  0.50400001928E-02 0. -1.
        1   -1    0    0  501    0  0.00000000000E+00  0.00000000000E+00 -0.13068002653E+04  0.13068002653E+04  0.50400001928E-02 0.  1.
    10030    2    1    2    0    0  0.00000000000E+00  0.00000000000E+00 -0.86979650039E+03  0.17438040303E+04  0.15113922535E+04 0.  0.
        4    1    3    3  502    0  0.13944638219E+02 -0.74711456599E+03 -0.56492392201E+03  0.93675785463E+03  0.12699999809E+01 0. -1.
       -4    1    3    3    0  502 -0.13944638219E+02  0.74711456599E+03 -0.30487257838E+03  0.80704617563E+03  0.12699999809E+01 0.  1.
</event>
<event>
 5   0  0.6361716E-05  0.1497979E+04  0.7818609E-02  0.8885798E-01
        1   -1    0    0  501    0  0.00000000000E+00  0.00000000000E+00  0.76364382476E+03  0.76364382477E+03  0.50400001928E-02 0. -1.
       -1   -1    0    0    0  501  0.00000000000E+00  0.00000000000E+00 -0.73461605474E+03  0.73461605476E+03  0.50400001928E-02 0.  1.
    10030    2    1    2    0    0  0.00000000000E+00  0.00000000000E+00  0.29027770015E+02  0.14982598795E+04  0.14979786565E+04 0.  0.
        3    1    3    3  502    0  0.68667022836E+03  0.28084539777E+03 -0.88436792764E+02  0.74713534014E+03  0.10100000352E+00 0.  1.
       -3    1    3    3    0  502 -0.68667022836E+03 -0.28084539777E+03  0.11746456278E+03  0.75112453939E+03  0.10100000352E+00 0. -1.
</event>
<event>
 5   0  0.1219810E-04  0.1516446E+04  0.7818609E-02  0.8873589E-01
        2   -1    0    0  501    0  0.00000000000E+00  0.00000000000E+00  0.81751838421E+03  0.81751838422E+03  0.25500000920E-02 0. -1.
       -2   -1    0    0    0  501  0.00000000000E+00  0.00000000000E+00 -0.70322867751E+03  0.70322867752E+03  0.25500000920E-02 0.  1.
    10030    2    1    2    0    0  0.00000000000E+00  0.00000000000E+00  0.11428970670E+03  0.15207470617E+04  0.15164463356E+04 0.  0.
        1    1    3    3  502    0 -0.15452645882E+03 -0.88088458069E+01 -0.68721783397E+03  0.70443195100E+03  0.50400001928E-02 0.  1.
       -1    1    3    3    0  502  0.15452645882E+03  0.88088458069E+01  0.80150754067E+03  0.81631511073E+03  0.50400001928E-02 0. -1.
</event>
<event>
 5   0  0.6668433E-05  0.1497948E+04  0.7818609E-02  0.8885819E-01
        1   -1    0    0  501    0  0.00000000000E+00  0.00000000000E+00  0.90379366855E+03  0.90379366856E+03  0.50400001928E-02 0. -1.
       -1   -1    0    0    0  501  0.00000000000E+00  0.00000000000E+00 -0.62067490647E+03  0.62067490649E+03  0.50400001928E-02 0.  1.
    10030    2    1    2    0    0  0.00000000000E+00  0.00000000000E+00  0.28311876208E+03  0.15244685751E+04  0.14979479974E+04 0.  0.
        1    1    3    3  502    0 -0.27827424853E+03 -0.42381982438E+03 -0.41947399359E+03  0.65804120863E+03  0.50400001928E-02 0.  1.
       -1    1    3    3    0  502  0.27827424853E+03  0.42381982438E+03  0.70259275567E+03  0.86642736642E+03  0.50400001928E-02 0. -1.
</event>
<event>
 5   0  0.1186664E-04  0.1499086E+04  0.7818609E-02  0.8885061E-01
        2   -1    0    0  501    0  0.00000000000E+00  0.00000000000E+00  0.82532112326E+03  0.82532112327E+03  0.25500000920E-02 0.  1.
       -2   -1    0    0    0  501  0.00000000000E+00  0.00000000000E+00 -0.68072212122E+03  0.68072212123E+03  0.25500000920E-02 0. -1.
    10030    2    1    2    0    0  0.00000000000E+00  0.00000000000E+00  0.14459900204E+03  0.15060432445E+04  0.14990855155E+04 0.  0.
        3    1    3    3  502    0  0.23839910805E+03 -0.70242940351E+03  0.18037730783E+03  0.76339844447E+03  0.10100000352E+00 0.  1.
       -3    1    3    3    0  502 -0.23839910805E+03  0.70242940351E+03 -0.35778305790E+02  0.74264480003E+03  0.10100000352E+00 0. -1.
</event>
<event>
 5   0  0.1186664E-04  0.1498164E+04  0.7818609E-02  0.8885675E-01
       -2   -1    0    0    0  501  0.00000000000E+00  0.00000000000E+00  0.53480247093E+03  0.53480247094E+03  0.25500000920E-02 0. -1.
        2   -1    0    0  501    0  0.00000000000E+00  0.00000000000E+00 -0.10492171496E+04  0.10492171496E+04  0.25500000920E-02 0.  1.
    10030    2    1    2    0    0  0.00000000000E+00  0.00000000000E+00 -0.51441467871E+03  0.15840196206E+04  0.14981641087E+04 0.  0.
        3    1    3    3  502    0  0.10537061323E+02 -0.44841434343E+03 -0.89153652306E+03  0.99800993743E+03  0.10100000352E+00 0.  1.
       -3    1    3    3    0  502 -0.10537061323E+02  0.44841434343E+03  0.37712184435E+03  0.58600968315E+03  0.10100000352E+00 0. -1.
</event>
<event>
 5   0  0.1216921E-04  0.1500982E+04  0.7818609E-02  0.8883800E-01
       -2   -1    0    0    0  501  0.00000000000E+00  0.00000000000E+00  0.10538759970E+04  0.10538759970E+04  0.25500000920E-02 0.  1.
        2   -1    0    0  501    0  0.00000000000E+00  0.00000000000E+00 -0.53444291735E+03  0.53444291735E+03  0.25500000920E-02 0. -1.
    10030    2    1    2    0    0  0.00000000000E+00  0.00000000000E+00  0.51943307965E+03  0.15883189144E+04  0.15009817619E+04 0.  0.
        4    1    3    3  502    0 -0.86264554886E+02 -0.73309065028E+03  0.11628842190E+03  0.74725369516E+03  0.12699999809E+01 0. -1.
       -4    1    3    3    0  502  0.86264554886E+02  0.73309065028E+03  0.40314465774E+03  0.84106521919E+03  0.12699999809E+01 0.  1.
</event>
<event>
 5   0  0.6364378E-05  0.1504734E+04  0.7818609E-02  0.8881311E-01
       -1   -1    0    0    0  501  0.00000000000E+00  0.00000000000E+00  0.23308250224E+03  0.23308250230E+03  0.50400001928E-02 0.  1.
        1   -1    0    0  501    0  0.00000000000E+00  0.00000000000E+00 -0.24285654537E+04  0.24285654537E+04  0.50400001928E-02 0. -1.
    10030    2    1    2    0    0  0.00000000000E+00  0.00000000000E+00 -0.21954829514E+04  0.26616479560E+04  0.15047340135E+04 0.  0.
        5    1    3    3  502    0 -0.13146313969E+03 -0.73948466311E+03 -0.11751253309E+04  0.13946547090E+04  0.46999998093E+01 0.  1.
       -5    1    3    3    0  502  0.13146313969E+03  0.73948466311E+03 -0.10203576205E+04  0.12669932470E+04  0.46999998093E+01 0. -1.
</event>
<event>
 5   0  0.1216921E-04  0.1503706E+04  0.7818609E-02  0.8881992E-01
       -2   -1    0    0    0  501  0.00000000000E+00  0.00000000000E+00  0.53580722726E+03  0.53580722727E+03  0.25500000920E-02 0.  1.
        2   -1    0    0  501    0  0.00000000000E+00  0.00000000000E+00 -0.10550114463E+04  0.10550114463E+04  0.25500000920E-02 0. -1.
    10030    2    1    2    0    0  0.00000000000E+00  0.00000000000E+00 -0.51920421904E+03  0.15908186736E+04  0.15037057661E+04 0.  0.
        4    1    3    3  502    0 -0.23036194468E+02 -0.55951330539E+03  0.27115448926E+03  0.62218339347E+03  0.12699999809E+01 0. -1.
       -4    1    3    3    0  502  0.23036194468E+02  0.55951330539E+03 -0.79035870830E+03  0.96863528010E+03  0.12699999809E+01 0.  1.
</event>
<event>
 5   0  0.6364378E-05  0.1496527E+04  0.7818609E-02  0.8886765E-01
       -1   -1    0    0    0  501  0.00000000000E+00  0.00000000000E+00  0.45740987728E+03  0.45740987730E+03  0.50400001928E-02 0.  1.
        1   -1    0    0  501    0  0.00000000000E+00  0.00000000000E+00 -0.12240631546E+04  0.12240631546E+04  0.50400001928E-02 0. -1.
    10030    2    1    2    0    0  0.00000000000E+00  0.00000000000E+00 -0.76665327732E+03  0.16814730319E+04  0.14965274169E+04 0.  0.
        5    1    3    3  502    0 -0.34676583956E+03 -0.66181751003E+03 -0.33799840093E+03  0.82006949284E+03  0.46999998093E+01 0. -1.
       -5    1    3    3    0  502  0.34676583956E+03  0.66181751003E+03 -0.42865487639E+03  0.86140353906E+03  0.46999998093E+01 0.  1.
</event>
<event>
 5   0  0.1219810E-04  0.1503730E+04  0.7818609E-02  0.8881976E-01
        2   -1    0    0  501    0  0.00000000000E+00  0.00000000000E+00  0.13355898274E+04  0.13355898274E+04  0.25500000920E-02 0. -1.
       -2   -1    0    0    0  501  0.00000000000E+00  0.00000000000E+00 -0.42325950970E+03  0.42325950971E+03  0.25500000920E-02 0.  1.
    10030    2    1    2    0    0  0.00000000000E+00  0.00000000000E+00  0.91233031772E+03  0.17588493371E+04  0.15037301560E+04 0.  0.
        1    1    3    3  502    0 -0.47905388426E+03  0.44365872772E+03  0.89220653747E+03  0.11056030916E+04  0.50400001928E-02 0. -1.
       -1    1    3    3    0  502  0.47905388426E+03 -0.44365872772E+03  0.20123780248E+02  0.65324624550E+03  0.50400001928E-02 0.  1.
</event>
<event>
 5   0  0.6509279E-05  0.1499299E+04  0.7818609E-02  0.8884919E-01
       -1   -1    0    0    0  501  0.00000000000E+00  0.00000000000E+00  0.21974411441E+03  0.21974411447E+03  0.50400001928E-02 0. -1.
        1   -1    0    0  501    0  0.00000000000E+00  0.00000000000E+00 -0.25574047380E+04  0.25574047380E+04  0.50400001928E-02 0.  1.
    10030    2    1    2    0    0  0.00000000000E+00  0.00000000000E+00 -0.23376606236E+04  0.27771488525E+04  0.14992993556E+04 0.  0.
        2    1    3    3  502    0 -0.86638434229E+02 -0.54020106518E+03 -0.21953677604E+03  0.58950810439E+03  0.25500000920E-02 0. -1.
       -2    1    3    3    0  502  0.86638434229E+02  0.54020106518E+03 -0.21181238476E+04  0.21876407481E+04  0.25500000920E-02 0.  1.
</event>
<event>
 5   0  0.1254487E-04  0.1503199E+04  0.7818609E-02  0.8882328E-01
       -2   -1    0    0    0  501  0.00000000000E+00  0.00000000000E+00  0.43277025686E+03  0.43277025686E+03  0.25500000920E-02 0. -1.
        2   -1    0    0  501    0  0.00000000000E+00  0.00000000000E+00 -0.13053165460E+04  0.13053165460E+04  0.25500000920E-02 0.  1.
    10030    2    1    2    0    0  0.00000000000E+00  0.00000000000E+00 -0.87254628919E+03  0.17380868029E+04  0.15031994903E+04 0.  0.
        5    1    3    3  502    0 -0.58061453786E+03 -0.25682031358E+03  0.28839077355E+02  0.63554991733E+03  0.46999998093E+01 0. -1.
       -5    1    3    3    0  502  0.58061453786E+03  0.25682031358E+03 -0.90138536654E+03  0.11025368856E+04  0.46999998093E+01 0.  1.
</event>
<event>
 5   0  0.6361716E-05  0.1499780E+04  0.7818609E-02  0.8884599E-01
       -1   -1    0    0    0  501  0.00000000000E+00  0.00000000000E+00  0.11097398997E+04  0.11097398997E+04  0.50400001928E-02 0. -1.
        1   -1    0    0  501    0  0.00000000000E+00  0.00000000000E+00 -0.50672692896E+03  0.50672692898E+03  0.50400001928E-02 0.  1.
    10030    2    1    2    0    0  0.00000000000E+00  0.00000000000E+00  0.60301297074E+03  0.16164668287E+04  0.14997801057E+04 0.  0.
        3    1    3    3  502    0 -0.14948096963E+03 -0.69774756263E+03  0.54996010250E+03  0.90091750232E+03  0.10100000352E+00 0. -1.
       -3    1    3    3    0  502  0.14948096963E+03  0.69774756263E+03  0.53052868236E+02  0.71554932637E+03  0.10100000352E+00 0.  1.
</event>
<event>
 5   0  0.6361716E-05  0.1500676E+04  0.7818609E-02  0.8884003E-01
        1   -1    0    0  501    0  0.00000000000E+00  0.00000000000E+00  0.24963834567E+04  0.24963834567E+04  0.50400001928E-02 0. -1.
       -1   -1    0    0    0  501  0.00000000000E+00  0.00000000000E+00 -0.22552921931E+03  0.22552921937E+03  0.50400001928E-02 0.  1.
    10030    2    1    2    0    0  0.00000000000E+00  0.00000000000E+00  0.22708542374E+04  0.27219126761E+04  0.15006763971E+04 0.  0.
        3    1    3    3  502    0  0.71207646097E+03 -0.21117283159E+02  0.70809338285E+03  0.10044376909E+04  0.10100000352E+00 0. -1.
       -3    1    3    3    0  502 -0.71207646097E+03  0.21117283159E+02  0.15627608546E+04  0.17174749852E+04  0.10100000352E+00 0.  1.
</event>
<event>
 5   0  0.4462875E-05  0.1500109E+04  0.7818609E-02  0.8884381E-01
       -3   -1    0    0    0  501  0.00000000000E+00  0.00000000000E+00  0.57175043306E+03  0.57175044199E+03  0.10100000352E+00 0.  1.
        3   -1    0    0  501    0  0.00000000000E+00  0.00000000000E+00 -0.98396329306E+03  0.98396329824E+03  0.10100000352E+00 0. -1.
    10030    2    1    2    0    0  0.00000000000E+00  0.00000000000E+00 -0.41221285999E+03  0.15557137402E+04  0.15001085959E+04 0.  0.
        5    1    3    3  502    0  0.15227304526E+03 -0.72921967931E+03 -0.11563194799E+03  0.75388411470E+03  0.46999998093E+01 0.  1.
       -5    1    3    3    0  502 -0.15227304526E+03  0.72921967931E+03 -0.29658091200E+03  0.80182962552E+03  0.46999998093E+01 0. -1.
</event>
<event>
 5   0  0.6361716E-05  0.1502311E+04  0.7818609E-02  0.8882918E-01
       -1   -1    0    0    0  501  0.00000000000E+00  0.00000000000E+00  0.64922371182E+03  0.64922371184E+03  0.50400001928E-02 0. -1.
        1   -1    0    0  501    0  0.00000000000E+00  0.00000000000E+00 -0.86909094478E+03  0.86909094480E+03  0.50400001928E-02 0.  1.
    10030    2    1    2    0    0  0.00000000000E+00  0.00000000000E+00 -0.21986723297E+03  0.15183146566E+04  0.15023108188E+04 0.  0.
        3    1    3    3  502    0 -0.35752059288E+03 -0.24370557691E+03  0.51062783256E+03  0.66929378910E+03  0.10100000352E+00 0. -1.
       -3    1    3    3    0  502  0.35752059288E+03  0.24370557691E+03 -0.73049506552E+03  0.84902086753E+03  0.10100000352E+00 0.  1.
</event>
<event>
 5   0  0.6509279E-05  0.1509579E+04  0.7818609E-02  0.8878108E-01
        1   -1    0    0  501    0  0.00000000000E+00  0.00000000000E+00  0.11064139611E+04  0.11064139612E+04  0.50400001928E-02 0. -1.
       -1   -1    0    0    0  501  0.00000000000E+00  0.00000000000E+00 -0.51491355468E+03  0.51491355470E+03  0.50400001928E-02 0.  1.
    10030    2    1    2    0    0  0.00000000000E+00  0.00000000000E+00  0.59150040646E+03  0.16213275159E+04  0.15095794722E+04 0.  0.
        2    1    3    3  502    0 -0.51270810223E+03 -0.29215099872E+03  0.80121121034E+03  0.99506844374E+03  0.25500000920E-02 0. -1.
       -2    1    3    3    0  502  0.51270810223E+03  0.29215099872E+03 -0.20971080388E+03  0.62625907212E+03  0.25500000920E-02 0.  1.
</event>
<event>
 5   0  0.6364378E-05  0.1499484E+04  0.7818609E-02  0.8884796E-01
       -1   -1    0    0    0  501  0.00000000000E+00  0.00000000000E+00  0.68075621488E+03  0.68075621490E+03  0.50400001928E-02 0. -1.
        1   -1    0    0  501    0  0.00000000000E+00  0.00000000000E+00 -0.82571811658E+03  0.82571811659E+03  0.50400001928E-02 0.  1.
    10030    2    1    2    0    0  0.00000000000E+00  0.00000000000E+00 -0.14496190169E+03  0.15064743315E+04  0.14994835639E+04 0.  0.
        5    1    3    3  502    0 -0.14920980709E+03  0.32752873530E+03 -0.73323402752E+03  0.81681874861E+03  0.46999998093E+01 0.  1.
       -5    1    3    3    0  502  0.14920980709E+03 -0.32752873530E+03  0.58827212582E+03  0.68965558288E+03  0.46999998093E+01 0. -1.
</event>
<event>
 5   0  0.1254487E-04  0.1500338E+04  0.7818609E-02  0.8884228E-01
       -2   -1    0    0    0  501  0.00000000000E+00  0.00000000000E+00  0.42992904434E+03  0.42992904435E+03  0.25500000920E-02 0.  1.
        2   -1    0    0  501    0  0.00000000000E+00  0.00000000000E+00 -0.13089452027E+04  0.13089452027E+04  0.25500000920E-02 0. -1.
    10030    2    1    2    0    0  0.00000000000E+00  0.00000000000E+00 -0.87901615837E+03  0.17388742471E+04  0.15003380420E+04 0.  0.
        5    1    3    3  502    0  0.48094222090E+03 -0.12094123128E+03 -0.10918437688E+04  0.11991985268E+04  0.46999998093E+01 0. -1.
       -5    1    3    3    0  502 -0.48094222090E+03  0.12094123128E+03  0.21282761041E+03  0.53967572025E+03  0.46999998093E+01 0.  1.
</event>
<event>
 5   0  0.4462875E-05  0.1507306E+04  0.7818609E-02  0.8879609E-01
       -3   -1    0    0    0  501  0.00000000000E+00  0.00000000000E+00  0.72924519883E+03  0.72924520583E+03  0.10100000352E+00 0.  1.
        3   -1    0    0  501    0  0.00000000000E+00  0.00000000000E+00 -0.77887722555E+03  0.77887723210E+03  0.10100000352E+00 0. -1.
    10030    2    1    2    0    0  0.00000000000E+00  0.00000000000E+00 -0.49632026721E+02  0.15081224379E+04  0.15073055263E+04 0.  0.
        4    1    3    3  502    0  0.33899666303E+03  0.49245297309E+03 -0.48393528343E+03  0.76917074808E+03  0.12699999809E+01 0. -1.
       -4    1    3    3    0  502 -0.33899666303E+03 -0.49245297309E+03  0.43430325671E+03  0.73895168985E+03  0.12699999809E+01 0.  1.
</event>
<event>
 5   0  0.1219810E-04  0.1507369E+04  0.7818609E-02  0.8879567E-01
        2   -1    0    0  501    0  0.00000000000E+00  0.00000000000E+00  0.10543851420E+04  0.10543851420E+04  0.25500000920E-02 0.  1.
       -2   -1    0    0    0  501  0.00000000000E+00  0.00000000000E+00 -0.53874100620E+03  0.53874100620E+03  0.25500000920E-02 0. -1.
    10030    2    1    2    0    0  0.00000000000E+00  0.00000000000E+00  0.51564413585E+03  0.15931261482E+04  0.15073692479E+04 0.  0.
        1    1    3    3  502    0  0.42529096389E+03  0.35281345703E+03 -0.28387055866E+03  0.62123444328E+03  0.50400001928E-02 0. -1.
       -1    1    3    3    0  502 -0.42529096389E+03 -0.35281345703E+03  0.79951469450E+03  0.97189170496E+03  0.50400001928E-02 0.  1.
</event>
<event>
 5   0  0.6668433E-05  0.1502472E+04  0.7818609E-02  0.8882811E-01
        1   -1    0    0  501    0  0.00000000000E+00  0.00000000000E+00  0.11222621684E+04  0.11222621684E+04  0.50400001928E-02 0. -1.
       -1   -1    0    0    0  501  0.00000000000E+00  0.00000000000E+00 -0.50287309354E+03  0.50287309356E+03  0.50400001928E-02 0.  1.
    10030    2    1    2    0    0  0.00000000000E+00  0.00000000000E+00  0.61938907488E+03  0.16251352620E+04  0.15024718945E+04 0.  0.
        1    1    3    3  502    0  0.50529997636E+03 -0.12732078064E+03  0.89499808021E+03  0.10356448285E+04  0.50400001928E-02 0. -1.
       -1    1    3    3    0  502 -0.50529997636E+03  0.12732078064E+03 -0.27560900533E+03  0.58949043345E+03  0.50400001928E-02 0.  1.
</event>
<event>
 5   0  0.1216921E-04  0.1500264E+04  0.7818609E-02  0.8884277E-01
       -2   -1    0    0    0  501  0.00000000000E+00  0.00000000000E+00  0.26155432881E+03  0.26155432882E+03  0.25500000920E-02 0. -1.
        2   -1    0    0  501    0  0.00000000000E+00  0.00000000000E+00 -0.21513623538E+04  0.21513623538E+04  0.25500000920E-02 0.  1.
    10030    2    1    2    0    0  0.00000000000E+00  0.00000000000E+00 -0.18898080250E+04  0.24129166827E+04  0.15002641587E+04 0.  0.
        4    1    3    3  502    0 -0.39118548355E+03  0.35549208770E+03 -0.18009452235E+04  0.18769139613E+04  0.12699999809E+01 0.  1.
       -4    1    3    3    0  502  0.39118548355E+03 -0.35549208770E+03 -0.88862801506E+02  0.53600272140E+03  0.12699999809E+01 0. -1.
</event>
<event>
 5   0  0.1186664E-04  0.1500166E+04  0.7818609E-02  0.8884343E-01
       -2   -1    0    0    0  501  0.00000000000E+00  0.00000000000E+00  0.64004977458E+03  0.64004977458E+03  0.25500000920E-02 0.  1.
        2   -1    0    0  501    0  0.00000000000E+00  0.00000000000E+00 -0.87903211794E+03  0.87903211795E+03  0.25500000920E-02 0. -1.
    10030    2    1    2    0    0  0.00000000000E+00  0.00000000000E+00 -0.23898234337E+03  0.15190818925E+04  0.15001657361E+04 0.  0.
        3    1    3    3  502    0 -0.14685358877E+03 -0.45409981566E+03  0.46646911917E+03  0.66735752672E+03  0.10100000352E+00 0.  1.
       -3    1    3    3    0  502  0.14685358877E+03  0.45409981566E+03 -0.70545146254E+03  0.85172436581E+03  0.10100000352E+00 0. -1.
</event>
<event>
 5   0  0.6361716E-05  0.1501116E+04  0.7818609E-02  0.8883711E-01
       -1   -1    0    0    0  501  0.00000000000E+00  0.00000000000E+00  0.14266062224E+04  0.14266062224E+04  0.50400001928E-02 0. -1.
        1   -1    0    0  501    0  0.00000000000E+00  0.00000000000E+00 -0.39487925814E+03  0.39487925818E+03  0.50400001928E-02 0.  1.
    10030    2    1    2    0    0  0.00000000000E+00  0.00000000000E+00  0.10317269642E+04  0.18214854806E+04  0.15011158607E+04 0.  0.
        3    1    3    3  502    0 -0.27275519171E+03  0.67951877751E+03  0.71597140306E+03  0.10240879961E+04  0.10100000352E+00 0. -1.
       -3    1    3    3    0  502  0.27275519171E+03 -0.67951877751E+03  0.31575556118E+03  0.79739748445E+03  0.10100000352E+00 0.  1.
</event>
<event>
 5   0  0.6364378E-05  0.1496096E+04  0.7818609E-02  0.8887053E-01
        1   -1    0    0  501    0  0.00000000000E+00  0.00000000000E+00  0.10274907671E+04  0.10274907671E+04  0.50400001928E-02 0.  1.
       -1   -1    0    0    0  501  0.00000000000E+00  0.00000000000E+00 -0.54460448357E+03  0.54460448359E+03  0.50400001928E-02 0. -1.
    10030    2    1    2    0    0  0.00000000000E+00  0.00000000000E+00  0.48288628354E+03  0.15720952507E+04  0.14960963587E+04 0.  0.
        5    1    3    3  502    0 -0.58946643513E+03  0.41353458819E+03  0.45440146574E+03  0.85146010819E+03  0.46999998093E+01 0. -1.
       -5    1    3    3    0  502  0.58946643513E+03 -0.41353458819E+03  0.28484817798E+02  0.72063514251E+03  0.46999998093E+01 0.  1.
</event>
<event>
 5   0  0.6542036E-05  0.1499245E+04  0.7818609E-02  0.8884955E-01
       -1   -1    0    0    0  501  0.00000000000E+00  0.00000000000E+00  0.73279004242E+03  0.73279004243E+03  0.50400001928E-02 0.  1.
        1   -1    0    0  501    0  0.00000000000E+00  0.00000000000E+00 -0.76684186911E+03  0.76684186912E+03  0.50400001928E-02 0. -1.
    10030    2    1    2    0    0  0.00000000000E+00  0.00000000000E+00 -0.34051826689E+02  0.14996319116E+04  0.14992452579E+04 0.  0.
        4    1    3    3  502    0  0.26480726103E+03 -0.23700778273E+03 -0.67722408652E+03  0.76480693696E+03  0.12699999809E+01 0. -1.
       -4    1    3    3    0  502 -0.26480726103E+03  0.23700778273E+03  0.64317225983E+03  0.73482497459E+03  0.12699999809E+01 0.  1.
</event>
<event>
 5   0  0.1254487E-04  0.1500639E+04  0.7818609E-02  0.8884028E-01
       -2   -1    0    0    0  501  0.00000000000E+00  0.00000000000E+00  0.51290832762E+03  0.51290832763E+03  0.25500000920E-02 0.  1.
        2   -1    0    0  501    0  0.00000000000E+00  0.00000000000E+00 -0.10976224146E+04  0.10976224146E+04  0.25500000920E-02 0. -1.
    10030    2    1    2    0    0  0.00000000000E+00  0.00000000000E+00 -0.58471408700E+03  0.16105307422E+04  0.15006394331E+04 0.  0.
        5    1    3    3  502    0  0.52016759259E+02  0.41468018126E+03 -0.96111966728E+03  0.10480641683E+04  0.46999998093E+01 0. -1.
       -5    1    3    3    0  502 -0.52016759259E+02 -0.41468018126E+03  0.37640558028E+03  0.56246657398E+03  0.46999998093E+01 0.  1.
</event>
<event>
 5   0  0.1228286E-04  0.1497796E+04  0.7818609E-02  0.8885920E-01
       -2   -1    0    0    0  501  0.00000000000E+00  0.00000000000E+00  0.98801102759E+03  0.98801102760E+03  0.25500000920E-02 0. -1.
        2   -1    0    0  501    0  0.00000000000E+00  0.00000000000E+00 -0.56765414390E+03  0.56765414391E+03  0.25500000920E-02 0.  1.
    10030    2    1    2    0    0  0.00000000000E+00  0.00000000000E+00  0.42035688369E+03  0.15556651715E+04  0.14977964535E+04 0.  0.
        2    1    3    3  502    0  0.61218193474E+03 -0.37324625802E+03 -0.14438581978E+02  0.71713873344E+03  0.25500000920E-02 0. -1.
       -2    1    3    3    0  502 -0.61218193474E+03  0.37324625802E+03  0.43479546567E+03  0.83852643806E+03  0.25500000920E-02 0.  1.
</event>
<event>
 5   0  0.1186664E-04  0.1499525E+04  0.7818609E-02  0.8884769E-01
        2   -1    0    0  501    0  0.00000000000E+00  0.00000000000E+00  0.63543010062E+03  0.63543010062E+03  0.25500000920E-02 0. -1.
       -2   -1    0    0    0  501  0.00000000000E+00  0.00000000000E+00 -0.88466718335E+03  0.88466718335E+03  0.25500000920E-02 0.  1.
    10030    2    1    2    0    0  0.00000000000E+00  0.00000000000E+00 -0.24923708273E+03  0.15200972840E+04  0.14995254680E+04 0.  0.
        3    1    3    3  502    0 -0.17944897605E+03  0.96298675262E+02 -0.85609154858E+03  0.87998188595E+03  0.10100000352E+00 0.  1.
       -3    1    3    3    0  502  0.17944897605E+03 -0.96298675262E+02  0.60685446584E+03  0.64011539802E+03  0.10100000352E+00 0. -1.
</event>
<event>
 5   0  0.1228286E-04  0.1502285E+04  0.7818609E-02  0.8882935E-01
       -2   -1    0    0    0  501  0.00000000000E+00  0.00000000000E+00  0.39300849482E+03  0.39300849482E+03  0.25500000920E-02 0. -1.
        2   -1    0    0  501    0  0.00000000000E+00  0.00000000000E+00 -0.14356315251E+04  0.14356315251E+04  0.25500000920E-02 0.  1.
    10030    2    1    2    0    0  0.00000000000E+00  0.00000000000E+00 -0.10426230302E+04  0.18286400199E+04  0.15022854386E+04 0.  0.
        2    1    3    3  502    0 -0.26253450979E+03 -0.54803230306E+03  0.16139857343E+02  0.60788507881E+03  0.25500000920E-02 0. -1.
       -2    1    3    3    0  502  0.26253450979E+03  0.54803230306E+03 -0.10587628876E+04  0.12207549411E+04  0.25500000920E-02 0.  1.
</event>
<event>
 5   0  0.1186664E-04  0.1503135E+04  0.7818609E-02  0.8882371E-01
       -2   -1    0    0    0  501  0.00000000000E+00  0.00000000000E+00  0.91217114938E+03  0.91217114939E+03  0.25500000920E-02 0.  1.
        2   -1    0    0  501    0  0.00000000000E+00  0.00000000000E+00 -0.61924078040E+03  0.61924078041E+03  0.25500000920E-02 0. -1.
    10030    2    1    2    0    0  0.00000000000E+00  0.00000000000E+00  0.29293036898E+03  0.15314119298E+04  0.15031348235E+04 0.  0.
        3    1    3    3  502    0  0.22600951783E+03 -0.67725048107E+03 -0.92695496806E+02  0.71995901383E+03  0.10100000352E+00 0. -1.
       -3    1    3    3    0  502 -0.22600951783E+03  0.67725048107E+03  0.38562586579E+03  0.81145291596E+03  0.10100000352E+00 0.  1.
</event>
<event>
 5   0  0.1254487E-04  0.1508725E+04  0.7818609E-02  0.8878671E-01
        2   -1    0    0  501    0  0.00000000000E+00  0.00000000000E+00  0.96902014223E+03  0.96902014223E+03  0.25500000920E-02 0. -1.
       -2   -1    0    0    0  501  0.00000000000E+00  0.00000000000E+00 -0.58725624035E+03  0.58725624035E+03  0.25500000920E-02 0.  1.
    10030    2    1    2    0    0  0.00000000000E+00  0.00000000000E+00  0.38176390188E+03  0.15562763826E+04  0.15087254562E+04 0.  0.
        5    1    3    3  502    0 -0.18364665642E+03 -0.32443654972E+03 -0.48557310454E+03  0.61219972155E+03  0.46999998093E+01 0.  1.
       -5    1    3    3    0  502  0.18364665642E+03  0.32443654972E+03  0.86733700643E+03  0.94407666104E+03  0.46999998093E+01 0. -1.
</event>
<event>
 5   0  0.1216921E-04  0.1503989E+04  0.7818609E-02  0.8881804E-01
       -2   -1    0    0    0  501  0.00000000000E+00  0.00000000000E+00  0.55775174946E+03  0.55775174946E+03  0.25500000920E-02 0. -1.
        2   -1    0    0  501    0  0.00000000000E+00  0.00000000000E+00 -0.10138846534E+04  0.10138846534E+04  0.25500000920E-02 0.  1.
    10030    2    1    2    0    0  0.00000000000E+00  0.00000000000E+00 -0.45613290394E+03  0.15716364029E+04  0.15039892808E+04 0.  0.
        4    1    3    3  502    0  0.37703102893E+03  0.19699895489E+03  0.41993255361E+03  0.59775074026E+03  0.12699999809E+01 0. -1.
       -4    1    3    3    0  502 -0.37703102893E+03 -0.19699895489E+03 -0.87606545755E+03  0.97388566259E+03  0.12699999809E+01 0.  1.
</event>
<event>
 5   0  0.1216921E-04  0.1498298E+04  0.7818609E-02  0.8885585E-01
        2   -1    0    0  501    0  0.00000000000E+00  0.00000000000E+00  0.25450065722E+04  0.25450065722E+04  0.25500000920E-02 0.  1.
       -2   -1    0    0    0  501  0.00000000000E+00  0.00000000000E+00 -0.22051990121E+03  0.22051990122E+03  0.25500000920E-02 0. -1.
    10030    2    1    2    0    0  0.00000000000E+00  0.00000000000E+00  0.23244866710E+04  0.27655264734E+04  0.14982984988E+04 0.  0.
        4    1    3    3  502    0 -0.32799415560E+03  0.40202318778E+03  0.16480534761E+03  0.54439436544E+03  0.12699999809E+01 0. -1.
       -4    1    3    3    0  502  0.32799415560E+03 -0.40202318778E+03  0.21596813234E+04  0.22211321080E+04  0.12699999809E+01 0.  1.
</event>
<event>
 5   0  0.6668433E-05  0.1498764E+04  0.7818609E-02  0.8885276E-01
       -1   -1    0    0    0  501  0.00000000000E+00  0.00000000000E+00  0.39627447077E+03  0.39627447080E+03  0.50400001928E-02 0. -1.
        1   -1    0    0  501    0  0.00000000000E+00  0.00000000000E+00 -0.14171315004E+04  0.14171315004E+04  0.50400001928E-02 0.  1.
    10030    2    1    2    0    0  0.00000000000E+00  0.00000000000E+00 -0.10208570296E+04  0.18134059712E+04  0.14987635375E+04 0.  0.
        1    1    3    3  502    0  0.81432791091E+02  0.56920145927E+02 -0.14091272613E+04  0.14126255134E+04  0.50400001928E-02 0.  1.
       -1    1    3    3    0  502 -0.81432791091E+02 -0.56920145927E+02  0.38827023172E+03  0.40078045778E+03  0.50400001928E-02 0. -1.
</event>
<event>
 5   0  0.1228286E-04  0.1498474E+04  0.7818609E-02  0.8885468E-01
       -2   -1    0    0    0  501  0.00000000000E+00  0.00000000000E+00  0.89944403597E+03  0.89944403598E+03  0.25500000920E-02 0.  1.
        2   -1    0    0  501    0  0.00000000000E+00  0.00000000000E+00 -0.62411447352E+03  0.62411447353E+03  0.25500000920E-02 0. -1.
    10030    2    1    2    0    0  0.00000000000E+00  0.00000000000E+00  0.27532956245E+03  0.15235585095E+04  0.14984739450E+04 0.  0.
        2    1    3    3  502    0  0.58629132711E+03  0.45837636103E+03  0.49555982561E+02  0.74585669134E+03  0.25500000920E-02 0.  1.
       -2    1    3    3    0  502 -0.58629132711E+03 -0.45837636103E+03  0.22577357989E+03  0.77770181817E+03  0.25500000920E-02 0. -1.
</event>
<event>
 5   0  0.6364378E-05  0.1499750E+04  0.7818609E-02  0.8884619E-01
       -1   -1    0    0    0  501  0.00000000000E+00  0.00000000000E+00  0.17705904138E+04  0.17705904138E+04  0.50400001928E-02 0.  1.
        1   -1    0    0  501    0  0.00000000000E+00  0.00000000000E+00 -0.31758484273E+03  0.31758484277E+03  0.50400001928E-02 0. -1.
    10030    2    1    2    0    0  0.00000000000E+00  0.00000000000E+00  0.14530055711E+04  0.20881752566E+04  0.14997502168E+04 0.  0.
        5    1    3    3  502    0  0.22001770284E+03 -0.63263090171E+03  0.25709138263E+03  0.71745920886E+03  0.46999998093E+01 0. -1.
       -5    1    3    3    0  502 -0.22001770284E+03  0.63263090171E+03  0.11959141885E+04  0.13707160477E+04  0.46999998093E+01 0.  1.
</event>
<event>
 5   0  0.6668433E-05  0.1506853E+04  0.7818609E-02  0.8879908E-01
       -1   -1    0    0    0  501  0.00000000000E+00  0.00000000000E+00  0.71696014166E+03  0.71696014168E+03  0.50400001928E-02 0.  1.
        1   -1    0    0  501    0  0.00000000000E+00  0.00000000000E+00 -0.79174771589E+03  0.79174771590E+03  0.50400001928E-02 0. -1.
    10030    2    1    2    0    0  0.00000000000E+00  0.00000000000E+00 -0.74787574226E+02  0.15087078576E+04  0.15068530845E+04 0.  0.
        1    1    3    3  502    0  0.73427549935E+02  0.47400557461E+03  0.54433658149E+03  0.72551719748E+03  0.50400001928E-02 0.  1.
       -1    1    3    3    0  502 -0.73427549935E+02 -0.47400557461E+03 -0.61912415572E+03  0.78319066010E+03  0.50400001928E-02 0. -1.
</event>
<event>
 5   0  0.6364378E-05  0.1497557E+04  0.7818609E-02  0.8886079E-01
        1   -1    0    0  501    0  0.00000000000E+00  0.00000000000E+00  0.54313657293E+03  0.54313657295E+03  0.50400001928E-02 0.  1.
       -1   -1    0    0    0  501  0.00000000000E+00  0.00000000000E+00 -0.10322802215E+04  0.10322802215E+04  0.50400001928E-02 0. -1.
    10030    2    1    2    0    0  0.00000000000E+00  0.00000000000E+00 -0.48914364853E+03  0.15754167944E+04  0.14975568661E+04 0.  0.
        5    1    3    3  502    0 -0.26789940820E+03 -0.67427887872E+03 -0.43919008004E+03  0.84813449146E+03  0.46999998093E+01 0. -1.
       -5    1    3    3    0  502  0.26789940820E+03  0.67427887872E+03 -0.49953568486E+02  0.72728230296E+03  0.46999998093E+01 0.  1.
</event>
<event>
 5   0  0.1219810E-04  0.1502049E+04  0.7818609E-02  0.8883091E-01
       -2   -1    0    0    0  501  0.00000000000E+00  0.00000000000E+00  0.46994999951E+03  0.46994999952E+03  0.25500000920E-02 0.  1.
        2   -1    0    0  501    0  0.00000000000E+00  0.00000000000E+00 -0.12002087206E+04  0.12002087206E+04  0.25500000920E-02 0. -1.
    10030    2    1    2    0    0  0.00000000000E+00  0.00000000000E+00 -0.73025872110E+03  0.16701587201E+04  0.15020493836E+04 0.  0.
        1    1    3    3  502    0 -0.50956114567E+01  0.64590938445E+03  0.60916226083E+02  0.64879556472E+03  0.50400001928E-02 0.  1.
       -1    1    3    3    0  502  0.50956114567E+01 -0.64590938445E+03 -0.79117494719E+03  0.10213631554E+04  0.50400001928E-02 0. -1.
</event>
<event>
 5   0  0.1186664E-04  0.1497483E+04  0.7818609E-02  0.8886128E-01
       -2   -1    0    0    0  501  0.00000000000E+00  0.00000000000E+00  0.23290248747E+03  0.23290248748E+03  0.25500000920E-02 0. -1.
        2   -1    0    0  501    0  0.00000000000E+00  0.00000000000E+00 -0.24070758747E+04  0.24070758747E+04  0.25500000920E-02 0.  1.
    10030    2    1    2    0    0  0.00000000000E+00  0.00000000000E+00 -0.21741733872E+04  0.26399783622E+04  0.14974831669E+04 0.  0.
        3    1    3    3  502    0 -0.67217020606E+03 -0.30562618037E+03 -0.13058182007E+04  0.15001271051E+04  0.10100000352E+00 0.  1.
       -3    1    3    3    0  502  0.67217020606E+03  0.30562618037E+03 -0.86835518651E+03  0.11398512570E+04  0.10100000352E+00 0. -1.
</event>
<event>
 5   0  0.1254487E-04  0.1498854E+04  0.7818609E-02  0.8885215E-01
       -2   -1    0    0    0  501  0.00000000000E+00  0.00000000000E+00  0.69653288700E+03  0.69653288701E+03  0.25500000920E-02 0.  1.
        2   -1    0    0  501    0  0.00000000000E+00  0.00000000000E+00 -0.80633778041E+03  0.80633778042E+03  0.25500000920E-02 0. -1.
    10030    2    1    2    0    0  0.00000000000E+00  0.00000000000E+00 -0.10980489341E+03  0.15028706674E+04  0.14988539383E+04 0.  0.
        5    1    3    3  502    0  0.39342612938E+03 -0.20386252621E+03 -0.66090165578E+03  0.79571171757E+03  0.46999998093E+01 0. -1.
       -5    1    3    3    0  502 -0.39342612938E+03  0.20386252621E+03  0.55109676237E+03  0.70715894986E+03  0.46999998093E+01 0.  1.
</event>
<event>
 5   0  0.6364378E-05  0.1498298E+04  0.7818609E-02  0.8885586E-01
       -1   -1    0    0    0  501  0.00000000000E+00  0.00000000000E+00  0.63243731115E+03  0.63243731117E+03  0.50400001928E-02 0.  1.
        1   -1    0    0  501    0  0.00000000000E+00  0.00000000000E+00 -0.88739899141E+03  0.88739899143E+03  0.50400001928E-02 0. -1.
    10030    2    1    2    0    0  0.00000000000E+00  0.00000000000E+00 -0.25496168026E+03  0.15198363026E+04  0.14982980105E+04 0.  0.
        5    1    3    3  502    0  0.74904533430E+03  0.38710608774E+01 -0.13851116732E+03  0.76176855502E+03  0.46999998093E+01 0. -1.
       -5    1    3    3    0  502 -0.74904533430E+03 -0.38710608774E+01 -0.11645051295E+03  0.75806774757E+03  0.46999998093E+01 0.  1.
</event>
<event>
 5   0  0.1186664E-04  0.1496038E+04  0.7818609E-02  0.8887092E-01
       -2   -1    0    0    0  501  0.00000000000E+00  0.00000000000E+00  0.44022244640E+03  0.44022244640E+03  0.25500000920E-02 0. -1.
        2   -1    0    0  501    0  0.00000000000E+00  0.00000000000E+00 -0.12710223907E+04  0.12710223907E+04  0.25500000920E-02 0.  1.
    10030    2    1    2    0    0  0.00000000000E+00  0.00000000000E+00 -0.83079994431E+03  0.17112448371E+04  0.14960382164E+04 0.  0.
        3    1    3    3  502    0  0.46161058919E+03 -0.49941706432E+03 -0.59092976380E+02  0.68263733435E+03  0.10100000352E+00 0. -1.
       -3    1    3    3    0  502 -0.46161058919E+03  0.49941706432E+03 -0.77170696793E+03  0.10286075028E+04  0.10100000352E+00 0.  1.
</event>
<event>
 5   0  0.1216921E-04  0.1503193E+04  0.7818609E-02  0.8882332E-01
        2   -1    0    0  501    0  0.00000000000E+00  0.00000000000E+00  0.74014215278E+03  0.74014215278E+03  0.25500000920E-02 0. -1.
       -2   -1    0    0    0  501  0.00000000000E+00  0.00000000000E+00 -0.76322815923E+03  0.76322815924E+03  0.25500000920E-02 0.  1.
    10030    2    1    2    0    0  0.00000000000E+00  0.00000000000E+00 -0.23086006455E+02  0.15033703120E+04  0.15031930453E+04 0.  0.
        4    1    3    3  502    0 -0.43867748102E+03  0.93070472839E+02  0.59168289331E+03  0.74242191805E+03  0.12699999809E+01 0. -1.
       -4    1    3    3    0  502  0.43867748102E+03 -0.93070472839E+02 -0.61476889976E+03  0.76094839397E+03  0.12699999809E+01 0.  1.
</event>
<event>
 5   0  0.1254487E-04  0.1500558E+04  0.7818609E-02  0.8884082E-01
        2   -1    0    0  501    0  0.00000000000E+00  0.00000000000E+00  0.16134446275E+04  0.16134446275E+04  0.25500000920E-02 0.  1.
       -2   -1    0    0    0  501  0.00000000000E+00  0.00000000000E+00 -0.34889222543E+03  0.34889222544E+03  0.25500000920E-02 0. -1.
    10030    2    1    2    0    0  0.00000000000E+00  0.00000000000E+00  0.12645524020E+04  0.19623368529E+04  0.15005576119E+04 0.  0.
        5    1    3    3  502    0  0.73330443498E+03 -0.13467781615E+03  0.52268578433E+03  0.91054710348E+03  0.46999998093E+01 0.  1.
       -5    1    3    3    0  502 -0.73330443498E+03  0.13467781615E+03  0.74186661770E+03  0.10517897494E+04  0.46999998093E+01 0. -1.
</event>
<event>
 5   0  0.6364378E-05  0.1503742E+04  0.7818609E-02  0.8881968E-01
       -1   -1    0    0    0  501  0.00000000000E+00  0.00000000000E+00  0.88412276511E+03  0.88412276512E+03  0.50400001928E-02 0.  1.
        1   -1    0    0  501    0  0.00000000000E+00  0.00000000000E+00 -0.63940256990E+03  0.63940256992E+03  0.50400001928E-02 0. -1.
    10030    2    1    2    0    0  0.00000000000E+00  0.00000000000E+00  0.24472019521E+03  0.15235253350E+04  0.15037424888E+04 0.  0.
        5    1    3    3  502    0  0.15363994624E+03  0.73598166830E+03  0.12615490208E+03  0.76237221780E+03  0.46999998093E+01 0. -1.
       -5    1    3    3    0  502 -0.15363994624E+03 -0.73598166830E+03  0.11856529313E+03  0.76115311724E+03  0.46999998093E+01 0.  1.
</event>
<event>
 5   0  0.1186664E-04  0.1500400E+04  0.7818609E-02  0.8884187E-01
       -2   -1    0    0    0  501  0.00000000000E+00  0.00000000000E+00  0.26383275350E+03  0.26383275351E+03  0.25500000920E-02 0.  1.
        2   -1    0    0  501    0  0.00000000000E+00  0.00000000000E+00 -0.21331685847E+04  0.21331685847E+04  0.25500000920E-02 0. -1.
    10030    2    1    2    0    0  0.00000000000E+00  0.00000000000E+00 -0.18693358312E+04  0.23970013382E+04  0.15003996020E+04 0.  0.
        3    1    3    3  502    0 -0.69077508071E+03  0.77483963673E+01 -0.14019948219E+04  0.15629522516E+04  0.10100000352E+00 0. -1.
       -3    1    3    3    0  502  0.69077508071E+03 -0.77483963673E+01 -0.46734100927E+03  0.83404908664E+03  0.10100000352E+00 0.  1.
</event>
<event>
 5   0  0.1219810E-04  0.1501826E+04  0.7818609E-02  0.8883240E-01
        2   -1    0    0  501    0  0.00000000000E+00  0.00000000000E+00  0.13839164141E+04  0.13839164141E+04  0.25500000920E-02 0.  1.
       -2   -1    0    0    0  501  0.00000000000E+00  0.00000000000E+00 -0.40744529936E+03  0.40744529936E+03  0.25500000920E-02 0. -1.
    10030    2    1    2    0    0  0.00000000000E+00  0.00000000000E+00  0.97647111472E+03  0.17913617134E+04  0.15018258722E+04 0.  0.
        1    1    3    3  502    0  0.56903296638E+03  0.45287665033E+03  0.26516655895E+03  0.77408596502E+03  0.50400001928E-02 0. -1.
       -1    1    3    3    0  502 -0.56903296638E+03 -0.45287665033E+03  0.71130455577E+03  0.10172757484E+04  0.50400001928E-02 0.  1.
</event>
<event>
 5   0  0.1216921E-04  0.1499674E+04  0.7818609E-02  0.8884670E-01
        2   -1    0    0  501    0  0.00000000000E+00  0.00000000000E+00  0.24608742040E+04  0.24608742040E+04  0.25500000920E-02 0. -1.
       -2   -1    0    0    0  501  0.00000000000E+00  0.00000000000E+00 -0.22847784077E+03  0.22847784078E+03  0.25500000920E-02 0.  1.
    10030    2    1    2    0    0  0.00000000000E+00  0.00000000000E+00  0.22323963632E+04  0.26893520448E+04  0.14996735972E+04 0.  0.
        4    1    3    3  502    0 -0.21872343652E+03 -0.45859034385E+03  0.12726889606E+03  0.52377860777E+03  0.12699999809E+01 0.  1.
       -4    1    3    3    0  502  0.21872343652E+03  0.45859034385E+03  0.21051274671E+04  0.21655734370E+04  0.12699999809E+01 0. -1.
</event>
<event>
 5   0  0.1219810E-04  0.1501156E+04  0.7818609E-02  0.8883684E-01
        2   -1    0    0  501    0  0.00000000000E+00  0.00000000000E+00  0.13507177266E+04  0.13507177266E+04  0.25500000920E-02 0. -1.
       -2   -1    0    0    0  501  0.00000000000E+00  0.00000000000E+00 -0.41708762966E+03  0.41708762966E+03  0.25500000920E-02 0.  1.
    10030    2    1    2    0    0  0.00000000000E+00  0.00000000000E+00  0.93363009698E+03  0.17678053563E+04  0.15011564275E+04 0.  0.
        1    1    3    3  502    0 -0.14685311891E+03  0.39891205284E+03 -0.26167104483E+03  0.49916770745E+03  0.50400001928E-02 0.  1.
       -1    1    3    3    0  502  0.14685311891E+03 -0.39891205284E+03  0.11953011418E+04  0.12686376488E+04  0.50400001928E-02 0. -1.
</event>
<event>
 5   0  0.1186664E-04  0.1500086E+04  0.7818609E-02  0.8884396E-01
       -2   -1    0    0    0  501  0.00000000000E+00  0.00000000000E+00  0.54487673634E+03  0.54487673635E+03  0.25500000920E-02 0.  1.
        2   -1    0    0  501    0  0.00000000000E+00  0.00000000000E+00 -0.10324616189E+04  0.10324616189E+04  0.25500000920E-02 0. -1.
    10030    2    1    2    0    0  0.00000000000E+00  0.00000000000E+00 -0.48758488258E+03  0.15773383553E+04  0.15000857540E+04 0.  0.
        3    1    3    3  502    0  0.63929402421E+03  0.17970410201E+02 -0.65581969236E+03  0.91603453216E+03  0.10100000352E+00 0. -1.
       -3    1    3    3    0  502 -0.63929402421E+03 -0.17970410201E+02  0.16823480979E+03  0.66130382310E+03  0.10100000352E+00 0.  1.
</event>
<event>
 5   0  0.1228286E-04  0.1501382E+04  0.7818609E-02  0.8883534E-01
        2   -1    0    0  501    0  0.00000000000E+00  0.00000000000E+00  0.43222546380E+03  0.43222546381E+03  0.25500000920E-02 0.  1.
       -2   -1    0    0    0  501  0.00000000000E+00  0.00000000000E+00 -0.13038034689E+04  0.13038034689E+04  0.25500000920E-02 0. -1.
    10030    2    1    2    0    0  0.00000000000E+00  0.00000000000E+00 -0.87157800511E+03  0.17360289327E+04  0.15013821087E+04 0.  0.
        2    1    3    3  502    0 -0.60599819415E+03  0.55434518160E+02  0.72491316546E+02  0.61283096210E+03  0.25500000920E-02 0.  1.
       -2    1    3    3    0  502  0.60599819415E+03 -0.55434518160E+02 -0.94406932166E+03  0.11231979706E+04  0.25500000920E-02 0. -1.
</event>
<event>
 5   0  0.1219810E-04  0.1499445E+04  0.7818609E-02  0.8884822E-01
       -2   -1    0    0    0  501  0.00000000000E+00  0.00000000000E+00  0.56639535036E+03  0.56639535036E+03  0.25500000920E-02 0. -1.
        2   -1    0    0  501    0  0.00000000000E+00  0.00000000000E+00 -0.99238780419E+03  0.99238780419E+03  0.25500000920E-02 0.  1.
    10030    2    1    2    0    0  0.00000000000E+00  0.00000000000E+00 -0.42599245383E+03  0.15587831546E+04  0.14994450147E+04 0.  0.
        1    1    3    3  502    0  0.28093896814E+03  0.64240405340E+03 -0.48897147531E+03  0.85481154376E+03  0.50400001928E-02 0. -1.
       -1    1    3    3    0  502 -0.28093896814E+03 -0.64240405340E+03  0.62979021482E+02  0.70397161080E+03  0.50400001928E-02 0.  1.
</event>
<event>
 5   0  0.1228286E-04  0.1502086E+04  0.7818609E-02  0.8883067E-01
       -2   -1    0    0    0  501  0.00000000000E+00  0.00000000000E+00  0.45779750813E+03  0.45779750813E+03  0.25500000920E-02 0. -1.
        2   -1    0    0  501    0  0.00000000000E+00  0.00000000000E+00 -0.12321288149E+04  0.12321288149E+04  0.25500000920E-02 0.  1.
    10030    2    1    2    0    0  0.00000000000E+00  0.00000000000E+00 -0.77433130681E+03  0.16899263231E+04  0.15020858846E+04 0.  0.
        2    1    3    3  502    0  0.38393682671E+03  0.46258477881E+03  0.11932485898E+03  0.61288709112E+03  0.25500000920E-02 0. -1.
       -2    1    3    3    0  502 -0.38393682671E+03 -0.46258477881E+03 -0.89365616579E+03  0.10770392319E+04  0.25500000920E-02 0.  1.
</event>
<event>
 5   0  0.6668433E-05  0.1499519E+04  0.7818609E-02  0.8884773E-01
       -1   -1    0    0    0  501  0.00000000000E+00  0.00000000000E+00  0.66991436666E+03  0.66991436668E+03  0.50400001928E-02 0. -1.
        1   -1    0    0  501    0  0.00000000000E+00  0.00000000000E+00 -0.83912168221E+03  0.83912168222E+03  0.50400001928E-02 0.  1.
    10030    2    1    2    0    0  0.00000000000E+00  0.00000000000E+00 -0.16920731554E+03  0.15090360489E+04  0.14995194835E+04 0.  0.
        1    1    3    3  502    0  0.20304076798E+03 -0.41511799074E+03  0.50955946441E+03  0.68789486660E+03  0.50400001928E-02 0. -1.
       -1    1    3    3    0  502 -0.20304076798E+03  0.41511799074E+03 -0.67876677995E+03  0.82114118231E+03  0.50400001928E-02 0.  1.
</event>
<event>
 5   0  0.6509279E-05  0.1500945E+04  0.7818609E-02  0.8883825E-01
       -1   -1    0    0    0  501  0.00000000000E+00  0.00000000000E+00  0.10449151993E+04  0.10449151994E+04  0.50400001928E-02 0. -1.
        1   -1    0    0  501    0  0.00000000000E+00  0.00000000000E+00 -0.53899940828E+03  0.53899940831E+03  0.50400001928E-02 0.  1.
    10030    2    1    2    0    0  0.00000000000E+00  0.00000000000E+00  0.50591579106E+03  0.15839146077E+04  0.15009446015E+04 0.  0.
        2    1    3    3  502    0 -0.41794637086E+03 -0.58894339637E+03  0.37528060415E+02  0.72314718306E+03  0.25500000920E-02 0.  1.
       -2    1    3    3    0  502  0.41794637086E+03  0.58894339637E+03  0.46838773064E+03  0.86076742461E+03  0.25500000920E-02 0. -1.
</event>
<event>
 5   0  0.6542036E-05  0.1500920E+04  0.7818609E-02  0.8883841E-01
        1   -1    0    0  501    0  0.00000000000E+00  0.00000000000E+00  0.95741274050E+03  0.95741274051E+03  0.50400001928E-02 0.  1.
       -1   -1    0    0    0  501  0.00000000000E+00  0.00000000000E+00 -0.58824185512E+03  0.58824185514E+03  0.50400001928E-02 0. -1.
    10030    2    1    2    0    0  0.00000000000E+00  0.00000000000E+00  0.36917088538E+03  0.15456545957E+04  0.15009200467E+04 0.  0.
        4    1    3    3  502    0 -0.40310631323E+03  0.15157513554E+03 -0.44832062090E+03  0.62166125302E+03  0.12699999809E+01 0. -1.
       -4    1    3    3    0  502  0.40310631323E+03 -0.15157513554E+03  0.81749150629E+03  0.92399334263E+03  0.12699999809E+01 0.  1.
</event>
<event>
 5   0  0.4462875E-05  0.1497684E+04  0.7818609E-02  0.8885994E-01
       -3   -1    0    0    0  501  0.00000000000E+00  0.00000000000E+00  0.37980435422E+03  0.37980436765E+03  0.10100000352E+00 0.  1.
        3   -1    0    0  501    0  0.00000000000E+00  0.00000000000E+00 -0.14764564187E+04  0.14764564221E+04  0.10100000352E+00 0. -1.
    10030    2    1    2    0    0  0.00000000000E+00  0.00000000000E+00 -0.10966520645E+04  0.18562607898E+04  0.14976843356E+04 0.  0.
        2    1    3    3  502    0  0.71895430493E+02 -0.60127248524E+03 -0.23235814324E+01  0.60556003292E+03  0.25500000920E-02 0.  1.
       -2    1    3    3    0  502 -0.71895430493E+02  0.60127248524E+03 -0.10943284830E+04  0.12507007569E+04  0.25500000920E-02 0. -1.
</event>
<event>
 5   0  0.1186664E-04  0.1499212E+04  0.7818609E-02  0.8884977E-01
       -2   -1    0    0    0  501  0.00000000000E+00  0.00000000000E+00  0.12181531092E+04  0.12181531092E+04  0.25500000920E-02 0.  1.
        2   -1    0    0  501    0  0.00000000000E+00  0.00000000000E+00 -0.46127968197E+03  0.46127968198E+03  0.25500000920E-02 0. -1.
    10030    2    1    2    0    0  0.00000000000E+00  0.00000000000E+00  0.75687342723E+03  0.16794327912E+04  0.14992121649E+04 0.  0.
        3    1    3    3  502    0 -0.94449316769E+02  0.43606935208E+03 -0.29632804372E+03  0.53561877577E+03  0.10100000352E+00 0. -1.
       -3    1    3    3    0  502  0.94449316769E+02 -0.43606935208E+03  0.10532014709E+04  0.11438140154E+04  0.10100000352E+00 0.  1.
</event>
<event>
 5   0  0.1186664E-04  0.1497642E+04  0.7818609E-02  0.8886022E-01
       -2   -1    0    0    0  501  0.00000000000E+00  0.00000000000E+00  0.92984249452E+03  0.92984249453E+03  0.25500000920E-02 0. -1.
        2   -1    0    0  501    0  0.00000000000E+00  0.00000000000E+00 -0.60304098350E+03  0.60304098351E+03  0.25500000920E-02 0.  1.
    10030    2    1    2    0    0  0.00000000000E+00  0.00000000000E+00  0.32680151102E+03  0.15328834780E+04  0.14976423237E+04 0.  0.
        3    1    3    3  502    0  0.65472556974E+03  0.35877653104E+03  0.10418657336E+03  0.75381763257E+03  0.10100000352E+00 0.  1.
       -3    1    3    3    0  502 -0.65472556974E+03 -0.35877653104E+03  0.22261493766E+03  0.77906584547E+03  0.10100000352E+00 0. -1.
</event>
<event>
 5   0  0.6361716E-05  0.1504484E+04  0.7818609E-02  0.8881476E-01
       -1   -1    0    0    0  501  0.00000000000E+00  0.00000000000E+00  0.55546318939E+03  0.55546318942E+03  0.50400001928E-02 0.  1.
        1   -1    0    0  501    0  0.00000000000E+00  0.00000000000E+00 -0.10187320231E+04  0.10187320231E+04  0.50400001928E-02 0. -1.
    10030    2    1    2    0    0  0.00000000000E+00  0.00000000000E+00 -0.46326883370E+03  0.15741952125E+04  0.15044841491E+04 0.  0.
        3    1    3    3  502    0 -0.19541623089E+03  0.55419608980E+03  0.25975054625E+03  0.64248826115E+03  0.10100000352E+00 0.  1.
       -3    1    3    3    0  502  0.19541623089E+03 -0.55419608980E+03 -0.72301937995E+03  0.93170695137E+03  0.10100000352E+00 0. -1.
</event>
<event>
 5   0  0.6542036E-05  0.1500926E+04  0.7818609E-02  0.8883837E-01
       -1   -1    0    0    0  501  0.00000000000E+00  0.00000000000E+00  0.35467817900E+03  0.35467817903E+03  0.50400001928E-02 0.  1.
        1   -1    0    0  501    0  0.00000000000E+00  0.00000000000E+00 -0.15879042633E+04  0.15879042633E+04  0.50400001928E-02 0. -1.
    10030    2    1    2    0    0  0.00000000000E+00  0.00000000000E+00 -0.12332260843E+04  0.19425824424E+04  0.15009263707E+04 0.  0.
        4    1    3    3  502    0 -0.55087054122E+03  0.61965209284E+02 -0.12713264865E+04  0.13869285088E+04  0.12699999809E+01 0. -1.
       -4    1    3    3    0  502  0.55087054122E+03 -0.61965209284E+02  0.38100402172E+02  0.55565393357E+03  0.12699999809E+01 0.  1.
</event>
<event>
 5   0  0.6364378E-05  0.1497946E+04  0.7818609E-02  0.8885820E-01
       -1   -1    0    0    0  501  0.00000000000E+00  0.00000000000E+00  0.84046048945E+03  0.84046048946E+03  0.50400001928E-02 0.  1.
        1   -1    0    0  501    0  0.00000000000E+00  0.00000000000E+00 -0.66744410103E+03  0.66744410105E+03  0.50400001928E-02 0. -1.
    10030    2    1    2    0    0  0.00000000000E+00  0.00000000000E+00  0.17301638842E+03  0.15079045905E+04  0.14979457879E+04 0.  0.
        5    1    3    3  502    0  0.17972158511E+03  0.23322329535E+03 -0.60672493448E+03  0.67441099470E+03  0.46999998093E+01 0. -1.
       -5    1    3    3    0  502 -0.17972158511E+03 -0.23322329535E+03  0.77974132290E+03  0.83349359582E+03  0.46999998093E+01 0.  1.
</event>
<event>
 5   0  0.1216921E-04  0.1492613E+04  0.7818609E-02  0.8889380E-01
       -2   -1    0    0    0  501  0.00000000000E+00  0.00000000000E+00  0.43322655810E+03  0.43322655811E+03  0.25500000920E-02 0. -1.
        2   -1    0    0  501    0  0.00000000000E+00  0.00000000000E+00 -0.12856394282E+04  0.12856394283E+04  0.25500000920E-02 0.  1.
    10030    2    1    2    0    0  0.00000000000E+00  0.00000000000E+00 -0.85241287015E+03  0.17188659864E+04  0.14926126684E+04 0.  0.
        4    1    3    3  502    0  0.24126459464E+03  0.49810438886E+03  0.15033832921E+03  0.57351531188E+03  0.12699999809E+01 0. -1.
       -4    1    3    3    0  502 -0.24126459464E+03 -0.49810438886E+03 -0.10027511994E+04  0.11453506745E+04  0.12699999809E+01 0.  1.
</event>
<event>
 5   0  0.1216921E-04  0.1478202E+04  0.7818609E-02  0.8899079E-01
        2   -1    0    0  501    0  0.00000000000E+00  0.00000000000E+00  0.17906103275E+04  0.17906103275E+04  0.25500000920E-02 0. -1.
       -2   -1    0    0    0  501  0.00000000000E+00  0.00000000000E+00 -0.30507508822E+03  0.30507508824E+03  0.25500000920E-02 0.  1.
    10030    2    1    2    0    0  0.00000000000E+00  0.00000000000E+00  0.14855352393E+04  0.20956854158E+04  0.14782024268E+04 0.  0.
        4    1    3    3  502    0 -0.38578055727E+02 -0.52148884986E+03  0.22450077008E+01  0.52292020411E+03  0.12699999809E+01 0.  1.
       -4    1    3    3    0  502  0.38578055727E+02  0.52148884986E+03  0.14832902316E+04  0.15727652116E+04  0.12699999809E+01 0. -1.
</event>
<event>
 5   0  0.1186664E-04  0.1496605E+04  0.7818609E-02  0.8886713E-01
       -2   -1    0    0    0  501  0.00000000000E+00  0.00000000000E+00  0.42416141898E+03  0.42416141899E+03  0.25500000920E-02 0.  1.
        2   -1    0    0  501    0  0.00000000000E+00  0.00000000000E+00 -0.13201503817E+04  0.13201503817E+04  0.25500000920E-02 0. -1.
    10030    2    1    2    0    0  0.00000000000E+00  0.00000000000E+00 -0.89598896269E+03  0.17443118007E+04  0.14966053042E+04 0.  0.
        3    1    3    3  502    0  0.34325557206E+02  0.46561997092E+03  0.23358273458E+03  0.52205469569E+03  0.10100000352E+00 0.  1.
       -3    1    3    3    0  502 -0.34325557206E+02 -0.46561997092E+03 -0.11295716973E+04  0.12222571050E+04  0.10100000352E+00 0. -1.
</event>
<event>
 5   0  0.6668433E-05  0.1503693E+04  0.7818609E-02  0.8882001E-01
        1   -1    0    0  501    0  0.00000000000E+00  0.00000000000E+00  0.13919485245E+04  0.13919485245E+04  0.50400001928E-02 0.  1.
       -1   -1    0    0    0  501  0.00000000000E+00  0.00000000000E+00 -0.40610181434E+03  0.40610181437E+03  0.50400001928E-02 0. -1.
    10030    2    1    2    0    0  0.00000000000E+00  0.00000000000E+00  0.98584671011E+03  0.17980503388E+04  0.15036925501E+04 0.  0.
        1    1    3    3  502    0  0.13185193384E+03  0.31972455907E+03 -0.30534078743E+03  0.46134772420E+03  0.50400001928E-02 0. -1.
       -1    1    3    3    0  502 -0.13185193384E+03 -0.31972455907E+03  0.12911874975E+04  0.13367026146E+04  0.50400001928E-02 0.  1.
</event>
<event>
 5   0  0.1216921E-04  0.1503664E+04  0.7818609E-02  0.8882020E-01
        2   -1    0    0  501    0  0.00000000000E+00  0.00000000000E+00  0.95236191673E+03  0.95236191673E+03  0.25500000920E-02 0.  1.
       -2   -1    0    0    0  501  0.00000000000E+00  0.00000000000E+00 -0.59352582793E+03  0.59352582793E+03  0.25500000920E-02 0. -1.
    10030    2    1    2    0    0  0.00000000000E+00  0.00000000000E+00  0.35883608880E+03  0.15458877447E+04  0.15036640517E+04 0.  0.
        4    1    3    3  502    0 -0.22747865593E+03  0.46665519554E+03  0.73850500117E+03  0.90272080960E+03  0.12699999809E+01 0.  1.
       -4    1    3    3    0  502  0.22747865593E+03 -0.46665519554E+03 -0.37966891237E+03  0.64316693506E+03  0.12699999809E+01 0. -1.
</event>
<event>
 5   0  0.6542036E-05  0.1512958E+04  0.7818609E-02  0.8875882E-01
       -1   -1    0    0    0  501  0.00000000000E+00  0.00000000000E+00  0.63169657269E+03  0.63169657271E+03  0.50400001928E-02 0.  1.
        1   -1    0    0  501    0  0.00000000000E+00  0.00000000000E+00 -0.90591009796E+03  0.90591009798E+03  0.50400001928E-02 0. -1.
    10030    2    1    2    0    0  0.00000000000E+00  0.00000000000E+00 -0.27421352527E+03  0.15376066707E+04  0.15129577708E+04 0.  0.
        4    1    3    3  502    0  0.17556019254E+03 -0.73035370422E+03 -0.22812463126E+03  0.78503526975E+03  0.12699999809E+01 0. -1.
       -4    1    3    3    0  502 -0.17556019254E+03  0.73035370422E+03 -0.46088894014E+02  0.75257140094E+03  0.12699999809E+01 0.  1.
</event>
<event>
 5   0  0.1219810E-04  0.1498474E+04  0.7818609E-02  0.8885469E-01
        2   -1    0    0  501    0  0.00000000000E+00  0.00000000000E+00  0.13496523124E+04  0.13496523124E+04  0.25500000920E-02 0. -1.
       -2   -1    0    0    0  501  0.00000000000E+00  0.00000000000E+00 -0.41592624905E+03  0.41592624906E+03  0.25500000920E-02 0.  1.
    10030    2    1    2    0    0  0.00000000000E+00  0.00000000000E+00  0.93372606333E+03  0.17655785614E+04  0.14984736552E+04 0.  0.
        1    1    3    3  502    0  0.10549226926E+03  0.72085000803E+03  0.26074490759E+03  0.77378372935E+03  0.50400001928E-02 0.  1.
       -1    1    3    3    0  502 -0.10549226926E+03 -0.72085000803E+03  0.67298115574E+03  0.99179483208E+03  0.50400001928E-02 0. -1.
</event>
<event>
 5   0  0.1254487E-04  0.1499008E+04  0.7818609E-02  0.8885113E-01
        2   -1    0    0  501    0  0.00000000000E+00  0.00000000000E+00  0.42214960865E+03  0.42214960866E+03  0.25500000920E-02 0.  1.
       -2   -1    0    0    0  501  0.00000000000E+00  0.00000000000E+00 -0.13307043715E+04  0.13307043715E+04  0.25500000920E-02 0. -1.
    10030    2    1    2    0    0  0.00000000000E+00  0.00000000000E+00 -0.90855476286E+03  0.17528539802E+04  0.14990081116E+04 0.  0.
        5    1    3    3  502    0  0.17100980371E+03 -0.27578579594E+03 -0.12442823766E+04  0.12859093595E+04  0.46999998093E+01 0. -1.
       -5    1    3    3    0  502 -0.17100980371E+03  0.27578579594E+03  0.33572761369E+03  0.46694462070E+03  0.46999998093E+01 0.  1.
</event>
<event>
 5   0  0.6668433E-05  0.1502792E+04  0.7818609E-02  0.8882598E-01
        1   -1    0    0  501    0  0.00000000000E+00  0.00000000000E+00  0.24391898079E+04  0.24391898079E+04  0.50400001928E-02 0.  1.
       -1   -1    0    0    0  501  0.00000000000E+00  0.00000000000E+00 -0.23146860829E+03  0.23146860835E+03  0.50400001928E-02 0. -1.
    10030    2    1    2    0    0  0.00000000000E+00  0.00000000000E+00  0.22077211997E+04  0.26706584163E+04  0.15027918955E+04 0.  0.
        1    1    3    3  502    0 -0.73166698002E+02 -0.29535760001E+02 -0.22408594733E+03  0.23757154424E+03  0.50400001928E-02 0. -1.
       -1    1    3    3    0  502  0.73166698002E+02  0.29535760001E+02  0.24318071470E+04  0.24330868721E+04  0.50400001928E-02 0.  1.
</event>
<event>
 5   0  0.6668433E-05  0.1503963E+04  0.7818609E-02  0.8881822E-01
        1   -1    0    0  501    0  0.00000000000E+00  0.00000000000E+00  0.12616764922E+04  0.12616764922E+04  0.50400001928E-02 0.  1.
       -1   -1    0    0    0  501  0.00000000000E+00  0.00000000000E+00 -0.44819445839E+03  0.44819445841E+03  0.50400001928E-02 0. -1.
    10030    2    1    2    0    0  0.00000000000E+00  0.00000000000E+00  0.81348203380E+03  0.17098709506E+04  0.15039633135E+04 0.  0.
        1    1    3    3  502    0 -0.29080693839E+03  0.69237143767E+03  0.45120464982E+03  0.87608933287E+03  0.50400001928E-02 0. -1.
       -1    1    3    3    0  502  0.29080693839E+03 -0.69237143767E+03  0.36227738398E+03  0.83378161774E+03  0.50400001928E-02 0.  1.
</event>
<event>
 5   0  0.6542036E-05  0.1501306E+04  0.7818609E-02  0.8883585E-01
        1   -1    0    0  501    0  0.00000000000E+00  0.00000000000E+00  0.12956686408E+04  0.12956686408E+04  0.50400001928E-02 0. -1.
       -1   -1    0    0    0  501  0.00000000000E+00  0.00000000000E+00 -0.43489531327E+03  0.43489531330E+03  0.50400001928E-02 0.  1.
    10030    2    1    2    0    0  0.00000000000E+00  0.00000000000E+00  0.86077332756E+03  0.17305639541E+04  0.15013063904E+04 0.  0.
        4    1    3    3  502    0  0.46581001121E+03  0.44371030426E+03 -0.15489560915E+02  0.64350550895E+03  0.12699999809E+01 0.  1.
       -4    1    3    3    0  502 -0.46581001121E+03 -0.44371030426E+03  0.87626288848E+03  0.10870584452E+04  0.12699999809E+01 0. -1.
</event>
<event>
 5   0  0.1216921E-04  0.1503166E+04  0.7818609E-02  0.8882351E-01
        2   -1    0    0  501    0  0.00000000000E+00  0.00000000000E+00  0.18498849256E+04  0.18498849256E+04  0.25500000920E-02 0.  1.
       -2   -1    0    0    0  501  0.00000000000E+00  0.00000000000E+00 -0.30535776012E+03  0.30535776013E+03  0.25500000920E-02 0. -1.
    10030    2    1    2    0    0  0.00000000000E+00  0.00000000000E+00  0.15445271654E+04  0.21552426857E+04  0.15031656161E+04 0.  0.
        4    1    3    3  502    0  0.57829955239E+02 -0.74565881450E+03  0.87882639894E+03  0.11539882251E+04  0.12699999809E+01 0.  1.
       -4    1    3    3    0  502 -0.57829955239E+02  0.74565881450E+03  0.66570076650E+03  0.10012544606E+04  0.12699999809E+01 0. -1.
</event>
<event>
 5   0  0.6668433E-05  0.1498433E+04  0.7818609E-02  0.8885495E-01
       -1   -1    0    0    0  501  0.00000000000E+00  0.00000000000E+00  0.52401614017E+03  0.52401614019E+03  0.50400001928E-02 0. -1.
        1   -1    0    0  501    0  0.00000000000E+00  0.00000000000E+00 -0.10711989216E+04  0.10711989216E+04  0.50400001928E-02 0.  1.
    10030    2    1    2    0    0  0.00000000000E+00  0.00000000000E+00 -0.54718278143E+03  0.15952150618E+04  0.14984332141E+04 0.  0.
        1    1    3    3  502    0  0.75588586479E+02  0.60879935880E+03  0.18427486666E+03  0.64055251165E+03  0.50400001928E-02 0. -1.
       -1    1    3    3    0  502 -0.75588586479E+02 -0.60879935880E+03 -0.73145764808E+03  0.95466255014E+03  0.50400001928E-02 0.  1.
</event>
<event>
 5   0  0.1219810E-04  0.1498915E+04  0.7818609E-02  0.8885175E-01
        2   -1    0    0  501    0  0.00000000000E+00  0.00000000000E+00  0.48608318988E+03  0.48608318989E+03  0.25500000920E-02 0.  1.
       -2   -1    0    0    0  501  0.00000000000E+00  0.00000000000E+00 -0.11555362284E+04  0.11555362284E+04  0.25500000920E-02 0. -1.
    10030    2    1    2    0    0  0.00000000000E+00  0.00000000000E+00 -0.66945303850E+03  0.16416194183E+04  0.14989152557E+04 0.  0.
        1    1    3    3  502    0  0.41793382961E+03  0.10130982528E+03  0.33751378890E+03  0.54666984950E+03  0.50400001928E-02 0.  1.
       -1    1    3    3    0  502 -0.41793382961E+03 -0.10130982528E+03 -0.10069668274E+04  0.10949495688E+04  0.50400001928E-02 0. -1.
</event>
<event>
 5   0  0.4462875E-05  0.1499955E+04  0.7818609E-02  0.8884483E-01
        3   -1    0    0  501    0  0.00000000000E+00  0.00000000000E+00  0.66382362723E+03  0.66382363491E+03  0.10100000352E+00 0. -1.
       -3   -1    0    0    0  501  0.00000000000E+00  0.00000000000E+00 -0.84731312625E+03  0.84731313227E+03  0.10100000352E+00 0.  1.
    10030    2    1    2    0    0  0.00000000000E+00  0.00000000000E+00 -0.18348949902E+03  0.15111367672E+04  0.14999553103E+04 0.  0.
        5    1    3    3  502    0 -0.72999521674E+01 -0.73436336129E+03  0.61380243929E+02  0.73697520993E+03  0.46999998093E+01 0. -1.
       -5    1    3    3    0  502  0.72999521674E+01  0.73436336129E+03 -0.24486974295E+03  0.77416155725E+03  0.46999998093E+01 0.  1.
</event>
<event>
 5   0  0.4462875E-05  0.1498563E+04  0.7818609E-02  0.8885409E-01
       -3   -1    0    0    0  501  0.00000000000E+00  0.00000000000E+00  0.12620068811E+04  0.12620068851E+04  0.10100000352E+00 0.  1.
        3   -1    0    0  501    0  0.00000000000E+00  0.00000000000E+00 -0.44486526486E+03  0.44486527633E+03  0.10100000352E+00 0. -1.
    10030    2    1    2    0    0  0.00000000000E+00  0.00000000000E+00  0.81714161620E+03  0.17068721614E+04  0.14985633635E+04 0.  0.
        2    1    3    3  502    0  0.16563247905E+02  0.39687726354E+03  0.11322089368E+04  0.11998679011E+04  0.25500000920E-02 0.  1.
       -2    1    3    3    0  502 -0.16563247905E+02 -0.39687726354E+03 -0.31506732059E+03  0.50700426034E+03  0.25500000920E-02 0. -1.
</event>
<event>
 5   0  0.1186664E-04  0.1495442E+04  0.7818609E-02  0.8887490E-01
        2   -1    0    0  501    0  0.00000000000E+00  0.00000000000E+00  0.12543057247E+04  0.12543057247E+04  0.25500000920E-02 0.  1.
       -2   -1    0    0    0  501  0.00000000000E+00  0.00000000000E+00 -0.44573374620E+03  0.44573374620E+03  0.25500000920E-02 0. -1.
    10030    2    1    2    0    0  0.00000000000E+00  0.00000000000E+00  0.80857197850E+03  0.17000394709E+04  0.14954415930E+04 0.  0.
        3    1    3    3  502    0  0.73145009679E+03  0.77365463097E+02  0.25142050950E+03  0.77731392743E+03  0.10100000352E+00 0. -1.
       -3    1    3    3    0  502 -0.73145009679E+03 -0.77365463097E+02  0.55715146900E+03  0.92272554348E+03  0.10100000352E+00 0.  1.
</event>
<event>
 5   0  0.6668433E-05  0.1502125E+04  0.7818609E-02  0.8883041E-01
       -1   -1    0    0    0  501  0.00000000000E+00  0.00000000000E+00  0.88769719889E+03  0.88769719891E+03  0.50400001928E-02 0.  1.
        1   -1    0    0  501    0  0.00000000000E+00  0.00000000000E+00 -0.63545840638E+03  0.63545840640E+03  0.50400001928E-02 0. -1.
    10030    2    1    2    0    0  0.00000000000E+00  0.00000000000E+00  0.25223879251E+03  0.15231556053E+04  0.15021246917E+04 0.  0.
        1    1    3    3  502    0 -0.54354825192E+03 -0.13245343486E+03 -0.38200127289E+03  0.67743161063E+03  0.50400001928E-02 0. -1.
       -1    1    3    3    0  502  0.54354825192E+03  0.13245343486E+03  0.63424006540E+03  0.84572399467E+03  0.50400001928E-02 0.  1.
</event>
<event>
 5   0  0.4462875E-05  0.1500179E+04  0.7818609E-02  0.8884334E-01
        3   -1    0    0  501    0  0.00000000000E+00  0.00000000000E+00  0.20768560782E+04  0.20768560806E+04  0.10100000352E+00 0.  1.
       -3   -1    0    0    0  501  0.00000000000E+00  0.00000000000E+00 -0.27090681277E+03  0.27090683160E+03  0.10100000352E+00 0. -1.
    10030    2    1    2    0    0  0.00000000000E+00  0.00000000000E+00  0.18059492654E+04  0.23477629122E+04  0.15001793036E+04 0.  0.
        2    1    3    3  502    0  0.48000549665E+03  0.27446566387E+03  0.10975899464E+03  0.56372308305E+03  0.25500000920E-02 0. -1.
       -2    1    3    3    0  502 -0.48000549665E+03 -0.27446566387E+03  0.16961902708E+04  0.17840398292E+04  0.25500000920E-02 0.  1.
</event>
<event>
 5   0  0.1254487E-04  0.1500917E+04  0.7818609E-02  0.8883843E-01
        2   -1    0    0  501    0  0.00000000000E+00  0.00000000000E+00  0.16689250754E+04  0.16689250754E+04  0.25500000920E-02 0.  1.
       -2   -1    0    0    0  501  0.00000000000E+00  0.00000000000E+00 -0.33745556965E+03  0.33745556966E+03  0.25500000920E-02 0. -1.
    10030    2    1    2    0    0  0.00000000000E+00  0.00000000000E+00  0.13314695057E+04  0.20063806450E+04  0.15009171357E+04 0.  0.
        5    1    3    3  502    0 -0.19861702783E+03 -0.10463128458E+03  0.16229678897E+04  0.16384270782E+04  0.46999998093E+01 0.  1.
       -5    1    3    3    0  502  0.19861702783E+03  0.10463128458E+03 -0.29149838403E+03  0.36795356683E+03  0.46999998093E+01 0. -1.
</event>
<event>
 5   0  0.6668433E-05  0.1502906E+04  0.7818609E-02  0.8882523E-01
        1   -1    0    0  501    0  0.00000000000E+00  0.00000000000E+00  0.12981106096E+04  0.12981106097E+04  0.50400001928E-02 0.  1.
       -1   -1    0    0    0  501  0.00000000000E+00  0.00000000000E+00 -0.43500263619E+03  0.43500263622E+03  0.50400001928E-02 0. -1.
    10030    2    1    2    0    0  0.00000000000E+00  0.00000000000E+00  0.86310797346E+03  0.17331132459E+04  0.15029059016E+04 0.  0.
        1    1    3    3  502    0  0.28372918138E+02 -0.39095447521E+03 -0.30776609054E+03  0.49836772637E+03  0.50400001928E-02 0. -1.
       -1    1    3    3    0  502 -0.28372918138E+02  0.39095447521E+03  0.11708740640E+04  0.12347455195E+04  0.50400001928E-02 0.  1.
</event>
<event>
 5   0  0.6364378E-05  0.1498159E+04  0.7818609E-02  0.8885678E-01
        1   -1    0    0  501    0  0.00000000000E+00  0.00000000000E+00  0.58214082110E+03  0.58214082112E+03  0.50400001928E-02 0. -1.
       -1   -1    0    0    0  501  0.00000000000E+00  0.00000000000E+00 -0.96389101403E+03  0.96389101405E+03  0.50400001928E-02 0.  1.
    10030    2    1    2    0    0  0.00000000000E+00  0.00000000000E+00 -0.38175019293E+03  0.15460318352E+04  0.14981592791E+04 0.  0.
        5    1    3    3  502    0  0.63324505803E+03 -0.71238891319E+02 -0.59718725624E+03  0.87334357052E+03  0.46999998093E+01 0. -1.
       -5    1    3    3    0  502 -0.63324505803E+03  0.71238891319E+02  0.21543706331E+03  0.67268826465E+03  0.46999998093E+01 0.  1.
</event>
<event>
 5   0  0.6361716E-05  0.1512719E+04  0.7818609E-02  0.8876039E-01
        1   -1    0    0  501    0  0.00000000000E+00  0.00000000000E+00  0.70201173349E+03  0.70201173351E+03  0.50400001928E-02 0.  1.
       -1   -1    0    0    0  501  0.00000000000E+00  0.00000000000E+00 -0.81491436029E+03  0.81491436030E+03  0.50400001928E-02 0. -1.
    10030    2    1    2    0    0  0.00000000000E+00  0.00000000000E+00 -0.11290262680E+03  0.15169260938E+04  0.15127186688E+04 0.  0.
        3    1    3    3  502    0  0.65551579500E+03 -0.16751381963E+03  0.28259794246E+03  0.73322809857E+03  0.10100000352E+00 0.  1.
       -3    1    3    3    0  502 -0.65551579500E+03  0.16751381963E+03 -0.39550056925E+03  0.78369799524E+03  0.10100000352E+00 0. -1.
</event>
<event>
 5   0  0.1216921E-04  0.1496448E+04  0.7818609E-02  0.8886819E-01
       -2   -1    0    0    0  501  0.00000000000E+00  0.00000000000E+00  0.10563692283E+04  0.10563692283E+04  0.25500000920E-02 0. -1.
        2   -1    0    0  501    0  0.00000000000E+00  0.00000000000E+00 -0.52996517694E+03  0.52996517694E+03  0.25500000920E-02 0.  1.
    10030    2    1    2    0    0  0.00000000000E+00  0.00000000000E+00  0.52640405137E+03  0.15863344053E+04  0.14964476670E+04 0.  0.
        4    1    3    3  502    0  0.96654011891E+02  0.44596892013E+03 -0.36538002645E+03  0.58458057816E+03  0.12699999809E+01 0.  1.
       -4    1    3    3    0  502 -0.96654011891E+02 -0.44596892013E+03  0.89178407782E+03  0.10017538271E+04  0.12699999809E+01 0. -1.
</event>
<event>
 5   0  0.6509279E-05  0.1500220E+04  0.7818609E-02  0.8884306E-01
       -1   -1    0    0    0  501  0.00000000000E+00  0.00000000000E+00  0.60324290900E+03  0.60324290902E+03  0.50400001928E-02 0. -1.
        1   -1    0    0  501    0  0.00000000000E+00  0.00000000000E+00 -0.93273423624E+03  0.93273423625E+03  0.50400001928E-02 0.  1.
    10030    2    1    2    0    0  0.00000000000E+00  0.00000000000E+00 -0.32949132724E+03  0.15359771453E+04  0.15002204025E+04 0.  0.
        2    1    3    3  502    0  0.28276445321E+02  0.71900076488E+03  0.52209774710E+02  0.72144820871E+03  0.25500000920E-02 0.  1.
       -2    1    3    3    0  502 -0.28276445321E+02 -0.71900076488E+03 -0.38170110196E+03  0.81452893657E+03  0.25500000920E-02 0. -1.
</event>
<event>
 5   0  0.4462875E-05  0.1499658E+04  0.7818609E-02  0.8884680E-01
       -3   -1    0    0    0  501  0.00000000000E+00  0.00000000000E+00  0.78020695725E+03  0.78020696379E+03  0.10100000352E+00 0. -1.
        3   -1    0    0  501    0  0.00000000000E+00  0.00000000000E+00 -0.72063370020E+03  0.72063370728E+03  0.10100000352E+00 0.  1.
    10030    2    1    2    0    0  0.00000000000E+00  0.00000000000E+00  0.59573257051E+02  0.15008406711E+04  0.14996578766E+04 0.  0.
        3    1    3    3  502    0 -0.63482454180E+03 -0.39159025144E+03 -0.47074352509E+02  0.74736947273E+03  0.10100000352E+00 0.  1.
       -3    1    3    3    0  502  0.63482454180E+03  0.39159025144E+03  0.10664760956E+03  0.75347119834E+03  0.10100000352E+00 0. -1.
</event>
<event>
 5   0  0.1219810E-04  0.1500739E+04  0.7818609E-02  0.8883962E-01
        2   -1    0    0  501    0  0.00000000000E+00  0.00000000000E+00  0.43418031497E+03  0.43418031498E+03  0.25500000920E-02 0. -1.
       -2   -1    0    0    0  501  0.00000000000E+00  0.00000000000E+00 -0.12968207734E+04  0.12968207734E+04  0.25500000920E-02 0.  1.
    10030    2    1    2    0    0  0.00000000000E+00  0.00000000000E+00 -0.86264045847E+03  0.17310010884E+04  0.15007385540E+04 0.  0.
        1    1    3    3  502    0 -0.65336015612E+03  0.56731798068E+02 -0.85189805528E+03  0.10750945480E+04  0.50400001928E-02 0. -1.
       -1    1    3    3    0  502  0.65336015612E+03 -0.56731798068E+02 -0.10742403186E+02  0.65590654042E+03  0.50400001928E-02 0.  1.
</event>
<event>
 5   0  0.1219810E-04  0.1501293E+04  0.7818609E-02  0.8883593E-01
       -2   -1    0    0    0  501  0.00000000000E+00  0.00000000000E+00  0.11565189280E+04  0.11565189281E+04  0.25500000920E-02 0.  1.
        2   -1    0    0  501    0  0.00000000000E+00  0.00000000000E+00 -0.48721234463E+03  0.48721234464E+03  0.25500000920E-02 0. -1.
    10030    2    1    2    0    0  0.00000000000E+00  0.00000000000E+00  0.66930658342E+03  0.16437312727E+04  0.15012931740E+04 0.  0.
        1    1    3    3  502    0  0.56385777293E+03  0.33778818601E+03 -0.62281279555E+02  0.66023889957E+03  0.50400001928E-02 0. -1.
       -1    1    3    3    0  502 -0.56385777293E+03 -0.33778818601E+03  0.73158786297E+03  0.98349237312E+03  0.50400001928E-02 0.  1.
</event>
<event>
 5   0  0.1216921E-04  0.1498868E+04  0.7818609E-02  0.8885206E-01
       -2   -1    0    0    0  501  0.00000000000E+00  0.00000000000E+00  0.46184898720E+03  0.46184898721E+03  0.25500000920E-02 0.  1.
        2   -1    0    0  501    0  0.00000000000E+00  0.00000000000E+00 -0.12160925384E+04  0.12160925384E+04  0.25500000920E-02 0. -1.
    10030    2    1    2    0    0  0.00000000000E+00  0.00000000000E+00 -0.75424355116E+03  0.16779415256E+04  0.14988677156E+04 0.  0.
        4    1    3    3  502    0  0.23540008808E+03 -0.59754493321E+02  0.41657230198E+03  0.48220109562E+03  0.12699999809E+01 0.  1.
       -4    1    3    3    0  502 -0.23540008808E+03  0.59754493321E+02 -0.11708158531E+04  0.11957404299E+04  0.12699999809E+01 0. -1.
</event>
<event>
 5   0  0.1216921E-04  0.1502031E+04  0.7818609E-02  0.8883103E-01
       -2   -1    0    0    0  501  0.00000000000E+00  0.00000000000E+00  0.58324315691E+03  0.58324315692E+03  0.25500000920E-02 0. -1.
        2   -1    0    0  501    0  0.00000000000E+00  0.00000000000E+00 -0.96704872385E+03  0.96704872386E+03  0.25500000920E-02 0.  1.
    10030    2    1    2    0    0  0.00000000000E+00  0.00000000000E+00 -0.38380556694E+03  0.15502918808E+04  0.15020313587E+04 0.  0.
        4    1    3    3  502    0 -0.49800992169E+03  0.11886192524E+03  0.37518760902E+03  0.63475144288E+03  0.12699999809E+01 0. -1.
       -4    1    3    3    0  502  0.49800992169E+03 -0.11886192524E+03 -0.75899317596E+03  0.91554043790E+03  0.12699999809E+01 0.  1.
</event>
<event>
 5   0  0.1186664E-04  0.1497620E+04  0.7818609E-02  0.8886037E-01
       -2   -1    0    0    0  501  0.00000000000E+00  0.00000000000E+00  0.32251668767E+03  0.32251668768E+03  0.25500000920E-02 0.  1.
        2   -1    0    0  501    0  0.00000000000E+00  0.00000000000E+00 -0.17385654205E+04  0.17385654205E+04  0.25500000920E-02 0. -1.
    10030    2    1    2    0    0  0.00000000000E+00  0.00000000000E+00 -0.14160487328E+04  0.20610821082E+04  0.14976199260E+04 0.  0.
        3    1    3    3  502    0 -0.63739703834E+03 -0.15915084586E+03 -0.21351147539E+03  0.69079022615E+03  0.10100000352E+00 0.  1.
       -3    1    3    3    0  502  0.63739703834E+03  0.15915084586E+03 -0.12025372575E+04  0.13702918820E+04  0.10100000352E+00 0. -1.
</event>
<event>
 5   0  0.6361716E-05  0.1499483E+04  0.7818609E-02  0.8884797E-01
        1   -1    0    0  501    0  0.00000000000E+00  0.00000000000E+00  0.10485425919E+04  0.10485425919E+04  0.50400001928E-02 0.  1.
       -1   -1    0    0    0  501  0.00000000000E+00  0.00000000000E+00 -0.53608884193E+03  0.53608884196E+03  0.50400001928E-02 0. -1.
    10030    2    1    2    0    0  0.00000000000E+00  0.00000000000E+00  0.51245374994E+03  0.15846314338E+04  0.14994825559E+04 0.  0.
        3    1    3    3  502    0 -0.74370834814E+03 -0.92615363923E+02  0.27819838088E+03  0.79942107931E+03  0.10100000352E+00 0.  1.
       -3    1    3    3    0  502  0.74370834814E+03  0.92615363923E+02  0.23425536906E+03  0.78521035453E+03  0.10100000352E+00 0. -1.
</event>
<event>
 5   0  0.6542036E-05  0.1500322E+04  0.7818609E-02  0.8884239E-01
       -1   -1    0    0    0  501  0.00000000000E+00  0.00000000000E+00  0.72192052816E+03  0.72192052818E+03  0.50400001928E-02 0.  1.
        1   -1    0    0  501    0  0.00000000000E+00  0.00000000000E+00 -0.77950648306E+03  0.77950648308E+03  0.50400001928E-02 0. -1.
    10030    2    1    2    0    0  0.00000000000E+00  0.00000000000E+00 -0.57585954899E+02  0.15014270113E+04  0.15003222747E+04 0.  0.
        4    1    3    3  502    0  0.12483213562E+03  0.42461760045E+03 -0.63492613686E+03  0.77396122697E+03  0.12699999809E+01 0. -1.
       -4    1    3    3    0  502 -0.12483213562E+03 -0.42461760045E+03  0.57734018196E+03  0.72746578428E+03  0.12699999809E+01 0.  1.
</event>
<event>
 5   0  0.1186664E-04  0.1497662E+04  0.7818609E-02  0.8886009E-01
       -2   -1    0    0    0  501  0.00000000000E+00  0.00000000000E+00  0.68211999819E+03  0.68211999819E+03  0.25500000920E-02 0. -1.
        2   -1    0    0  501    0  0.00000000000E+00  0.00000000000E+00 -0.82206661983E+03  0.82206661983E+03  0.25500000920E-02 0.  1.
    10030    2    1    2    0    0  0.00000000000E+00  0.00000000000E+00 -0.13994662164E+03  0.15041866180E+04  0.14976622867E+04 0.  0.
        3    1    3    3  502    0 -0.51520768889E+03 -0.46037266322E+03  0.22001642055E+03  0.72511322374E+03  0.10100000352E+00 0. -1.
       -3    1    3    3    0  502  0.51520768889E+03  0.46037266322E+03 -0.35996304219E+03  0.77907339428E+03  0.10100000352E+00 0.  1.
</event>
<event>
 5   0  0.1228286E-04  0.1496844E+04  0.7818609E-02  0.8886555E-01
        2   -1    0    0  501    0  0.00000000000E+00  0.00000000000E+00  0.44091718122E+03  0.44091718123E+03  0.25500000920E-02 0. -1.
       -2   -1    0    0    0  501  0.00000000000E+00  0.00000000000E+00 -0.12703866437E+04  0.12703866437E+04  0.25500000920E-02 0.  1.
    10030    2    1    2    0    0  0.00000000000E+00  0.00000000000E+00 -0.82946946247E+03  0.17113038249E+04  0.14968437434E+04 0.  0.
        2    1    3    3  502    0 -0.38164589046E+03  0.19096198933E+03 -0.11176537660E+04  0.11963569734E+04  0.25500000920E-02 0.  1.
       -2    1    3    3    0  502  0.38164589046E+03 -0.19096198933E+03  0.28818430355E+03  0.51494685153E+03  0.25500000920E-02 0. -1.
</event>
<event>
 5   0  0.6668433E-05  0.1496770E+04  0.7818609E-02  0.8886603E-01
       -1   -1    0    0    0  501  0.00000000000E+00  0.00000000000E+00  0.59204680293E+03  0.59204680295E+03  0.50400001928E-02 0.  1.
        1   -1    0    0  501    0  0.00000000000E+00  0.00000000000E+00 -0.94600683499E+03  0.94600683500E+03  0.50400001928E-02 0. -1.
    10030    2    1    2    0    0  0.00000000000E+00  0.00000000000E+00 -0.35396003205E+03  0.15380536380E+04  0.14967702860E+04 0.  0.
        1    1    3    3  502    0  0.41619751703E+03  0.11976407203E+03 -0.80415553039E+03  0.91336187966E+03  0.50400001928E-02 0. -1.
       -1    1    3    3    0  502 -0.41619751703E+03 -0.11976407203E+03  0.45019549834E+03  0.62469175829E+03  0.50400001928E-02 0.  1.
</event>
<event>
 5   0  0.1219810E-04  0.1500417E+04  0.7818609E-02  0.8884176E-01
       -2   -1    0    0    0  501  0.00000000000E+00  0.00000000000E+00  0.31102385085E+03  0.31102385086E+03  0.25500000920E-02 0. -1.
        2   -1    0    0  501    0  0.00000000000E+00  0.00000000000E+00 -0.18095483064E+04  0.18095483064E+04  0.25500000920E-02 0.  1.
    10030    2    1    2    0    0  0.00000000000E+00  0.00000000000E+00 -0.14985244556E+04  0.21205721573E+04  0.15004168522E+04 0.  0.
        1    1    3    3  502    0  0.13408703082E+03  0.15249674162E+03 -0.17699685229E+04  0.17815788391E+04  0.50400001928E-02 0.  1.
       -1    1    3    3    0  502 -0.13408703082E+03 -0.15249674162E+03  0.27144406731E+03  0.33899331814E+03  0.50400001928E-02 0. -1.
</event>
<event>
 5   0  0.6509279E-05  0.1499714E+04  0.7818609E-02  0.8884643E-01
        1   -1    0    0  501    0  0.00000000000E+00  0.00000000000E+00  0.17056786514E+04  0.17056786514E+04  0.50400001928E-02 0. -1.
       -1   -1    0    0    0  501  0.00000000000E+00  0.00000000000E+00 -0.32965520585E+03  0.32965520589E+03  0.50400001928E-02 0.  1.
    10030    2    1    2    0    0  0.00000000000E+00  0.00000000000E+00  0.13760234455E+04  0.20353338573E+04  0.14997144354E+04 0.  0.
        2    1    3    3  502    0  0.20686850705E+03  0.57408539463E+03  0.12794497791E+04  0.14175190852E+04  0.25500000920E-02 0. -1.
       -2    1    3    3    0  502 -0.20686850705E+03 -0.57408539463E+03  0.96573666372E+02  0.61781477206E+03  0.25500000920E-02 0.  1.
</event>
<event>
 5   0  0.1254487E-04  0.1499937E+04  0.7818609E-02  0.8884495E-01
       -2   -1    0    0    0  501  0.00000000000E+00  0.00000000000E+00  0.48995530645E+03  0.48995530646E+03  0.25500000920E-02 0.  1.
        2   -1    0    0  501    0  0.00000000000E+00  0.00000000000E+00 -0.11479677180E+04  0.11479677180E+04  0.25500000920E-02 0. -1.
    10030    2    1    2    0    0  0.00000000000E+00  0.00000000000E+00 -0.65801241155E+03  0.16379230245E+04  0.14999371655E+04 0.  0.
        5    1    3    3  502    0 -0.42667096367E+03 -0.51991390874E+03  0.33286214231E+02  0.67341565604E+03  0.46999998093E+01 0.  1.
       -5    1    3    3    0  502  0.42667096367E+03  0.51991390874E+03 -0.69129862578E+03  0.96450736843E+03  0.46999998093E+01 0. -1.
</event>
<event>
 5   0  0.6509279E-05  0.1499284E+04  0.7818609E-02  0.8884929E-01
       -1   -1    0    0    0  501  0.00000000000E+00  0.00000000000E+00  0.53792686393E+03  0.53792686396E+03  0.50400001928E-02 0.  1.
        1   -1    0    0  501    0  0.00000000000E+00  0.00000000000E+00 -0.10446829416E+04  0.10446829416E+04  0.50400001928E-02 0. -1.
    10030    2    1    2    0    0  0.00000000000E+00  0.00000000000E+00 -0.50675607764E+03  0.15826098055E+04  0.14992838538E+04 0.  0.
        2    1    3    3  502    0 -0.62640431660E+03 -0.25721962507E+03 -0.59283878168E+03  0.90000118025E+03  0.25500000920E-02 0. -1.
       -2    1    3    3    0  502  0.62640431660E+03  0.25721962507E+03  0.86082704044E+02  0.68260862529E+03  0.25500000920E-02 0.  1.
</event>
<event>
 5   0  0.6361716E-05  0.1496403E+04  0.7818609E-02  0.8886848E-01
        1   -1    0    0  501    0  0.00000000000E+00  0.00000000000E+00  0.67723474159E+03  0.67723474161E+03  0.50400001928E-02 0. -1.
       -1   -1    0    0    0  501  0.00000000000E+00  0.00000000000E+00 -0.82660472626E+03  0.82660472628E+03  0.50400001928E-02 0.  1.
    10030    2    1    2    0    0  0.00000000000E+00  0.00000000000E+00 -0.14936998467E+03  0.15038394679E+04  0.14964029380E+04 0.  0.
        3    1    3    3  502    0 -0.72581674051E+03  0.11029202105E+03 -0.21973228454E+03  0.76632666519E+03  0.10100000352E+00 0.  1.
       -3    1    3    3    0  502  0.72581674051E+03 -0.11029202105E+03  0.70362299875E+02  0.73751280270E+03  0.10100000352E+00 0. -1.
</event>
<event>
 5   0  0.6364378E-05  0.1502329E+04  0.7818609E-02  0.8882906E-01
        1   -1    0    0  501    0  0.00000000000E+00  0.00000000000E+00  0.74979484509E+03  0.74979484511E+03  0.50400001928E-02 0. -1.
       -1   -1    0    0    0  501  0.00000000000E+00  0.00000000000E+00 -0.75253677941E+03  0.75253677942E+03  0.50400001928E-02 0.  1.
    10030    2    1    2    0    0  0.00000000000E+00  0.00000000000E+00 -0.27419343168E+01  0.15023316245E+04  0.15023291224E+04 0.  0.
        5    1    3    3  502    0  0.63733948391E+03 -0.39214795682E+03 -0.66520674177E+02  0.75128471825E+03  0.46999998093E+01 0. -1.
       -5    1    3    3    0  502 -0.63733948391E+03  0.39214795682E+03  0.63778739860E+02  0.75104690628E+03  0.46999998093E+01 0.  1.
</event>
<event>
 5   0  0.1219810E-04  0.1506081E+04  0.7818609E-02  0.8880419E-01
       -2   -1    0    0    0  501  0.00000000000E+00  0.00000000000E+00  0.28277489613E+03  0.28277489615E+03  0.25500000920E-02 0.  1.
        2   -1    0    0  501    0  0.00000000000E+00  0.00000000000E+00 -0.20053752647E+04  0.20053752647E+04  0.25500000920E-02 0. -1.
    10030    2    1    2    0    0  0.00000000000E+00  0.00000000000E+00 -0.17226003685E+04  0.22881501608E+04  0.15060807179E+04 0.  0.
        1    1    3    3  502    0 -0.87492464426E+02 -0.17667948355E+03 -0.19654681610E+04  0.19753317856E+04  0.50400001928E-02 0. -1.
       -1    1    3    3    0  502  0.87492464426E+02  0.17667948355E+03  0.24286779246E+03  0.31281837523E+03  0.50400001928E-02 0.  1.
</event>
<event>
 5   0  0.6361716E-05  0.1503389E+04  0.7818609E-02  0.8882202E-01
        1   -1    0    0  501    0  0.00000000000E+00  0.00000000000E+00  0.13139897704E+04  0.13139897704E+04  0.50400001928E-02 0.  1.
       -1   -1    0    0    0  501  0.00000000000E+00  0.00000000000E+00 -0.43002204483E+03  0.43002204486E+03  0.50400001928E-02 0. -1.
    10030    2    1    2    0    0  0.00000000000E+00  0.00000000000E+00  0.88396772555E+03  0.17440118152E+04  0.15033889290E+04 0.  0.
        3    1    3    3  502    0 -0.16854066426E+03  0.53881709353E+03 -0.13375199342E+03  0.58018912584E+03  0.10100000352E+00 0. -1.
       -3    1    3    3    0  502  0.16854066426E+03 -0.53881709353E+03  0.10177197190E+04  0.11638226894E+04  0.10100000352E+00 0.  1.
</event>
<event>
 5   0  0.1228286E-04  0.1502891E+04  0.7818609E-02  0.8882533E-01
        2   -1    0    0  501    0  0.00000000000E+00  0.00000000000E+00  0.13411688235E+04  0.13411688235E+04  0.25500000920E-02 0. -1.
       -2   -1    0    0    0  501  0.00000000000E+00  0.00000000000E+00 -0.42102851185E+03  0.42102851186E+03  0.25500000920E-02 0.  1.
    10030    2    1    2    0    0  0.00000000000E+00  0.00000000000E+00  0.92014031164E+03  0.17621973354E+04  0.15028909660E+04 0.  0.
        2    1    3    3  502    0 -0.58056238392E+03 -0.47640320804E+03  0.43000156066E+03  0.86539819761E+03  0.25500000920E-02 0. -1.
       -2    1    3    3    0  502  0.58056238392E+03  0.47640320804E+03  0.49013875098E+03  0.89679913775E+03  0.25500000920E-02 0.  1.
</event>
<event>
 5   0  0.6542036E-05  0.1498149E+04  0.7818609E-02  0.8885685E-01
       -1   -1    0    0    0  501  0.00000000000E+00  0.00000000000E+00  0.57880713240E+03  0.57880713243E+03  0.50400001928E-02 0. -1.
        1   -1    0    0  501    0  0.00000000000E+00  0.00000000000E+00 -0.96942961782E+03  0.96942961784E+03  0.50400001928E-02 0.  1.
    10030    2    1    2    0    0  0.00000000000E+00  0.00000000000E+00 -0.39062248542E+03  0.15482367503E+04  0.14981492278E+04 0.  0.
        4    1    3    3  502    0  0.31589012663E+03  0.70567117982E+02  0.50280683725E+03  0.59798212241E+03  0.12699999809E+01 0. -1.
       -4    1    3    3    0  502 -0.31589012663E+03 -0.70567117982E+02 -0.89342932267E+03  0.95025462785E+03  0.12699999809E+01 0.  1.
</event>
<event>
 5   0  0.6364378E-05  0.1499229E+04  0.7818609E-02  0.8884966E-01
        1   -1    0    0  501    0  0.00000000000E+00  0.00000000000E+00  0.76970831491E+03  0.76970831493E+03  0.50400001928E-02 0. -1.
       -1   -1    0    0    0  501  0.00000000000E+00  0.00000000000E+00 -0.73004505054E+03  0.73004505056E+03  0.50400001928E-02 0.  1.
    10030    2    1    2    0    0  0.00000000000E+00  0.00000000000E+00  0.39663264376E+02  0.14997533655E+04  0.14992287960E+04 0.  0.
        5    1    3    3  502    0 -0.15785625304E+03 -0.71875853520E+03 -0.12293209687E+03  0.74610107826E+03  0.46999998093E+01 0.  1.
       -5    1    3    3    0  502  0.15785625304E+03  0.71875853520E+03  0.16259536125E+03  0.75365228723E+03  0.46999998093E+01 0. -1.
</event>
<event>
 5   0  0.1254487E-04  0.1500692E+04  0.7818609E-02  0.8883993E-01
       -2   -1    0    0    0  501  0.00000000000E+00  0.00000000000E+00  0.66994080138E+03  0.66994080139E+03  0.25500000920E-02 0.  1.
        2   -1    0    0  501    0  0.00000000000E+00  0.00000000000E+00 -0.84040135136E+03  0.84040135137E+03  0.25500000920E-02 0. -1.
    10030    2    1    2    0    0  0.00000000000E+00  0.00000000000E+00 -0.17046054998E+03  0.15103421528E+04  0.15006920468E+04 0.  0.
        5    1    3    3  502    0  0.50354495228E+03 -0.55149353008E+03 -0.15846102052E+03  0.76343606000E+03  0.46999998093E+01 0. -1.
       -5    1    3    3    0  502 -0.50354495228E+03  0.55149353008E+03 -0.11999529464E+02  0.74690609275E+03  0.46999998093E+01 0.  1.
</event>
<event>
 5   0  0.6364378E-05  0.1471785E+04  0.7818609E-02  0.8903435E-01
       -1   -1    0    0    0  501  0.00000000000E+00  0.00000000000E+00  0.68937903511E+03  0.68937903513E+03  0.50400001928E-02 0. -1.
        1   -1    0    0  501    0  0.00000000000E+00  0.00000000000E+00 -0.78554477343E+03  0.78554477344E+03  0.50400001928E-02 0.  1.
    10030    2    1    2    0    0  0.00000000000E+00  0.00000000000E+00 -0.96165738318E+02  0.14749238086E+04  0.14717854436E+04 0.  0.
        5    1    3    3  502    0  0.32388685108E+02 -0.21861608276E+03 -0.75148697672E+03  0.78332418879E+03  0.46999998093E+01 0.  1.
       -5    1    3    3    0  502 -0.32388685108E+02  0.21861608276E+03  0.65532123841E+03  0.69159961977E+03  0.46999998093E+01 0. -1.
</event>
<event>
 5   0  0.6509279E-05  0.1495524E+04  0.7818609E-02  0.8887435E-01
        1   -1    0    0  501    0  0.00000000000E+00  0.00000000000E+00  0.19320595946E+04  0.19320595946E+04  0.50400001928E-02 0.  1.
       -1   -1    0    0    0  501  0.00000000000E+00  0.00000000000E+00 -0.28940533195E+03  0.28940533200E+03  0.50400001928E-02 0. -1.
    10030    2    1    2    0    0  0.00000000000E+00  0.00000000000E+00  0.16426542627E+04  0.22214649266E+04  0.14955244544E+04 0.  0.
        2    1    3    3  502    0 -0.33914419088E+03 -0.66622830435E+03  0.84570832435E+03  0.11287610489E+04  0.25500000920E-02 0. -1.
       -2    1    3    3    0  502  0.33914419088E+03  0.66622830435E+03  0.79694593834E+03  0.10927038777E+04  0.25500000920E-02 0.  1.
</event>
<event>
 5   0  0.1219810E-04  0.1501430E+04  0.7818609E-02  0.8883503E-01
        2   -1    0    0  501    0  0.00000000000E+00  0.00000000000E+00  0.82529094413E+03  0.82529094413E+03  0.25500000920E-02 0.  1.
       -2   -1    0    0    0  501  0.00000000000E+00  0.00000000000E+00 -0.68287795546E+03  0.68287795547E+03  0.25500000920E-02 0. -1.
    10030    2    1    2    0    0  0.00000000000E+00  0.00000000000E+00  0.14241298867E+03  0.15081688996E+04  0.15014299752E+04 0.  0.
        1    1    3    3  502    0  0.55370024915E+03  0.31504183317E+03  0.47015111136E+03  0.79175589047E+03  0.50400001928E-02 0.  1.
       -1    1    3    3    0  502 -0.55370024915E+03 -0.31504183317E+03 -0.32773812269E+03  0.71641300913E+03  0.50400001928E-02 0. -1.
</event>
<event>
 5   0  0.6542036E-05  0.1501024E+04  0.7818609E-02  0.8883772E-01
       -1   -1    0    0    0  501  0.00000000000E+00  0.00000000000E+00  0.28713891585E+03  0.28713891589E+03  0.50400001928E-02 0.  1.
        1   -1    0    0  501    0  0.00000000000E+00  0.00000000000E+00 -0.19616587682E+04  0.19616587682E+04  0.50400001928E-02 0. -1.
    10030    2    1    2    0    0  0.00000000000E+00  0.00000000000E+00 -0.16745198523E+04  0.22487976841E+04  0.15010244129E+04 0.  0.
        4    1    3    3  502    0  0.47766609578E+03 -0.40872321958E+03 -0.14514156662E+04  0.15817169843E+04  0.12699999809E+01 0. -1.
       -4    1    3    3    0  502 -0.47766609578E+03  0.40872321958E+03 -0.22310418609E+03  0.66708069979E+03  0.12699999809E+01 0.  1.
</event>
<event>
 5   0  0.1219810E-04  0.1497223E+04  0.7818609E-02  0.8886302E-01
       -2   -1    0    0    0  501  0.00000000000E+00  0.00000000000E+00  0.58633567913E+03  0.58633567914E+03  0.25500000920E-02 0. -1.
        2   -1    0    0  501    0  0.00000000000E+00  0.00000000000E+00 -0.95579934501E+03  0.95579934501E+03  0.25500000920E-02 0.  1.
    10030    2    1    2    0    0  0.00000000000E+00  0.00000000000E+00 -0.36946366588E+03  0.15421350242E+04  0.14972231071E+04 0.  0.
        1    1    3    3  502    0  0.66598092731E+03 -0.23284923106E+03  0.73117121045E+02  0.70929223411E+03  0.50400001928E-02 0. -1.
       -1    1    3    3    0  502 -0.66598092731E+03  0.23284923106E+03 -0.44258078692E+03  0.83284279004E+03  0.50400001928E-02 0.  1.
</event>
<event>
 5   0  0.1219810E-04  0.1502045E+04  0.7818609E-02  0.8883094E-01
        2   -1    0    0  501    0  0.00000000000E+00  0.00000000000E+00  0.15362331012E+04  0.15362331012E+04  0.25500000920E-02 0. -1.
       -2   -1    0    0    0  501  0.00000000000E+00  0.00000000000E+00 -0.36715434144E+03  0.36715434145E+03  0.25500000920E-02 0.  1.
    10030    2    1    2    0    0  0.00000000000E+00  0.00000000000E+00  0.11690787597E+04  0.19033874426E+04  0.15020448097E+04 0.  0.
        1    1    3    3  502    0 -0.33386211965E+03  0.22507174548E+03  0.13879000740E+04  0.14451255381E+04  0.50400001928E-02 0. -1.
       -1    1    3    3    0  502  0.33386211965E+03 -0.22507174548E+03 -0.21882131422E+03  0.45826190452E+03  0.50400001928E-02 0.  1.
</event>
<event>
 5   0  0.6542036E-05  0.1503965E+04  0.7818609E-02  0.8881820E-01
        1   -1    0    0  501    0  0.00000000000E+00  0.00000000000E+00  0.98292712444E+03  0.98292712445E+03  0.50400001928E-02 0. -1.
       -1   -1    0    0    0  501  0.00000000000E+00  0.00000000000E+00 -0.57530005556E+03  0.57530005558E+03  0.50400001928E-02 0.  1.
    10030    2    1    2    0    0  0.00000000000E+00  0.00000000000E+00  0.40762706888E+03  0.15582271800E+04  0.15039654641E+04 0.  0.
        4    1    3    3  502    0 -0.64006435503E+03 -0.33088456179E+03  0.42677391560E+03  0.83743928720E+03  0.12699999809E+01 0. -1.
       -4    1    3    3    0  502  0.64006435503E+03  0.33088456179E+03 -0.19146846719E+02  0.72078789283E+03  0.12699999809E+01 0.  1.
</event>
<event>
 5   0  0.6364378E-05  0.1492752E+04  0.7818609E-02  0.8889287E-01
       -1   -1    0    0    0  501  0.00000000000E+00  0.00000000000E+00  0.53447167083E+03  0.53447167085E+03  0.50400001928E-02 0. -1.
        1   -1    0    0  501    0  0.00000000000E+00  0.00000000000E+00 -0.10422943327E+04  0.10422943327E+04  0.50400001928E-02 0.  1.
    10030    2    1    2    0    0  0.00000000000E+00  0.00000000000E+00 -0.50782266190E+03  0.15767660036E+04  0.14927515447E+04 0.  0.
        5    1    3    3  502    0 -0.51475071841E+02  0.34160446336E+03 -0.95274472984E+03  0.10134534536E+04  0.46999998093E+01 0.  1.
       -5    1    3    3    0  502  0.51475071841E+02 -0.34160446336E+03  0.44492206794E+03  0.56331254997E+03  0.46999998093E+01 0. -1.
</event>
<event>
 5   0  0.1219810E-04  0.1501712E+04  0.7818609E-02  0.8883315E-01
       -2   -1    0    0    0  501  0.00000000000E+00  0.00000000000E+00  0.41747765895E+03  0.41747765896E+03  0.25500000920E-02 0.  1.
        2   -1    0    0  501    0  0.00000000000E+00  0.00000000000E+00 -0.13504553405E+04  0.13504553405E+04  0.25500000920E-02 0. -1.
    10030    2    1    2    0    0  0.00000000000E+00  0.00000000000E+00 -0.93297768155E+03  0.17679329995E+04  0.15017122682E+04 0.  0.
        1    1    3    3  502    0 -0.45480254402E+03  0.44131362098E+03 -0.94060004923E+03  0.11341655606E+04  0.50400001928E-02 0. -1.
       -1    1    3    3    0  502  0.45480254402E+03 -0.44131362098E+03  0.76223676784E+01  0.63376743891E+03  0.50400001928E-02 0.  1.
</event>
<event>
 5   0  0.6542036E-05  0.1501242E+04  0.7818609E-02  0.8883628E-01
       -1   -1    0    0    0  501  0.00000000000E+00  0.00000000000E+00  0.13475611501E+04  0.13475611501E+04  0.50400001928E-02 0.  1.
        1   -1    0    0  501    0  0.00000000000E+00  0.00000000000E+00 -0.41811209133E+03  0.41811209136E+03  0.50400001928E-02 0. -1.
    10030    2    1    2    0    0  0.00000000000E+00  0.00000000000E+00  0.92944905878E+03  0.17656732415E+04  0.15012416337E+04 0.  0.
        4    1    3    3  502    0 -0.48613101162E+03  0.41651776371E+03  0.92570554022E+03  0.11254966762E+04  0.12699999809E+01 0.  1.
       -4    1    3    3    0  502  0.48613101162E+03 -0.41651776371E+03  0.37435185563E+01  0.64017656531E+03  0.12699999809E+01 0. -1.
</event>
<event>
 5   0  0.6668433E-05  0.1501813E+04  0.7818609E-02  0.8883248E-01
       -1   -1    0    0    0  501  0.00000000000E+00  0.00000000000E+00  0.85877971878E+03  0.85877971880E+03  0.50400001928E-02 0. -1.
        1   -1    0    0  501    0  0.00000000000E+00  0.00000000000E+00 -0.65658334996E+03  0.65658334998E+03  0.50400001928E-02 0.  1.
    10030    2    1    2    0    0  0.00000000000E+00  0.00000000000E+00  0.20219636882E+03  0.15153630688E+04  0.15018128574E+04 0.  0.
        1    1    3    3  502    0  0.60807945373E+03 -0.31823287603E+03 -0.20632713080E+03  0.71666147543E+03  0.50400001928E-02 0.  1.
       -1    1    3    3    0  502 -0.60807945373E+03  0.31823287603E+03  0.40852349962E+03  0.79870159334E+03  0.50400001928E-02 0. -1.
</event>
<event>
 5   0  0.6364378E-05  0.1499988E+04  0.7818609E-02  0.8884461E-01
        1   -1    0    0  501    0  0.00000000000E+00  0.00000000000E+00  0.14429464210E+04  0.14429464210E+04  0.50400001928E-02 0. -1.
       -1   -1    0    0    0  501  0.00000000000E+00  0.00000000000E+00 -0.38982094657E+03  0.38982094660E+03  0.50400001928E-02 0.  1.
    10030    2    1    2    0    0  0.00000000000E+00  0.00000000000E+00  0.10531254744E+04  0.18327673676E+04  0.14999876529E+04 0.  0.
        5    1    3    3  502    0 -0.62800327507E+03  0.18624882961E+03  0.80306391783E+02  0.65996056442E+03  0.46999998093E+01 0.  1.
       -5    1    3    3    0  502  0.62800327507E+03 -0.18624882961E+03  0.97281908261E+03  0.11728068032E+04  0.46999998093E+01 0. -1.
</event>
<event>
 5   0  0.1216921E-04  0.1500526E+04  0.7818609E-02  0.8884103E-01
       -2   -1    0    0    0  501  0.00000000000E+00  0.00000000000E+00  0.13656518561E+04  0.13656518561E+04  0.25500000920E-02 0.  1.
        2   -1    0    0  501    0  0.00000000000E+00  0.00000000000E+00 -0.41218008956E+03  0.41218008957E+03  0.25500000920E-02 0. -1.
    10030    2    1    2    0    0  0.00000000000E+00  0.00000000000E+00  0.95347176650E+03  0.17778319456E+04  0.15005259136E+04 0.  0.
        4    1    3    3  502    0 -0.29088247750E+03 -0.69019543548E+03  0.42494839090E+03  0.86114174368E+03  0.12699999809E+01 0.  1.
       -4    1    3    3    0  502  0.29088247750E+03  0.69019543548E+03  0.52852337560E+03  0.91669020194E+03  0.12699999809E+01 0. -1.
</event>
<event>
 5   0  0.1228286E-04  0.1499638E+04  0.7818609E-02  0.8884694E-01
        2   -1    0    0  501    0  0.00000000000E+00  0.00000000000E+00  0.13999477722E+04  0.13999477722E+04  0.25500000920E-02 0.  1.
       -2   -1    0    0    0  501  0.00000000000E+00  0.00000000000E+00 -0.40160666220E+03  0.40160666221E+03  0.25500000920E-02 0. -1.
    10030    2    1    2    0    0  0.00000000000E+00  0.00000000000E+00  0.99834110999E+03  0.18015544344E+04  0.14996377590E+04 0.  0.
        2    1    3    3  502    0 -0.44613569342E+03 -0.35604218905E+03  0.10832984614E+04  0.12244748481E+04  0.25500000920E-02 0.  1.
       -2    1    3    3    0  502  0.44613569342E+03  0.35604218905E+03 -0.84957351365E+02  0.57707958627E+03  0.25500000920E-02 0. -1.
</event>
<event>
 5   0  0.6364378E-05  0.1500089E+04  0.7818609E-02  0.8884394E-01
       -1   -1    0    0    0  501  0.00000000000E+00  0.00000000000E+00  0.18729942730E+04  0.18729942730E+04  0.50400001928E-02 0.  1.
        1   -1    0    0  501    0  0.00000000000E+00  0.00000000000E+00 -0.30035681027E+03  0.30035681031E+03  0.50400001928E-02 0. -1.
    10030    2    1    2    0    0  0.00000000000E+00  0.00000000000E+00  0.15726374627E+04  0.21733510833E+04  0.15000887781E+04 0.  0.
        5    1    3    3  502    0  0.19473045731E+03 -0.59079408048E+03  0.13934169803E+04  0.15259720074E+04  0.46999998093E+01 0.  1.
       -5    1    3    3    0  502 -0.19473045731E+03  0.59079408048E+03  0.17922048243E+03  0.64737907586E+03  0.46999998093E+01 0. -1.
</event>
<event>
 5   0  0.6668433E-05  0.1500511E+04  0.7818609E-02  0.8884113E-01
       -1   -1    0    0    0  501  0.00000000000E+00  0.00000000000E+00  0.28293957952E+03  0.28293957957E+03  0.50400001928E-02 0. -1.
        1   -1    0    0  501    0  0.00000000000E+00  0.00000000000E+00 -0.19894113263E+04  0.19894113263E+04  0.50400001928E-02 0.  1.
    10030    2    1    2    0    0  0.00000000000E+00  0.00000000000E+00 -0.17064717468E+04  0.22723509059E+04  0.15005108520E+04 0.  0.
        1    1    3    3  502    0  0.34152523983E+02 -0.48605026550E+03  0.10722939804E+02  0.48736663504E+03  0.50400001928E-02 0. -1.
       -1    1    3    3    0  502 -0.34152523983E+02  0.48605026550E+03 -0.17171946866E+04  0.17849842708E+04  0.50400001928E-02 0.  1.
</event>
<event>
 5   0  0.1186664E-04  0.1498639E+04  0.7818609E-02  0.8885359E-01
       -2   -1    0    0    0  501  0.00000000000E+00  0.00000000000E+00  0.57673797588E+03  0.57673797589E+03  0.25500000920E-02 0.  1.
        2   -1    0    0  501    0  0.00000000000E+00  0.00000000000E+00 -0.97354348855E+03  0.97354348855E+03  0.25500000920E-02 0. -1.
    10030    2    1    2    0    0  0.00000000000E+00  0.00000000000E+00 -0.39680551267E+03  0.15502814644E+04  0.14986387170E+04 0.  0.
        3    1    3    3  502    0  0.47976578997E+03  0.49613888746E+03 -0.50026386406E+03  0.85240421911E+03  0.10100000352E+00 0. -1.
       -3    1    3    3    0  502 -0.47976578997E+03 -0.49613888746E+03  0.10345835139E+03  0.69787724533E+03  0.10100000352E+00 0.  1.
</event>
<event>
 5   0  0.1216921E-04  0.1496923E+04  0.7818609E-02  0.8886502E-01
       -2   -1    0    0    0  501  0.00000000000E+00  0.00000000000E+00  0.36556510791E+03  0.36556510792E+03  0.25500000920E-02 0. -1.
        2   -1    0    0  501    0  0.00000000000E+00  0.00000000000E+00 -0.15324062607E+04  0.15324062607E+04  0.25500000920E-02 0.  1.
    10030    2    1    2    0    0  0.00000000000E+00  0.00000000000E+00 -0.11668411528E+04  0.18979713686E+04  0.14969225231E+04 0.  0.
        4    1    3    3  502    0 -0.24095457086E+03  0.38233758012E+03 -0.13398802094E+04  0.14140444543E+04  0.12699999809E+01 0.  1.
       -4    1    3    3    0  502  0.24095457086E+03 -0.38233758012E+03  0.17303905659E+03  0.48392691431E+03  0.12699999809E+01 0. -1.
</event>
<event>
 5   0  0.1216921E-04  0.1501327E+04  0.7818609E-02  0.8883571E-01
       -2   -1    0    0    0  501  0.00000000000E+00  0.00000000000E+00  0.54985863037E+03  0.54985863037E+03  0.25500000920E-02 0.  1.
        2   -1    0    0  501    0  0.00000000000E+00  0.00000000000E+00 -0.10248016526E+04  0.10248016526E+04  0.25500000920E-02 0. -1.
    10030    2    1    2    0    0  0.00000000000E+00  0.00000000000E+00 -0.47494302223E+03  0.15746602830E+04  0.15013274568E+04 0.  0.
        4    1    3    3  502    0 -0.43465329607E+03 -0.47973406968E+03 -0.63606882784E+03  0.90755354225E+03  0.12699999809E+01 0. -1.
       -4    1    3    3    0  502  0.43465329607E+03  0.47973406968E+03  0.16112580561E+03  0.66710674073E+03  0.12699999809E+01 0.  1.
</event>
<event>
 5   0  0.6361716E-05  0.1497210E+04  0.7818609E-02  0.8886310E-01
       -1   -1    0    0    0  501  0.00000000000E+00  0.00000000000E+00  0.30356271058E+03  0.30356271062E+03  0.50400001928E-02 0.  1.
        1   -1    0    0  501    0  0.00000000000E+00  0.00000000000E+00 -0.18461078963E+04  0.18461078963E+04  0.50400001928E-02 0. -1.
    10030    2    1    2    0    0  0.00000000000E+00  0.00000000000E+00 -0.15425451857E+04  0.21496706069E+04  0.14972100949E+04 0.  0.
        3    1    3    3  502    0 -0.10091593633E+03 -0.36931314257E+03  0.15236559378E+03  0.41205765113E+03  0.10100000352E+00 0.  1.
       -3    1    3    3    0  502  0.10091593633E+03  0.36931314257E+03 -0.16949107795E+04  0.17376129558E+04  0.10100000352E+00 0. -1.
</event>
<event>
 5   0  0.6364378E-05  0.1501888E+04  0.7818609E-02  0.8883199E-01
       -1   -1    0    0    0  501  0.00000000000E+00  0.00000000000E+00  0.25492912796E+03  0.25492912801E+03  0.50400001928E-02 0.  1.
        1   -1    0    0  501    0  0.00000000000E+00  0.00000000000E+00 -0.22120522739E+04  0.22120522739E+04  0.50400001928E-02 0. -1.
    10030    2    1    2    0    0  0.00000000000E+00  0.00000000000E+00 -0.19571231459E+04  0.24669814019E+04  0.15018875554E+04 0.  0.
        5    1    3    3  502    0 -0.48470211396E+03  0.48148784861E+03 -0.46664382447E+03  0.82737248960E+03  0.46999998093E+01 0.  1.
       -5    1    3    3    0  502  0.48470211396E+03 -0.48148784861E+03 -0.14904793215E+04  0.16396089123E+04  0.46999998093E+01 0. -1.
</event>
<event>
 5   0  0.6361716E-05  0.1497180E+04  0.7818609E-02  0.8886331E-01
       -1   -1    0    0    0  501  0.00000000000E+00  0.00000000000E+00  0.38269878541E+03  0.38269878544E+03  0.50400001928E-02 0.  1.
        1   -1    0    0  501    0  0.00000000000E+00  0.00000000000E+00 -0.14643024152E+04  0.14643024152E+04  0.50400001928E-02 0. -1.
    10030    2    1    2    0    0  0.00000000000E+00  0.00000000000E+00 -0.10816036298E+04  0.18470012006E+04  0.14971796897E+04 0.  0.
        3    1    3    3  502    0  0.72221541840E+03 -0.13015338782E+03 -0.35843904910E+03  0.81670899166E+03  0.10100000352E+00 0.  1.
       -3    1    3    3    0  502 -0.72221541840E+03  0.13015338782E+03 -0.72316458070E+03  0.10302922090E+04  0.10100000352E+00 0. -1.
</event>
<event>
 5   0  0.6509279E-05  0.1499014E+04  0.7818609E-02  0.8885109E-01
        1   -1    0    0  501    0  0.00000000000E+00  0.00000000000E+00  0.71386174280E+03  0.71386174282E+03  0.50400001928E-02 0.  1.
       -1   -1    0    0    0  501  0.00000000000E+00  0.00000000000E+00 -0.78693237225E+03  0.78693237226E+03  0.50400001928E-02 0. -1.
    10030    2    1    2    0    0  0.00000000000E+00  0.00000000000E+00 -0.73070629443E+02  0.15007941151E+04  0.14990142291E+04 0.  0.
        2    1    3    3  502    0  0.41289938407E+03 -0.41736443127E+03  0.42993844075E+03  0.72768539404E+03  0.25500000920E-02 0.  1.
       -2    1    3    3    0  502 -0.41289938407E+03  0.41736443127E+03 -0.50300907019E+03  0.77310872105E+03  0.25500000920E-02 0. -1.
</event>
<event>
 5   0  0.1186664E-04  0.1500325E+04  0.7818609E-02  0.8884237E-01
        2   -1    0    0  501    0  0.00000000000E+00  0.00000000000E+00  0.39180125141E+03  0.39180125142E+03  0.25500000920E-02 0.  1.
       -2   -1    0    0    0  501  0.00000000000E+00  0.00000000000E+00 -0.14362983195E+04  0.14362983195E+04  0.25500000920E-02 0. -1.
    10030    2    1    2    0    0  0.00000000000E+00  0.00000000000E+00 -0.10444970680E+04  0.18280995709E+04  0.15003246035E+04 0.  0.
        3    1    3    3  502    0  0.27559400413E+03  0.36726746186E+03 -0.12450648826E+04  0.13270358004E+04  0.10100000352E+00 0. -1.
       -3    1    3    3    0  502 -0.27559400413E+03 -0.36726746186E+03  0.20056781450E+03  0.50106377046E+03  0.10100000352E+00 0.  1.
</event>
<event>
 5   0  0.1186664E-04  0.1499671E+04  0.7818609E-02  0.8884672E-01
       -2   -1    0    0    0  501  0.00000000000E+00  0.00000000000E+00  0.91505899606E+03  0.91505899606E+03  0.25500000920E-02 0. -1.
        2   -1    0    0  501    0  0.00000000000E+00  0.00000000000E+00 -0.61444452026E+03  0.61444452026E+03  0.25500000920E-02 0.  1.
    10030    2    1    2    0    0  0.00000000000E+00  0.00000000000E+00  0.30061447580E+03  0.15295035163E+04  0.14996706116E+04 0.  0.
        3    1    3    3  502    0  0.31294060224E+03 -0.29672803235E+03  0.77592128345E+03  0.88771233743E+03  0.10100000352E+00 0. -1.
       -3    1    3    3    0  502 -0.31294060224E+03  0.29672803235E+03 -0.47530680765E+03  0.64179117890E+03  0.10100000352E+00 0.  1.
</event>
<event>
 5   0  0.6361716E-05  0.1499815E+04  0.7818609E-02  0.8884576E-01
        1   -1    0    0  501    0  0.00000000000E+00  0.00000000000E+00  0.12918793533E+04  0.12918793533E+04  0.50400001928E-02 0. -1.
       -1   -1    0    0    0  501  0.00000000000E+00  0.00000000000E+00 -0.43530481283E+03  0.43530481286E+03  0.50400001928E-02 0.  1.
    10030    2    1    2    0    0  0.00000000000E+00  0.00000000000E+00  0.85657454043E+03  0.17271841661E+04  0.14998150554E+04 0.  0.
        3    1    3    3  502    0 -0.69969225293E+03  0.13346233338E+03  0.15826306200E+03  0.72967708627E+03  0.10100000352E+00 0. -1.
       -3    1    3    3    0  502  0.69969225293E+03 -0.13346233338E+03  0.69831147844E+03  0.99750707985E+03  0.10100000352E+00 0.  1.
</event>
<event>
 5   0  0.1228286E-04  0.1500686E+04  0.7818609E-02  0.8883997E-01
        2   -1    0    0  501    0  0.00000000000E+00  0.00000000000E+00  0.84798749487E+03  0.84798749488E+03  0.25500000920E-02 0. -1.
       -2   -1    0    0    0  501  0.00000000000E+00  0.00000000000E+00 -0.66394199462E+03  0.66394199462E+03  0.25500000920E-02 0.  1.
    10030    2    1    2    0    0  0.00000000000E+00  0.00000000000E+00  0.18404550026E+03  0.15119294895E+04  0.15006858549E+04 0.  0.
        2    1    3    3  502    0  0.11368997101E+03 -0.54487144824E+03  0.59898684846E+03  0.81767692229E+03  0.25500000920E-02 0. -1.
       -2    1    3    3    0  502 -0.11368997101E+03  0.54487144824E+03 -0.41494134820E+03  0.69425256721E+03  0.25500000920E-02 0.  1.
</event>
<event>
 5   0  0.1219810E-04  0.1495848E+04  0.7818609E-02  0.8887219E-01
       -2   -1    0    0    0  501  0.00000000000E+00  0.00000000000E+00  0.39531443165E+03  0.39531443166E+03  0.25500000920E-02 0.  1.
        2   -1    0    0  501    0  0.00000000000E+00  0.00000000000E+00 -0.14150507386E+04  0.14150507386E+04  0.25500000920E-02 0. -1.
    10030    2    1    2    0    0  0.00000000000E+00  0.00000000000E+00 -0.10197363070E+04  0.18103651703E+04  0.14958475571E+04 0.  0.
        1    1    3    3  502    0  0.54689112880E+02 -0.73783911695E+02  0.38846394720E+03  0.39917314914E+03  0.50400001928E-02 0.  1.
       -1    1    3    3    0  502 -0.54689112880E+02  0.73783911695E+02 -0.14082002542E+04  0.14111920211E+04  0.50400001928E-02 0. -1.
</event>
<event>
 5   0  0.1216921E-04  0.1495556E+04  0.7818609E-02  0.8887414E-01
       -2   -1    0    0    0  501  0.00000000000E+00  0.00000000000E+00  0.40178957970E+03  0.40178957971E+03  0.25500000920E-02 0.  1.
        2   -1    0    0  501    0  0.00000000000E+00  0.00000000000E+00 -0.13917032913E+04  0.13917032913E+04  0.25500000920E-02 0. -1.
    10030    2    1    2    0    0  0.00000000000E+00  0.00000000000E+00 -0.98991371155E+03  0.17934928710E+04  0.14955559240E+04 0.  0.
        4    1    3    3  502    0 -0.10905532334E+03  0.71940877355E+03 -0.28818974726E+03  0.78262186932E+03  0.12699999809E+01 0.  1.
       -4    1    3    3    0  502  0.10905532334E+03 -0.71940877355E+03 -0.70172396430E+03  0.10108710016E+04  0.12699999809E+01 0. -1.
</event>
<event>
 5   0  0.6364378E-05  0.1496525E+04  0.7818609E-02  0.8886767E-01
        1   -1    0    0  501    0  0.00000000000E+00  0.00000000000E+00  0.10636366193E+04  0.10636366193E+04  0.50400001928E-02 0.  1.
       -1   -1    0    0    0  501  0.00000000000E+00  0.00000000000E+00 -0.52639867996E+03  0.52639867998E+03  0.50400001928E-02 0. -1.
    10030    2    1    2    0    0  0.00000000000E+00  0.00000000000E+00  0.53723793933E+03  0.15900352993E+04  0.14965251917E+04 0.  0.
        5    1    3    3  502    0  0.42753574679E+03 -0.24040002498E+03  0.86898949269E+03  0.99786963838E+03  0.46999998093E+01 0.  1.
       -5    1    3    3    0  502 -0.42753574679E+03  0.24040002498E+03 -0.33175155337E+03  0.59216566090E+03  0.46999998093E+01 0. -1.
</event>
<event>
 5   0  0.1219810E-04  0.1500575E+04  0.7818609E-02  0.8884071E-01
        2   -1    0    0  501    0  0.00000000000E+00  0.00000000000E+00  0.79777906244E+03  0.79777906244E+03  0.25500000920E-02 0.  1.
       -2   -1    0    0    0  501  0.00000000000E+00  0.00000000000E+00 -0.70562298125E+03  0.70562298125E+03  0.25500000920E-02 0. -1.
    10030    2    1    2    0    0  0.00000000000E+00  0.00000000000E+00  0.92156081190E+02  0.15034020437E+04  0.15005748771E+04 0.  0.
        1    1    3    3  502    0  0.56461482199E+03 -0.49239559653E+03  0.87239745698E+02  0.75422416691E+03  0.50400001928E-02 0.  1.
       -1    1    3    3    0  502 -0.56461482199E+03  0.49239559653E+03  0.49163354917E+01  0.74917787679E+03  0.50400001928E-02 0. -1.
</event>
<event>
 5   0  0.1186664E-04  0.1498074E+04  0.7818609E-02  0.8885735E-01
        2   -1    0    0  501    0  0.00000000000E+00  0.00000000000E+00  0.93556773593E+03  0.93556773594E+03  0.25500000920E-02 0. -1.
       -2   -1    0    0    0  501  0.00000000000E+00  0.00000000000E+00 -0.59969586405E+03  0.59969586406E+03  0.25500000920E-02 0.  1.
    10030    2    1    2    0    0  0.00000000000E+00  0.00000000000E+00  0.33587187188E+03  0.15352636000E+04  0.14980735653E+04 0.  0.
        3    1    3    3  502    0  0.21874557680E+03  0.53004496520E+03  0.66183238151E+03  0.87568225054E+03  0.10100000352E+00 0. -1.
       -3    1    3    3    0  502 -0.21874557680E+03 -0.53004496520E+03 -0.32596050962E+03  0.65958134945E+03  0.10100000352E+00 0.  1.
</event>
<event>
 5   0  0.6542036E-05  0.1500652E+04  0.7818609E-02  0.8884020E-01
       -1   -1    0    0    0  501  0.00000000000E+00  0.00000000000E+00  0.32971162697E+03  0.32971162701E+03  0.50400001928E-02 0.  1.
        1   -1    0    0  501    0  0.00000000000E+00  0.00000000000E+00 -0.17075186070E+04  0.17075186070E+04  0.50400001928E-02 0. -1.
    10030    2    1    2    0    0  0.00000000000E+00  0.00000000000E+00 -0.13778069801E+04  0.20372302341E+04  0.15006515093E+04 0.  0.
        4    1    3    3  502    0 -0.35868718892E+03 -0.35376041196E+03 -0.14437678259E+04  0.15291403063E+04  0.12699999809E+01 0. -1.
       -4    1    3    3    0  502  0.35868718892E+03  0.35376041196E+03  0.65960845802E+02  0.50808992772E+03  0.12699999809E+01 0.  1.
</event>
<event>
 5   0  0.1254487E-04  0.1502553E+04  0.7818609E-02  0.8882757E-01
        2   -1    0    0  501    0  0.00000000000E+00  0.00000000000E+00  0.84558707927E+03  0.84558707927E+03  0.25500000920E-02 0.  1.
       -2   -1    0    0    0  501  0.00000000000E+00  0.00000000000E+00 -0.66748502959E+03  0.66748502960E+03  0.25500000920E-02 0. -1.
    10030    2    1    2    0    0  0.00000000000E+00  0.00000000000E+00  0.17810204967E+03  0.15130721089E+04  0.15025534488E+04 0.  0.
        5    1    3    3  502    0  0.35581683325E+03 -0.25071271979E+03  0.70565458998E+03  0.82911578024E+03  0.46999998093E+01 0.  1.
       -5    1    3    3    0  502 -0.35581683325E+03  0.25071271979E+03 -0.52755254031E+03  0.68395632863E+03  0.46999998093E+01 0. -1.
</event>
<event>
 5   0  0.1228286E-04  0.1497018E+04  0.7818609E-02  0.8886438E-01
        2   -1    0    0  501    0  0.00000000000E+00  0.00000000000E+00  0.22439827301E+04  0.22439827301E+04  0.25500000920E-02 0.  1.
       -2   -1    0    0    0  501  0.00000000000E+00  0.00000000000E+00 -0.24967478506E+03  0.24967478507E+03  0.25500000920E-02 0. -1.
    10030    2    1    2    0    0  0.00000000000E+00  0.00000000000E+00  0.19943079450E+04  0.24936575151E+04  0.14970182441E+04 0.  0.
        2    1    3    3  502    0  0.59223470232E+03  0.39593869776E+03  0.61455152371E+03  0.94084162871E+03  0.25500000920E-02 0. -1.
       -2    1    3    3    0  502 -0.59223470232E+03 -0.39593869776E+03  0.13797564213E+04  0.15528158864E+04  0.25500000920E-02 0.  1.
</event>
<event>
 5   0  0.1228286E-04  0.1506325E+04  0.7818609E-02  0.8880258E-01
        2   -1    0    0  501    0  0.00000000000E+00  0.00000000000E+00  0.75198607769E+03  0.75198607770E+03  0.25500000920E-02 0.  1.
       -2   -1    0    0    0  501  0.00000000000E+00  0.00000000000E+00 -0.75434095554E+03  0.75434095554E+03  0.25500000920E-02 0. -1.
    10030    2    1    2    0    0  0.00000000000E+00  0.00000000000E+00 -0.23548778488E+01  0.15063270332E+04  0.15063251925E+04 0.  0.
        2    1    3    3  502    0  0.72881128783E+03 -0.18247114840E+03  0.51664683943E+02  0.75308090724E+03  0.25500000920E-02 0.  1.
       -2    1    3    3    0  502 -0.72881128783E+03  0.18247114840E+03 -0.54019561792E+02  0.75324612600E+03  0.25500000920E-02 0. -1.
</event>
<event>
 5   0  0.6361716E-05  0.1500175E+04  0.7818609E-02  0.8884336E-01
       -1   -1    0    0    0  501  0.00000000000E+00  0.00000000000E+00  0.76345356152E+03  0.76345356153E+03  0.50400001928E-02 0. -1.
        1   -1    0    0  501    0  0.00000000000E+00  0.00000000000E+00 -0.73695585861E+03  0.73695585862E+03  0.50400001928E-02 0.  1.
    10030    2    1    2    0    0  0.00000000000E+00  0.00000000000E+00  0.26497702912E+02  0.15004094202E+04  0.15001754230E+04 0.  0.
        3    1    3    3  502    0  0.22601147356E+03  0.15845331217E+03  0.71081224561E+03  0.76252389932E+03  0.10100000352E+00 0. -1.
       -3    1    3    3    0  502 -0.22601147356E+03 -0.15845331217E+03 -0.68431454270E+03  0.73788552084E+03  0.10100000352E+00 0.  1.
</event>
<event>
 5   0  0.6509279E-05  0.1502202E+04  0.7818609E-02  0.8882990E-01
       -1   -1    0    0    0  501  0.00000000000E+00  0.00000000000E+00  0.39136838225E+03  0.39136838229E+03  0.50400001928E-02 0. -1.
        1   -1    0    0  501    0  0.00000000000E+00  0.00000000000E+00 -0.14414875819E+04  0.14414875819E+04  0.50400001928E-02 0.  1.
    10030    2    1    2    0    0  0.00000000000E+00  0.00000000000E+00 -0.10501191997E+04  0.18328559642E+04  0.15022019345E+04 0.  0.
        2    1    3    3  502    0  0.48826917601E+03 -0.10106670929E+03  0.16030443231E+03  0.52375450260E+03  0.25500000920E-02 0. -1.
       -2    1    3    3    0  502 -0.48826917601E+03  0.10106670929E+03 -0.12104236320E+04  0.13091014616E+04  0.25500000920E-02 0.  1.
</event>
<event>
 5   0  0.1219810E-04  0.1498358E+04  0.7818609E-02  0.8885546E-01
        2   -1    0    0  501    0  0.00000000000E+00  0.00000000000E+00  0.16262089609E+04  0.16262089609E+04  0.25500000920E-02 0.  1.
       -2   -1    0    0    0  501  0.00000000000E+00  0.00000000000E+00 -0.34513963039E+03  0.34513963040E+03  0.25500000920E-02 0. -1.
    10030    2    1    2    0    0  0.00000000000E+00  0.00000000000E+00  0.12810693305E+04  0.19713485913E+04  0.14983579809E+04 0.  0.
        1    1    3    3  502    0  0.31312861721E+03 -0.62188536868E+03  0.10043799228E+04  0.12221170042E+04  0.50400001928E-02 0. -1.
       -1    1    3    3    0  502 -0.31312861721E+03  0.62188536868E+03  0.27668940771E+03  0.74923158707E+03  0.50400001928E-02 0.  1.
</event>
<event>
 5   0  0.6509279E-05  0.1501118E+04  0.7818609E-02  0.8883710E-01
        1   -1    0    0  501    0  0.00000000000E+00  0.00000000000E+00  0.56194929957E+03  0.56194929959E+03  0.50400001928E-02 0. -1.
       -1   -1    0    0    0  501  0.00000000000E+00  0.00000000000E+00 -0.10024720067E+04  0.10024720067E+04  0.50400001928E-02 0.  1.
    10030    2    1    2    0    0  0.00000000000E+00  0.00000000000E+00 -0.44052270712E+03  0.15644213063E+04  0.15011175064E+04 0.  0.
        2    1    3    3  502    0  0.70014625097E+03  0.67466556466E+02 -0.49318671439E+03  0.85906323647E+03  0.25500000920E-02 0.  1.
       -2    1    3    3    0  502 -0.70014625097E+03 -0.67466556466E+02  0.52664007271E+02  0.70535806982E+03  0.25500000920E-02 0. -1.
</event>
<event>
 5   0  0.6364378E-05  0.1502472E+04  0.7818609E-02  0.8882811E-01
        1   -1    0    0  501    0  0.00000000000E+00  0.00000000000E+00  0.23054070882E+04  0.23054070882E+04  0.50400001928E-02 0. -1.
       -1   -1    0    0    0  501  0.00000000000E+00  0.00000000000E+00 -0.24479633936E+03  0.24479633941E+03  0.50400001928E-02 0.  1.
    10030    2    1    2    0    0  0.00000000000E+00  0.00000000000E+00  0.20606107489E+04  0.25502034276E+04  0.15024715851E+04 0.  0.
        5    1    3    3  502    0  0.51867125258E+00  0.50086121336E+03  0.79991271113E+02  0.50723063543E+03  0.46999998093E+01 0.  1.
       -5    1    3    3    0  502 -0.51867125258E+00 -0.50086121336E+03  0.19806194777E+04  0.20429727922E+04  0.46999998093E+01 0. -1.
</event>
<event>
 5   0  0.1254487E-04  0.1500207E+04  0.7818609E-02  0.8884315E-01
       -2   -1    0    0    0  501  0.00000000000E+00  0.00000000000E+00  0.14964587567E+04  0.14964587568E+04  0.25500000920E-02 0. -1.
        2   -1    0    0  501    0  0.00000000000E+00  0.00000000000E+00 -0.37599102279E+03  0.37599102280E+03  0.25500000920E-02 0.  1.
    10030    2    1    2    0    0  0.00000000000E+00  0.00000000000E+00  0.11204677340E+04  0.18724497795E+04  0.15002067304E+04 0.  0.
        5    1    3    3  502    0  0.56960218037E+03 -0.80166770452E+02  0.11611003066E+04  0.12957813732E+04  0.46999998093E+01 0. -1.
       -5    1    3    3    0  502 -0.56960218037E+03  0.80166770452E+02 -0.40632572668E+02  0.57666840639E+03  0.46999998093E+01 0.  1.
</event>
<event>
 5   0  0.6509279E-05  0.1500548E+04  0.7818609E-02  0.8884089E-01
        1   -1    0    0  501    0  0.00000000000E+00  0.00000000000E+00  0.49355518947E+03  0.49355518949E+03  0.50400001928E-02 0. -1.
       -1   -1    0    0    0  501  0.00000000000E+00  0.00000000000E+00 -0.11405226572E+04  0.11405226572E+04  0.50400001928E-02 0.  1.
    10030    2    1    2    0    0  0.00000000000E+00  0.00000000000E+00 -0.64696746773E+03  0.16340778467E+04  0.15005477349E+04 0.  0.
        2    1    3    3  502    0  0.45042626352E+03 -0.41365552590E+03 -0.79680659931E+03  0.10044378874E+04  0.25500000920E-02 0.  1.
       -2    1    3    3    0  502 -0.45042626352E+03  0.41365552590E+03  0.14983913158E+03  0.62963995929E+03  0.25500000920E-02 0. -1.
</event>
<event>
 5   0  0.6361716E-05  0.1500802E+04  0.7818609E-02  0.8883920E-01
        1   -1    0    0  501    0  0.00000000000E+00  0.00000000000E+00  0.81689214112E+03  0.81689214114E+03  0.50400001928E-02 0. -1.
       -1   -1    0    0    0  501  0.00000000000E+00  0.00000000000E+00 -0.68932185389E+03  0.68932185390E+03  0.50400001928E-02 0.  1.
    10030    2    1    2    0    0  0.00000000000E+00  0.00000000000E+00  0.12757028724E+03  0.15062139950E+04  0.15008019259E+04 0.  0.
        3    1    3    3  502    0 -0.54649317925E+03 -0.45954844421E+03 -0.16783277103E+03  0.73348988866E+03  0.10100000352E+00 0.  1.
       -3    1    3    3    0  502  0.54649317925E+03  0.45954844421E+03  0.29540305827E+03  0.77272410638E+03  0.10100000352E+00 0. -1.
</event>
<event>
 5   0  0.6364378E-05  0.1493489E+04  0.7818609E-02  0.8888794E-01
       -1   -1    0    0    0  501  0.00000000000E+00  0.00000000000E+00  0.94455124037E+03  0.94455124039E+03  0.50400001928E-02 0. -1.
        1   -1    0    0  501    0  0.00000000000E+00  0.00000000000E+00 -0.59036194169E+03  0.59036194171E+03  0.50400001928E-02 0.  1.
    10030    2    1    2    0    0  0.00000000000E+00  0.00000000000E+00  0.35418929868E+03  0.15349131821E+04  0.14934886733E+04 0.  0.
        5    1    3    3  502    0  0.35654758757E+03 -0.20955055760E+03 -0.46189598613E+03  0.62000613738E+03  0.46999998093E+01 0.  1.
       -5    1    3    3    0  502 -0.35654758757E+03  0.20955055760E+03  0.81608528481E+03  0.91490704472E+03  0.46999998093E+01 0. -1.
</event>
<event>
 5   0  0.1228286E-04  0.1505030E+04  0.7818609E-02  0.8881115E-01
       -2   -1    0    0    0  501  0.00000000000E+00  0.00000000000E+00  0.53973213509E+03  0.53973213510E+03  0.25500000920E-02 0.  1.
        2   -1    0    0  501    0  0.00000000000E+00  0.00000000000E+00 -0.10491846432E+04  0.10491846433E+04  0.25500000920E-02 0. -1.
    10030    2    1    2    0    0  0.00000000000E+00  0.00000000000E+00 -0.50945250816E+03  0.15889167783E+04  0.15050297906E+04 0.  0.
        2    1    3    3  502    0  0.34191595282E+03  0.63051598872E+03 -0.14394012779E+02  0.71740094678E+03  0.25500000920E-02 0.  1.
       -2    1    3    3    0  502 -0.34191595282E+03 -0.63051598872E+03 -0.49505849538E+03  0.87151583157E+03  0.25500000920E-02 0. -1.
</event>
<event>
 5   0  0.1186664E-04  0.1499477E+04  0.7818609E-02  0.8884801E-01
       -2   -1    0    0    0  501  0.00000000000E+00  0.00000000000E+00  0.52966460386E+03  0.52966460387E+03  0.25500000920E-02 0.  1.
        2   -1    0    0  501    0  0.00000000000E+00  0.00000000000E+00 -0.10612520940E+04  0.10612520940E+04  0.25500000920E-02 0. -1.
    10030    2    1    2    0    0  0.00000000000E+00  0.00000000000E+00 -0.53158749017E+03  0.15909166979E+04  0.14994768021E+04 0.  0.
        3    1    3    3  502    0  0.38170778722E+03 -0.46176091775E+03  0.21245308435E+03  0.63565737881E+03  0.10100000352E+00 0.  1.
       -3    1    3    3    0  502 -0.38170778722E+03  0.46176091775E+03 -0.74404057453E+03  0.95525931910E+03  0.10100000352E+00 0. -1.
</event>
<event>
 5   0  0.6361716E-05  0.1500394E+04  0.7818609E-02  0.8884191E-01
        1   -1    0    0  501    0  0.00000000000E+00  0.00000000000E+00  0.10816831537E+04  0.10816831537E+04  0.50400001928E-02 0.  1.
       -1   -1    0    0    0  501  0.00000000000E+00  0.00000000000E+00 -0.52029590496E+03  0.52029590499E+03  0.50400001928E-02 0. -1.
    10030    2    1    2    0    0  0.00000000000E+00  0.00000000000E+00  0.56138724870E+03  0.16019790587E+04  0.15003937021E+04 0.  0.
        3    1    3    3  502    0  0.64248712071E+03  0.15056309402E+03 -0.10030886825E+03  0.66747346375E+03  0.10100000352E+00 0. -1.
       -3    1    3    3    0  502 -0.64248712071E+03 -0.15056309402E+03  0.66169611695E+03  0.93450559492E+03  0.10100000352E+00 0.  1.
</event>
<event>
 5   0  0.1219810E-04  0.1499874E+04  0.7818609E-02  0.8884537E-01
       -2   -1    0    0    0  501  0.00000000000E+00  0.00000000000E+00  0.37716927400E+03  0.37716927401E+03  0.25500000920E-02 0.  1.
        2   -1    0    0  501    0  0.00000000000E+00  0.00000000000E+00 -0.14911217850E+04  0.14911217850E+04  0.25500000920E-02 0. -1.
    10030    2    1    2    0    0  0.00000000000E+00  0.00000000000E+00 -0.11139525110E+04  0.18682910590E+04  0.14998737562E+04 0.  0.
        1    1    3    3  502    0  0.35326823328E+03 -0.40123627292E+03  0.98155629000E+02  0.54352876546E+03  0.50400001928E-02 0.  1.
       -1    1    3    3    0  502 -0.35326823328E+03  0.40123627292E+03 -0.12121081400E+04  0.13247622936E+04  0.50400001928E-02 0. -1.
</event>
<event>
 5   0  0.1219810E-04  0.1501301E+04  0.7818609E-02  0.8883588E-01
       -2   -1    0    0    0  501  0.00000000000E+00  0.00000000000E+00  0.37458142561E+03  0.37458142562E+03  0.25500000920E-02 0.  1.
        2   -1    0    0  501    0  0.00000000000E+00  0.00000000000E+00 -0.15042818940E+04  0.15042818940E+04  0.25500000920E-02 0. -1.
    10030    2    1    2    0    0  0.00000000000E+00  0.00000000000E+00 -0.11297004684E+04  0.18788633196E+04  0.15013008445E+04 0.  0.
        1    1    3    3  502    0 -0.60402277539E+03  0.35288040864E+03 -0.90554062887E+03  0.11442779062E+04  0.50400001928E-02 0. -1.
       -1    1    3    3    0  502  0.60402277539E+03 -0.35288040864E+03 -0.22415983954E+03  0.73458541347E+03  0.50400001928E-02 0.  1.
</event>
<event>
 5   0  0.1254487E-04  0.1499309E+04  0.7818609E-02  0.8884913E-01
       -2   -1    0    0    0  501  0.00000000000E+00  0.00000000000E+00  0.33440879833E+03  0.33440879834E+03  0.25500000920E-02 0.  1.
        2   -1    0    0  501    0  0.00000000000E+00  0.00000000000E+00 -0.16805226231E+04  0.16805226231E+04  0.25500000920E-02 0. -1.
    10030    2    1    2    0    0  0.00000000000E+00  0.00000000000E+00 -0.13461138248E+04  0.20149314215E+04  0.14993085753E+04 0.  0.
        5    1    3    3  502    0 -0.30190099678E+03  0.16777914968E+03 -0.15672000263E+04  0.16048152752E+04  0.46999998093E+01 0. -1.
       -5    1    3    3    0  502  0.30190099678E+03 -0.16777914968E+03  0.22108620155E+03  0.41011614628E+03  0.46999998093E+01 0.  1.
</event>
<event>
 5   0  0.1186664E-04  0.1498853E+04  0.7818609E-02  0.8885216E-01
        2   -1    0    0  501    0  0.00000000000E+00  0.00000000000E+00  0.13644189207E+04  0.13644189207E+04  0.25500000920E-02 0. -1.
       -2   -1    0    0    0  501  0.00000000000E+00  0.00000000000E+00 -0.41163323883E+03  0.41163323884E+03  0.25500000920E-02 0.  1.
    10030    2    1    2    0    0  0.00000000000E+00  0.00000000000E+00  0.95278568185E+03  0.17760521595E+04  0.14988531342E+04 0.  0.
        3    1    3    3  502    0  0.21109120411E+03 -0.12385193726E+03 -0.36294459059E+03  0.43775288103E+03  0.10100000352E+00 0.  1.
       -3    1    3    3    0  502 -0.21109120411E+03  0.12385193726E+03  0.13157302724E+04  0.13382992785E+04  0.10100000352E+00 0. -1.
</event>
<event>
 5   0  0.6668433E-05  0.1499946E+04  0.7818609E-02  0.8884489E-01
       -1   -1    0    0    0  501  0.00000000000E+00  0.00000000000E+00  0.68564920096E+03  0.68564920098E+03  0.50400001928E-02 0. -1.
        1   -1    0    0  501    0  0.00000000000E+00  0.00000000000E+00 -0.82033117999E+03  0.82033118000E+03  0.50400001928E-02 0.  1.
    10030    2    1    2    0    0  0.00000000000E+00  0.00000000000E+00 -0.13468197902E+03  0.15059803810E+04  0.14999458898E+04 0.  0.
        1    1    3    3  502    0  0.67553442407E+03 -0.82001195201E+02 -0.38386868165E+03  0.78129771463E+03  0.50400001928E-02 0.  1.
       -1    1    3    3    0  502 -0.67553442407E+03  0.82001195201E+02  0.24918670263E+03  0.72468266635E+03  0.50400001928E-02 0. -1.
</event>
<event>
 5   0  0.6668433E-05  0.1500059E+04  0.7818609E-02  0.8884414E-01
        1   -1    0    0  501    0  0.00000000000E+00  0.00000000000E+00  0.27237891030E+04  0.27237891030E+04  0.50400001928E-02 0.  1.
       -1   -1    0    0    0  501  0.00000000000E+00  0.00000000000E+00 -0.20653006431E+03  0.20653006437E+03  0.50400001928E-02 0. -1.
    10030    2    1    2    0    0  0.00000000000E+00  0.00000000000E+00  0.25172590387E+04  0.29303191674E+04  0.15000591171E+04 0.  0.
        1    1    3    3  502    0 -0.36856402169E+03 -0.36794454584E+02 -0.15402418370E+02  0.37071620478E+03  0.50400001928E-02 0. -1.
       -1    1    3    3    0  502  0.36856402169E+03  0.36794454584E+02  0.25326614571E+04  0.25596029626E+04  0.50400001928E-02 0.  1.
</event>
<event>
 5   0  0.6361716E-05  0.1499213E+04  0.7818609E-02  0.8884976E-01
       -1   -1    0    0    0  501  0.00000000000E+00  0.00000000000E+00  0.60349271370E+03  0.60349271372E+03  0.50400001928E-02 0.  1.
        1   -1    0    0  501    0  0.00000000000E+00  0.00000000000E+00 -0.93109631227E+03  0.93109631228E+03  0.50400001928E-02 0. -1.
    10030    2    1    2    0    0  0.00000000000E+00  0.00000000000E+00 -0.32760359857E+03  0.15345890260E+04  0.14992129138E+04 0.  0.
        3    1    3    3  502    0 -0.57475858854E+03 -0.21579999372E+03  0.27645506592E+03  0.67330861131E+03  0.10100000352E+00 0.  1.
       -3    1    3    3    0  502  0.57475858854E+03  0.21579999372E+03 -0.60405866449E+03  0.86128041469E+03  0.10100000352E+00 0. -1.
</event>
<event>
 5   0  0.1254487E-04  0.1501062E+04  0.7818609E-02  0.8883747E-01
       -2   -1    0    0    0  501  0.00000000000E+00  0.00000000000E+00  0.43358197493E+03  0.43358197494E+03  0.25500000920E-02 0. -1.
        2   -1    0    0  501    0  0.00000000000E+00  0.00000000000E+00 -0.12991706915E+04  0.12991706915E+04  0.25500000920E-02 0.  1.
    10030    2    1    2    0    0  0.00000000000E+00  0.00000000000E+00 -0.86558871659E+03  0.17327526665E+04  0.15010622828E+04 0.  0.
        5    1    3    3  502    0 -0.46467603517E+02 -0.74300697208E+03 -0.32294098562E+03  0.81149958036E+03  0.46999998093E+01 0.  1.
       -5    1    3    3    0  502  0.46467603517E+02  0.74300697208E+03 -0.54264773097E+03  0.92125308611E+03  0.46999998093E+01 0. -1.
</event>
<event>
 5   0  0.1219810E-04  0.1502147E+04  0.7818609E-02  0.8883026E-01
        2   -1    0    0  501    0  0.00000000000E+00  0.00000000000E+00  0.72088427116E+03  0.72088427116E+03  0.25500000920E-02 0. -1.
       -2   -1    0    0    0  501  0.00000000000E+00  0.00000000000E+00 -0.78252742211E+03  0.78252742211E+03  0.25500000920E-02 0.  1.
    10030    2    1    2    0    0  0.00000000000E+00  0.00000000000E+00 -0.61643150952E+02  0.15034116933E+04  0.15021474100E+04 0.  0.
        1    1    3    3  502    0 -0.33854858885E+03  0.59658375078E+03 -0.33699471053E+03  0.76425961143E+03  0.50400001928E-02 0. -1.
       -1    1    3    3    0  502  0.33854858885E+03 -0.59658375078E+03  0.27535155958E+03  0.73915208184E+03  0.50400001928E-02 0.  1.
</event>
<event>
 5   0  0.6364378E-05  0.1505760E+04  0.7818609E-02  0.8880632E-01
       -1   -1    0    0    0  501  0.00000000000E+00  0.00000000000E+00  0.37635283790E+03  0.37635283794E+03  0.50400001928E-02 0.  1.
        1   -1    0    0  501    0  0.00000000000E+00  0.00000000000E+00 -0.15061084183E+04  0.15061084184E+04  0.50400001928E-02 0. -1.
    10030    2    1    2    0    0  0.00000000000E+00  0.00000000000E+00 -0.11297555804E+04  0.18824612563E+04  0.15057598447E+04 0.  0.
        5    1    3    3  502    0 -0.28618036378E+03  0.60201772425E+03 -0.12734997688E+03  0.67864913434E+03  0.46999998093E+01 0.  1.
       -5    1    3    3    0  502  0.28618036378E+03 -0.60201772425E+03 -0.10024056036E+04  0.12038121220E+04  0.46999998093E+01 0. -1.
</event>
<event>
 5   0  0.6364378E-05  0.1498821E+04  0.7818609E-02  0.8885238E-01
        1   -1    0    0  501    0  0.00000000000E+00  0.00000000000E+00  0.20688421598E+04  0.20688421598E+04  0.50400001928E-02 0.  1.
       -1   -1    0    0    0  501  0.00000000000E+00  0.00000000000E+00 -0.27146382818E+03  0.27146382822E+03  0.50400001928E-02 0. -1.
    10030    2    1    2    0    0  0.00000000000E+00  0.00000000000E+00  0.17973783316E+04  0.23403059880E+04  0.14988206199E+04 0.  0.
        5    1    3    3  502    0 -0.43914832440E+03  0.55197441323E+02  0.18429303091E+04  0.18953396061E+04  0.46999998093E+01 0.  1.
       -5    1    3    3    0  502  0.43914832440E+03 -0.55197441323E+02 -0.45551977501E+02  0.44496638188E+03  0.46999998093E+01 0. -1.
</event>
<event>
 5   0  0.1219810E-04  0.1487593E+04  0.7818609E-02  0.8892746E-01
       -2   -1    0    0    0  501  0.00000000000E+00  0.00000000000E+00  0.23979381033E+03  0.23979381035E+03  0.25500000920E-02 0.  1.
        2   -1    0    0  501    0  0.00000000000E+00  0.00000000000E+00 -0.23071205394E+04  0.23071205394E+04  0.25500000920E-02 0. -1.
    10030    2    1    2    0    0  0.00000000000E+00  0.00000000000E+00 -0.20673267291E+04  0.25469143498E+04  0.14875929888E+04 0.  0.
        1    1    3    3  502    0  0.30079793117E+03  0.26837679708E+03 -0.21038692415E+04  0.21421417521E+04  0.50400001928E-02 0. -1.
       -1    1    3    3    0  502 -0.30079793117E+03 -0.26837679708E+03  0.36542512418E+02  0.40477259769E+03  0.50400001928E-02 0.  1.
</event>
<event>
 5   0  0.6361716E-05  0.1500603E+04  0.7818609E-02  0.8884052E-01
        1   -1    0    0  501    0  0.00000000000E+00  0.00000000000E+00  0.24435733214E+04  0.24435733214E+04  0.50400001928E-02 0. -1.
       -1   -1    0    0    0  501  0.00000000000E+00  0.00000000000E+00 -0.23038085287E+03  0.23038085292E+03  0.50400001928E-02 0.  1.
    10030    2    1    2    0    0  0.00000000000E+00  0.00000000000E+00  0.22131924686E+04  0.26739541744E+04  0.15006032199E+04 0.  0.
        3    1    3    3  502    0 -0.69131585053E+02  0.52174437261E+03  0.20594753115E+04  0.21256610584E+04  0.10100000352E+00 0. -1.
       -3    1    3    3    0  502  0.69131585053E+02 -0.52174437261E+03  0.15371715706E+03  0.54829311594E+03  0.10100000352E+00 0.  1.
</event>
<event>
 5   0  0.6509279E-05  0.1490157E+04  0.7818609E-02  0.8891025E-01
        1   -1    0    0  501    0  0.00000000000E+00  0.00000000000E+00  0.99011485355E+03  0.99011485356E+03  0.50400001928E-02 0. -1.
       -1   -1    0    0    0  501  0.00000000000E+00  0.00000000000E+00 -0.56068413087E+03  0.56068413090E+03  0.50400001928E-02 0.  1.
    10030    2    1    2    0    0  0.00000000000E+00  0.00000000000E+00  0.42943072267E+03  0.15507989845E+04  0.14901566175E+04 0.  0.
        2    1    3    3  502    0 -0.31928507817E+03 -0.61427231338E+02 -0.48295843019E+03  0.58220710334E+03  0.25500000920E-02 0.  1.
       -2    1    3    3    0  502  0.31928507817E+03  0.61427231338E+02  0.91238915286E+03  0.96859188111E+03  0.25500000920E-02 0. -1.
</event>
<event>
 5   0  0.6542036E-05  0.1498222E+04  0.7818609E-02  0.8885636E-01
        1   -1    0    0  501    0  0.00000000000E+00  0.00000000000E+00  0.71016958860E+03  0.71016958862E+03  0.50400001928E-02 0. -1.
       -1   -1    0    0    0  501  0.00000000000E+00  0.00000000000E+00 -0.79018777829E+03  0.79018777830E+03  0.50400001928E-02 0.  1.
    10030    2    1    2    0    0  0.00000000000E+00  0.00000000000E+00 -0.80018189689E+02  0.15003573669E+04  0.14982220522E+04 0.  0.
        4    1    3    3  502    0  0.30518552313E+03 -0.19139247999E+03 -0.69775295707E+03  0.78525797476E+03  0.12699999809E+01 0.  1.
       -4    1    3    3    0  502 -0.30518552313E+03  0.19139247999E+03  0.61773476738E+03  0.71509939216E+03  0.12699999809E+01 0. -1.
</event>
<event>
 5   0  0.6542036E-05  0.1501554E+04  0.7818609E-02  0.8883420E-01
       -1   -1    0    0    0  501  0.00000000000E+00  0.00000000000E+00  0.47209832822E+03  0.47209832825E+03  0.50400001928E-02 0.  1.
        1   -1    0    0  501    0  0.00000000000E+00  0.00000000000E+00 -0.11939592153E+04  0.11939592153E+04  0.50400001928E-02 0. -1.
    10030    2    1    2    0    0  0.00000000000E+00  0.00000000000E+00 -0.72186088707E+03  0.16660575435E+04  0.15015540610E+04 0.  0.
        4    1    3    3  502    0  0.74585292264E+03  0.85495297571E+02 -0.35244335807E+03  0.82935153081E+03  0.12699999809E+01 0.  1.
       -4    1    3    3    0  502 -0.74585292264E+03 -0.85495297571E+02 -0.36941752899E+03  0.83670601273E+03  0.12699999809E+01 0. -1.
</event>
<event>
 5   0  0.6668433E-05  0.1499158E+04  0.7818609E-02  0.8885013E-01
       -1   -1    0    0    0  501  0.00000000000E+00  0.00000000000E+00  0.91139156631E+03  0.91139156633E+03  0.50400001928E-02 0. -1.
        1   -1    0    0  501    0  0.00000000000E+00  0.00000000000E+00 -0.61649540774E+03  0.61649540776E+03  0.50400001928E-02 0.  1.
    10030    2    1    2    0    0  0.00000000000E+00  0.00000000000E+00  0.29489615857E+03  0.15278869741E+04  0.14991580508E+04 0.  0.
        1    1    3    3  502    0 -0.18960753521E+03  0.30024726922E+03  0.82022658834E+03  0.89379589187E+03  0.50400001928E-02 0. -1.
       -1    1    3    3    0  502  0.18960753521E+03 -0.30024726922E+03 -0.52533042977E+03  0.63409108222E+03  0.50400001928E-02 0.  1.
</event>
<event>
 5   0  0.6361716E-05  0.1501949E+04  0.7818609E-02  0.8883158E-01
        1   -1    0    0  501    0  0.00000000000E+00  0.00000000000E+00  0.97735687522E+03  0.97735687523E+03  0.50400001928E-02 0. -1.
       -1   -1    0    0    0  501  0.00000000000E+00  0.00000000000E+00 -0.57702804785E+03  0.57702804787E+03  0.50400001928E-02 0.  1.
    10030    2    1    2    0    0  0.00000000000E+00  0.00000000000E+00  0.40032882737E+03  0.15543849231E+04  0.15019485075E+04 0.  0.
        3    1    3    3  502    0  0.37167301675E+03 -0.44100856392E+02 -0.47362355818E+03  0.60365967397E+03  0.10100000352E+00 0.  1.
       -3    1    3    3    0  502 -0.37167301675E+03  0.44100856392E+02  0.87395238555E+03  0.95072524913E+03  0.10100000352E+00 0. -1.
</event>
<event>
 5   0  0.6542036E-05  0.1475534E+04  0.7818609E-02  0.8900887E-01
        1   -1    0    0  501    0  0.00000000000E+00  0.00000000000E+00  0.94148265793E+03  0.94148265795E+03  0.50400001928E-02 0.  1.
       -1   -1    0    0    0  501  0.00000000000E+00  0.00000000000E+00 -0.57813086757E+03  0.57813086759E+03  0.50400001928E-02 0. -1.
    10030    2    1    2    0    0  0.00000000000E+00  0.00000000000E+00  0.36335179037E+03  0.15196135255E+04  0.14755340536E+04 0.  0.
        4    1    3    3  502    0 -0.33493836975E+03 -0.31012854423E+03 -0.41523792724E+03  0.61707987700E+03  0.12699999809E+01 0. -1.
       -4    1    3    3    0  502  0.33493836975E+03  0.31012854423E+03  0.77858971761E+03  0.90253364854E+03  0.12699999809E+01 0.  1.
</event>
<event>
 5   0  0.1254487E-04  0.1497755E+04  0.7818609E-02  0.8885947E-01
        2   -1    0    0  501    0  0.00000000000E+00  0.00000000000E+00  0.13363207770E+04  0.13363207770E+04  0.25500000920E-02 0.  1.
       -2   -1    0    0    0  501  0.00000000000E+00  0.00000000000E+00 -0.41967292785E+03  0.41967292786E+03  0.25500000920E-02 0. -1.
    10030    2    1    2    0    0  0.00000000000E+00  0.00000000000E+00  0.91664784912E+03  0.17559937048E+04  0.14977551910E+04 0.  0.
        5    1    3    3  502    0 -0.15536833528E+03  0.67716871848E+03  0.13067841623E+03  0.70696232669E+03  0.46999998093E+01 0. -1.
       -5    1    3    3    0  502  0.15536833528E+03 -0.67716871848E+03  0.78596943288E+03  0.10490313781E+04  0.46999998093E+01 0.  1.
</event>
<event>
 5   0  0.6509279E-05  0.1526653E+04  0.7818609E-02  0.8866920E-01
       -1   -1    0    0    0  501  0.00000000000E+00  0.00000000000E+00  0.38617705606E+03  0.38617705609E+03  0.50400001928E-02 0.  1.
        1   -1    0    0  501    0  0.00000000000E+00  0.00000000000E+00 -0.15088087135E+04  0.15088087135E+04  0.50400001928E-02 0. -1.
    10030    2    1    2    0    0  0.00000000000E+00  0.00000000000E+00 -0.11226316575E+04  0.18949857696E+04  0.15266529497E+04 0.  0.
        2    1    3    3  502    0  0.28746705502E+03 -0.30344289886E+03 -0.13541281328E+04  0.14171725021E+04  0.25500000920E-02 0. -1.
       -2    1    3    3    0  502 -0.28746705502E+03  0.30344289886E+03  0.23149647530E+03  0.47781326758E+03  0.25500000920E-02 0.  1.
</event>
<event>
 5   0  0.6361716E-05  0.1492154E+04  0.7818609E-02  0.8889687E-01
        1   -1    0    0  501    0  0.00000000000E+00  0.00000000000E+00  0.17013908449E+04  0.17013908449E+04  0.50400001928E-02 0.  1.
       -1   -1    0    0    0  501  0.00000000000E+00  0.00000000000E+00 -0.32716246736E+03  0.32716246739E+03  0.50400001928E-02 0. -1.
    10030    2    1    2    0    0  0.00000000000E+00  0.00000000000E+00  0.13742283775E+04  0.20285533123E+04  0.14921544515E+04 0.  0.
        3    1    3    3  502    0  0.66026965586E+03  0.16338032720E+03  0.11038829344E+04  0.12966135480E+04  0.10100000352E+00 0.  1.
       -3    1    3    3    0  502 -0.66026965586E+03 -0.16338032720E+03  0.27034544316E+03  0.73193976432E+03  0.10100000352E+00 0. -1.
</event>
<event>
 5   0  0.6509279E-05  0.1499391E+04  0.7818609E-02  0.8884858E-01
       -1   -1    0    0    0  501  0.00000000000E+00  0.00000000000E+00  0.11868686567E+04  0.11868686567E+04  0.50400001928E-02 0. -1.
        1   -1    0    0  501    0  0.00000000000E+00  0.00000000000E+00 -0.47355130117E+03  0.47355130120E+03  0.50400001928E-02 0.  1.
    10030    2    1    2    0    0  0.00000000000E+00  0.00000000000E+00  0.71331735554E+03  0.16604199579E+04  0.14993908053E+04 0.  0.
        2    1    3    3  502    0  0.56527582609E+03 -0.24734628543E+03  0.82821486146E+03  0.10327907829E+04  0.25500000920E-02 0. -1.
       -2    1    3    3    0  502 -0.56527582609E+03  0.24734628543E+03 -0.11489750592E+03  0.62762917503E+03  0.25500000920E-02 0.  1.
</event>
<event>
 5   0  0.1219810E-04  0.1501650E+04  0.7818609E-02  0.8883357E-01
       -2   -1    0    0    0  501  0.00000000000E+00  0.00000000000E+00  0.85991278004E+03  0.85991278004E+03  0.25500000920E-02 0.  1.
        2   -1    0    0  501    0  0.00000000000E+00  0.00000000000E+00 -0.65557558842E+03  0.65557558842E+03  0.25500000920E-02 0. -1.
    10030    2    1    2    0    0  0.00000000000E+00  0.00000000000E+00  0.20433719162E+03  0.15154883685E+04  0.15016495287E+04 0.  0.
        1    1    3    3  502    0  0.71785344219E+03  0.13434018924E+03 -0.73727536949E+02  0.73402765659E+03  0.50400001928E-02 0. -1.
       -1    1    3    3    0  502 -0.71785344219E+03 -0.13434018924E+03  0.27806472857E+03  0.78146071188E+03  0.50400001928E-02 0.  1.
</event>
<event>
 5   0  0.6668433E-05  0.1500658E+04  0.7818609E-02  0.8884016E-01
       -1   -1    0    0    0  501  0.00000000000E+00  0.00000000000E+00  0.75312631423E+03  0.75312631425E+03  0.50400001928E-02 0. -1.
        1   -1    0    0  501    0  0.00000000000E+00  0.00000000000E+00 -0.74754190795E+03  0.74754190797E+03  0.50400001928E-02 0.  1.
    10030    2    1    2    0    0  0.00000000000E+00  0.00000000000E+00  0.55844062795E+01  0.15006682222E+04  0.15006578316E+04 0.  0.
        1    1    3    3  502    0 -0.65381566408E+03  0.36026477088E+03  0.78475315277E+02  0.75061574914E+03  0.50400001928E-02 0.  1.
       -1    1    3    3    0  502  0.65381566408E+03 -0.36026477088E+03 -0.72890908997E+02  0.75005247308E+03  0.50400001928E-02 0. -1.
</event>
<event>
 5   0  0.1228286E-04  0.1500749E+04  0.7818609E-02  0.8883955E-01
        2   -1    0    0  501    0  0.00000000000E+00  0.00000000000E+00  0.69357402613E+03  0.69357402613E+03  0.25500000920E-02 0.  1.
       -2   -1    0    0    0  501  0.00000000000E+00  0.00000000000E+00 -0.81182631264E+03  0.81182631264E+03  0.25500000920E-02 0. -1.
    10030    2    1    2    0    0  0.00000000000E+00  0.00000000000E+00 -0.11825228651E+03  0.15054003388E+04  0.15007486721E+04 0.  0.
        2    1    3    3  502    0 -0.63579329938E+03 -0.35243416602E+03  0.12751153115E+03  0.73803939698E+03  0.25500000920E-02 0.  1.
       -2    1    3    3    0  502  0.63579329938E+03  0.35243416602E+03 -0.24576381766E+03  0.76736094180E+03  0.25500000920E-02 0. -1.
</event>
<event>
 5   0  0.4462875E-05  0.1499988E+04  0.7818609E-02  0.8884461E-01
       -3   -1    0    0    0  501  0.00000000000E+00  0.00000000000E+00  0.65439103995E+03  0.65439104775E+03  0.10100000352E+00 0. -1.
        3   -1    0    0  501    0  0.00000000000E+00  0.00000000000E+00 -0.85956405507E+03  0.85956406100E+03  0.10100000352E+00 0.  1.
    10030    2    1    2    0    0  0.00000000000E+00  0.00000000000E+00 -0.20517301512E+03  0.15139551088E+04  0.14999880350E+04 0.  0.
        4    1    3    3  502    0  0.22832870903E+03 -0.54764697059E+03  0.36042043395E+03  0.69423029743E+03  0.12699999809E+01 0. -1.
       -4    1    3    3    0  502 -0.22832870903E+03  0.54764697059E+03 -0.56559344907E+03  0.81972481132E+03  0.12699999809E+01 0.  1.
</event>
<event>
 5   0  0.6668433E-05  0.1505565E+04  0.7818609E-02  0.8880761E-01
        1   -1    0    0  501    0  0.00000000000E+00  0.00000000000E+00  0.18796731546E+04  0.18796731546E+04  0.50400001928E-02 0.  1.
       -1   -1    0    0    0  501  0.00000000000E+00  0.00000000000E+00 -0.30147864422E+03  0.30147864426E+03  0.50400001928E-02 0. -1.
    10030    2    1    2    0    0  0.00000000000E+00  0.00000000000E+00  0.15781945104E+04  0.21811517989E+04  0.15055647635E+04 0.  0.
        1    1    3    3  502    0 -0.17367379114E+03  0.62008906092E+03  0.22426423270E+03  0.68188523616E+03  0.50400001928E-02 0. -1.
       -1    1    3    3    0  502  0.17367379114E+03 -0.62008906092E+03  0.13539302777E+04  0.14992665627E+04  0.50400001928E-02 0.  1.
</event>
<event>
 5   0  0.6361716E-05  0.1499628E+04  0.7818609E-02  0.8884700E-01
        1   -1    0    0  501    0  0.00000000000E+00  0.00000000000E+00  0.85171904229E+03  0.85171904230E+03  0.50400001928E-02 0.  1.
       -1   -1    0    0    0  501  0.00000000000E+00  0.00000000000E+00 -0.66010152220E+03  0.66010152222E+03  0.50400001928E-02 0. -1.
    10030    2    1    2    0    0  0.00000000000E+00  0.00000000000E+00  0.19161752009E+03  0.15118205645E+04  0.14996280023E+04 0.  0.
        3    1    3    3  502    0 -0.34262004301E+03 -0.12116337411E+03 -0.56538335347E+03  0.67210669070E+03  0.10100000352E+00 0. -1.
       -3    1    3    3    0  502  0.34262004301E+03  0.12116337411E+03  0.75700087356E+03  0.83971387382E+03  0.10100000352E+00 0.  1.
</event>
<event>
 5   0  0.1186664E-04  0.1500579E+04  0.7818609E-02  0.8884068E-01
       -2   -1    0    0    0  501  0.00000000000E+00  0.00000000000E+00  0.33250226485E+03  0.33250226486E+03  0.25500000920E-02 0. -1.
        2   -1    0    0  501    0  0.00000000000E+00  0.00000000000E+00 -0.16930229941E+04  0.16930229941E+04  0.25500000920E-02 0.  1.
    10030    2    1    2    0    0  0.00000000000E+00  0.00000000000E+00 -0.13605207292E+04  0.20255252590E+04  0.15005785284E+04 0.  0.
        3    1    3    3  502    0 -0.23623316905E+03  0.69261906183E+03 -0.90372420977E+03  0.11628605817E+04  0.10100000352E+00 0. -1.
       -3    1    3    3    0  502  0.23623316905E+03 -0.69261906183E+03 -0.45679651947E+03  0.86266467725E+03  0.10100000352E+00 0.  1.
</event>
<event>
 5   0  0.1216921E-04  0.1503411E+04  0.7818609E-02  0.8882188E-01
       -2   -1    0    0    0  501  0.00000000000E+00  0.00000000000E+00  0.37091681528E+03  0.37091681528E+03  0.25500000920E-02 0.  1.
        2   -1    0    0  501    0  0.00000000000E+00  0.00000000000E+00 -0.15234169603E+04  0.15234169603E+04  0.25500000920E-02 0. -1.
    10030    2    1    2    0    0  0.00000000000E+00  0.00000000000E+00 -0.11525001450E+04  0.18943337756E+04  0.15034107453E+04 0.  0.
        4    1    3    3  502    0  0.20933961662E+03  0.52216021838E+03 -0.12044766416E+04  0.13293757790E+04  0.12699999809E+01 0. -1.
       -4    1    3    3    0  502 -0.20933961662E+03 -0.52216021838E+03  0.51976496624E+02  0.56495799653E+03  0.12699999809E+01 0.  1.
</event>
<event>
 5   0  0.6668433E-05  0.1500876E+04  0.7818609E-02  0.8883870E-01
       -1   -1    0    0    0  501  0.00000000000E+00  0.00000000000E+00  0.62071411277E+03  0.62071411279E+03  0.50400001928E-02 0. -1.
        1   -1    0    0  501    0  0.00000000000E+00  0.00000000000E+00 -0.90727359183E+03  0.90727359184E+03  0.50400001928E-02 0.  1.
    10030    2    1    2    0    0  0.00000000000E+00  0.00000000000E+00 -0.28655947906E+03  0.15279877046E+04  0.15008764408E+04 0.  0.
        1    1    3    3  502    0  0.16832235594E+02  0.61173341670E+03  0.29891209596E+03  0.68106500306E+03  0.50400001928E-02 0. -1.
       -1    1    3    3    0  502 -0.16832235594E+02 -0.61173341670E+03 -0.58547157502E+03  0.84692270157E+03  0.50400001928E-02 0.  1.
</event>
<event>
 5   0  0.6364378E-05  0.1499916E+04  0.7818609E-02  0.8884508E-01
       -1   -1    0    0    0  501  0.00000000000E+00  0.00000000000E+00  0.38524255791E+03  0.38524255794E+03  0.50400001928E-02 0. -1.
        1   -1    0    0  501    0  0.00000000000E+00  0.00000000000E+00 -0.14599563933E+04  0.14599563933E+04  0.50400001928E-02 0.  1.
    10030    2    1    2    0    0  0.00000000000E+00  0.00000000000E+00 -0.10747138354E+04  0.18451989512E+04  0.14999164449E+04 0.  0.
        5    1    3    3  502    0 -0.12257568964E+03  0.45582068384E+02 -0.14458025616E+04  0.14517126650E+04  0.46999998093E+01 0.  1.
       -5    1    3    3    0  502  0.12257568964E+03 -0.45582068384E+02  0.37108872626E+03  0.39348628617E+03  0.46999998093E+01 0. -1.
</event>
<event>
 5   0  0.1186664E-04  0.1513943E+04  0.7818609E-02  0.8875234E-01
        2   -1    0    0  501    0  0.00000000000E+00  0.00000000000E+00  0.24708707135E+04  0.24708707135E+04  0.25500000920E-02 0. -1.
       -2   -1    0    0    0  501  0.00000000000E+00  0.00000000000E+00 -0.23190430837E+03  0.23190430839E+03  0.25500000920E-02 0.  1.
    10030    2    1    2    0    0  0.00000000000E+00  0.00000000000E+00  0.22389664051E+04  0.27027750219E+04  0.15139426197E+04 0.  0.
        3    1    3    3  502    0  0.65386089662E+03  0.30584020887E+03  0.15263228085E+04  0.16884115705E+04  0.10100000352E+00 0. -1.
       -3    1    3    3    0  502 -0.65386089662E+03 -0.30584020887E+03  0.71264359666E+03  0.10143634514E+04  0.10100000352E+00 0.  1.
</event>
<event>
 5   0  0.6542036E-05  0.1501605E+04  0.7818609E-02  0.8883386E-01
        1   -1    0    0  501    0  0.00000000000E+00  0.00000000000E+00  0.72724414660E+03  0.72724414661E+03  0.50400001928E-02 0.  1.
       -1   -1    0    0    0  501  0.00000000000E+00  0.00000000000E+00 -0.77512394339E+03  0.77512394340E+03  0.50400001928E-02 0. -1.
    10030    2    1    2    0    0  0.00000000000E+00  0.00000000000E+00 -0.47879796791E+02  0.15023680900E+04  0.15016049424E+04 0.  0.
        4    1    3    3  502    0 -0.48803722487E+03 -0.44245094861E+03 -0.38434451786E+03  0.76266997849E+03  0.12699999809E+01 0. -1.
       -4    1    3    3    0  502  0.48803722487E+03  0.44245094861E+03  0.33646472106E+03  0.73969811153E+03  0.12699999809E+01 0.  1.
</event>
<event>
 5   0  0.1186664E-04  0.1499990E+04  0.7818609E-02  0.8884459E-01
        2   -1    0    0  501    0  0.00000000000E+00  0.00000000000E+00  0.95861870783E+03  0.95861870784E+03  0.25500000920E-02 0. -1.
       -2   -1    0    0    0  501  0.00000000000E+00  0.00000000000E+00 -0.58677410016E+03  0.58677410017E+03  0.25500000920E-02 0.  1.
    10030    2    1    2    0    0  0.00000000000E+00  0.00000000000E+00  0.37184460767E+03  0.15453928080E+04  0.14999901729E+04 0.  0.
        3    1    3    3  502    0 -0.33230341239E+03 -0.39576460091E+03  0.74591613175E+03  0.90743928889E+03  0.10100000352E+00 0. -1.
       -3    1    3    3    0  502  0.33230341239E+03  0.39576460091E+03 -0.37407152408E+03  0.63795351911E+03  0.10100000352E+00 0.  1.
</event>
<event>
 5   0  0.4462875E-05  0.1498860E+04  0.7818609E-02  0.8885211E-01
       -3   -1    0    0    0  501  0.00000000000E+00  0.00000000000E+00  0.87463409685E+03  0.87463410268E+03  0.10100000352E+00 0.  1.
        3   -1    0    0  501    0  0.00000000000E+00  0.00000000000E+00 -0.64214881594E+03  0.64214882389E+03  0.10100000352E+00 0. -1.
    10030    2    1    2    0    0  0.00000000000E+00  0.00000000000E+00  0.23248528090E+03  0.15167829266E+04  0.14988599136E+04 0.  0.
        4    1    3    3  502    0  0.17094342669E+03 -0.71464189638E+03 -0.32858792154E+02  0.73553790406E+03  0.12699999809E+01 0. -1.
       -4    1    3    3    0  502 -0.17094342669E+03  0.71464189638E+03  0.26534407306E+03  0.78124502251E+03  0.12699999809E+01 0.  1.
</event>
<event>
 5   0  0.6509279E-05  0.1498836E+04  0.7818609E-02  0.8885227E-01
       -1   -1    0    0    0  501  0.00000000000E+00  0.00000000000E+00  0.38886577856E+03  0.38886577859E+03  0.50400001928E-02 0.  1.
        1   -1    0    0  501    0  0.00000000000E+00  0.00000000000E+00 -0.14442706388E+04  0.14442706388E+04  0.50400001928E-02 0. -1.
    10030    2    1    2    0    0  0.00000000000E+00  0.00000000000E+00 -0.10554048602E+04  0.18331364174E+04  0.14988361170E+04 0.  0.
        2    1    3    3  502    0 -0.28138438475E+03 -0.68724010234E+03 -0.65092815608E+03  0.98751384528E+03  0.25500000920E-02 0.  1.
       -2    1    3    3    0  502  0.28138438475E+03  0.68724010234E+03 -0.40447670412E+03  0.84562257209E+03  0.25500000920E-02 0. -1.
</event>
<event>
 5   0  0.1254487E-04  0.1498625E+04  0.7818609E-02  0.8885368E-01
       -2   -1    0    0    0  501  0.00000000000E+00  0.00000000000E+00  0.61052854066E+03  0.61052854067E+03  0.25500000920E-02 0.  1.
        2   -1    0    0  501    0  0.00000000000E+00  0.00000000000E+00 -0.91964418131E+03  0.91964418131E+03  0.25500000920E-02 0. -1.
    10030    2    1    2    0    0  0.00000000000E+00  0.00000000000E+00 -0.30911564065E+03  0.15301727220E+04  0.14986247295E+04 0.  0.
        5    1    3    3  502    0 -0.74597384435E+03 -0.45585546431E+02 -0.20946638065E+03  0.77617863480E+03  0.46999998093E+01 0. -1.
       -5    1    3    3    0  502  0.74597384435E+03  0.45585546431E+02 -0.99649259999E+02  0.75399408719E+03  0.46999998093E+01 0.  1.
</event>
<event>
 5   0  0.6668433E-05  0.1500497E+04  0.7818609E-02  0.8884122E-01
        1   -1    0    0  501    0  0.00000000000E+00  0.00000000000E+00  0.60534823087E+03  0.60534823089E+03  0.50400001928E-02 0.  1.
       -1   -1    0    0    0  501  0.00000000000E+00  0.00000000000E+00 -0.92983348804E+03  0.92983348805E+03  0.50400001928E-02 0. -1.
    10030    2    1    2    0    0  0.00000000000E+00  0.00000000000E+00 -0.32448525717E+03  0.15351817189E+04  0.15004973269E+04 0.  0.
        1    1    3    3  502    0  0.11063853473E+03 -0.18617587851E+03 -0.89715759215E+03  0.92292691383E+03  0.50400001928E-02 0. -1.
       -1    1    3    3    0  502 -0.11063853473E+03  0.18617587851E+03  0.57267233498E+03  0.61225480511E+03  0.50400001928E-02 0.  1.
</event>
<event>
 5   0  0.6668433E-05  0.1497702E+04  0.7818609E-02  0.8885982E-01
       -1   -1    0    0    0  501  0.00000000000E+00  0.00000000000E+00  0.75886431457E+03  0.75886431459E+03  0.50400001928E-02 0. -1.
        1   -1    0    0  501    0  0.00000000000E+00  0.00000000000E+00 -0.73896985698E+03  0.73896985700E+03  0.50400001928E-02 0.  1.
    10030    2    1    2    0    0  0.00000000000E+00  0.00000000000E+00  0.19894457594E+02  0.14978341716E+04  0.14977020452E+04 0.  0.
        1    1    3    3  502    0  0.16702545847E+02  0.44666865443E+03  0.61082133115E+03  0.75689798553E+03  0.50400001928E-02 0. -1.
       -1    1    3    3    0  502 -0.16702545847E+02 -0.44666865443E+03 -0.59092687356E+03  0.74093618605E+03  0.50400001928E-02 0.  1.
</event>
<event>
 5   0  0.1254487E-04  0.1502793E+04  0.7818609E-02  0.8882597E-01
       -2   -1    0    0    0  501  0.00000000000E+00  0.00000000000E+00  0.33233382084E+03  0.33233382085E+03  0.25500000920E-02 0. -1.
        2   -1    0    0  501    0  0.00000000000E+00  0.00000000000E+00 -0.16988852988E+04  0.16988852988E+04  0.25500000920E-02 0.  1.
    10030    2    1    2    0    0  0.00000000000E+00  0.00000000000E+00 -0.13665514779E+04  0.20312191196E+04  0.15027934556E+04 0.  0.
        5    1    3    3  502    0 -0.18140474267E+03 -0.50583313061E+02 -0.16664486206E+04  0.16770627440E+04  0.46999998093E+01 0.  1.
       -5    1    3    3    0  502  0.18140474267E+03  0.50583313061E+02  0.29989714266E+03  0.35415637563E+03  0.46999998093E+01 0. -1.
</event>
<event>
 5   0  0.6542036E-05  0.1486827E+04  0.7818609E-02  0.8893260E-01
       -1   -1    0    0    0  501  0.00000000000E+00  0.00000000000E+00  0.14001733397E+04  0.14001733397E+04  0.50400001928E-02 0.  1.
        1   -1    0    0  501    0  0.00000000000E+00  0.00000000000E+00 -0.39471081798E+03  0.39471081801E+03  0.50400001928E-02 0. -1.
    10030    2    1    2    0    0  0.00000000000E+00  0.00000000000E+00  0.10054625217E+04  0.17948841577E+04  0.14868269089E+04 0.  0.
        4    1    3    3  502    0 -0.15678645099E+03 -0.30416507752E+03  0.12994440417E+04  0.13437465594E+04  0.12699999809E+01 0.  1.
       -4    1    3    3    0  502  0.15678645099E+03  0.30416507752E+03 -0.29398151998E+03  0.45113759828E+03  0.12699999809E+01 0. -1.
</event>
<event>
 5   0  0.6668433E-05  0.1497000E+04  0.7818609E-02  0.8886450E-01
        1   -1    0    0  501    0  0.00000000000E+00  0.00000000000E+00  0.59424256953E+03  0.59424256955E+03  0.50400001928E-02 0. -1.
       -1   -1    0    0    0  501  0.00000000000E+00  0.00000000000E+00 -0.94280052641E+03  0.94280052643E+03  0.50400001928E-02 0.  1.
    10030    2    1    2    0    0  0.00000000000E+00  0.00000000000E+00 -0.34855795689E+03  0.15370430960E+04  0.14969999431E+04 0.  0.
        1    1    3    3  502    0 -0.58998285666E+03  0.21790704399E+03 -0.59095307213E+03  0.86301146253E+03  0.50400001928E-02 0.  1.
       -1    1    3    3    0  502  0.58998285666E+03 -0.21790704399E+03  0.24239511524E+03  0.67403163345E+03  0.50400001928E-02 0. -1.
</event>
<event>
 5   0  0.1254487E-04  0.1499181E+04  0.7818609E-02  0.8884998E-01
       -2   -1    0    0    0  501  0.00000000000E+00  0.00000000000E+00  0.48141421175E+03  0.48141421175E+03  0.25500000920E-02 0.  1.
        2   -1    0    0  501    0  0.00000000000E+00  0.00000000000E+00 -0.11671564535E+04  0.11671564535E+04  0.25500000920E-02 0. -1.
    10030    2    1    2    0    0  0.00000000000E+00  0.00000000000E+00 -0.68574224171E+03  0.16485706652E+04  0.14991807150E+04 0.  0.
        5    1    3    3  502    0  0.68174433467E+03 -0.21321415103E+03 -0.93011406112E+02  0.72035326314E+03  0.46999998093E+01 0.  1.
       -5    1    3    3    0  502 -0.68174433467E+03  0.21321415103E+03 -0.59273083560E+03  0.92821740208E+03  0.46999998093E+01 0. -1.
</event>
<event>
 5   0  0.6364378E-05  0.1499642E+04  0.7818609E-02  0.8884691E-01
        1   -1    0    0  501    0  0.00000000000E+00  0.00000000000E+00  0.14116533099E+04  0.14116533099E+04  0.50400001928E-02 0. -1.
       -1   -1    0    0    0  501  0.00000000000E+00  0.00000000000E+00 -0.39827877920E+03  0.39827877923E+03  0.50400001928E-02 0.  1.
    10030    2    1    2    0    0  0.00000000000E+00  0.00000000000E+00  0.10133745307E+04  0.18099320891E+04  0.14996420332E+04 0.  0.
        5    1    3    3  502    0 -0.45488493086E+03  0.44902432644E+03  0.97979932885E+03  0.11698598039E+04  0.46999998093E+01 0. -1.
       -5    1    3    3    0  502  0.45488493086E+03 -0.44902432644E+03  0.33575201812E+02  0.64007228516E+03  0.46999998093E+01 0.  1.
</event>
<event>
 5   0  0.1186664E-04  0.1500284E+04  0.7818609E-02  0.8884264E-01
       -2   -1    0    0    0  501  0.00000000000E+00  0.00000000000E+00  0.44898996041E+03  0.44898996042E+03  0.25500000920E-02 0. -1.
        2   -1    0    0  501    0  0.00000000000E+00  0.00000000000E+00 -0.12532871811E+04  0.12532871811E+04  0.25500000920E-02 0.  1.
    10030    2    1    2    0    0  0.00000000000E+00  0.00000000000E+00 -0.80429722066E+03  0.17022771415E+04  0.15002844555E+04 0.  0.
        3    1    3    3  502    0 -0.60697609317E+03  0.40915077832E+03 -0.58820479072E+03  0.93904697598E+03  0.10100000352E+00 0.  1.
       -3    1    3    3    0  502  0.60697609317E+03 -0.40915077832E+03 -0.21609242994E+03  0.76323016551E+03  0.10100000352E+00 0. -1.
</event>
<event>
 5   0  0.6509279E-05  0.1501368E+04  0.7818609E-02  0.8883543E-01
       -1   -1    0    0    0  501  0.00000000000E+00  0.00000000000E+00  0.81202007115E+03  0.81202007117E+03  0.50400001928E-02 0. -1.
        1   -1    0    0  501    0  0.00000000000E+00  0.00000000000E+00 -0.69398130242E+03  0.69398130244E+03  0.50400001928E-02 0.  1.
    10030    2    1    2    0    0  0.00000000000E+00  0.00000000000E+00  0.11803876873E+03  0.15060013736E+04  0.15013683713E+04 0.  0.
        2    1    3    3  502    0  0.39958322008E+03 -0.16435339724E+03 -0.55675438989E+03  0.70473700032E+03  0.25500000920E-02 0.  1.
       -2    1    3    3    0  502 -0.39958322008E+03  0.16435339724E+03  0.67479315862E+03  0.80126437328E+03  0.25500000920E-02 0. -1.
</event>
<event>
 5   0  0.6542036E-05  0.1499206E+04  0.7818609E-02  0.8884981E-01
        1   -1    0    0  501    0  0.00000000000E+00  0.00000000000E+00  0.65717165334E+03  0.65717165336E+03  0.50400001928E-02 0. -1.
       -1   -1    0    0    0  501  0.00000000000E+00  0.00000000000E+00 -0.85503479348E+03  0.85503479350E+03  0.50400001928E-02 0.  1.
    10030    2    1    2    0    0  0.00000000000E+00  0.00000000000E+00 -0.19786314015E+03  0.15122064469E+04  0.14992059617E+04 0.  0.
        4    1    3    3  502    0 -0.10528343282E+02 -0.67849156344E+03  0.22232893223E+03  0.71406821430E+03  0.12699999809E+01 0. -1.
       -4    1    3    3    0  502  0.10528343282E+02  0.67849156344E+03 -0.42019207238E+03  0.79813823255E+03  0.12699999809E+01 0.  1.
</event>
<event>
 5   0  0.6668433E-05  0.1498226E+04  0.7818609E-02  0.8885633E-01
       -1   -1    0    0    0  501  0.00000000000E+00  0.00000000000E+00  0.19828214070E+04  0.19828214070E+04  0.50400001928E-02 0.  1.
        1   -1    0    0  501    0  0.00000000000E+00  0.00000000000E+00 -0.28301619342E+03  0.28301619347E+03  0.50400001928E-02 0. -1.
    10030    2    1    2    0    0  0.00000000000E+00  0.00000000000E+00  0.16998052136E+04  0.22658376005E+04  0.14982263740E+04 0.  0.
        1    1    3    3  502    0  0.22648382262E+03 -0.56860517416E+03  0.19667424578E+03  0.64287442395E+03  0.50400001928E-02 0. -1.
       -1    1    3    3    0  502 -0.22648382262E+03  0.56860517416E+03  0.15031309678E+04  0.16229631765E+04  0.50400001928E-02 0.  1.
</event>
<event>
 5   0  0.6542036E-05  0.1501269E+04  0.7818609E-02  0.8883609E-01
       -1   -1    0    0    0  501  0.00000000000E+00  0.00000000000E+00  0.42431809539E+03  0.42431809542E+03  0.50400001928E-02 0.  1.
        1   -1    0    0  501    0  0.00000000000E+00  0.00000000000E+00 -0.13279012049E+04  0.13279012049E+04  0.50400001928E-02 0. -1.
    10030    2    1    2    0    0  0.00000000000E+00  0.00000000000E+00 -0.90358310954E+03  0.17522193004E+04  0.15012694764E+04 0.  0.
        4    1    3    3  502    0 -0.32131390005E+03  0.49856002332E+03  0.85159896090E+02  0.59921493641E+03  0.12699999809E+01 0.  1.
       -4    1    3    3    0  502  0.32131390005E+03 -0.49856002332E+03 -0.98874300563E+03  0.11530043640E+04  0.12699999809E+01 0. -1.
</event>
<event>
 5   0  0.1228286E-04  0.1501762E+04  0.7818609E-02  0.8883282E-01
       -2   -1    0    0    0  501  0.00000000000E+00  0.00000000000E+00  0.23219351424E+03  0.23219351425E+03  0.25500000920E-02 0.  1.
        2   -1    0    0  501    0  0.00000000000E+00  0.00000000000E+00 -0.24282423063E+04  0.24282423063E+04  0.25500000920E-02 0. -1.
    10030    2    1    2    0    0  0.00000000000E+00  0.00000000000E+00 -0.21960487921E+04  0.26604358206E+04  0.15017617848E+04 0.  0.
        2    1    3    3  502    0  0.27964134224E+03 -0.42356448453E+03 -0.11770939053E+03  0.52101982061E+03  0.25500000920E-02 0.  1.
       -2    1    3    3    0  502 -0.27964134224E+03  0.42356448453E+03 -0.20783394015E+04  0.21394160000E+04  0.25500000920E-02 0. -1.
</event>
<event>
 5   0  0.1219810E-04  0.1501249E+04  0.7818609E-02  0.8883623E-01
       -2   -1    0    0    0  501  0.00000000000E+00  0.00000000000E+00  0.74999339297E+03  0.74999339297E+03  0.25500000920E-02 0.  1.
        2   -1    0    0  501    0  0.00000000000E+00  0.00000000000E+00 -0.75125580970E+03  0.75125580971E+03  0.25500000920E-02 0. -1.
    10030    2    1    2    0    0  0.00000000000E+00  0.00000000000E+00 -0.12624167359E+01  0.15012492027E+04  0.15012486719E+04 0.  0.
        1    1    3    3  502    0 -0.20287657295E+03 -0.54670472537E+03  0.47201251693E+03  0.75022715010E+03  0.50400001928E-02 0.  1.
       -1    1    3    3    0  502  0.20287657295E+03  0.54670472537E+03 -0.47327493366E+03  0.75102205257E+03  0.50400001928E-02 0. -1.
</event>
<event>
 5   0  0.1186664E-04  0.1490845E+04  0.7818609E-02  0.8890564E-01
        2   -1    0    0  501    0  0.00000000000E+00  0.00000000000E+00  0.12966221577E+04  0.12966221577E+04  0.25500000920E-02 0. -1.
       -2   -1    0    0    0  501  0.00000000000E+00  0.00000000000E+00 -0.42853993784E+03  0.42853993785E+03  0.25500000920E-02 0.  1.
    10030    2    1    2    0    0  0.00000000000E+00  0.00000000000E+00  0.86808221981E+03  0.17251620955E+04  0.14908445645E+04 0.  0.
        3    1    3    3  502    0 -0.71365955161E+03 -0.14693466411E+03  0.61610576868E+03  0.95419394231E+03  0.10100000352E+00 0. -1.
       -3    1    3    3    0  502  0.71365955161E+03  0.14693466411E+03  0.25197645113E+03  0.77096815320E+03  0.10100000352E+00 0.  1.
</event>
<event>
 5   0  0.1219810E-04  0.1500816E+04  0.7818609E-02  0.8883910E-01
        2   -1    0    0  501    0  0.00000000000E+00  0.00000000000E+00  0.95383441077E+03  0.95383441078E+03  0.25500000920E-02 0. -1.
       -2   -1    0    0    0  501  0.00000000000E+00  0.00000000000E+00 -0.59036685699E+03  0.59036685700E+03  0.25500000920E-02 0.  1.
    10030    2    1    2    0    0  0.00000000000E+00  0.00000000000E+00  0.36346755378E+03  0.15442012678E+04  0.15008160756E+04 0.  0.
        1    1    3    3  502    0 -0.30932172803E+03 -0.25514914366E+03  0.83436566722E+03  0.92571436394E+03  0.50400001928E-02 0. -1.
       -1    1    3    3    0  502  0.30932172803E+03  0.25514914366E+03 -0.47089811344E+03  0.61848690383E+03  0.50400001928E-02 0.  1.
</event>
<event>
 5   0  0.1216921E-04  0.1499744E+04  0.7818609E-02  0.8884623E-01
        2   -1    0    0  501    0  0.00000000000E+00  0.00000000000E+00  0.59046426497E+03  0.59046426498E+03  0.25500000920E-02 0.  1.
       -2   -1    0    0    0  501  0.00000000000E+00  0.00000000000E+00 -0.95231450398E+03  0.95231450398E+03  0.25500000920E-02 0. -1.
    10030    2    1    2    0    0  0.00000000000E+00  0.00000000000E+00 -0.36185023901E+03  0.15427787690E+04  0.14997435562E+04 0.  0.
        4    1    3    3  502    0 -0.58461959444E+03 -0.65338810108E+02  0.29745329576E+03  0.65918836941E+03  0.12699999809E+01 0.  1.
       -4    1    3    3    0  502  0.58461959444E+03  0.65338810108E+02 -0.65930353476E+03  0.88359039954E+03  0.12699999809E+01 0. -1.
</event>
<event>
 5   0  0.6361716E-05  0.1499106E+04  0.7818609E-02  0.8885048E-01
       -1   -1    0    0    0  501  0.00000000000E+00  0.00000000000E+00  0.19572881637E+04  0.19572881637E+04  0.50400001928E-02 0.  1.
        1   -1    0    0  501    0  0.00000000000E+00  0.00000000000E+00 -0.28704483895E+03  0.28704483900E+03  0.50400001928E-02 0. -1.
    10030    2    1    2    0    0  0.00000000000E+00  0.00000000000E+00  0.16702433247E+04  0.22443330027E+04  0.14991056878E+04 0.  0.
        3    1    3    3  502    0 -0.60644622891E+03 -0.31954943683E+03  0.12890723454E+04  0.14599987647E+04  0.10100000352E+00 0.  1.
       -3    1    3    3    0  502  0.60644622891E+03  0.31954943683E+03  0.38117097932E+03  0.78433423794E+03  0.10100000352E+00 0. -1.
</event>
<event>
 5   0  0.6668433E-05  0.1499848E+04  0.7818609E-02  0.8884554E-01
       -1   -1    0    0    0  501  0.00000000000E+00  0.00000000000E+00  0.42291646114E+03  0.42291646117E+03  0.50400001928E-02 0.  1.
        1   -1    0    0  501    0  0.00000000000E+00  0.00000000000E+00 -0.13297796552E+04  0.13297796552E+04  0.50400001928E-02 0. -1.
    10030    2    1    2    0    0  0.00000000000E+00  0.00000000000E+00 -0.90686319403E+03  0.17526961164E+04  0.14998476001E+04 0.  0.
        1    1    3    3  502    0 -0.64293030416E+03  0.22279113544E+03 -0.82184192619E+03  0.10669673930E+04  0.50400001928E-02 0. -1.
       -1    1    3    3    0  502  0.64293030416E+03 -0.22279113544E+03 -0.85021267844E+02  0.68572872336E+03  0.50400001928E-02 0.  1.
</event>
<event>
 5   0  0.4462875E-05  0.1504734E+04  0.7818609E-02  0.8881311E-01
       -3   -1    0    0    0  501  0.00000000000E+00  0.00000000000E+00  0.14100493910E+04  0.14100493947E+04  0.10100000352E+00 0.  1.
        3   -1    0    0  501    0  0.00000000000E+00  0.00000000000E+00 -0.40144414756E+03  0.40144416027E+03  0.10100000352E+00 0. -1.
    10030    2    1    2    0    0  0.00000000000E+00  0.00000000000E+00  0.10086052435E+04  0.18114935549E+04  0.15047339839E+04 0.  0.
        1    1    3    3  502    0  0.58262993395E+03 -0.95177431619E+02  0.10657981908E+04  0.12183768576E+04  0.50400001928E-02 0.  1.
       -1    1    3    3    0  502 -0.58262993395E+03  0.95177431619E+02 -0.57192947368E+02  0.59311669735E+03  0.50400001928E-02 0. -1.
</event>
<event>
 5   0  0.6668433E-05  0.1498667E+04  0.7818609E-02  0.8885340E-01
       -1   -1    0    0    0  501  0.00000000000E+00  0.00000000000E+00  0.76215571128E+03  0.76215571130E+03  0.50400001928E-02 0.  1.
        1   -1    0    0  501    0  0.00000000000E+00  0.00000000000E+00 -0.73672732902E+03  0.73672732904E+03  0.50400001928E-02 0. -1.
    10030    2    1    2    0    0  0.00000000000E+00  0.00000000000E+00  0.25428382257E+02  0.14988830403E+04  0.14986673300E+04 0.  0.
        1    1    3    3  502    0 -0.72389241595E+03 -0.17558873156E+03  0.94269223039E+02  0.75082509212E+03  0.50400001928E-02 0.  1.
       -1    1    3    3    0  502  0.72389241595E+03  0.17558873156E+03 -0.68840840781E+02  0.74805794822E+03  0.50400001928E-02 0. -1.
</event>
<event>
 5   0  0.6542036E-05  0.1502158E+04  0.7818609E-02  0.8883019E-01
        1   -1    0    0  501    0  0.00000000000E+00  0.00000000000E+00  0.64101343522E+03  0.64101343524E+03  0.50400001928E-02 0. -1.
       -1   -1    0    0    0  501  0.00000000000E+00  0.00000000000E+00 -0.88004395878E+03  0.88004395880E+03  0.50400001928E-02 0.  1.
    10030    2    1    2    0    0  0.00000000000E+00  0.00000000000E+00 -0.23903052356E+03  0.15210573940E+04  0.15021584486E+04 0.  0.
        4    1    3    3  502    0  0.15689338840E+03  0.46887411859E+03 -0.69201322498E+03  0.85049537968E+03  0.12699999809E+01 0.  1.
       -4    1    3    3    0  502 -0.15689338840E+03 -0.46887411859E+03  0.45298270142E+03  0.67056201436E+03  0.12699999809E+01 0. -1.
</event>
<event>
 5   0  0.6361716E-05  0.1500469E+04  0.7818609E-02  0.8884141E-01
       -1   -1    0    0    0  501  0.00000000000E+00  0.00000000000E+00  0.11119785783E+04  0.11119785783E+04  0.50400001928E-02 0. -1.
        1   -1    0    0  501    0  0.00000000000E+00  0.00000000000E+00 -0.50617173116E+03  0.50617173118E+03  0.50400001928E-02 0.  1.
    10030    2    1    2    0    0  0.00000000000E+00  0.00000000000E+00  0.60580684710E+03  0.16181503095E+04  0.15004694225E+04 0.  0.
        3    1    3    3  502    0 -0.54328324778E+03 -0.39671478197E+03  0.66108618258E+03  0.94317244264E+03  0.10100000352E+00 0.  1.
       -3    1    3    3    0  502  0.54328324778E+03  0.39671478197E+03 -0.55279335487E+02  0.67497786681E+03  0.10100000352E+00 0. -1.
</event>
<event>
 5   0  0.1216921E-04  0.1500895E+04  0.7818609E-02  0.8883858E-01
        2   -1    0    0  501    0  0.00000000000E+00  0.00000000000E+00  0.46194785530E+03  0.46194785531E+03  0.25500000920E-02 0. -1.
       -2   -1    0    0    0  501  0.00000000000E+00  0.00000000000E+00 -0.12191228312E+04  0.12191228312E+04  0.25500000920E-02 0.  1.
    10030    2    1    2    0    0  0.00000000000E+00  0.00000000000E+00 -0.75717497587E+03  0.16810706865E+04  0.15008946362E+04 0.  0.
        4    1    3    3  502    0 -0.42221752009E+03 -0.12439855347E+03  0.30218194148E+03  0.53390839386E+03  0.12699999809E+01 0. -1.
       -4    1    3    3    0  502  0.42221752009E+03  0.12439855347E+03 -0.10593569173E+04  0.11471622926E+04  0.12699999809E+01 0.  1.
</event>
<event>
 5   0  0.6509279E-05  0.1497189E+04  0.7818609E-02  0.8886324E-01
       -1   -1    0    0    0  501  0.00000000000E+00  0.00000000000E+00  0.70666720179E+03  0.70666720181E+03  0.50400001928E-02 0.  1.
        1   -1    0    0  501    0  0.00000000000E+00  0.00000000000E+00 -0.79300965057E+03  0.79300965059E+03  0.50400001928E-02 0. -1.
    10030    2    1    2    0    0  0.00000000000E+00  0.00000000000E+00 -0.86342448779E+02  0.14996768524E+04  0.14971892476E+04 0.  0.
        2    1    3    3  502    0  0.35604847981E+03  0.64607405999E+03  0.84365502043E+02  0.74249562215E+03  0.25500000920E-02 0. -1.
       -2    1    3    3    0  502 -0.35604847981E+03 -0.64607405999E+03 -0.17070795082E+03  0.75718123025E+03  0.25500000920E-02 0.  1.
</event>
<event>
 5   0  0.6361716E-05  0.1503478E+04  0.7818609E-02  0.8882144E-01
        1   -1    0    0  501    0  0.00000000000E+00  0.00000000000E+00  0.25055792728E+03  0.25055792733E+03  0.50400001928E-02 0. -1.
       -1   -1    0    0    0  501  0.00000000000E+00  0.00000000000E+00 -0.22554118371E+04  0.22554118371E+04  0.50400001928E-02 0.  1.
    10030    2    1    2    0    0  0.00000000000E+00  0.00000000000E+00 -0.20048539098E+04  0.25059697644E+04  0.15034777220E+04 0.  0.
        3    1    3    3  502    0  0.13249698708E+03  0.64897708557E+03 -0.15949781813E+04  0.17270443301E+04  0.10100000352E+00 0.  1.
       -3    1    3    3    0  502 -0.13249698708E+03 -0.64897708557E+03 -0.40987572851E+03  0.77892543430E+03  0.10100000352E+00 0. -1.
</event>
<event>
 5   0  0.1254487E-04  0.1501921E+04  0.7818609E-02  0.8883177E-01
        2   -1    0    0  501    0  0.00000000000E+00  0.00000000000E+00  0.16752249296E+04  0.16752249296E+04  0.25500000920E-02 0. -1.
       -2   -1    0    0    0  501  0.00000000000E+00  0.00000000000E+00 -0.33663630933E+03  0.33663630934E+03  0.25500000920E-02 0.  1.
    10030    2    1    2    0    0  0.00000000000E+00  0.00000000000E+00  0.13385886203E+04  0.20118612390E+04  0.15019208203E+04 0.  0.
        5    1    3    3  502    0  0.49291206621E+02 -0.62040168328E+03  0.12322004386E+04  0.13804593013E+04  0.46999998093E+01 0. -1.
       -5    1    3    3    0  502 -0.49291206621E+02  0.62040168328E+03  0.10638818168E+03  0.63140193765E+03  0.46999998093E+01 0.  1.
</event>
<event>
 5   0  0.6509279E-05  0.1499343E+04  0.7818609E-02  0.8884890E-01
       -1   -1    0    0    0  501  0.00000000000E+00  0.00000000000E+00  0.40864943795E+03  0.40864943798E+03  0.50400001928E-02 0.  1.
        1   -1    0    0  501    0  0.00000000000E+00  0.00000000000E+00 -0.13752795470E+04  0.13752795470E+04  0.50400001928E-02 0. -1.
    10030    2    1    2    0    0  0.00000000000E+00  0.00000000000E+00 -0.96663010901E+03  0.17839289849E+04  0.14993428079E+04 0.  0.
        2    1    3    3  502    0 -0.67875306850E+03 -0.30032584925E+03 -0.35792793725E+03  0.82402290744E+03  0.25500000920E-02 0.  1.
       -2    1    3    3    0  502  0.67875306850E+03  0.30032584925E+03 -0.60870217176E+03  0.95990607750E+03  0.25500000920E-02 0. -1.
</event>
<event>
 5   0  0.6364378E-05  0.1498594E+04  0.7818609E-02  0.8885389E-01
        1   -1    0    0  501    0  0.00000000000E+00  0.00000000000E+00  0.16282310403E+04  0.16282310403E+04  0.50400001928E-02 0. -1.
       -1   -1    0    0    0  501  0.00000000000E+00  0.00000000000E+00 -0.34481948954E+03  0.34481948958E+03  0.50400001928E-02 0.  1.
    10030    2    1    2    0    0  0.00000000000E+00  0.00000000000E+00  0.12834115507E+04  0.19730505299E+04  0.14985937358E+04 0.  0.
        5    1    3    3  502    0 -0.44954687800E+03  0.36950308910E+03  0.12631622211E+04  0.13907644715E+04  0.46999998093E+01 0. -1.
       -5    1    3    3    0  502  0.44954687800E+03 -0.36950308910E+03  0.20249329590E+02  0.58228605833E+03  0.46999998093E+01 0.  1.
</event>
<event>
 5   0  0.6364378E-05  0.1497869E+04  0.7818609E-02  0.8885871E-01
       -1   -1    0    0    0  501  0.00000000000E+00  0.00000000000E+00  0.66500391868E+03  0.66500391870E+03  0.50400001928E-02 0.  1.
        1   -1    0    0  501    0  0.00000000000E+00  0.00000000000E+00 -0.84345817172E+03  0.84345817174E+03  0.50400001928E-02 0. -1.
    10030    2    1    2    0    0  0.00000000000E+00  0.00000000000E+00 -0.17845425305E+03  0.15084620904E+04  0.14978691391E+04 0.  0.
        5    1    3    3  502    0  0.43769483794E+02 -0.74070142522E+03  0.13111065901E+02  0.74212422079E+03  0.46999998093E+01 0.  1.
       -5    1    3    3    0  502 -0.43769483794E+02  0.74070142522E+03 -0.19156531895E+03  0.76633786965E+03  0.46999998093E+01 0. -1.
</event>
<event>
 5   0  0.1228286E-04  0.1543956E+04  0.7818609E-02  0.8855737E-01
        2   -1    0    0  501    0  0.00000000000E+00  0.00000000000E+00  0.15660723857E+04  0.15660723857E+04  0.25500000920E-02 0. -1.
       -2   -1    0    0    0  501  0.00000000000E+00  0.00000000000E+00 -0.38053821707E+03  0.38053821708E+03  0.25500000920E-02 0.  1.
    10030    2    1    2    0    0  0.00000000000E+00  0.00000000000E+00  0.11855341687E+04  0.19466106028E+04  0.15439564676E+04 0.  0.
        2    1    3    3  502    0  0.42105024030E+03  0.13285402598E+03  0.13911759839E+04  0.14595561364E+04  0.25500000920E-02 0. -1.
       -2    1    3    3    0  502 -0.42105024030E+03 -0.13285402598E+03 -0.20564181524E+03  0.48705446642E+03  0.25500000920E-02 0.  1.
</event>
<event>
 5   0  0.1228286E-04  0.1498546E+04  0.7818609E-02  0.8885421E-01
        2   -1    0    0  501    0  0.00000000000E+00  0.00000000000E+00  0.67431747338E+03  0.67431747338E+03  0.25500000920E-02 0. -1.
       -2   -1    0    0    0  501  0.00000000000E+00  0.00000000000E+00 -0.83255989988E+03  0.83255989989E+03  0.25500000920E-02 0.  1.
    10030    2    1    2    0    0  0.00000000000E+00  0.00000000000E+00 -0.15824242651E+03  0.15068773733E+04  0.14985455457E+04 0.  0.
        2    1    3    3  502    0 -0.23644912495E+03 -0.44659077547E+03 -0.63542236535E+03  0.81185780271E+03  0.25500000920E-02 0.  1.
       -2    1    3    3    0  502  0.23644912495E+03  0.44659077547E+03  0.47717993884E+03  0.69501957056E+03  0.25500000920E-02 0. -1.
</event>
<event>
 5   0  0.1254487E-04  0.1504855E+04  0.7818609E-02  0.8881231E-01
        2   -1    0    0  501    0  0.00000000000E+00  0.00000000000E+00  0.64344312281E+03  0.64344312282E+03  0.25500000920E-02 0. -1.
       -2   -1    0    0    0  501  0.00000000000E+00  0.00000000000E+00 -0.87987144765E+03  0.87987144765E+03  0.25500000920E-02 0.  1.
    10030    2    1    2    0    0  0.00000000000E+00  0.00000000000E+00 -0.23642832483E+03  0.15233145705E+04  0.15048551185E+04 0.  0.
        5    1    3    3  502    0 -0.10598937748E+03 -0.36518502536E+03  0.53900439174E+03  0.65965269287E+03  0.46999998093E+01 0. -1.
       -5    1    3    3    0  502  0.10598937748E+03  0.36518502536E+03 -0.77543271658E+03  0.86366187760E+03  0.46999998093E+01 0.  1.
</event>
<event>
 5   0  0.1216921E-04  0.1500479E+04  0.7818609E-02  0.8884134E-01
        2   -1    0    0  501    0  0.00000000000E+00  0.00000000000E+00  0.73261815301E+03  0.73261815302E+03  0.25500000920E-02 0.  1.
       -2   -1    0    0    0  501  0.00000000000E+00  0.00000000000E+00 -0.76828496981E+03  0.76828496981E+03  0.25500000920E-02 0. -1.
    10030    2    1    2    0    0  0.00000000000E+00  0.00000000000E+00 -0.35666816795E+02  0.15009031228E+04  0.15004792775E+04 0.  0.
        4    1    3    3  502    0 -0.55490829890E+03  0.24292517910E+03  0.42492243964E+03  0.73993010172E+03  0.12699999809E+01 0.  1.
       -4    1    3    3    0  502  0.55490829890E+03 -0.24292517910E+03 -0.46058925643E+03  0.76097302111E+03  0.12699999809E+01 0. -1.
</event>
<event>
 5   0  0.6668433E-05  0.1497129E+04  0.7818609E-02  0.8886364E-01
        1   -1    0    0  501    0  0.00000000000E+00  0.00000000000E+00  0.64677392504E+03  0.64677392506E+03  0.50400001928E-02 0. -1.
       -1   -1    0    0    0  501  0.00000000000E+00  0.00000000000E+00 -0.86637562448E+03  0.86637562449E+03  0.50400001928E-02 0.  1.
    10030    2    1    2    0    0  0.00000000000E+00  0.00000000000E+00 -0.21960169944E+03  0.15131495495E+04  0.14971294710E+04 0.  0.
        1    1    3    3  502    0  0.73830797858E+03  0.56542717778E+01 -0.23448427362E+03  0.77466994044E+03  0.50400001928E-02 0.  1.
       -1    1    3    3    0  502 -0.73830797858E+03 -0.56542717778E+01  0.14882574178E+02  0.73847960910E+03  0.50400001928E-02 0. -1.
</event>
<event>
 5   0  0.1216921E-04  0.1500947E+04  0.7818609E-02  0.8883824E-01
        2   -1    0    0  501    0  0.00000000000E+00  0.00000000000E+00  0.62068714555E+03  0.62068714556E+03  0.25500000920E-02 0. -1.
       -2   -1    0    0    0  501  0.00000000000E+00  0.00000000000E+00 -0.90739797855E+03  0.90739797856E+03  0.25500000920E-02 0.  1.
    10030    2    1    2    0    0  0.00000000000E+00  0.00000000000E+00 -0.28671083300E+03  0.15280851241E+04  0.15009467162E+04 0.  0.
        4    1    3    3  502    0 -0.74346777496E+03  0.99282789635E+02 -0.11826754969E+03  0.75933538765E+03  0.12699999809E+01 0.  1.
       -4    1    3    3    0  502  0.74346777496E+03 -0.99282789635E+02 -0.16844328331E+03  0.76874973646E+03  0.12699999809E+01 0. -1.
</event>
<event>
 5   0  0.6542036E-05  0.1490467E+04  0.7818609E-02  0.8890817E-01
       -1   -1    0    0    0  501  0.00000000000E+00  0.00000000000E+00  0.64615562658E+03  0.64615562660E+03  0.50400001928E-02 0.  1.
        1   -1    0    0  501    0  0.00000000000E+00  0.00000000000E+00 -0.85950288674E+03  0.85950288675E+03  0.50400001928E-02 0. -1.
    10030    2    1    2    0    0  0.00000000000E+00  0.00000000000E+00 -0.21334726016E+03  0.15056585133E+04  0.14904665395E+04 0.  0.
        4    1    3    3  502    0  0.53124799486E+03  0.32986494740E+03 -0.51618900357E+03  0.81085634725E+03  0.12699999809E+01 0. -1.
       -4    1    3    3    0  502 -0.53124799486E+03 -0.32986494740E+03  0.30284174341E+03  0.69480216610E+03  0.12699999809E+01 0.  1.
</event>
<event>
 5   0  0.1219810E-04  0.1501012E+04  0.7818609E-02  0.8883780E-01
       -2   -1    0    0    0  501  0.00000000000E+00  0.00000000000E+00  0.53450743110E+03  0.53450743110E+03  0.25500000920E-02 0. -1.
        2   -1    0    0  501    0  0.00000000000E+00  0.00000000000E+00 -0.10537913345E+04  0.10537913345E+04  0.25500000920E-02 0.  1.
    10030    2    1    2    0    0  0.00000000000E+00  0.00000000000E+00 -0.51928390341E+03  0.15882987656E+04  0.15010120574E+04 0.  0.
        1    1    3    3  502    0  0.37912721452E+03 -0.42810555831E+03 -0.77395982229E+03  0.96230225002E+03  0.50400001928E-02 0.  1.
       -1    1    3    3    0  502 -0.37912721452E+03  0.42810555831E+03  0.25467591888E+03  0.62599651559E+03  0.50400001928E-02 0. -1.
</event>
<event>
 5   0  0.6361716E-05  0.1501264E+04  0.7818609E-02  0.8883613E-01
       -1   -1    0    0    0  501  0.00000000000E+00  0.00000000000E+00  0.45243802151E+03  0.45243802154E+03  0.50400001928E-02 0. -1.
        1   -1    0    0  501    0  0.00000000000E+00  0.00000000000E+00 -0.12453598463E+04  0.12453598463E+04  0.50400001928E-02 0.  1.
    10030    2    1    2    0    0  0.00000000000E+00  0.00000000000E+00 -0.79292182478E+03  0.16977978678E+04  0.15012636610E+04 0.  0.
        3    1    3    3  502    0  0.14142625581E+03  0.32298267710E+03  0.35295867649E+03  0.49889781824E+03  0.10100000352E+00 0. -1.
       -3    1    3    3    0  502 -0.14142625581E+03 -0.32298267710E+03 -0.11458805013E+04  0.11989000496E+04  0.10100000352E+00 0.  1.
</event>
<event>
 5   0  0.1186664E-04  0.1499988E+04  0.7818609E-02  0.8884461E-01
       -2   -1    0    0    0  501  0.00000000000E+00  0.00000000000E+00  0.32957186782E+03  0.32957186783E+03  0.25500000920E-02 0.  1.
        2   -1    0    0  501    0  0.00000000000E+00  0.00000000000E+00 -0.17067334162E+04  0.17067334162E+04  0.25500000920E-02 0. -1.
    10030    2    1    2    0    0  0.00000000000E+00  0.00000000000E+00 -0.13771615484E+04  0.20363052840E+04  0.14999884264E+04 0.  0.
        3    1    3    3  502    0  0.75128938751E+02 -0.60106578146E+03 -0.12889281714E+04  0.14241700293E+04  0.10100000352E+00 0. -1.
       -3    1    3    3    0  502 -0.75128938751E+02  0.60106578146E+03 -0.88233376970E+02  0.61213525474E+03  0.10100000352E+00 0.  1.
</event>
<event>
 5   0  0.6364378E-05  0.1516093E+04  0.7818609E-02  0.8873821E-01
        1   -1    0    0  501    0  0.00000000000E+00  0.00000000000E+00  0.34978366616E+04  0.34978366616E+04  0.50400001928E-02 0.  1.
       -1   -1    0    0    0  501  0.00000000000E+00  0.00000000000E+00 -0.16428283270E+03  0.16428283278E+03  0.50400001928E-02 0. -1.
    10030    2    1    2    0    0  0.00000000000E+00  0.00000000000E+00  0.33335538289E+04  0.36621194944E+04  0.15160930252E+04 0.  0.
        5    1    3    3  502    0  0.21763054485E+03  0.67977350389E+03  0.22833554235E+04  0.23923187811E+04  0.46999998093E+01 0.  1.
       -5    1    3    3    0  502 -0.21763054485E+03 -0.67977350389E+03  0.10501984054E+04  0.12698007133E+04  0.46999998093E+01 0. -1.
</event>
<event>
 5   0  0.1219810E-04  0.1499663E+04  0.7818609E-02  0.8884677E-01
        2   -1    0    0  501    0  0.00000000000E+00  0.00000000000E+00  0.94913650972E+03  0.94913650973E+03  0.25500000920E-02 0. -1.
       -2   -1    0    0    0  501  0.00000000000E+00  0.00000000000E+00 -0.59237730062E+03  0.59237730063E+03  0.25500000920E-02 0.  1.
    10030    2    1    2    0    0  0.00000000000E+00  0.00000000000E+00  0.35675920910E+03  0.15415138104E+04  0.14996625268E+04 0.  0.
        1    1    3    3  502    0 -0.31481642513E+03 -0.52106811146E+03 -0.27158733373E+03  0.66661911027E+03  0.50400001928E-02 0.  1.
       -1    1    3    3    0  502  0.31481642513E+03  0.52106811146E+03  0.62834654284E+03  0.87489470008E+03  0.50400001928E-02 0. -1.
</event>
<event>
 5   0  0.1186664E-04  0.1489533E+04  0.7818609E-02  0.8891444E-01
       -2   -1    0    0    0  501  0.00000000000E+00  0.00000000000E+00  0.92515295797E+03  0.92515295797E+03  0.25500000920E-02 0.  1.
        2   -1    0    0  501    0  0.00000000000E+00  0.00000000000E+00 -0.59955142693E+03  0.59955142693E+03  0.25500000920E-02 0. -1.
    10030    2    1    2    0    0  0.00000000000E+00  0.00000000000E+00  0.32560153104E+03  0.15247043849E+04  0.14895325120E+04 0.  0.
        3    1    3    3  502    0 -0.58490826572E+03  0.22327803859E+03  0.57569370070E+03  0.85052572509E+03  0.10100000352E+00 0.  1.
       -3    1    3    3    0  502  0.58490826572E+03 -0.22327803859E+03 -0.25009216966E+03  0.67417865981E+03  0.10100000352E+00 0. -1.
</event>
<event>
 5   0  0.4462875E-05  0.1496854E+04  0.7818609E-02  0.8886548E-01
       -3   -1    0    0    0  501  0.00000000000E+00  0.00000000000E+00  0.90367119341E+03  0.90367119905E+03  0.10100000352E+00 0.  1.
        3   -1    0    0  501    0  0.00000000000E+00  0.00000000000E+00 -0.61985252099E+03  0.61985252922E+03  0.10100000352E+00 0. -1.
    10030    2    1    2    0    0  0.00000000000E+00  0.00000000000E+00  0.28381867241E+03  0.15235237283E+04  0.14968538712E+04 0.  0.
        1    1    3    3  502    0  0.11630474464E+03 -0.20834033460E+03  0.86392167117E+03  0.89626622306E+03  0.50400001928E-02 0.  1.
       -1    1    3    3    0  502 -0.11630474464E+03  0.20834033460E+03 -0.58010299876E+03  0.62725750521E+03  0.50400001928E-02 0. -1.
</event>
<event>
 5   0  0.6542036E-05  0.1503974E+04  0.7818609E-02  0.8881814E-01
       -1   -1    0    0    0  501  0.00000000000E+00  0.00000000000E+00  0.38879615155E+03  0.38879615158E+03  0.50400001928E-02 0. -1.
        1   -1    0    0  501    0  0.00000000000E+00  0.00000000000E+00 -0.14544502965E+04  0.14544502966E+04  0.50400001928E-02 0.  1.
    10030    2    1    2    0    0  0.00000000000E+00  0.00000000000E+00 -0.10656541450E+04  0.18432464481E+04  0.15039743056E+04 0.  0.
        4    1    3    3  502    0 -0.47878686447E+03 -0.17008760324E+03  0.14658907611E+03  0.52882570333E+03  0.12699999809E+01 0. -1.
       -4    1    3    3    0  502  0.47878686447E+03  0.17008760324E+03 -0.12122432211E+04  0.13144207448E+04  0.12699999809E+01 0.  1.
</event>
<event>
 5   0  0.6509279E-05  0.1499098E+04  0.7818609E-02  0.8885053E-01
        1   -1    0    0  501    0  0.00000000000E+00  0.00000000000E+00  0.14953570386E+04  0.14953570387E+04  0.50400001928E-02 0. -1.
       -1   -1    0    0    0  501  0.00000000000E+00  0.00000000000E+00 -0.37571196498E+03  0.37571196501E+03  0.50400001928E-02 0.  1.
    10030    2    1    2    0    0  0.00000000000E+00  0.00000000000E+00  0.11196450737E+04  0.18710690037E+04  0.14990977705E+04 0.  0.
        2    1    3    3  502    0 -0.42521257102E+03 -0.14810982129E+03 -0.18809932746E+03  0.48797910479E+03  0.25500000920E-02 0.  1.
       -2    1    3    3    0  502  0.42521257102E+03  0.14810982129E+03  0.13077444011E+04  0.13830898989E+04  0.25500000920E-02 0. -1.
</event>
<event>
 5   0  0.1216921E-04  0.1501704E+04  0.7818609E-02  0.8883320E-01
       -2   -1    0    0    0  501  0.00000000000E+00  0.00000000000E+00  0.31263871388E+03  0.31263871389E+03  0.25500000920E-02 0.  1.
        2   -1    0    0  501    0  0.00000000000E+00  0.00000000000E+00 -0.18032921702E+04  0.18032921702E+04  0.25500000920E-02 0. -1.
    10030    2    1    2    0    0  0.00000000000E+00  0.00000000000E+00 -0.14906534563E+04  0.21159308841E+04  0.15017042916E+04 0.  0.
        4    1    3    3  502    0  0.48416602735E+03 -0.20988255301E+03 -0.14979462505E+04  0.15881788345E+04  0.12699999809E+01 0. -1.
       -4    1    3    3    0  502 -0.48416602735E+03  0.20988255301E+03  0.72927941813E+01  0.52775204959E+03  0.12699999809E+01 0.  1.
</event>
<event>
 5   0  0.1219810E-04  0.1497780E+04  0.7818609E-02  0.8885930E-01
       -2   -1    0    0    0  501  0.00000000000E+00  0.00000000000E+00  0.42630042787E+03  0.42630042788E+03  0.25500000920E-02 0. -1.
        2   -1    0    0  501    0  0.00000000000E+00  0.00000000000E+00 -0.13155894129E+04  0.13155894129E+04  0.25500000920E-02 0.  1.
    10030    2    1    2    0    0  0.00000000000E+00  0.00000000000E+00 -0.88928898504E+03  0.17418898408E+04  0.14977801302E+04 0.  0.
        1    1    3    3  502    0 -0.13432902449E+03 -0.59601460902E+03  0.59019780520E+02  0.61380863101E+03  0.50400001928E-02 0. -1.
       -1    1    3    3    0  502  0.13432902449E+03  0.59601460902E+03 -0.94830876556E+03  0.11280812098E+04  0.50400001928E-02 0.  1.
</event>
<event>
 5   0  0.6668433E-05  0.1524744E+04  0.7818609E-02  0.8868163E-01
       -1   -1    0    0    0  501  0.00000000000E+00  0.00000000000E+00  0.56867086669E+03  0.56867086671E+03  0.50400001928E-02 0.  1.
        1   -1    0    0  501    0  0.00000000000E+00  0.00000000000E+00 -0.10220519146E+04  0.10220519146E+04  0.50400001928E-02 0. -1.
    10030    2    1    2    0    0  0.00000000000E+00  0.00000000000E+00 -0.45338104794E+03  0.15907227813E+04  0.15247441072E+04 0.  0.
        1    1    3    3  502    0  0.74161395809E+03 -0.16522219147E+03 -0.16135876515E+03  0.77674081038E+03  0.50400001928E-02 0.  1.
       -1    1    3    3    0  502 -0.74161395809E+03  0.16522219147E+03 -0.29202228279E+03  0.81398197097E+03  0.50400001928E-02 0. -1.
</event>
<event>
 5   0  0.1254487E-04  0.1501907E+04  0.7818609E-02  0.8883186E-01
        2   -1    0    0  501    0  0.00000000000E+00  0.00000000000E+00  0.11488793515E+04  0.11488793515E+04  0.25500000920E-02 0.  1.
       -2   -1    0    0    0  501  0.00000000000E+00  0.00000000000E+00 -0.49085334908E+03  0.49085334908E+03  0.25500000920E-02 0. -1.
    10030    2    1    2    0    0  0.00000000000E+00  0.00000000000E+00  0.65802600241E+03  0.16397327006E+04  0.15019071574E+04 0.  0.
        5    1    3    3  502    0  0.19586785468E+03  0.51769204406E+03  0.88306719643E+03  0.10422087278E+04  0.46999998093E+01 0.  1.
       -5    1    3    3    0  502 -0.19586785468E+03 -0.51769204406E+03 -0.22504119402E+03  0.59752397273E+03  0.46999998093E+01 0. -1.
</event>
<event>
 5   0  0.6542036E-05  0.1508006E+04  0.7818609E-02  0.8879147E-01
        1   -1    0    0  501    0  0.00000000000E+00  0.00000000000E+00  0.86205785799E+03  0.86205785800E+03  0.50400001928E-02 0. -1.
       -1   -1    0    0    0  501  0.00000000000E+00  0.00000000000E+00 -0.65949212272E+03  0.65949212274E+03  0.50400001928E-02 0.  1.
    10030    2    1    2    0    0  0.00000000000E+00  0.00000000000E+00  0.20256573527E+03  0.15215499807E+04  0.15080057914E+04 0.  0.
        4    1    3    3  502    0  0.14252059714E+03  0.73947578755E+03  0.13879463520E+03  0.76576897602E+03  0.12699999809E+01 0. -1.
       -4    1    3    3    0  502 -0.14252059714E+03 -0.73947578755E+03  0.63771100071E+02  0.75578100471E+03  0.12699999809E+01 0.  1.
</event>
<event>
 5   0  0.6364378E-05  0.1494987E+04  0.7818609E-02  0.8887794E-01
       -1   -1    0    0    0  501  0.00000000000E+00  0.00000000000E+00  0.66700033430E+03  0.66700033432E+03  0.50400001928E-02 0. -1.
        1   -1    0    0  501    0  0.00000000000E+00  0.00000000000E+00 -0.83770024590E+03  0.83770024591E+03  0.50400001928E-02 0.  1.
    10030    2    1    2    0    0  0.00000000000E+00  0.00000000000E+00 -0.17069991160E+03  0.15047005802E+04  0.14949867479E+04 0.  0.
        5    1    3    3  502    0  0.24172083103E+03 -0.36512402937E+03  0.52437474341E+03  0.68318041431E+03  0.46999998093E+01 0. -1.
       -5    1    3    3    0  502 -0.24172083103E+03  0.36512402937E+03 -0.69507465501E+03  0.82152016592E+03  0.46999998093E+01 0.  1.
</event>
<event>
 5   0  0.6509279E-05  0.1491674E+04  0.7818609E-02  0.8890009E-01
        1   -1    0    0  501    0  0.00000000000E+00  0.00000000000E+00  0.16659326724E+04  0.16659326724E+04  0.50400001928E-02 0.  1.
       -1   -1    0    0    0  501  0.00000000000E+00  0.00000000000E+00 -0.33391054617E+03  0.33391054621E+03  0.50400001928E-02 0. -1.
    10030    2    1    2    0    0  0.00000000000E+00  0.00000000000E+00  0.13320221262E+04  0.19998432186E+04  0.14916735415E+04 0.  0.
        2    1    3    3  502    0  0.67056316465E+03 -0.28386041880E+02  0.22990799780E+03  0.70944937284E+03  0.25500000920E-02 0. -1.
       -2    1    3    3    0  502 -0.67056316465E+03  0.28386041880E+02  0.11021141284E+04  0.12903938458E+04  0.25500000920E-02 0.  1.
</event>
<event>
 5   0  0.1216921E-04  0.1501372E+04  0.7818609E-02  0.8883541E-01
       -2   -1    0    0    0  501  0.00000000000E+00  0.00000000000E+00  0.90384193238E+03  0.90384193238E+03  0.25500000920E-02 0.  1.
        2   -1    0    0  501    0  0.00000000000E+00  0.00000000000E+00 -0.62348266964E+03  0.62348266965E+03  0.25500000920E-02 0. -1.
    10030    2    1    2    0    0  0.00000000000E+00  0.00000000000E+00  0.28035926274E+03  0.15273246020E+04  0.15013724134E+04 0.  0.
        4    1    3    3  502    0  0.85026139630E+02  0.28524256334E+03  0.84124770198E+03  0.89235198960E+03  0.12699999809E+01 0.  1.
       -4    1    3    3    0  502 -0.85026139630E+02 -0.28524256334E+03 -0.56088843924E+03  0.63497261243E+03  0.12699999809E+01 0. -1.
</event>
<event>
 5   0  0.6668433E-05  0.1494034E+04  0.7818609E-02  0.8888430E-01
        1   -1    0    0  501    0  0.00000000000E+00  0.00000000000E+00  0.16701144726E+04  0.16701144726E+04  0.50400001928E-02 0.  1.
       -1   -1    0    0    0  501  0.00000000000E+00  0.00000000000E+00 -0.33412932700E+03  0.33412932703E+03  0.50400001928E-02 0. -1.
    10030    2    1    2    0    0  0.00000000000E+00  0.00000000000E+00  0.13359851456E+04  0.20042437996E+04  0.14940337677E+04 0.  0.
        1    1    3    3  502    0  0.42061705746E+03  0.44911576972E+03  0.99775716061E+02  0.62336095256E+03  0.50400001928E-02 0. -1.
       -1    1    3    3    0  502 -0.42061705746E+03 -0.44911576972E+03  0.12362094295E+04  0.13808828470E+04  0.50400001928E-02 0.  1.
</event>
<event>
 5   0  0.6361716E-05  0.1497694E+04  0.7818609E-02  0.8885988E-01
        1   -1    0    0  501    0  0.00000000000E+00  0.00000000000E+00  0.10618172596E+04  0.10618172596E+04  0.50400001928E-02 0. -1.
       -1   -1    0    0    0  501  0.00000000000E+00  0.00000000000E+00 -0.52812446281E+03  0.52812446283E+03  0.50400001928E-02 0.  1.
    10030    2    1    2    0    0  0.00000000000E+00  0.00000000000E+00  0.53369279677E+03  0.15899417224E+04  0.14976937869E+04 0.  0.
        3    1    3    3  502    0 -0.18199371811E+03 -0.48822089602E+03 -0.30413914943E+03  0.60330919863E+03  0.10100000352E+00 0.  1.
       -3    1    3    3    0  502  0.18199371811E+03  0.48822089602E+03  0.83783194620E+03  0.98663252380E+03  0.10100000352E+00 0. -1.
</event>
<event>
 5   0  0.1228286E-04  0.1500506E+04  0.7818609E-02  0.8884117E-01
       -2   -1    0    0    0  501  0.00000000000E+00  0.00000000000E+00  0.40702631014E+03  0.40702631015E+03  0.25500000920E-02 0.  1.
        2   -1    0    0  501    0  0.00000000000E+00  0.00000000000E+00 -0.13829070110E+04  0.13829070110E+04  0.25500000920E-02 0. -1.
    10030    2    1    2    0    0  0.00000000000E+00  0.00000000000E+00 -0.97588070086E+03  0.17899333212E+04  0.15005059653E+04 0.  0.
        2    1    3    3  502    0  0.32042378332E+03  0.33252970374E+02 -0.12962055814E+04  0.13356369530E+04  0.25500000920E-02 0. -1.
       -2    1    3    3    0  502 -0.32042378332E+03 -0.33252970374E+02  0.32032488058E+03  0.45429636811E+03  0.25500000920E-02 0.  1.
</event>
<event>
 5   0  0.1216921E-04  0.1491732E+04  0.7818609E-02  0.8889970E-01
        2   -1    0    0  501    0  0.00000000000E+00  0.00000000000E+00  0.91914900864E+03  0.91914900864E+03  0.25500000920E-02 0. -1.
       -2   -1    0    0    0  501  0.00000000000E+00  0.00000000000E+00 -0.60525114510E+03  0.60525114511E+03  0.25500000920E-02 0.  1.
    10030    2    1    2    0    0  0.00000000000E+00  0.00000000000E+00  0.31389786353E+03  0.15244001538E+04  0.14917318660E+04 0.  0.
        4    1    3    3  502    0 -0.19428335259E+03 -0.36667373216E+03 -0.47639696176E+03  0.63178423930E+03  0.12699999809E+01 0.  1.
       -4    1    3    3    0  502  0.19428335259E+03  0.36667373216E+03  0.79029482529E+03  0.89261591445E+03  0.12699999809E+01 0. -1.
</event>
<event>
 5   0  0.6364378E-05  0.1495036E+04  0.7818609E-02  0.8887761E-01
       -1   -1    0    0    0  501  0.00000000000E+00  0.00000000000E+00  0.29041640037E+03  0.29041640041E+03  0.50400001928E-02 0. -1.
        1   -1    0    0  501    0  0.00000000000E+00  0.00000000000E+00 -0.19240760369E+04  0.19240760369E+04  0.50400001928E-02 0.  1.
    10030    2    1    2    0    0  0.00000000000E+00  0.00000000000E+00 -0.16336596365E+04  0.22144924373E+04  0.14950361022E+04 0.  0.
        5    1    3    3  502    0  0.36281257286E+02  0.70270774699E+03 -0.44314086469E+03  0.83157105726E+03  0.46999998093E+01 0.  1.
       -5    1    3    3    0  502 -0.36281257286E+02 -0.70270774699E+03 -0.11905187718E+04  0.13829213800E+04  0.46999998093E+01 0. -1.
</event>
<event>
 5   0  0.1216921E-04  0.1497771E+04  0.7818609E-02  0.8885936E-01
        2   -1    0    0  501    0  0.00000000000E+00  0.00000000000E+00  0.16002274603E+04  0.16002274603E+04  0.25500000920E-02 0. -1.
       -2   -1    0    0    0  501  0.00000000000E+00  0.00000000000E+00 -0.35046875801E+03  0.35046875802E+03  0.25500000920E-02 0.  1.
    10030    2    1    2    0    0  0.00000000000E+00  0.00000000000E+00  0.12497587023E+04  0.19506962183E+04  0.14977713184E+04 0.  0.
        4    1    3    3  502    0 -0.97522033440E+02 -0.69854075917E+03  0.29705126449E+03  0.76531745431E+03  0.12699999809E+01 0.  1.
       -4    1    3    3    0  502  0.97522033440E+02  0.69854075917E+03  0.95270743778E+03  0.11853787640E+04  0.12699999809E+01 0. -1.
</event>
<event>
 5   0  0.6509279E-05  0.1499729E+04  0.7818609E-02  0.8884633E-01
       -1   -1    0    0    0  501  0.00000000000E+00  0.00000000000E+00  0.12811973822E+04  0.12811973822E+04  0.50400001928E-02 0.  1.
        1   -1    0    0  501    0  0.00000000000E+00  0.00000000000E+00 -0.43888351728E+03  0.43888351731E+03  0.50400001928E-02 0. -1.
    10030    2    1    2    0    0  0.00000000000E+00  0.00000000000E+00  0.84231386496E+03  0.17200808996E+04  0.14997285267E+04 0.  0.
        2    1    3    3  502    0  0.71278405354E+03  0.18521806859E+03  0.58307123896E+03  0.93932896773E+03  0.25500000920E-02 0. -1.
       -2    1    3    3    0  502 -0.71278405354E+03 -0.18521806859E+03  0.25924262600E+03  0.78075193183E+03  0.25500000920E-02 0.  1.
</event>
<event>
 5   0  0.1254487E-04  0.1510428E+04  0.7818609E-02  0.8877548E-01
        2   -1    0    0  501    0  0.00000000000E+00  0.00000000000E+00  0.10745399852E+04  0.10745399852E+04  0.25500000920E-02 0.  1.
       -2   -1    0    0    0  501  0.00000000000E+00  0.00000000000E+00 -0.53078361846E+03  0.53078361847E+03  0.25500000920E-02 0. -1.
    10030    2    1    2    0    0  0.00000000000E+00  0.00000000000E+00  0.54375636672E+03  0.16053236037E+04  0.15104280473E+04 0.  0.
        5    1    3    3  502    0  0.17522460996E+03 -0.29201660049E+03  0.98828090888E+03  0.10453222488E+04  0.46999998093E+01 0.  1.
       -5    1    3    3    0  502 -0.17522460996E+03  0.29201660049E+03 -0.44452454216E+03  0.56000135489E+03  0.46999998093E+01 0. -1.
</event>
<event>
 5   0  0.6542036E-05  0.1500205E+04  0.7818609E-02  0.8884317E-01
       -1   -1    0    0    0  501  0.00000000000E+00  0.00000000000E+00  0.79954234344E+03  0.79954234345E+03  0.50400001928E-02 0. -1.
        1   -1    0    0  501    0  0.00000000000E+00  0.00000000000E+00 -0.70371983894E+03  0.70371983896E+03  0.50400001928E-02 0.  1.
    10030    2    1    2    0    0  0.00000000000E+00  0.00000000000E+00  0.95822504494E+02  0.15032621824E+04  0.15002050649E+04 0.  0.
        4    1    3    3  502    0 -0.57593154584E+03 -0.10801276646E+03 -0.42132529253E+03  0.72172052641E+03  0.12699999809E+01 0. -1.
       -4    1    3    3    0  502  0.57593154584E+03  0.10801276646E+03  0.51714779703E+03  0.78154165601E+03  0.12699999809E+01 0.  1.
</event>
<event>
 5   0  0.1186664E-04  0.1498364E+04  0.7818609E-02  0.8885541E-01
       -2   -1    0    0    0  501  0.00000000000E+00  0.00000000000E+00  0.56859458927E+03  0.56859458928E+03  0.25500000920E-02 0. -1.
        2   -1    0    0  501    0  0.00000000000E+00  0.00000000000E+00 -0.98712504335E+03  0.98712504335E+03  0.25500000920E-02 0.  1.
    10030    2    1    2    0    0  0.00000000000E+00  0.00000000000E+00 -0.41853045408E+03  0.15557196326E+04  0.14983643864E+04 0.  0.
        3    1    3    3  502    0  0.15398676788E+03  0.65195001612E+03  0.13901989913E+03  0.68416174312E+03  0.10100000352E+00 0. -1.
       -3    1    3    3    0  502 -0.15398676788E+03 -0.65195001612E+03 -0.55755035321E+03  0.87155788951E+03  0.10100000352E+00 0.  1.
</event>
<event>
 5   0  0.6509279E-05  0.1499336E+04  0.7818609E-02  0.8884894E-01
       -1   -1    0    0    0  501  0.00000000000E+00  0.00000000000E+00  0.14133261662E+04  0.14133261662E+04  0.50400001928E-02 0.  1.
        1   -1    0    0  501    0  0.00000000000E+00  0.00000000000E+00 -0.39764524508E+03  0.39764524511E+03  0.50400001928E-02 0. -1.
    10030    2    1    2    0    0  0.00000000000E+00  0.00000000000E+00  0.10156809211E+04  0.18109714113E+04  0.14993364263E+04 0.  0.
        2    1    3    3  502    0 -0.70496652127E+03  0.15298825520E+03  0.26142979073E+03  0.76728660736E+03  0.25500000920E-02 0. -1.
       -2    1    3    3    0  502  0.70496652127E+03 -0.15298825520E+03  0.75425113041E+03  0.10436848040E+04  0.25500000920E-02 0.  1.
</event>
<event>
 5   0  0.1228286E-04  0.1500207E+04  0.7818609E-02  0.8884315E-01
        2   -1    0    0  501    0  0.00000000000E+00  0.00000000000E+00  0.12961031793E+04  0.12961031793E+04  0.25500000920E-02 0.  1.
       -2   -1    0    0    0  501  0.00000000000E+00  0.00000000000E+00 -0.43411309390E+03  0.43411309391E+03  0.25500000920E-02 0. -1.
    10030    2    1    2    0    0  0.00000000000E+00  0.00000000000E+00  0.86199008544E+03  0.17302162733E+04  0.15002071340E+04 0.  0.
        2    1    3    3  502    0 -0.58430692169E+02  0.36122479187E+03 -0.32419319306E+03  0.48887495587E+03  0.25500000920E-02 0. -1.
       -2    1    3    3    0  502  0.58430692169E+02 -0.36122479187E+03  0.11861832785E+04  0.12413413174E+04  0.25500000920E-02 0.  1.
</event>
<event>
 5   0  0.4462875E-05  0.1500126E+04  0.7818609E-02  0.8884369E-01
       -3   -1    0    0    0  501  0.00000000000E+00  0.00000000000E+00  0.34369919871E+03  0.34369921355E+03  0.10100000352E+00 0.  1.
        3   -1    0    0  501    0  0.00000000000E+00  0.00000000000E+00 -0.16368795336E+04  0.16368795367E+04  0.10100000352E+00 0. -1.
    10030    2    1    2    0    0  0.00000000000E+00  0.00000000000E+00 -0.12931803349E+04  0.19805787503E+04  0.15001255972E+04 0.  0.
        3    1    3    3  502    0 -0.49560222525E+03 -0.39014963992E+03 -0.11824916531E+04  0.13401958166E+04  0.10100000352E+00 0. -1.
       -3    1    3    3    0  502  0.49560222525E+03  0.39014963992E+03 -0.11068868185E+03  0.64038293364E+03  0.10100000352E+00 0.  1.
</event>
<event>
 5   0  0.1216921E-04  0.1499244E+04  0.7818609E-02  0.8884956E-01
        2   -1    0    0  501    0  0.00000000000E+00  0.00000000000E+00  0.62672400300E+03  0.62672400300E+03  0.25500000920E-02 0. -1.
       -2   -1    0    0    0  501  0.00000000000E+00  0.00000000000E+00 -0.89661998726E+03  0.89661998726E+03  0.25500000920E-02 0.  1.
    10030    2    1    2    0    0  0.00000000000E+00  0.00000000000E+00 -0.26989598426E+03  0.15233439903E+04  0.14992441664E+04 0.  0.
        4    1    3    3  502    0 -0.40169282430E+03  0.37289611615E+03 -0.65456166946E+03  0.85373370002E+03  0.12699999809E+01 0.  1.
       -4    1    3    3    0  502  0.40169282430E+03 -0.37289611615E+03  0.38466568519E+03  0.66961029024E+03  0.12699999809E+01 0. -1.
</event>
<event>
 5   0  0.1254487E-04  0.1498895E+04  0.7818609E-02  0.8885188E-01
        2   -1    0    0  501    0  0.00000000000E+00  0.00000000000E+00  0.23423536718E+04  0.23423536718E+04  0.25500000920E-02 0.  1.
       -2   -1    0    0    0  501  0.00000000000E+00  0.00000000000E+00 -0.23978941708E+03  0.23978941709E+03  0.25500000920E-02 0. -1.
    10030    2    1    2    0    0  0.00000000000E+00  0.00000000000E+00  0.21025642547E+04  0.25821430889E+04  0.14988950885E+04 0.  0.
        5    1    3    3  502    0  0.23046431440E+02 -0.14867342986E+03 -0.21348140478E+03  0.26121126877E+03  0.46999998093E+01 0. -1.
       -5    1    3    3    0  502 -0.23046431440E+02  0.14867342986E+03  0.23160456595E+04  0.23209318201E+04  0.46999998093E+01 0.  1.
</event>
<event>
 5   0  0.6668433E-05  0.1506255E+04  0.7818609E-02  0.8880304E-01
       -1   -1    0    0    0  501  0.00000000000E+00  0.00000000000E+00  0.60341941388E+03  0.60341941390E+03  0.50400001928E-02 0.  1.
        1   -1    0    0  501    0  0.00000000000E+00  0.00000000000E+00 -0.93997848424E+03  0.93997848425E+03  0.50400001928E-02 0. -1.
    10030    2    1    2    0    0  0.00000000000E+00  0.00000000000E+00 -0.33655907036E+03  0.15433978982E+04  0.15062553117E+04 0.  0.
        1    1    3    3  502    0  0.20713087663E+03  0.35439404818E+03 -0.81527915235E+03  0.91278608541E+03  0.50400001928E-02 0. -1.
       -1    1    3    3    0  502 -0.20713087663E+03 -0.35439404818E+03  0.47872008199E+03  0.63061181274E+03  0.50400001928E-02 0.  1.
</event>
<event>
 5   0  0.6509279E-05  0.1498644E+04  0.7818609E-02  0.8885355E-01
       -1   -1    0    0    0  501  0.00000000000E+00  0.00000000000E+00  0.32409312345E+03  0.32409312349E+03  0.50400001928E-02 0.  1.
        1   -1    0    0  501    0  0.00000000000E+00  0.00000000000E+00 -0.17324754991E+04  0.17324754991E+04  0.50400001928E-02 0. -1.
    10030    2    1    2    0    0  0.00000000000E+00  0.00000000000E+00 -0.14083823757E+04  0.20565686226E+04  0.14986439148E+04 0.  0.
        2    1    3    3  502    0  0.57724078412E+02 -0.73412812143E+03 -0.89437655359E+03  0.11585273357E+04  0.25500000920E-02 0. -1.
       -2    1    3    3    0  502 -0.57724078412E+02  0.73412812143E+03 -0.51400582210E+03  0.89804128695E+03  0.25500000920E-02 0.  1.
</event>
<event>
 5   0  0.1254487E-04  0.1498910E+04  0.7818609E-02  0.8885178E-01
       -2   -1    0    0    0  501  0.00000000000E+00  0.00000000000E+00  0.11430875594E+04  0.11430875594E+04  0.25500000920E-02 0. -1.
        2   -1    0    0  501    0  0.00000000000E+00  0.00000000000E+00 -0.49137346949E+03  0.49137346949E+03  0.25500000920E-02 0.  1.
    10030    2    1    2    0    0  0.00000000000E+00  0.00000000000E+00  0.65171408992E+03  0.16344610289E+04  0.14989101374E+04 0.  0.
        5    1    3    3  502    0  0.31102479698E+03  0.57616719205E+03  0.72346268781E+03  0.97576913672E+03  0.46999998093E+01 0.  1.
       -5    1    3    3    0  502 -0.31102479698E+03 -0.57616719205E+03 -0.71748597884E+02  0.65869189218E+03  0.46999998093E+01 0. -1.
</event>
<event>
 5   0  0.6361716E-05  0.1498194E+04  0.7818609E-02  0.8885655E-01
       -1   -1    0    0    0  501  0.00000000000E+00  0.00000000000E+00  0.62049794112E+03  0.62049794114E+03  0.50400001928E-02 0. -1.
        1   -1    0    0  501    0  0.00000000000E+00  0.00000000000E+00 -0.90434790494E+03  0.90434790495E+03  0.50400001928E-02 0.  1.
    10030    2    1    2    0    0  0.00000000000E+00  0.00000000000E+00 -0.28384996381E+03  0.15248458461E+04  0.14981935964E+04 0.  0.
        3    1    3    3  502    0  0.45453759345E+03  0.35969503454E+03  0.34102777318E+03  0.67252129633E+03  0.10100000352E+00 0. -1.
       -3    1    3    3    0  502 -0.45453759345E+03 -0.35969503454E+03 -0.62487773699E+03  0.85232454976E+03  0.10100000352E+00 0.  1.
</event>
<event>
 5   0  0.1219810E-04  0.1500659E+04  0.7818609E-02  0.8884015E-01
        2   -1    0    0  501    0  0.00000000000E+00  0.00000000000E+00  0.12643967735E+04  0.12643967735E+04  0.25500000920E-02 0.  1.
       -2   -1    0    0    0  501  0.00000000000E+00  0.00000000000E+00 -0.44526737343E+03  0.44526737344E+03  0.25500000920E-02 0. -1.
    10030    2    1    2    0    0  0.00000000000E+00  0.00000000000E+00  0.81912940003E+03  0.17096641469E+04  0.15006593622E+04 0.  0.
        1    1    3    3  502    0  0.19952851833E+02 -0.37884920221E+03 -0.32795200651E+03  0.50147517677E+03  0.50400001928E-02 0. -1.
       -1    1    3    3    0  502 -0.19952851833E+02  0.37884920221E+03  0.11470814065E+04  0.12081889701E+04  0.50400001928E-02 0.  1.
</event>
<event>
 5   0  0.6668433E-05  0.1496618E+04  0.7818609E-02  0.8886705E-01
        1   -1    0    0  501    0  0.00000000000E+00  0.00000000000E+00  0.10013519829E+04  0.10013519829E+04  0.50400001928E-02 0. -1.
       -1   -1    0    0    0  501  0.00000000000E+00  0.00000000000E+00 -0.55921015343E+03  0.55921015346E+03  0.50400001928E-02 0.  1.
    10030    2    1    2    0    0  0.00000000000E+00  0.00000000000E+00  0.44214182942E+03  0.15605621363E+04  0.14966177815E+04 0.  0.
        1    1    3    3  502    0 -0.55530994519E+03  0.32433704939E+03 -0.17790296979E+03  0.66724292692E+03  0.50400001928E-02 0.  1.
       -1    1    3    3    0  502  0.55530994519E+03 -0.32433704939E+03  0.62004479921E+03  0.89331920941E+03  0.50400001928E-02 0. -1.
</event>
<event>
 5   0  0.1219810E-04  0.1499676E+04  0.7818609E-02  0.8884668E-01
       -2   -1    0    0    0  501  0.00000000000E+00  0.00000000000E+00  0.53412679661E+03  0.53412679662E+03  0.25500000920E-02 0. -1.
        2   -1    0    0  501    0  0.00000000000E+00  0.00000000000E+00 -0.10526659870E+04  0.10526659870E+04  0.25500000920E-02 0.  1.
    10030    2    1    2    0    0  0.00000000000E+00  0.00000000000E+00 -0.51853919043E+03  0.15867927837E+04  0.14996761138E+04 0.  0.
        1    1    3    3  502    0  0.25125585473E+03 -0.23156542314E+03 -0.96550431408E+03  0.10241829086E+04  0.50400001928E-02 0.  1.
       -1    1    3    3    0  502 -0.25125585473E+03  0.23156542314E+03  0.44696512365E+03  0.56260987506E+03  0.50400001928E-02 0. -1.
</event>
<event>
 5   0  0.1219810E-04  0.1507774E+04  0.7818609E-02  0.8879300E-01
       -2   -1    0    0    0  501  0.00000000000E+00  0.00000000000E+00  0.11581194965E+04  0.11581194965E+04  0.25500000920E-02 0. -1.
        2   -1    0    0  501    0  0.00000000000E+00  0.00000000000E+00 -0.49074854907E+03  0.49074854908E+03  0.25500000920E-02 0.  1.
    10030    2    1    2    0    0  0.00000000000E+00  0.00000000000E+00  0.66737094742E+03  0.16488680456E+04  0.15077738061E+04 0.  0.
        1    1    3    3  502    0 -0.42005270228E+03 -0.16139107763E+03 -0.32777466328E+03  0.55671139969E+03  0.50400001928E-02 0.  1.
       -1    1    3    3    0  502  0.42005270228E+03  0.16139107763E+03  0.99514561070E+03  0.10921566459E+04  0.50400001928E-02 0. -1.
</event>
<event>
 5   0  0.1254487E-04  0.1503356E+04  0.7818609E-02  0.8882224E-01
       -2   -1    0    0    0  501  0.00000000000E+00  0.00000000000E+00  0.61796093700E+03  0.61796093701E+03  0.25500000920E-02 0.  1.
        2   -1    0    0  501    0  0.00000000000E+00  0.00000000000E+00 -0.91432927405E+03  0.91432927405E+03  0.25500000920E-02 0. -1.
    10030    2    1    2    0    0  0.00000000000E+00  0.00000000000E+00 -0.29636833705E+03  0.15322902111E+04  0.15033559458E+04 0.  0.
        5    1    3    3  502    0 -0.25092516077E+03  0.50741575547E+02 -0.86851062242E+03  0.90546724682E+03  0.46999998093E+01 0. -1.
       -5    1    3    3    0  502  0.25092516077E+03 -0.50741575547E+02  0.57214228537E+03  0.62682296424E+03  0.46999998093E+01 0.  1.
</event>
<event>
 5   0  0.1186664E-04  0.1499675E+04  0.7818609E-02  0.8884669E-01
       -2   -1    0    0    0  501  0.00000000000E+00  0.00000000000E+00  0.95579611533E+03  0.95579611534E+03  0.25500000920E-02 0. -1.
        2   -1    0    0  501    0  0.00000000000E+00  0.00000000000E+00 -0.58825980695E+03  0.58825980695E+03  0.25500000920E-02 0.  1.
    10030    2    1    2    0    0  0.00000000000E+00  0.00000000000E+00  0.36753630839E+03  0.15440559223E+04  0.14996752159E+04 0.  0.
        3    1    3    3  502    0 -0.37608194770E+03  0.39452733638E+03 -0.34641451890E+03  0.64582697346E+03  0.10100000352E+00 0.  1.
       -3    1    3    3    0  502  0.37608194770E+03 -0.39452733638E+03  0.71395082729E+03  0.89822894883E+03  0.10100000352E+00 0. -1.
</event>
<event>
 5   0  0.6509279E-05  0.1502505E+04  0.7818609E-02  0.8882789E-01
       -1   -1    0    0    0  501  0.00000000000E+00  0.00000000000E+00  0.86466953632E+03  0.86466953634E+03  0.50400001928E-02 0. -1.
        1   -1    0    0  501    0  0.00000000000E+00  0.00000000000E+00 -0.65271186417E+03  0.65271186419E+03  0.50400001928E-02 0.  1.
    10030    2    1    2    0    0  0.00000000000E+00  0.00000000000E+00  0.21195767215E+03  0.15173814005E+04  0.15025046622E+04 0.  0.
        2    1    3    3  502    0 -0.60468115270E+02  0.14746386789E+03 -0.63544147528E+03  0.65512430409E+03  0.25500000920E-02 0.  1.
       -2    1    3    3    0  502  0.60468115270E+02 -0.14746386789E+03  0.84739914743E+03  0.86225709644E+03  0.25500000920E-02 0. -1.
</event>
<event>
 5   0  0.6361716E-05  0.1500052E+04  0.7818609E-02  0.8884418E-01
        1   -1    0    0  501    0  0.00000000000E+00  0.00000000000E+00  0.11627668309E+04  0.11627668309E+04  0.50400001928E-02 0. -1.
       -1   -1    0    0    0  501  0.00000000000E+00  0.00000000000E+00 -0.48379336778E+03  0.48379336780E+03  0.50400001928E-02 0.  1.
    10030    2    1    2    0    0  0.00000000000E+00  0.00000000000E+00  0.67897346313E+03  0.16465601987E+04  0.15000518406E+04 0.  0.
        3    1    3    3  502    0 -0.24573014034E+02  0.36526588899E+03  0.10580331012E+04  0.11195789637E+04  0.10100000352E+00 0. -1.
       -3    1    3    3    0  502  0.24573014034E+02 -0.36526588899E+03 -0.37905963802E+03  0.52698123501E+03  0.10100000352E+00 0.  1.
</event>
<event>
 5   0  0.4462875E-05  0.1500100E+04  0.7818609E-02  0.8884386E-01
       -3   -1    0    0    0  501  0.00000000000E+00  0.00000000000E+00  0.60932692994E+03  0.60932693831E+03  0.10100000352E+00 0. -1.
        3   -1    0    0  501    0  0.00000000000E+00  0.00000000000E+00 -0.92327311933E+03  0.92327312485E+03  0.10100000352E+00 0.  1.
    10030    2    1    2    0    0  0.00000000000E+00  0.00000000000E+00 -0.31394618939E+03  0.15326000632E+04  0.15001002446E+04 0.  0.
        5    1    3    3  502    0 -0.42936243923E+03  0.10759916507E+03  0.46163935261E+03  0.63958007038E+03  0.46999998093E+01 0. -1.
       -5    1    3    3    0  502  0.42936243923E+03 -0.10759916507E+03 -0.77558554200E+03  0.89301999278E+03  0.46999998093E+01 0.  1.
</event>
<event>
 5   0  0.6509279E-05  0.1497868E+04  0.7818609E-02  0.8885872E-01
        1   -1    0    0  501    0  0.00000000000E+00  0.00000000000E+00  0.85238040506E+03  0.85238040507E+03  0.50400001928E-02 0.  1.
       -1   -1    0    0    0  501  0.00000000000E+00  0.00000000000E+00 -0.65804160637E+03  0.65804160639E+03  0.50400001928E-02 0. -1.
    10030    2    1    2    0    0  0.00000000000E+00  0.00000000000E+00  0.19433879869E+03  0.15104220115E+04  0.14978675122E+04 0.  0.
        2    1    3    3  502    0 -0.38044916928E+03 -0.23751052792E+03  0.70198734965E+03  0.83303004769E+03  0.25500000920E-02 0.  1.
       -2    1    3    3    0  502  0.38044916928E+03  0.23751052792E+03 -0.50764855096E+03  0.67739196377E+03  0.25500000920E-02 0. -1.
</event>
<event>
 5   0  0.6668433E-05  0.1500789E+04  0.7818609E-02  0.8883928E-01
       -1   -1    0    0    0  501  0.00000000000E+00  0.00000000000E+00  0.68096431573E+03  0.68096431575E+03  0.50400001928E-02 0. -1.
        1   -1    0    0  501    0  0.00000000000E+00  0.00000000000E+00 -0.82690407548E+03  0.82690407550E+03  0.50400001928E-02 0.  1.
    10030    2    1    2    0    0  0.00000000000E+00  0.00000000000E+00 -0.14593975976E+03  0.15078683912E+04  0.15007893496E+04 0.  0.
        1    1    3    3  502    0  0.16455638539E+03  0.17064679280E+03 -0.78829233868E+03  0.82316702018E+03  0.50400001928E-02 0.  1.
       -1    1    3    3    0  502 -0.16455638539E+03 -0.17064679280E+03  0.64235257892E+03  0.68470137107E+03  0.50400001928E-02 0. -1.
</event>
<event>
 5   0  0.1219810E-04  0.1500927E+04  0.7818609E-02  0.8883837E-01
        2   -1    0    0  501    0  0.00000000000E+00  0.00000000000E+00  0.51656830882E+03  0.51656830882E+03  0.25500000920E-02 0. -1.
       -2   -1    0    0    0  501  0.00000000000E+00  0.00000000000E+00 -0.10902635102E+04  0.10902635102E+04  0.25500000920E-02 0.  1.
    10030    2    1    2    0    0  0.00000000000E+00  0.00000000000E+00 -0.57369520139E+03  0.16068318190E+04  0.15009271503E+04 0.  0.
        1    1    3    3  502    0  0.55354248598E+03 -0.32492668254E+03 -0.70314102500E+03  0.95204723301E+03  0.50400001928E-02 0.  1.
       -1    1    3    3    0  502 -0.55354248598E+03  0.32492668254E+03  0.12944582361E+03  0.65478458602E+03  0.50400001928E-02 0. -1.
</event>
<event>
 5   0  0.6361716E-05  0.1501006E+04  0.7818609E-02  0.8883784E-01
        1   -1    0    0  501    0  0.00000000000E+00  0.00000000000E+00  0.77106981610E+03  0.77106981612E+03  0.50400001928E-02 0.  1.
       -1   -1    0    0    0  501  0.00000000000E+00  0.00000000000E+00 -0.73048470253E+03  0.73048470255E+03  0.50400001928E-02 0. -1.
    10030    2    1    2    0    0  0.00000000000E+00  0.00000000000E+00  0.40585113572E+02  0.15015545187E+04  0.15010059364E+04 0.  0.
        3    1    3    3  502    0  0.44347793118E+03 -0.46141509656E+03 -0.37186873693E+03  0.74017763711E+03  0.10100000352E+00 0. -1.
       -3    1    3    3    0  502 -0.44347793118E+03  0.46141509656E+03  0.41245385050E+03  0.76137688156E+03  0.10100000352E+00 0.  1.
</event>
<event>
 5   0  0.1228286E-04  0.1495512E+04  0.7818609E-02  0.8887443E-01
       -2   -1    0    0    0  501  0.00000000000E+00  0.00000000000E+00  0.14104015585E+04  0.14104015585E+04  0.25500000920E-02 0.  1.
        2   -1    0    0  501    0  0.00000000000E+00  0.00000000000E+00 -0.39643954554E+03  0.39643954555E+03  0.25500000920E-02 0. -1.
    10030    2    1    2    0    0  0.00000000000E+00  0.00000000000E+00  0.10139620129E+04  0.18068411040E+04  0.14955118894E+04 0.  0.
        2    1    3    3  502    0 -0.68897587327E+03 -0.13111112139E+03  0.19364378598E+03  0.72758215753E+03  0.25500000920E-02 0. -1.
       -2    1    3    3    0  502  0.68897587327E+03  0.13111112139E+03  0.82031822694E+03  0.10792589465E+04  0.25500000920E-02 0.  1.
</event>
<event>
 5   0  0.6364378E-05  0.1500356E+04  0.7818609E-02  0.8884216E-01
        1   -1    0    0  501    0  0.00000000000E+00  0.00000000000E+00  0.56698286325E+03  0.56698286327E+03  0.50400001928E-02 0.  1.
       -1   -1    0    0    0  501  0.00000000000E+00  0.00000000000E+00 -0.99256462094E+03  0.99256462095E+03  0.50400001928E-02 0. -1.
    10030    2    1    2    0    0  0.00000000000E+00  0.00000000000E+00 -0.42558175769E+03  0.15595474842E+04  0.15003561321E+04 0.  0.
        5    1    3    3  502    0 -0.26789664597E+03 -0.93723617472E+02 -0.93458673666E+03  0.97674315341E+03  0.46999998093E+01 0. -1.
       -5    1    3    3    0  502  0.26789664597E+03  0.93723617472E+02  0.50900497897E+03  0.58280433081E+03  0.46999998093E+01 0.  1.
</event>
<event>
 5   0  0.1216921E-04  0.1500211E+04  0.7818609E-02  0.8884313E-01
        2   -1    0    0  501    0  0.00000000000E+00  0.00000000000E+00  0.11907702594E+04  0.11907702595E+04  0.25500000920E-02 0.  1.
       -2   -1    0    0    0  501  0.00000000000E+00  0.00000000000E+00 -0.47251615898E+03  0.47251615898E+03  0.25500000920E-02 0. -1.
    10030    2    1    2    0    0  0.00000000000E+00  0.00000000000E+00  0.71825410047E+03  0.16632864184E+04  0.15002109041E+04 0.  0.
        4    1    3    3  502    0  0.63394904532E+03 -0.21189876489E+03  0.73651598779E+03  0.99461042212E+03  0.12699999809E+01 0.  1.
       -4    1    3    3    0  502 -0.63394904532E+03  0.21189876489E+03 -0.18261887315E+02  0.66867599632E+03  0.12699999809E+01 0. -1.
</event>
<event>
 5   0  0.1219810E-04  0.1505594E+04  0.7818609E-02  0.8880741E-01
       -2   -1    0    0    0  501  0.00000000000E+00  0.00000000000E+00  0.56836045823E+03  0.56836045824E+03  0.25500000920E-02 0.  1.
        2   -1    0    0  501    0  0.00000000000E+00  0.00000000000E+00 -0.99708452305E+03  0.99708452305E+03  0.25500000920E-02 0. -1.
    10030    2    1    2    0    0  0.00000000000E+00  0.00000000000E+00 -0.42872406482E+03  0.15654449813E+04  0.15055941238E+04 0.  0.
        1    1    3    3  502    0  0.10748664828E+03  0.70264943995E+03  0.43349345005E+02  0.71214379220E+03  0.50400001928E-02 0.  1.
       -1    1    3    3    0  502 -0.10748664828E+03 -0.70264943995E+03 -0.47207340982E+03  0.85330118910E+03  0.50400001928E-02 0. -1.
</event>
<event>
 5   0  0.1186664E-04  0.1499870E+04  0.7818609E-02  0.8884539E-01
        2   -1    0    0  501    0  0.00000000000E+00  0.00000000000E+00  0.13936765985E+04  0.13936765985E+04  0.25500000920E-02 0.  1.
       -2   -1    0    0    0  501  0.00000000000E+00  0.00000000000E+00 -0.40353897305E+03  0.40353897306E+03  0.25500000920E-02 0. -1.
    10030    2    1    2    0    0  0.00000000000E+00  0.00000000000E+00  0.99013762549E+03  0.17972155716E+04  0.14998704255E+04 0.  0.
        3    1    3    3  502    0  0.36742423119E+03 -0.21022800346E+03 -0.24669019185E+03  0.48995146704E+03  0.10100000352E+00 0. -1.
       -3    1    3    3    0  502 -0.36742423119E+03  0.21022800346E+03  0.12368278173E+04  0.13072641046E+04  0.10100000352E+00 0.  1.
</event>
<event>
 5   0  0.6542036E-05  0.1495909E+04  0.7818609E-02  0.8887178E-01
       -1   -1    0    0    0  501  0.00000000000E+00  0.00000000000E+00  0.30728917168E+03  0.30728917172E+03  0.50400001928E-02 0. -1.
        1   -1    0    0  501    0  0.00000000000E+00  0.00000000000E+00 -0.18205513961E+04  0.18205513961E+04  0.50400001928E-02 0.  1.
    10030    2    1    2    0    0  0.00000000000E+00  0.00000000000E+00 -0.15132622244E+04  0.21278405678E+04  0.14959087279E+04 0.  0.
        4    1    3    3  502    0 -0.15603200082E+03  0.41635547456E+03  0.98888569612E+02  0.45549800063E+03  0.12699999809E+01 0. -1.
       -4    1    3    3    0  502  0.15603200082E+03 -0.41635547456E+03 -0.16121507940E+04  0.16723425672E+04  0.12699999809E+01 0.  1.
</event>
<event>
 5   0  0.1216921E-04  0.1499203E+04  0.7818609E-02  0.8884983E-01
        2   -1    0    0  501    0  0.00000000000E+00  0.00000000000E+00  0.16427445887E+04  0.16427445887E+04  0.25500000920E-02 0.  1.
       -2   -1    0    0    0  501  0.00000000000E+00  0.00000000000E+00 -0.34205103403E+03  0.34205103404E+03  0.25500000920E-02 0. -1.
    10030    2    1    2    0    0  0.00000000000E+00  0.00000000000E+00  0.13006935547E+04  0.19847956228E+04  0.14992031020E+04 0.  0.
        4    1    3    3  502    0  0.63263867905E+03 -0.16122616893E+03  0.16269960406E+03  0.67282861847E+03  0.12699999809E+01 0.  1.
       -4    1    3    3    0  502 -0.63263867905E+03  0.16122616893E+03  0.11379939506E+04  0.13119670043E+04  0.12699999809E+01 0. -1.
</event>
<event>
 5   0  0.1216921E-04  0.1501399E+04  0.7818609E-02  0.8883523E-01
        2   -1    0    0  501    0  0.00000000000E+00  0.00000000000E+00  0.17042924916E+04  0.17042924916E+04  0.25500000920E-02 0. -1.
       -2   -1    0    0    0  501  0.00000000000E+00  0.00000000000E+00 -0.33066480186E+03  0.33066480187E+03  0.25500000920E-02 0.  1.
    10030    2    1    2    0    0  0.00000000000E+00  0.00000000000E+00  0.13736276897E+04  0.20349572935E+04  0.15013987333E+04 0.  0.
        4    1    3    3  502    0 -0.18273339636E+03  0.60789958282E+03  0.14362396657E+03  0.65081706617E+03  0.12699999809E+01 0.  1.
       -4    1    3    3    0  502  0.18273339636E+03 -0.60789958282E+03  0.12300037232E+04  0.13841402273E+04  0.12699999809E+01 0. -1.
</event>
<event>
 5   0  0.6509279E-05  0.1486943E+04  0.7818609E-02  0.8893182E-01
        1   -1    0    0  501    0  0.00000000000E+00  0.00000000000E+00  0.84494652067E+03  0.84494652069E+03  0.50400001928E-02 0. -1.
       -1   -1    0    0    0  501  0.00000000000E+00  0.00000000000E+00 -0.65418329702E+03  0.65418329704E+03  0.50400001928E-02 0.  1.
    10030    2    1    2    0    0  0.00000000000E+00  0.00000000000E+00  0.19076322365E+03  0.14991298177E+04  0.14869430396E+04 0.  0.
        2    1    3    3  502    0 -0.20065476208E+03 -0.65966419153E+03 -0.18498154502E+03  0.71388889271E+03  0.25500000920E-02 0.  1.
       -2    1    3    3    0  502  0.20065476208E+03  0.65966419153E+03  0.37574476867E+03  0.78524092502E+03  0.25500000920E-02 0. -1.
</event>
<event>
 5   0  0.1219810E-04  0.1501059E+04  0.7818609E-02  0.8883749E-01
       -2   -1    0    0    0  501  0.00000000000E+00  0.00000000000E+00  0.59567827348E+03  0.59567827348E+03  0.25500000920E-02 0. -1.
        2   -1    0    0  501    0  0.00000000000E+00  0.00000000000E+00 -0.94563578484E+03  0.94563578484E+03  0.25500000920E-02 0.  1.
    10030    2    1    2    0    0  0.00000000000E+00  0.00000000000E+00 -0.34995751136E+03  0.15413140583E+04  0.15010592149E+04 0.  0.
        1    1    3    3  502    0  0.60897139502E+03  0.43278103788E+03 -0.10129713229E+03  0.75392751358E+03  0.50400001928E-02 0. -1.
       -1    1    3    3    0  502 -0.60897139502E+03 -0.43278103788E+03 -0.24866037908E+03  0.78738654475E+03  0.50400001928E-02 0.  1.
</event>
<event>
 5   0  0.6364378E-05  0.1501869E+04  0.7818609E-02  0.8883211E-01
       -1   -1    0    0    0  501  0.00000000000E+00  0.00000000000E+00  0.55416103348E+03  0.55416103351E+03  0.50400001928E-02 0. -1.
        1   -1    0    0  501    0  0.00000000000E+00  0.00000000000E+00 -0.10175786606E+04  0.10175786606E+04  0.50400001928E-02 0.  1.
    10030    2    1    2    0    0  0.00000000000E+00  0.00000000000E+00 -0.46341762708E+03  0.15717396941E+04  0.15018687589E+04 0.  0.
        5    1    3    3  502    0 -0.29843906820E+03  0.11289849345E+03  0.47967138899E+03  0.57612383970E+03  0.46999998093E+01 0. -1.
       -5    1    3    3    0  502  0.29843906820E+03 -0.11289849345E+03 -0.94308901608E+03  0.99561585438E+03  0.46999998093E+01 0.  1.
</event>
<event>
 5   0  0.6364378E-05  0.1497243E+04  0.7818609E-02  0.8886288E-01
       -1   -1    0    0    0  501  0.00000000000E+00  0.00000000000E+00  0.87664629808E+03  0.87664629810E+03  0.50400001928E-02 0.  1.
        1   -1    0    0  501    0  0.00000000000E+00  0.00000000000E+00 -0.63929342485E+03  0.63929342487E+03  0.50400001928E-02 0. -1.
    10030    2    1    2    0    0  0.00000000000E+00  0.00000000000E+00  0.23735287323E+03  0.15159397230E+04  0.14972430856E+04 0.  0.
        5    1    3    3  502    0 -0.33940743944E+03  0.51363181770E+03 -0.31254937793E+03  0.69045221250E+03  0.46999998093E+01 0. -1.
       -5    1    3    3    0  502  0.33940743944E+03 -0.51363181770E+03  0.54990225117E+03  0.82548751047E+03  0.46999998093E+01 0.  1.
</event>
<event>
 5   0  0.6364378E-05  0.1498817E+04  0.7818609E-02  0.8885240E-01
        1   -1    0    0  501    0  0.00000000000E+00  0.00000000000E+00  0.87372143276E+03  0.87372143278E+03  0.50400001928E-02 0. -1.
       -1   -1    0    0    0  501  0.00000000000E+00  0.00000000000E+00 -0.64278321663E+03  0.64278321665E+03  0.50400001928E-02 0.  1.
    10030    2    1    2    0    0  0.00000000000E+00  0.00000000000E+00  0.23093821613E+03  0.15165046494E+04  0.14988174979E+04 0.  0.
        5    1    3    3  502    0 -0.36759100807E+03 -0.65175836054E+03  0.74006589412E+02  0.75193827873E+03  0.46999998093E+01 0. -1.
       -5    1    3    3    0  502  0.36759100807E+03  0.65175836054E+03  0.15693162672E+03  0.76456637070E+03  0.46999998093E+01 0.  1.
</event>
<event>
 5   0  0.6509279E-05  0.1482550E+04  0.7818609E-02  0.8896140E-01
        1   -1    0    0  501    0  0.00000000000E+00  0.00000000000E+00  0.83478899236E+03  0.83478899237E+03  0.50400001928E-02 0. -1.
       -1   -1    0    0    0  501  0.00000000000E+00  0.00000000000E+00 -0.65823695482E+03  0.65823695484E+03  0.50400001928E-02 0.  1.
    10030    2    1    2    0    0  0.00000000000E+00  0.00000000000E+00  0.17655203753E+03  0.14930259472E+04  0.14825504568E+04 0.  0.
        2    1    3    3  502    0 -0.33773212662E+02  0.71366872070E+03  0.28722006657E+03  0.77003833635E+03  0.25500000920E-02 0. -1.
       -2    1    3    3    0  502  0.33773212662E+02 -0.71366872070E+03 -0.11066802904E+03  0.72298761086E+03  0.25500000920E-02 0.  1.
</event>
<event>
 5   0  0.1186664E-04  0.1499235E+04  0.7818609E-02  0.8884962E-01
       -2   -1    0    0    0  501  0.00000000000E+00  0.00000000000E+00  0.12927800402E+04  0.12927800402E+04  0.25500000920E-02 0.  1.
        2   -1    0    0  501    0  0.00000000000E+00  0.00000000000E+00 -0.43466507692E+03  0.43466507693E+03  0.25500000920E-02 0. -1.
    10030    2    1    2    0    0  0.00000000000E+00  0.00000000000E+00  0.85811496330E+03  0.17274451172E+04  0.14992349191E+04 0.  0.
        3    1    3    3  502    0 -0.10960140925E+03  0.73159131492E+03  0.28941551158E+03  0.79435487631E+03  0.10100000352E+00 0. -1.
       -3    1    3    3    0  502  0.10960140925E+03 -0.73159131492E+03  0.56869945172E+03  0.93309024085E+03  0.10100000352E+00 0.  1.
</event>
<event>
 5   0  0.1254487E-04  0.1501554E+04  0.7818609E-02  0.8883420E-01
        2   -1    0    0  501    0  0.00000000000E+00  0.00000000000E+00  0.21807827945E+04  0.21807827945E+04  0.25500000920E-02 0. -1.
       -2   -1    0    0    0  501  0.00000000000E+00  0.00000000000E+00 -0.25846950196E+03  0.25846950198E+03  0.25500000920E-02 0.  1.
    10030    2    1    2    0    0  0.00000000000E+00  0.00000000000E+00  0.19223132925E+04  0.24392522965E+04  0.15015536525E+04 0.  0.
        5    1    3    3  502    0  0.23381280521E+03 -0.39492393326E+03  0.19263395602E+04  0.19802624907E+04  0.46999998093E+01 0. -1.
       -5    1    3    3    0  502 -0.23381280521E+03  0.39492393326E+03 -0.40262676854E+01  0.45898980574E+03  0.46999998093E+01 0.  1.
</event>
<event>
 5   0  0.1228286E-04  0.1504912E+04  0.7818609E-02  0.8881193E-01
       -2   -1    0    0    0  501  0.00000000000E+00  0.00000000000E+00  0.27117860658E+03  0.27117860659E+03  0.25500000920E-02 0.  1.
        2   -1    0    0  501    0  0.00000000000E+00  0.00000000000E+00 -0.20878856883E+04  0.20878856883E+04  0.25500000920E-02 0. -1.
    10030    2    1    2    0    0  0.00000000000E+00  0.00000000000E+00 -0.18167070817E+04  0.23590642949E+04  0.15049118668E+04 0.  0.
        2    1    3    3  502    0  0.28950291031E+03 -0.43370308017E+03 -0.17587252729E+04  0.18344004149E+04  0.25500000920E-02 0. -1.
       -2    1    3    3    0  502 -0.28950291031E+03  0.43370308017E+03 -0.57981808893E+02  0.52466388002E+03  0.25500000920E-02 0.  1.
</event>
<event>
 5   0  0.6542036E-05  0.1493307E+04  0.7818609E-02  0.8888916E-01
       -1   -1    0    0    0  501  0.00000000000E+00  0.00000000000E+00  0.63744455429E+03  0.63744455431E+03  0.50400001928E-02 0. -1.
        1   -1    0    0  501    0  0.00000000000E+00  0.00000000000E+00 -0.87457266549E+03  0.87457266550E+03  0.50400001928E-02 0.  1.
    10030    2    1    2    0    0  0.00000000000E+00  0.00000000000E+00 -0.23712811120E+03  0.15120172198E+04  0.14933071793E+04 0.  0.
        4    1    3    3  502    0  0.64503815681E+03  0.37254150624E+03 -0.17047603160E+03  0.76414991190E+03  0.12699999809E+01 0.  1.
       -4    1    3    3    0  502 -0.64503815681E+03 -0.37254150624E+03 -0.66652079600E+02  0.74786730790E+03  0.12699999809E+01 0. -1.
</event>
<event>
 5   0  0.1219810E-04  0.1498327E+04  0.7818609E-02  0.8885566E-01
       -2   -1    0    0    0  501  0.00000000000E+00  0.00000000000E+00  0.35731945904E+03  0.35731945905E+03  0.25500000920E-02 0.  1.
        2   -1    0    0  501    0  0.00000000000E+00  0.00000000000E+00 -0.15707114393E+04  0.15707114393E+04  0.25500000920E-02 0. -1.
    10030    2    1    2    0    0  0.00000000000E+00  0.00000000000E+00 -0.12133919803E+04  0.19280308984E+04  0.14983267492E+04 0.  0.
        1    1    3    3  502    0  0.52383995952E+03  0.55736815182E+02  0.78730284719E+02  0.53264749461E+03  0.50400001928E-02 0.  1.
       -1    1    3    3    0  502 -0.52383995952E+03 -0.55736815182E+02 -0.12921222650E+04  0.13953834038E+04  0.50400001928E-02 0. -1.
</event>
<event>
 5   0  0.6509279E-05  0.1499758E+04  0.7818609E-02  0.8884614E-01
        1   -1    0    0  501    0  0.00000000000E+00  0.00000000000E+00  0.62289447846E+03  0.62289447848E+03  0.50400001928E-02 0.  1.
       -1   -1    0    0    0  501  0.00000000000E+00  0.00000000000E+00 -0.90275108952E+03  0.90275108954E+03  0.50400001928E-02 0. -1.
    10030    2    1    2    0    0  0.00000000000E+00  0.00000000000E+00 -0.27985661106E+03  0.15256455680E+04  0.14997582060E+04 0.  0.
        2    1    3    3  502    0  0.53894884556E+03  0.13408002109E+02 -0.67014777801E+03  0.86008352910E+03  0.25500000920E-02 0. -1.
       -2    1    3    3    0  502 -0.53894884556E+03 -0.13408002109E+02  0.39029116695E+03  0.66556203892E+03  0.25500000920E-02 0.  1.
</event>
<event>
 5   0  0.6668433E-05  0.1500090E+04  0.7818609E-02  0.8884393E-01
       -1   -1    0    0    0  501  0.00000000000E+00  0.00000000000E+00  0.63671293910E+03  0.63671293912E+03  0.50400001928E-02 0.  1.
        1   -1    0    0  501    0  0.00000000000E+00  0.00000000000E+00 -0.88354937956E+03  0.88354937957E+03  0.50400001928E-02 0. -1.
    10030    2    1    2    0    0  0.00000000000E+00  0.00000000000E+00 -0.24683644046E+03  0.15202623187E+04  0.15000897604E+04 0.  0.
        1    1    3    3  502    0  0.67171291867E+03  0.26806832753E+03 -0.32485848093E+03  0.79283788128E+03  0.50400001928E-02 0. -1.
       -1    1    3    3    0  502 -0.67171291867E+03 -0.26806832753E+03  0.78022040470E+02  0.72742443742E+03  0.50400001928E-02 0.  1.
</event>
<event>
 5   0  0.6361716E-05  0.1500129E+04  0.7818609E-02  0.8884367E-01
        1   -1    0    0  501    0  0.00000000000E+00  0.00000000000E+00  0.89207151424E+03  0.89207151425E+03  0.50400001928E-02 0. -1.
       -1   -1    0    0    0  501  0.00000000000E+00  0.00000000000E+00 -0.63066347240E+03  0.63066347242E+03  0.50400001928E-02 0.  1.
    10030    2    1    2    0    0  0.00000000000E+00  0.00000000000E+00  0.26140804184E+03  0.15227349867E+04  0.15001292195E+04 0.  0.
        3    1    3    3  502    0  0.46546458909E+03 -0.12713788914E+03 -0.45221053977E+03  0.66129850221E+03  0.10100000352E+00 0.  1.
       -3    1    3    3    0  502 -0.46546458909E+03  0.12713788914E+03  0.71361858161E+03  0.86143648446E+03  0.10100000352E+00 0. -1.
</event>
<event>
 5   0  0.6509279E-05  0.1501941E+04  0.7818609E-02  0.8883163E-01
       -1   -1    0    0    0  501  0.00000000000E+00  0.00000000000E+00  0.13388728092E+04  0.13388728092E+04  0.50400001928E-02 0. -1.
        1   -1    0    0  501    0  0.00000000000E+00  0.00000000000E+00 -0.42121744133E+03  0.42121744136E+03  0.50400001928E-02 0.  1.
    10030    2    1    2    0    0  0.00000000000E+00  0.00000000000E+00  0.91765536790E+03  0.17600902506E+04  0.15019408497E+04 0.  0.
        2    1    3    3  502    0 -0.92445273763E+02 -0.65382440324E+03  0.39688471352E+02  0.66151920130E+03  0.25500000920E-02 0.  1.
       -2    1    3    3    0  502  0.92445273763E+02  0.65382440324E+03  0.87796689655E+03  0.10985710493E+04  0.25500000920E-02 0. -1.
</event>
<event>
 5   0  0.6361716E-05  0.1499665E+04  0.7818609E-02  0.8884676E-01
        1   -1    0    0  501    0  0.00000000000E+00  0.00000000000E+00  0.17247354121E+04  0.17247354121E+04  0.50400001928E-02 0. -1.
       -1   -1    0    0    0  501  0.00000000000E+00  0.00000000000E+00 -0.32599115787E+03  0.32599115791E+03  0.50400001928E-02 0.  1.
    10030    2    1    2    0    0  0.00000000000E+00  0.00000000000E+00  0.13987442543E+04  0.20507265701E+04  0.14996646213E+04 0.  0.
        3    1    3    3  502    0  0.70441187359E+03 -0.14615339279E+03  0.98845773863E+03  0.12225406386E+04  0.10100000352E+00 0.  1.
       -3    1    3    3    0  502 -0.70441187359E+03  0.14615339279E+03  0.41028651563E+03  0.82818593141E+03  0.10100000352E+00 0. -1.
</event>
<event>
 5   0  0.6668433E-05  0.1505208E+04  0.7818609E-02  0.8880997E-01
        1   -1    0    0  501    0  0.00000000000E+00  0.00000000000E+00  0.92018663528E+03  0.92018663529E+03  0.50400001928E-02 0. -1.
       -1   -1    0    0    0  501  0.00000000000E+00  0.00000000000E+00 -0.61554145488E+03  0.61554145490E+03  0.50400001928E-02 0.  1.
    10030    2    1    2    0    0  0.00000000000E+00  0.00000000000E+00  0.30464518040E+03  0.15357280902E+04  0.15052083182E+04 0.  0.
        1    1    3    3  502    0  0.28389042950E+03  0.21433737667E+03 -0.52435875074E+03  0.63362953412E+03  0.50400001928E-02 0.  1.
       -1    1    3    3    0  502 -0.28389042950E+03 -0.21433737667E+03  0.82900393114E+03  0.90209855608E+03  0.50400001928E-02 0. -1.
</event>
<event>
 5   0  0.6509279E-05  0.1500530E+04  0.7818609E-02  0.8884100E-01
       -1   -1    0    0    0  501  0.00000000000E+00  0.00000000000E+00  0.58407901179E+03  0.58407901181E+03  0.50400001928E-02 0.  1.
        1   -1    0    0  501    0  0.00000000000E+00  0.00000000000E+00 -0.96373559232E+03  0.96373559233E+03  0.50400001928E-02 0. -1.
    10030    2    1    2    0    0  0.00000000000E+00  0.00000000000E+00 -0.37965658053E+03  0.15478146041E+04  0.15005302162E+04 0.  0.
        2    1    3    3  502    0 -0.56357604910E+03  0.49516681632E+03 -0.19959193518E+03  0.77630218324E+03  0.25500000920E-02 0.  1.
       -2    1    3    3    0  502  0.56357604910E+03 -0.49516681632E+03 -0.18006464535E+03  0.77151242091E+03  0.25500000920E-02 0. -1.
</event>
<event>
 5   0  0.1228286E-04  0.1502189E+04  0.7818609E-02  0.8882999E-01
        2   -1    0    0  501    0  0.00000000000E+00  0.00000000000E+00  0.11500646060E+04  0.11500646060E+04  0.25500000920E-02 0.  1.
       -2   -1    0    0    0  501  0.00000000000E+00  0.00000000000E+00 -0.49053158826E+03  0.49053158826E+03  0.25500000920E-02 0. -1.
    10030    2    1    2    0    0  0.00000000000E+00  0.00000000000E+00  0.65953301775E+03  0.16405961943E+04  0.15021890930E+04 0.  0.
        2    1    3    3  502    0  0.67578828443E+03  0.27508707073E+03  0.13507088035E+03  0.74202887045E+03  0.25500000920E-02 0.  1.
       -2    1    3    3    0  502 -0.67578828443E+03 -0.27508707073E+03  0.52446213740E+03  0.89856732382E+03  0.25500000920E-02 0. -1.
</event>
<event>
 5   0  0.6509279E-05  0.1499079E+04  0.7818609E-02  0.8885066E-01
        1   -1    0    0  501    0  0.00000000000E+00  0.00000000000E+00  0.68688547272E+03  0.68688547274E+03  0.50400001928E-02 0. -1.
       -1   -1    0    0    0  501  0.00000000000E+00  0.00000000000E+00 -0.81790850806E+03  0.81790850807E+03  0.50400001928E-02 0.  1.
    10030    2    1    2    0    0  0.00000000000E+00  0.00000000000E+00 -0.13102303534E+03  0.15047939808E+04  0.14990790136E+04 0.  0.
        2    1    3    3  502    0  0.41148151689E+03 -0.54581456459E+03 -0.37422076431E+03  0.77927643241E+03  0.25500000920E-02 0.  1.
       -2    1    3    3    0  502 -0.41148151689E+03  0.54581456459E+03  0.24319772897E+03  0.72551754841E+03  0.25500000920E-02 0. -1.
</event>
<event>
 5   0  0.6364378E-05  0.1500043E+04  0.7818609E-02  0.8884425E-01
       -1   -1    0    0    0  501  0.00000000000E+00  0.00000000000E+00  0.45919896672E+03  0.45919896675E+03  0.50400001928E-02 0. -1.
        1   -1    0    0  501    0  0.00000000000E+00  0.00000000000E+00 -0.12250286420E+04  0.12250286420E+04  0.50400001928E-02 0.  1.
    10030    2    1    2    0    0  0.00000000000E+00  0.00000000000E+00 -0.76582967526E+03  0.16842276087E+04  0.15000425149E+04 0.  0.
        5    1    3    3  502    0 -0.29322193422E+03 -0.22989160361E+03 -0.11137450200E+04  0.11744272270E+04  0.46999998093E+01 0.  1.
       -5    1    3    3    0  502  0.29322193422E+03  0.22989160361E+03  0.34791534470E+03  0.50980038171E+03  0.46999998093E+01 0. -1.
</event>
<event>
 5   0  0.4462875E-05  0.1499603E+04  0.7818609E-02  0.8884717E-01
       -3   -1    0    0    0  501  0.00000000000E+00  0.00000000000E+00  0.38042863549E+03  0.38042864890E+03  0.10100000352E+00 0.  1.
        3   -1    0    0  501    0  0.00000000000E+00  0.00000000000E+00 -0.14778120086E+04  0.14778120121E+04  0.10100000352E+00 0. -1.
    10030    2    1    2    0    0  0.00000000000E+00  0.00000000000E+00 -0.10973833731E+04  0.18582406610E+04  0.14996026429E+04 0.  0.
        5    1    3    3  502    0  0.51842572008E+03 -0.52734257376E+03 -0.39529389023E+03  0.83853131545E+03  0.46999998093E+01 0. -1.
       -5    1    3    3    0  502 -0.51842572008E+03  0.52734257376E+03 -0.70208948290E+03  0.10197093455E+04  0.46999998093E+01 0.  1.
</event>
<event>
 5   0  0.1186664E-04  0.1501915E+04  0.7818609E-02  0.8883181E-01
        2   -1    0    0  501    0  0.00000000000E+00  0.00000000000E+00  0.18712776323E+04  0.18712776323E+04  0.25500000920E-02 0. -1.
       -2   -1    0    0    0  501  0.00000000000E+00  0.00000000000E+00 -0.30136472343E+03  0.30136472344E+03  0.25500000920E-02 0.  1.
    10030    2    1    2    0    0  0.00000000000E+00  0.00000000000E+00  0.15699129089E+04  0.21726423558E+04  0.15019148659E+04 0.  0.
        3    1    3    3  502    0 -0.46969576530E+03 -0.21575344167E+03 -0.30965142262E+01  0.51688805184E+03  0.10100000352E+00 0.  1.
       -3    1    3    3    0  502  0.46969576530E+03  0.21575344167E+03  0.15730094231E+04  0.16557543039E+04  0.10100000352E+00 0. -1.
</event>
<event>
 5   0  0.1186664E-04  0.1499105E+04  0.7818609E-02  0.8885048E-01
        2   -1    0    0  501    0  0.00000000000E+00  0.00000000000E+00  0.38305150340E+03  0.38305150341E+03  0.25500000920E-02 0.  1.
       -2   -1    0    0    0  501  0.00000000000E+00  0.00000000000E+00 -0.14667186580E+04  0.14667186580E+04  0.25500000920E-02 0. -1.
    10030    2    1    2    0    0  0.00000000000E+00  0.00000000000E+00 -0.10836671546E+04  0.18497701614E+04  0.14991047822E+04 0.  0.
        3    1    3    3  502    0 -0.70322547568E+03  0.10495061655E+03 -0.24908554866E+03  0.75338192327E+03  0.10100000352E+00 0.  1.
       -3    1    3    3    0  502  0.70322547568E+03 -0.10495061655E+03 -0.83458160595E+03  0.10963882382E+04  0.10100000352E+00 0. -1.
</event>
<event>
 5   0  0.1216921E-04  0.1499020E+04  0.7818609E-02  0.8885105E-01
        2   -1    0    0  501    0  0.00000000000E+00  0.00000000000E+00  0.11721068826E+04  0.11721068826E+04  0.25500000920E-02 0. -1.
       -2   -1    0    0    0  501  0.00000000000E+00  0.00000000000E+00 -0.47927820435E+03  0.47927820435E+03  0.25500000920E-02 0.  1.
    10030    2    1    2    0    0  0.00000000000E+00  0.00000000000E+00  0.69282867822E+03  0.16513850869E+04  0.14990200559E+04 0.  0.
        4    1    3    3  502    0 -0.84771993527E+02 -0.74291326396E+03  0.28962615588E+03  0.80186740283E+03  0.12699999809E+01 0.  1.
       -4    1    3    3    0  502  0.84771993527E+02  0.74291326396E+03  0.40320252234E+03  0.84951768409E+03  0.12699999809E+01 0. -1.
</event>
<event>
 5   0  0.1186664E-04  0.1503644E+04  0.7818609E-02  0.8882034E-01
       -2   -1    0    0    0  501  0.00000000000E+00  0.00000000000E+00  0.10665632170E+04  0.10665632170E+04  0.25500000920E-02 0.  1.
        2   -1    0    0  501    0  0.00000000000E+00  0.00000000000E+00 -0.52996011883E+03  0.52996011883E+03  0.25500000920E-02 0. -1.
    10030    2    1    2    0    0  0.00000000000E+00  0.00000000000E+00  0.53660309818E+03  0.15965233358E+04  0.15036435339E+04 0.  0.
        3    1    3    3  502    0 -0.22921257569E+03 -0.46560543448E+03  0.84587811602E+03  0.99238935043E+03  0.10100000352E+00 0.  1.
       -3    1    3    3    0  502  0.22921257569E+03  0.46560543448E+03 -0.30927501785E+03  0.60413398541E+03  0.10100000352E+00 0. -1.
</event>
<event>
 5   0  0.1219810E-04  0.1498713E+04  0.7818609E-02  0.8885309E-01
       -2   -1    0    0    0  501  0.00000000000E+00  0.00000000000E+00  0.11591231951E+04  0.11591231951E+04  0.25500000920E-02 0. -1.
        2   -1    0    0  501    0  0.00000000000E+00  0.00000000000E+00 -0.48444811646E+03  0.48444811647E+03  0.25500000920E-02 0.  1.
    10030    2    1    2    0    0  0.00000000000E+00  0.00000000000E+00  0.67467507866E+03  0.16435713116E+04  0.14987128459E+04 0.  0.
        1    1    3    3  502    0  0.24403534617E+03 -0.78115531716E+02 -0.43491316734E+03  0.50478188322E+03  0.50400001928E-02 0.  1.
       -1    1    3    3    0  502 -0.24403534617E+03  0.78115531716E+02  0.11095882460E+04  0.11387894284E+04  0.50400001928E-02 0. -1.
</event>
<event>
 5   0  0.1254487E-04  0.1499948E+04  0.7818609E-02  0.8884487E-01
        2   -1    0    0  501    0  0.00000000000E+00  0.00000000000E+00  0.99445521712E+03  0.99445521712E+03  0.25500000920E-02 0. -1.
       -2   -1    0    0    0  501  0.00000000000E+00  0.00000000000E+00 -0.56559726058E+03  0.56559726059E+03  0.25500000920E-02 0.  1.
    10030    2    1    2    0    0  0.00000000000E+00  0.00000000000E+00  0.42885795654E+03  0.15600524777E+04  0.14999481945E+04 0.  0.
        5    1    3    3  502    0 -0.72082921506E+03 -0.18343468904E+03  0.11469049408E+03  0.75260815957E+03  0.46999998093E+01 0.  1.
       -5    1    3    3    0  502  0.72082921506E+03  0.18343468904E+03  0.31416746246E+03  0.80744431814E+03  0.46999998093E+01 0. -1.
</event>
<event>
 5   0  0.1254487E-04  0.1498593E+04  0.7818609E-02  0.8885389E-01
        2   -1    0    0  501    0  0.00000000000E+00  0.00000000000E+00  0.14658265608E+04  0.14658265608E+04  0.25500000920E-02 0. -1.
       -2   -1    0    0    0  501  0.00000000000E+00  0.00000000000E+00 -0.38302307106E+03  0.38302307107E+03  0.25500000920E-02 0.  1.
    10030    2    1    2    0    0  0.00000000000E+00  0.00000000000E+00  0.10828034897E+04  0.18488496319E+04  0.14985931949E+04 0.  0.
        5    1    3    3  502    0 -0.13947936311E+03  0.64130921165E+03  0.95395253731E+02  0.66321515522E+03  0.46999998093E+01 0.  1.
       -5    1    3    3    0  502  0.13947936311E+03 -0.64130921165E+03  0.98740823599E+03  0.11856344766E+04  0.46999998093E+01 0. -1.
</event>
<event>
 5   0  0.6361716E-05  0.1499091E+04  0.7818609E-02  0.8885058E-01
        1   -1    0    0  501    0  0.00000000000E+00  0.00000000000E+00  0.11169074341E+04  0.11169074341E+04  0.50400001928E-02 0.  1.
       -1   -1    0    0    0  501  0.00000000000E+00  0.00000000000E+00 -0.50301237078E+03  0.50301237081E+03  0.50400001928E-02 0. -1.
    10030    2    1    2    0    0  0.00000000000E+00  0.00000000000E+00  0.61389506329E+03  0.16199198049E+04  0.14990907329E+04 0.  0.
        3    1    3    3  502    0  0.25285420321E+03  0.54299672401E+03  0.79386323827E+03  0.99448456078E+03  0.10100000352E+00 0.  1.
       -3    1    3    3    0  502 -0.25285420321E+03 -0.54299672401E+03 -0.17996817498E+03  0.62543524411E+03  0.10100000352E+00 0. -1.
</event>
<event>
 5   0  0.6668433E-05  0.1496242E+04  0.7818609E-02  0.8886956E-01
       -1   -1    0    0    0  501  0.00000000000E+00  0.00000000000E+00  0.91617439909E+03  0.91617439910E+03  0.50400001928E-02 0. -1.
        1   -1    0    0  501    0  0.00000000000E+00  0.00000000000E+00 -0.61089377039E+03  0.61089377041E+03  0.50400001928E-02 0.  1.
    10030    2    1    2    0    0  0.00000000000E+00  0.00000000000E+00  0.30528062870E+03  0.15270681695E+04  0.14962422705E+04 0.  0.
        1    1    3    3  502    0  0.30608437783E+03  0.13165784263E+03  0.83626387121E+03  0.90019925361E+03  0.50400001928E-02 0. -1.
       -1    1    3    3    0  502 -0.30608437783E+03 -0.13165784263E+03 -0.53098324251E+03  0.62686891591E+03  0.50400001928E-02 0.  1.
</event>
<event>
 5   0  0.6361716E-05  0.1496545E+04  0.7818609E-02  0.8886754E-01
       -1   -1    0    0    0  501  0.00000000000E+00  0.00000000000E+00  0.33833968810E+03  0.33833968814E+03  0.50400001928E-02 0.  1.
        1   -1    0    0  501    0  0.00000000000E+00  0.00000000000E+00 -0.16548809085E+04  0.16548809085E+04  0.50400001928E-02 0. -1.
    10030    2    1    2    0    0  0.00000000000E+00  0.00000000000E+00 -0.13165412204E+04  0.19932205966E+04  0.14965452088E+04 0.  0.
        3    1    3    3  502    0 -0.48237895127E+03  0.50416119304E+02 -0.14171866359E+04  0.14978815737E+04  0.10100000352E+00 0. -1.
       -3    1    3    3    0  502  0.48237895127E+03 -0.50416119304E+02  0.10064541555E+03  0.49533902288E+03  0.10100000352E+00 0.  1.
</event>
<event>
 5   0  0.6668433E-05  0.1500853E+04  0.7818609E-02  0.8883886E-01
        1   -1    0    0  501    0  0.00000000000E+00  0.00000000000E+00  0.52904051466E+03  0.52904051468E+03  0.50400001928E-02 0. -1.
       -1   -1    0    0    0  501  0.00000000000E+00  0.00000000000E+00 -0.10644549301E+04  0.10644549301E+04  0.50400001928E-02 0.  1.
    10030    2    1    2    0    0  0.00000000000E+00  0.00000000000E+00 -0.53541441543E+03  0.15934954448E+04  0.15008528030E+04 0.  0.
        1    1    3    3  502    0  0.43307721688E+03  0.35763145350E+03 -0.79610548948E+03  0.97428952715E+03  0.50400001928E-02 0.  1.
       -1    1    3    3    0  502 -0.43307721688E+03 -0.35763145350E+03  0.26069107405E+03  0.61920591763E+03  0.50400001928E-02 0. -1.
</event>
<event>
 5   0  0.6542036E-05  0.1501024E+04  0.7818609E-02  0.8883772E-01
        1   -1    0    0  501    0  0.00000000000E+00  0.00000000000E+00  0.13887059164E+04  0.13887059164E+04  0.50400001928E-02 0. -1.
       -1   -1    0    0    0  501  0.00000000000E+00  0.00000000000E+00 -0.40560671848E+03  0.40560671851E+03  0.50400001928E-02 0.  1.
    10030    2    1    2    0    0  0.00000000000E+00  0.00000000000E+00  0.98309919788E+03  0.17943126349E+04  0.15010242499E+04 0.  0.
        4    1    3    3  502    0 -0.39023285137E+02 -0.30784342129E+03  0.13084289072E+04  0.13447223531E+04  0.12699999809E+01 0. -1.
       -4    1    3    3    0  502  0.39023285137E+02  0.30784342129E+03 -0.32532970932E+03  0.44959028179E+03  0.12699999809E+01 0.  1.
</event>
<event>
 5   0  0.1216921E-04  0.1500519E+04  0.7818609E-02  0.8884108E-01
       -2   -1    0    0    0  501  0.00000000000E+00  0.00000000000E+00  0.13396101412E+04  0.13396101412E+04  0.25500000920E-02 0. -1.
        2   -1    0    0  501    0  0.00000000000E+00  0.00000000000E+00 -0.42018904225E+03  0.42018904226E+03  0.25500000920E-02 0.  1.
    10030    2    1    2    0    0  0.00000000000E+00  0.00000000000E+00  0.91942109899E+03  0.17597991835E+04  0.15005192465E+04 0.  0.
        4    1    3    3  502    0  0.61579052285E+03  0.31018017483E+03  0.80658428090E+03  0.10611265353E+04  0.12699999809E+01 0. -1.
       -4    1    3    3    0  502 -0.61579052285E+03 -0.31018017483E+03  0.11283681808E+03  0.69867264817E+03  0.12699999809E+01 0.  1.
</event>
<event>
 5   0  0.1254487E-04  0.1504987E+04  0.7818609E-02  0.8881143E-01
       -2   -1    0    0    0  501  0.00000000000E+00  0.00000000000E+00  0.43325242533E+03  0.43325242533E+03  0.25500000920E-02 0. -1.
        2   -1    0    0  501    0  0.00000000000E+00  0.00000000000E+00 -0.13069670505E+04  0.13069670505E+04  0.25500000920E-02 0.  1.
    10030    2    1    2    0    0  0.00000000000E+00  0.00000000000E+00 -0.87371462517E+03  0.17402194758E+04  0.15049872351E+04 0.  0.
        5    1    3    3  502    0 -0.35367374511E+03  0.51622789752E+03 -0.92008661149E+03  0.11127254031E+04  0.46999998093E+01 0.  1.
       -5    1    3    3    0  502  0.35367374511E+03 -0.51622789752E+03  0.46371986315E+02  0.62749407270E+03  0.46999998093E+01 0. -1.
</event>
<event>
 5   0  0.6668433E-05  0.1493474E+04  0.7818609E-02  0.8888804E-01
        1   -1    0    0  501    0  0.00000000000E+00  0.00000000000E+00  0.19485367705E+04  0.19485367705E+04  0.50400001928E-02 0. -1.
       -1   -1    0    0    0  501  0.00000000000E+00  0.00000000000E+00 -0.28617163907E+03  0.28617163911E+03  0.50400001928E-02 0.  1.
    10030    2    1    2    0    0  0.00000000000E+00  0.00000000000E+00  0.16623651314E+04  0.22347084096E+04  0.14934737513E+04 0.  0.
        1    1    3    3  502    0  0.74445013652E+02 -0.13268298542E+03  0.19251000935E+04  0.19311025878E+04  0.50400001928E-02 0. -1.
       -1    1    3    3    0  502 -0.74445013652E+02  0.13268298542E+03 -0.26273496210E+03  0.30360582177E+03  0.50400001928E-02 0.  1.
</event>
<event>
 5   0  0.1186664E-04  0.1502410E+04  0.7818609E-02  0.8882852E-01
       -2   -1    0    0    0  501  0.00000000000E+00  0.00000000000E+00  0.45267181811E+03  0.45267181811E+03  0.25500000920E-02 0. -1.
        2   -1    0    0  501    0  0.00000000000E+00  0.00000000000E+00 -0.12466187507E+04  0.12466187507E+04  0.25500000920E-02 0.  1.
    10030    2    1    2    0    0  0.00000000000E+00  0.00000000000E+00 -0.79394693255E+03  0.16992905688E+04  0.15024102986E+04 0.  0.
        3    1    3    3  502    0 -0.51584021505E+03 -0.23690445493E+03 -0.95348144258E+03  0.11096583798E+04  0.10100000352E+00 0.  1.
       -3    1    3    3    0  502  0.51584021505E+03  0.23690445493E+03  0.15953451003E+03  0.58963218901E+03  0.10100000352E+00 0. -1.
</event>
<event>
 5   0  0.1219810E-04  0.1499600E+04  0.7818609E-02  0.8884719E-01
       -2   -1    0    0    0  501  0.00000000000E+00  0.00000000000E+00  0.75996174848E+03  0.75996174848E+03  0.25500000920E-02 0.  1.
        2   -1    0    0  501    0  0.00000000000E+00  0.00000000000E+00 -0.73977461782E+03  0.73977461783E+03  0.25500000920E-02 0. -1.
    10030    2    1    2    0    0  0.00000000000E+00  0.00000000000E+00  0.20187130658E+02  0.14997363663E+04  0.14996004962E+04 0.  0.
        1    1    3    3  502    0  0.56689860484E+03 -0.48950391796E+03  0.44914792251E+02  0.75033689264E+03  0.50400001928E-02 0. -1.
       -1    1    3    3    0  502 -0.56689860484E+03  0.48950391796E+03 -0.24727661593E+02  0.74939947367E+03  0.50400001928E-02 0.  1.
</event>
<event>
 5   0  0.1228286E-04  0.1510126E+04  0.7818609E-02  0.8877747E-01
       -2   -1    0    0    0  501  0.00000000000E+00  0.00000000000E+00  0.12696998825E+04  0.12696998825E+04  0.25500000920E-02 0. -1.
        2   -1    0    0  501    0  0.00000000000E+00  0.00000000000E+00 -0.44901960386E+03  0.44901960387E+03  0.25500000920E-02 0.  1.
    10030    2    1    2    0    0  0.00000000000E+00  0.00000000000E+00  0.82068027861E+03  0.17187194863E+04  0.15101260057E+04 0.  0.
        2    1    3    3  502    0  0.28304842067E+03 -0.66117529869E+03  0.14869165048E+03  0.73442384967E+03  0.25500000920E-02 0.  1.
       -2    1    3    3    0  502 -0.28304842067E+03  0.66117529869E+03  0.67198862812E+03  0.98429563667E+03  0.25500000920E-02 0. -1.
</event>
<event>
 5   0  0.6509279E-05  0.1500466E+04  0.7818609E-02  0.8884143E-01
        1   -1    0    0  501    0  0.00000000000E+00  0.00000000000E+00  0.17230252022E+04  0.17230252022E+04  0.50400001928E-02 0.  1.
       -1   -1    0    0    0  501  0.00000000000E+00  0.00000000000E+00 -0.32666360649E+03  0.32666360653E+03  0.50400001928E-02 0. -1.
    10030    2    1    2    0    0  0.00000000000E+00  0.00000000000E+00  0.13963615957E+04  0.20496888087E+04  0.15004660965E+04 0.  0.
        2    1    3    3  502    0 -0.70940592230E+03 -0.10082384493E+03  0.10018814314E+04  0.12317421049E+04  0.25500000920E-02 0.  1.
       -2    1    3    3    0  502  0.70940592230E+03  0.10082384493E+03  0.39448016426E+03  0.81794670383E+03  0.25500000920E-02 0. -1.
</event>
<event>
 5   0  0.6542036E-05  0.1499395E+04  0.7818609E-02  0.8884855E-01
       -1   -1    0    0    0  501  0.00000000000E+00  0.00000000000E+00  0.88516141634E+03  0.88516141635E+03  0.50400001928E-02 0.  1.
        1   -1    0    0  501    0  0.00000000000E+00  0.00000000000E+00 -0.63496501552E+03  0.63496501554E+03  0.50400001928E-02 0. -1.
    10030    2    1    2    0    0  0.00000000000E+00  0.00000000000E+00  0.25019640082E+03  0.15201264319E+04  0.14993952547E+04 0.  0.
        4    1    3    3  502    0  0.20437553436E+03 -0.75823235987E+02 -0.60212446971E+03  0.64037021486E+03  0.12699999809E+01 0. -1.
       -4    1    3    3    0  502 -0.20437553436E+03  0.75823235987E+02  0.85232087053E+03  0.87975621703E+03  0.12699999809E+01 0.  1.
</event>
<event>
 5   0  0.1254487E-04  0.1499203E+04  0.7818609E-02  0.8884983E-01
        2   -1    0    0  501    0  0.00000000000E+00  0.00000000000E+00  0.15645194067E+04  0.15645194067E+04  0.25500000920E-02 0. -1.
       -2   -1    0    0    0  501  0.00000000000E+00  0.00000000000E+00 -0.35915334823E+03  0.35915334824E+03  0.25500000920E-02 0.  1.
    10030    2    1    2    0    0  0.00000000000E+00  0.00000000000E+00  0.12053660585E+04  0.19236727549E+04  0.14992029660E+04 0.  0.
        5    1    3    3  502    0 -0.69479420573E+03  0.27929310024E+03  0.55942290169E+03  0.93472974548E+03  0.46999998093E+01 0.  1.
       -5    1    3    3    0  502  0.69479420573E+03 -0.27929310024E+03  0.64594315678E+03  0.98894300945E+03  0.46999998093E+01 0. -1.
</event>
<event>
 5   0  0.6509279E-05  0.1501893E+04  0.7818609E-02  0.8883195E-01
       -1   -1    0    0    0  501  0.00000000000E+00  0.00000000000E+00  0.98064854341E+03  0.98064854343E+03  0.50400001928E-02 0. -1.
        1   -1    0    0  501    0  0.00000000000E+00  0.00000000000E+00 -0.57504839322E+03  0.57504839324E+03  0.50400001928E-02 0.  1.
    10030    2    1    2    0    0  0.00000000000E+00  0.00000000000E+00  0.40560015019E+03  0.15556969367E+04  0.15018926316E+04 0.  0.
        2    1    3    3  502    0 -0.27076901650E+03 -0.69164333598E+03  0.31736994812E+03  0.80771904056E+03  0.25500000920E-02 0. -1.
       -2    1    3    3    0  502  0.27076901650E+03  0.69164333598E+03  0.88230202071E+02  0.74797789611E+03  0.25500000920E-02 0.  1.
</event>
<event>
 5   0  0.6364378E-05  0.1499905E+04  0.7818609E-02  0.8884516E-01
       -1   -1    0    0    0  501  0.00000000000E+00  0.00000000000E+00  0.55410567794E+03  0.55410567796E+03  0.50400001928E-02 0.  1.
        1   -1    0    0  501    0  0.00000000000E+00  0.00000000000E+00 -0.10150211342E+04  0.10150211342E+04  0.50400001928E-02 0. -1.
    10030    2    1    2    0    0  0.00000000000E+00  0.00000000000E+00 -0.46091545627E+03  0.15691268122E+04  0.14999052953E+04 0.  0.
        5    1    3    3  502    0 -0.67228562457E+03 -0.47941709461E+02  0.11356601921E+03  0.68350983843E+03  0.46999998093E+01 0.  1.
       -5    1    3    3    0  502  0.67228562457E+03  0.47941709461E+02 -0.57448147548E+03  0.88561697374E+03  0.46999998093E+01 0. -1.
</event>
<event>
 5   0  0.6542036E-05  0.1499146E+04  0.7818609E-02  0.8885021E-01
        1   -1    0    0  501    0  0.00000000000E+00  0.00000000000E+00  0.21091897084E+04  0.21091897084E+04  0.50400001928E-02 0.  1.
       -1   -1    0    0    0  501  0.00000000000E+00  0.00000000000E+00 -0.26638662198E+03  0.26638662202E+03  0.50400001928E-02 0. -1.
    10030    2    1    2    0    0  0.00000000000E+00  0.00000000000E+00  0.18428030864E+04  0.23755763304E+04  0.14991463192E+04 0.  0.
        4    1    3    3  502    0  0.21523633687E+03 -0.49748209326E+03  0.17418047693E+04  0.18241986134E+04  0.12699999809E+01 0.  1.
       -4    1    3    3    0  502 -0.21523633687E+03  0.49748209326E+03  0.10099831704E+03  0.55137771697E+03  0.12699999809E+01 0. -1.
</event>
<event>
 5   0  0.6361716E-05  0.1500752E+04  0.7818609E-02  0.8883953E-01
       -1   -1    0    0    0  501  0.00000000000E+00  0.00000000000E+00  0.61270515339E+03  0.61270515341E+03  0.50400001928E-02 0.  1.
        1   -1    0    0  501    0  0.00000000000E+00  0.00000000000E+00 -0.91898060232E+03  0.91898060233E+03  0.50400001928E-02 0. -1.
    10030    2    1    2    0    0  0.00000000000E+00  0.00000000000E+00 -0.30627544893E+03  0.15316857557E+04  0.15007520127E+04 0.  0.
        3    1    3    3  502    0  0.37925127922E+03 -0.34268426364E+03 -0.71382465275E+03  0.87795767689E+03  0.10100000352E+00 0. -1.
       -3    1    3    3    0  502 -0.37925127922E+03  0.34268426364E+03  0.40754920382E+03  0.65372807885E+03  0.10100000352E+00 0.  1.
</event>
<event>
 5   0  0.6364378E-05  0.1499071E+04  0.7818609E-02  0.8885071E-01
        1   -1    0    0  501    0  0.00000000000E+00  0.00000000000E+00  0.14161891619E+04  0.14161891619E+04  0.50400001928E-02 0. -1.
       -1   -1    0    0    0  501  0.00000000000E+00  0.00000000000E+00 -0.39670082403E+03  0.39670082406E+03  0.50400001928E-02 0.  1.
    10030    2    1    2    0    0  0.00000000000E+00  0.00000000000E+00  0.10194883379E+04  0.18128899860E+04  0.14990709223E+04 0.  0.
        5    1    3    3  502    0  0.69902402212E+03 -0.11925362948E+03  0.80330640884E+03  0.10715312819E+04  0.46999998093E+01 0. -1.
       -5    1    3    3    0  502 -0.69902402212E+03  0.11925362948E+03  0.21618192906E+03  0.74135870407E+03  0.46999998093E+01 0.  1.
</event>
<event>
 5   0  0.6668433E-05  0.1502501E+04  0.7818609E-02  0.8882792E-01
       -1   -1    0    0    0  501  0.00000000000E+00  0.00000000000E+00  0.38988830579E+03  0.38988830582E+03  0.50400001928E-02 0. -1.
        1   -1    0    0  501    0  0.00000000000E+00  0.00000000000E+00 -0.14475356956E+04  0.14475356956E+04  0.50400001928E-02 0.  1.
    10030    2    1    2    0    0  0.00000000000E+00  0.00000000000E+00 -0.10576473898E+04  0.18374240014E+04  0.15025009018E+04 0.  0.
        1    1    3    3  502    0 -0.54827204559E+03  0.39252531054E+03 -0.12378571395E+03  0.68556637782E+03  0.50400001928E-02 0. -1.
       -1    1    3    3    0  502  0.54827204559E+03 -0.39252531054E+03 -0.93386167581E+03  0.11518576236E+04  0.50400001928E-02 0.  1.
</event>
<event>
 5   0  0.4462875E-05  0.1500572E+04  0.7818609E-02  0.8884072E-01
       -3   -1    0    0    0  501  0.00000000000E+00  0.00000000000E+00  0.68360712946E+03  0.68360713693E+03  0.10100000352E+00 0. -1.
        3   -1    0    0  501    0  0.00000000000E+00  0.00000000000E+00 -0.82346910556E+03  0.82346911175E+03  0.10100000352E+00 0.  1.
    10030    2    1    2    0    0  0.00000000000E+00  0.00000000000E+00 -0.13986197609E+03  0.15070762487E+04  0.15005723731E+04 0.  0.
        5    1    3    3  502    0  0.46522561863E+03 -0.24212690429E+02 -0.66060091450E+03  0.80835437083E+03  0.46999998093E+01 0.  1.
       -5    1    3    3    0  502 -0.46522561863E+03  0.24212690429E+02  0.52073893841E+03  0.69872187784E+03  0.46999998093E+01 0. -1.
</event>
<event>
 5   0  0.1219810E-04  0.1498985E+04  0.7818609E-02  0.8885128E-01
       -2   -1    0    0    0  501  0.00000000000E+00  0.00000000000E+00  0.56907584289E+03  0.56907584289E+03  0.25500000920E-02 0.  1.
        2   -1    0    0  501    0  0.00000000000E+00  0.00000000000E+00 -0.98710721206E+03  0.98710721206E+03  0.25500000920E-02 0. -1.
    10030    2    1    2    0    0  0.00000000000E+00  0.00000000000E+00 -0.41803136917E+03  0.15561830550E+04  0.14989848148E+04 0.  0.
        1    1    3    3  502    0 -0.27963473732E+03  0.63949387947E+03 -0.49255041096E+03  0.85425635237E+03  0.50400001928E-02 0. -1.
       -1    1    3    3    0  502  0.27963473732E+03 -0.63949387947E+03  0.74519041791E+02  0.70192670259E+03  0.50400001928E-02 0.  1.
</event>
<event>
 5   0  0.6668433E-05  0.1499141E+04  0.7818609E-02  0.8885024E-01
       -1   -1    0    0    0  501  0.00000000000E+00  0.00000000000E+00  0.26651301934E+03  0.26651301939E+03  0.50400001928E-02 0.  1.
        1   -1    0    0  501    0  0.00000000000E+00  0.00000000000E+00 -0.21081757048E+04  0.21081757048E+04  0.50400001928E-02 0. -1.
    10030    2    1    2    0    0  0.00000000000E+00  0.00000000000E+00 -0.18416626855E+04  0.23746887242E+04  0.14991414509E+04 0.  0.
        1    1    3    3  502    0 -0.60823981289E+03  0.34369107188E+03 -0.49057753827E+03  0.85366594400E+03  0.50400001928E-02 0.  1.
       -1    1    3    3    0  502  0.60823981289E+03 -0.34369107188E+03 -0.13510851472E+04  0.15210227802E+04  0.50400001928E-02 0. -1.
</event>
<event>
 5   0  0.1219810E-04  0.1499651E+04  0.7818609E-02  0.8884685E-01
       -2   -1    0    0    0  501  0.00000000000E+00  0.00000000000E+00  0.15450399065E+04  0.15450399065E+04  0.25500000920E-02 0.  1.
        2   -1    0    0  501    0  0.00000000000E+00  0.00000000000E+00 -0.36389890183E+03  0.36389890184E+03  0.25500000920E-02 0. -1.
    10030    2    1    2    0    0  0.00000000000E+00  0.00000000000E+00  0.11811410047E+04  0.19089388084E+04  0.14996510598E+04 0.  0.
        1    1    3    3  502    0  0.44461382322E+03 -0.83789975329E+01 -0.17792726640E+03  0.47896740134E+03  0.50400001928E-02 0. -1.
       -1    1    3    3    0  502 -0.44461382322E+03  0.83789975329E+01  0.13590682711E+04  0.14299714070E+04  0.50400001928E-02 0.  1.
</event>
<event>
 5   0  0.1254487E-04  0.1499086E+04  0.7818609E-02  0.8885061E-01
        2   -1    0    0  501    0  0.00000000000E+00  0.00000000000E+00  0.11711528488E+04  0.11711528488E+04  0.25500000920E-02 0.  1.
       -2   -1    0    0    0  501  0.00000000000E+00  0.00000000000E+00 -0.47971072165E+03  0.47971072166E+03  0.25500000920E-02 0. -1.
    10030    2    1    2    0    0  0.00000000000E+00  0.00000000000E+00  0.69144212713E+03  0.16508635704E+04  0.14990858258E+04 0.  0.
        5    1    3    3  502    0 -0.46189982955E+03  0.23013139175E+03 -0.25289608843E+03  0.57470899727E+03  0.46999998093E+01 0. -1.
       -5    1    3    3    0  502  0.46189982955E+03 -0.23013139175E+03  0.94433821556E+03  0.10761545732E+04  0.46999998093E+01 0.  1.
</event>
<event>
 5   0  0.6509279E-05  0.1499524E+04  0.7818609E-02  0.8884769E-01
        1   -1    0    0  501    0  0.00000000000E+00  0.00000000000E+00  0.18861093140E+04  0.18861093140E+04  0.50400001928E-02 0. -1.
       -1   -1    0    0    0  501  0.00000000000E+00  0.00000000000E+00 -0.29804380413E+03  0.29804380417E+03  0.50400001928E-02 0.  1.
    10030    2    1    2    0    0  0.00000000000E+00  0.00000000000E+00  0.15880655099E+04  0.21841531182E+04  0.14995241845E+04 0.  0.
        2    1    3    3  502    0  0.26391565088E+02 -0.73432845279E+03  0.10110969931E+04  0.12499007643E+04  0.25500000920E-02 0. -1.
       -2    1    3    3    0  502 -0.26391565088E+02  0.73432845279E+03  0.57696851685E+03  0.93425235388E+03  0.25500000920E-02 0.  1.
</event>
<event>
 5   0  0.6668433E-05  0.1502689E+04  0.7818609E-02  0.8882667E-01
       -1   -1    0    0    0  501  0.00000000000E+00  0.00000000000E+00  0.32724317593E+03  0.32724317597E+03  0.50400001928E-02 0.  1.
        1   -1    0    0  501    0  0.00000000000E+00  0.00000000000E+00 -0.17250728879E+04  0.17250728879E+04  0.50400001928E-02 0. -1.
    10030    2    1    2    0    0  0.00000000000E+00  0.00000000000E+00 -0.13978297120E+04  0.20523160639E+04  0.15026886977E+04 0.  0.
        1    1    3    3  502    0  0.35698994618E+03  0.47438054373E+03 -0.13278179357E+04  0.14545030740E+04  0.50400001928E-02 0. -1.
       -1    1    3    3    0  502 -0.35698994618E+03 -0.47438054373E+03 -0.70011776223E+02  0.59781298980E+03  0.50400001928E-02 0.  1.
</event>
<event>
 5   0  0.1228286E-04  0.1498979E+04  0.7818609E-02  0.8885132E-01
       -2   -1    0    0    0  501  0.00000000000E+00  0.00000000000E+00  0.29658868441E+03  0.29658868442E+03  0.25500000920E-02 0. -1.
        2   -1    0    0  501    0  0.00000000000E+00  0.00000000000E+00 -0.18939861631E+04  0.18939861631E+04  0.25500000920E-02 0.  1.
    10030    2    1    2    0    0  0.00000000000E+00  0.00000000000E+00 -0.15973974787E+04  0.21905748476E+04  0.14989794721E+04 0.  0.
        2    1    3    3  502    0 -0.23203076953E+03 -0.60290581113E+03 -0.13540244312E+04  0.15002385995E+04  0.25500000920E-02 0.  1.
       -2    1    3    3    0  502  0.23203076953E+03  0.60290581113E+03 -0.24337304749E+03  0.69033624804E+03  0.25500000920E-02 0. -1.
</event>
<event>
 5   0  0.6361716E-05  0.1499286E+04  0.7818609E-02  0.8884928E-01
        1   -1    0    0  501    0  0.00000000000E+00  0.00000000000E+00  0.14102074114E+04  0.14102074115E+04  0.50400001928E-02 0.  1.
       -1   -1    0    0    0  501  0.00000000000E+00  0.00000000000E+00 -0.39849808854E+03  0.39849808857E+03  0.50400001928E-02 0. -1.
    10030    2    1    2    0    0  0.00000000000E+00  0.00000000000E+00  0.10117093229E+04  0.18087055000E+04  0.14992864409E+04 0.  0.
        3    1    3    3  502    0  0.33070026495E+03 -0.45044934525E+03 -0.96969277839E+02  0.56715987951E+03  0.10100000352E+00 0. -1.
       -3    1    3    3    0  502 -0.33070026495E+03  0.45044934525E+03  0.11086786007E+04  0.12415456205E+04  0.10100000352E+00 0.  1.
</event>
<event>
 5   0  0.6361716E-05  0.1500678E+04  0.7818609E-02  0.8884002E-01
        1   -1    0    0  501    0  0.00000000000E+00  0.00000000000E+00  0.89904241018E+03  0.89904241020E+03  0.50400001928E-02 0. -1.
       -1   -1    0    0    0  501  0.00000000000E+00  0.00000000000E+00 -0.62623104721E+03  0.62623104723E+03  0.50400001928E-02 0.  1.
    10030    2    1    2    0    0  0.00000000000E+00  0.00000000000E+00  0.27281136297E+03  0.15252734574E+04  0.15006775404E+04 0.  0.
        3    1    3    3  502    0  0.12580400204E+03 -0.70316126660E+03  0.36983449442E+03  0.80438795195E+03  0.10100000352E+00 0.  1.
       -3    1    3    3    0  502 -0.12580400204E+03  0.70316126660E+03 -0.97023131448E+02  0.72088550548E+03  0.10100000352E+00 0. -1.
</event>
<event>
 5   0  0.1228286E-04  0.1503564E+04  0.7818609E-02  0.8882086E-01
        2   -1    0    0  501    0  0.00000000000E+00  0.00000000000E+00  0.67605399705E+03  0.67605399706E+03  0.25500000920E-02 0.  1.
       -2   -1    0    0    0  501  0.00000000000E+00  0.00000000000E+00 -0.83599286721E+03  0.83599286721E+03  0.25500000920E-02 0. -1.
    10030    2    1    2    0    0  0.00000000000E+00  0.00000000000E+00 -0.15993887015E+03  0.15120468643E+04  0.15035641914E+04 0.  0.
        2    1    3    3  502    0 -0.11171770838E+03 -0.11411012164E+03  0.65880042260E+03  0.67787901801E+03  0.25500000920E-02 0.  1.
       -2    1    3    3    0  502  0.11171770838E+03  0.11411012164E+03 -0.81873929276E+03  0.83416784626E+03  0.25500000920E-02 0. -1.
</event>
<event>
 5   0  0.6364378E-05  0.1500065E+04  0.7818609E-02  0.8884410E-01
        1   -1    0    0  501    0  0.00000000000E+00  0.00000000000E+00  0.96887984415E+03  0.96887984417E+03  0.50400001928E-02 0.  1.
       -1   -1    0    0    0  501  0.00000000000E+00  0.00000000000E+00 -0.58061769915E+03  0.58061769917E+03  0.50400001928E-02 0. -1.
    10030    2    1    2    0    0  0.00000000000E+00  0.00000000000E+00  0.38826214500E+03  0.15494975433E+04  0.15000650464E+04 0.  0.
        5    1    3    3  502    0  0.56091537047E+02 -0.44015335482E+03  0.81874389137E+03  0.93125983804E+03  0.46999998093E+01 0.  1.
       -5    1    3    3    0  502 -0.56091537047E+02  0.44015335482E+03 -0.43048174637E+03  0.61823770530E+03  0.46999998093E+01 0. -1.
</event>
<event>
 5   0  0.1186664E-04  0.1503665E+04  0.7818609E-02  0.8882019E-01
       -2   -1    0    0    0  501  0.00000000000E+00  0.00000000000E+00  0.42980767082E+03  0.42980767083E+03  0.25500000920E-02 0. -1.
        2   -1    0    0  501    0  0.00000000000E+00  0.00000000000E+00 -0.13151282904E+04  0.13151282904E+04  0.25500000920E-02 0.  1.
    10030    2    1    2    0    0  0.00000000000E+00  0.00000000000E+00 -0.88532061962E+03  0.17449359613E+04  0.15036651587E+04 0.  0.
        3    1    3    3  502    0 -0.35326698270E+02 -0.37834634725E+03 -0.11954892326E+04  0.12544275386E+04  0.10100000352E+00 0.  1.
       -3    1    3    3    0  502  0.35326698270E+02  0.37834634725E+03  0.31016861296E+03  0.49050842271E+03  0.10100000352E+00 0. -1.
</event>
<event>
 5   0  0.1186664E-04  0.1502265E+04  0.7818609E-02  0.8882948E-01
        2   -1    0    0  501    0  0.00000000000E+00  0.00000000000E+00  0.78481243176E+03  0.78481243176E+03  0.25500000920E-02 0.  1.
       -2   -1    0    0    0  501  0.00000000000E+00  0.00000000000E+00 -0.71889780975E+03  0.71889780975E+03  0.25500000920E-02 0. -1.
    10030    2    1    2    0    0  0.00000000000E+00  0.00000000000E+00  0.65914622005E+02  0.15037102415E+04  0.15022648745E+04 0.  0.
        3    1    3    3  502    0 -0.26922369679E+02 -0.24064286518E+03  0.74467314575E+03  0.78305293994E+03  0.10100000352E+00 0.  1.
       -3    1    3    3    0  502  0.26922369679E+02  0.24064286518E+03 -0.67875852375E+03  0.72065730157E+03  0.10100000352E+00 0. -1.
</event>
<event>
 5   0  0.1228286E-04  0.1499868E+04  0.7818609E-02  0.8884541E-01
        2   -1    0    0  501    0  0.00000000000E+00  0.00000000000E+00  0.13196857597E+04  0.13196857597E+04  0.25500000920E-02 0.  1.
       -2   -1    0    0    0  501  0.00000000000E+00  0.00000000000E+00 -0.42616276762E+03  0.42616276763E+03  0.25500000920E-02 0. -1.
    10030    2    1    2    0    0  0.00000000000E+00  0.00000000000E+00  0.89352299203E+03  0.17458485273E+04  0.14998679085E+04 0.  0.
        2    1    3    3  502    0 -0.14795649181E+03  0.59627706794E+03  0.94736804952E+03  0.11291340427E+04  0.25500000920E-02 0.  1.
       -2    1    3    3    0  502  0.14795649181E+03 -0.59627706794E+03 -0.53845057490E+02  0.61671448454E+03  0.25500000920E-02 0. -1.
</event>
<event>
 5   0  0.6542036E-05  0.1499829E+04  0.7818609E-02  0.8884567E-01
       -1   -1    0    0    0  501  0.00000000000E+00  0.00000000000E+00  0.88996337645E+03  0.88996337647E+03  0.50400001928E-02 0.  1.
        1   -1    0    0  501    0  0.00000000000E+00  0.00000000000E+00 -0.63190414759E+03  0.63190414761E+03  0.50400001928E-02 0. -1.
    10030    2    1    2    0    0  0.00000000000E+00  0.00000000000E+00  0.25805922886E+03  0.15218675241E+04  0.14998287220E+04 0.  0.
        4    1    3    3  502    0  0.13316624522E+03  0.47667516061E+03 -0.44264723035E+03  0.66399596463E+03  0.12699999809E+01 0. -1.
       -4    1    3    3    0  502 -0.13316624522E+03 -0.47667516061E+03  0.70070645921E+03  0.85787155944E+03  0.12699999809E+01 0.  1.
</event>
<event>
 5   0  0.1219810E-04  0.1500092E+04  0.7818609E-02  0.8884392E-01
        2   -1    0    0  501    0  0.00000000000E+00  0.00000000000E+00  0.15965112243E+04  0.15965112243E+04  0.25500000920E-02 0.  1.
       -2   -1    0    0    0  501  0.00000000000E+00  0.00000000000E+00 -0.35237374330E+03  0.35237374331E+03  0.25500000920E-02 0. -1.
    10030    2    1    2    0    0  0.00000000000E+00  0.00000000000E+00  0.12441374810E+04  0.19488849676E+04  0.15000915123E+04 0.  0.
        1    1    3    3  502    0  0.53554200443E+03 -0.46739521974E+03  0.93307212374E+03  0.11729821474E+04  0.50400001928E-02 0.  1.
       -1    1    3    3    0  502 -0.53554200443E+03  0.46739521974E+03  0.31106535725E+03  0.77590282023E+03  0.50400001928E-02 0. -1.
</event>
<event>
 5   0  0.1228286E-04  0.1499214E+04  0.7818609E-02  0.8884976E-01
       -2   -1    0    0    0  501  0.00000000000E+00  0.00000000000E+00  0.11720915284E+04  0.11720915284E+04  0.25500000920E-02 0.  1.
        2   -1    0    0  501    0  0.00000000000E+00  0.00000000000E+00 -0.47940838116E+03  0.47940838116E+03  0.25500000920E-02 0. -1.
    10030    2    1    2    0    0  0.00000000000E+00  0.00000000000E+00  0.69268314725E+03  0.16514999096E+04  0.14992137969E+04 0.  0.
        2    1    3    3  502    0 -0.42706477374E+03 -0.57346314014E+03  0.59429732451E+03  0.92974921564E+03  0.25500000920E-02 0.  1.
       -2    1    3    3    0  502  0.42706477374E+03  0.57346314014E+03  0.98385822735E+02  0.72175069393E+03  0.25500000920E-02 0. -1.
</event>
<event>
 5   0  0.1219810E-04  0.1500078E+04  0.7818609E-02  0.8884401E-01
       -2   -1    0    0    0  501  0.00000000000E+00  0.00000000000E+00  0.33429965059E+03  0.33429965060E+03  0.25500000920E-02 0.  1.
        2   -1    0    0  501    0  0.00000000000E+00  0.00000000000E+00 -0.16827976343E+04  0.16827976343E+04  0.25500000920E-02 0. -1.
    10030    2    1    2    0    0  0.00000000000E+00  0.00000000000E+00 -0.13484979837E+04  0.20170972849E+04  0.15000782129E+04 0.  0.
        1    1    3    3  502    0  0.22385434620E+03 -0.96931289773E+02  0.27946790152E+03  0.37095653553E+03  0.50400001928E-02 0.  1.
       -1    1    3    3    0  502 -0.22385434620E+03  0.96931289773E+02 -0.16279658852E+04  0.16461407494E+04  0.50400001928E-02 0. -1.
</event>
<event>
 5   0  0.1186664E-04  0.1499613E+04  0.7818609E-02  0.8884710E-01
        2   -1    0    0  501    0  0.00000000000E+00  0.00000000000E+00  0.13682024395E+04  0.13682024395E+04  0.25500000920E-02 0.  1.
       -2   -1    0    0    0  501  0.00000000000E+00  0.00000000000E+00 -0.41091117747E+03  0.41091117747E+03  0.25500000920E-02 0. -1.
    10030    2    1    2    0    0  0.00000000000E+00  0.00000000000E+00  0.95729126200E+03  0.17791136169E+04  0.14996128506E+04 0.  0.
        3    1    3    3  502    0  0.17361919024E+02 -0.64677395125E+03  0.29084064128E+02  0.64766030698E+03  0.10100000352E+00 0. -1.
       -3    1    3    3    0  502 -0.17361919024E+02  0.64677395125E+03  0.92820719787E+03  0.11314533100E+04  0.10100000352E+00 0.  1.
</event>
<event>
 5   0  0.6509279E-05  0.1503466E+04  0.7818609E-02  0.8882151E-01
       -1   -1    0    0    0  501  0.00000000000E+00  0.00000000000E+00  0.45716476620E+03  0.45716476623E+03  0.50400001928E-02 0. -1.
        1   -1    0    0  501    0  0.00000000000E+00  0.00000000000E+00 -0.12361030639E+04  0.12361030639E+04  0.50400001928E-02 0.  1.
    10030    2    1    2    0    0  0.00000000000E+00  0.00000000000E+00 -0.77893829767E+03  0.16932678301E+04  0.15034663524E+04 0.  0.
        2    1    3    3  502    0 -0.40907836667E+03  0.21275349173E+03 -0.10581325739E+04  0.11542329498E+04  0.25500000920E-02 0.  1.
       -2    1    3    3    0  502  0.40907836667E+03 -0.21275349173E+03  0.27919427625E+03  0.53903488034E+03  0.25500000920E-02 0. -1.
</event>
<event>
 5   0  0.1186664E-04  0.1499874E+04  0.7818609E-02  0.8884537E-01
        2   -1    0    0  501    0  0.00000000000E+00  0.00000000000E+00  0.61864851258E+03  0.61864851259E+03  0.25500000920E-02 0.  1.
       -2   -1    0    0    0  501  0.00000000000E+00  0.00000000000E+00 -0.90908684099E+03  0.90908684099E+03  0.25500000920E-02 0. -1.
    10030    2    1    2    0    0  0.00000000000E+00  0.00000000000E+00 -0.29043832840E+03  0.15277353536E+04  0.14998736240E+04 0.  0.
        3    1    3    3  502    0 -0.64966322988E+03 -0.19980045241E+03  0.17756287566E+03  0.70250346480E+03  0.10100000352E+00 0.  1.
       -3    1    3    3    0  502  0.64966322988E+03  0.19980045241E+03 -0.46800120407E+03  0.82523188878E+03  0.10100000352E+00 0. -1.
</event>
<event>
 5   0  0.1216921E-04  0.1496711E+04  0.7818609E-02  0.8886643E-01
       -2   -1    0    0    0  501  0.00000000000E+00  0.00000000000E+00  0.38747231577E+03  0.38747231578E+03  0.25500000920E-02 0. -1.
        2   -1    0    0  501    0  0.00000000000E+00  0.00000000000E+00 -0.14453570268E+04  0.14453570268E+04  0.25500000920E-02 0.  1.
    10030    2    1    2    0    0  0.00000000000E+00  0.00000000000E+00 -0.10578847110E+04  0.18328293426E+04  0.14967108396E+04 0.  0.
        4    1    3    3  502    0 -0.58023836351E+02  0.30560512595E+03 -0.13624365949E+04  0.13974964568E+04  0.12699999809E+01 0.  1.
       -4    1    3    3    0  502  0.58023836351E+02 -0.30560512595E+03  0.30455188389E+03  0.43533288582E+03  0.12699999809E+01 0. -1.
</event>
<event>
 5   0  0.6668433E-05  0.1501261E+04  0.7818609E-02  0.8883615E-01
        1   -1    0    0  501    0  0.00000000000E+00  0.00000000000E+00  0.13260009374E+04  0.13260009374E+04  0.50400001928E-02 0. -1.
       -1   -1    0    0    0  501  0.00000000000E+00  0.00000000000E+00 -0.42492157695E+03  0.42492157698E+03  0.50400001928E-02 0.  1.
    10030    2    1    2    0    0  0.00000000000E+00  0.00000000000E+00  0.90107936042E+03  0.17509225143E+04  0.15012613488E+04 0.  0.
        1    1    3    3  502    0 -0.49861000763E+03 -0.17342429236E+03  0.10729101242E+04  0.11957525077E+04  0.50400001928E-02 0. -1.
       -1    1    3    3    0  502  0.49861000763E+03  0.17342429236E+03 -0.17183076382E+03  0.55517000667E+03  0.50400001928E-02 0.  1.
</event>
<event>
 5   0  0.6509279E-05  0.1499148E+04  0.7818609E-02  0.8885020E-01
        1   -1    0    0  501    0  0.00000000000E+00  0.00000000000E+00  0.55376353654E+03  0.55376353656E+03  0.50400001928E-02 0. -1.
       -1   -1    0    0    0  501  0.00000000000E+00  0.00000000000E+00 -0.10146229251E+04  0.10146229251E+04  0.50400001928E-02 0.  1.
    10030    2    1    2    0    0  0.00000000000E+00  0.00000000000E+00 -0.46085938855E+03  0.15683864617E+04  0.14991479971E+04 0.  0.
        2    1    3    3  502    0  0.49449406412E+03 -0.39377712541E+03  0.19101076370E+03  0.66035590086E+03  0.25500000920E-02 0. -1.
       -2    1    3    3    0  502 -0.49449406412E+03  0.39377712541E+03 -0.65187015225E+03  0.90803056080E+03  0.25500000920E-02 0.  1.
</event>
<event>
 5   0  0.6364378E-05  0.1500163E+04  0.7818609E-02  0.8884344E-01
        1   -1    0    0  501    0  0.00000000000E+00  0.00000000000E+00  0.13158714748E+04  0.13158714748E+04  0.50400001928E-02 0. -1.
       -1   -1    0    0    0  501  0.00000000000E+00  0.00000000000E+00 -0.42756631633E+03  0.42756631636E+03  0.50400001928E-02 0.  1.
    10030    2    1    2    0    0  0.00000000000E+00  0.00000000000E+00  0.88830515851E+03  0.17434377912E+04  0.15001630835E+04 0.  0.
        5    1    3    3  502    0 -0.16085789131E+03  0.55877675453E+03 -0.10649010491E+03  0.59115899303E+03  0.46999998093E+01 0.  1.
       -5    1    3    3    0  502  0.16085789131E+03 -0.55877675453E+03  0.99479526342E+03  0.11522787982E+04  0.46999998093E+01 0. -1.
</event>
<event>
 5   0  0.4462875E-05  0.1501227E+04  0.7818609E-02  0.8883638E-01
       -3   -1    0    0    0  501  0.00000000000E+00  0.00000000000E+00  0.34255788675E+03  0.34255790164E+03  0.10100000352E+00 0. -1.
        3   -1    0    0  501    0  0.00000000000E+00  0.00000000000E+00 -0.16447452399E+04  0.16447452430E+04  0.10100000352E+00 0.  1.
    10030    2    1    2    0    0  0.00000000000E+00  0.00000000000E+00 -0.13021873531E+04  0.19873031446E+04  0.15012267936E+04 0.  0.
        3    1    3    3  502    0 -0.42213235799E+03  0.31488779743E+03 -0.13591279501E+04  0.14575935124E+04  0.10100000352E+00 0.  1.
       -3    1    3    3    0  502  0.42213235799E+03 -0.31488779743E+03  0.56940596954E+02  0.52970963217E+03  0.10100000352E+00 0. -1.
</event>
<event>
 5   0  0.6361716E-05  0.1503176E+04  0.7818609E-02  0.8882344E-01
        1   -1    0    0  501    0  0.00000000000E+00  0.00000000000E+00  0.12669190497E+04  0.12669190497E+04  0.50400001928E-02 0.  1.
       -1   -1    0    0    0  501  0.00000000000E+00  0.00000000000E+00 -0.44587268731E+03  0.44587268734E+03  0.50400001928E-02 0. -1.
    10030    2    1    2    0    0  0.00000000000E+00  0.00000000000E+00  0.82104636239E+03  0.17127917371E+04  0.15031761059E+04 0.  0.
        3    1    3    3  502    0 -0.56066078031E+03 -0.27878410871E+03  0.88421523024E+03  0.10834655848E+04  0.10100000352E+00 0.  1.
       -3    1    3    3    0  502  0.56066078031E+03  0.27878410871E+03 -0.63168867854E+02  0.62932615226E+03  0.10100000352E+00 0. -1.
</event>
<event>
 5   0  0.1216921E-04  0.1494823E+04  0.7818609E-02  0.8887903E-01
       -2   -1    0    0    0  501  0.00000000000E+00  0.00000000000E+00  0.36784116671E+03  0.36784116672E+03  0.25500000920E-02 0. -1.
        2   -1    0    0  501    0  0.00000000000E+00  0.00000000000E+00 -0.15186544879E+04  0.15186544879E+04  0.25500000920E-02 0.  1.
    10030    2    1    2    0    0  0.00000000000E+00  0.00000000000E+00 -0.11508133212E+04  0.18864956546E+04  0.14948225830E+04 0.  0.
        4    1    3    3  502    0  0.69014253011E+03 -0.11163770110E+03 -0.90897722159E+03  0.11467348824E+04  0.12699999809E+01 0.  1.
       -4    1    3    3    0  502 -0.69014253011E+03  0.11163770110E+03 -0.24183609959E+03  0.73976077224E+03  0.12699999809E+01 0. -1.
</event>
<event>
 5   0  0.6668433E-05  0.1500470E+04  0.7818609E-02  0.8884140E-01
       -1   -1    0    0    0  501  0.00000000000E+00  0.00000000000E+00  0.78166773481E+03  0.78166773483E+03  0.50400001928E-02 0. -1.
        1   -1    0    0  501    0  0.00000000000E+00  0.00000000000E+00 -0.72006661545E+03  0.72006661547E+03  0.50400001928E-02 0.  1.
    10030    2    1    2    0    0  0.00000000000E+00  0.00000000000E+00  0.61601119363E+02  0.15017343503E+04  0.15004703799E+04 0.  0.
        1    1    3    3  502    0 -0.33365306619E+03 -0.40277999654E+03  0.56911677577E+03  0.77294889784E+03  0.50400001928E-02 0. -1.
       -1    1    3    3    0  502  0.33365306619E+03  0.40277999654E+03 -0.50751565641E+03  0.72878545246E+03  0.50400001928E-02 0.  1.
</event>
<event>
 5   0  0.1254487E-04  0.1500221E+04  0.7818609E-02  0.8884306E-01
       -2   -1    0    0    0  501  0.00000000000E+00  0.00000000000E+00  0.53821988430E+03  0.53821988431E+03  0.25500000920E-02 0.  1.
        2   -1    0    0  501    0  0.00000000000E+00  0.00000000000E+00 -0.10454192327E+04  0.10454192327E+04  0.25500000920E-02 0. -1.
    10030    2    1    2    0    0  0.00000000000E+00  0.00000000000E+00 -0.50719934839E+03  0.15836391170E+04  0.15002205418E+04 0.  0.
        5    1    3    3  502    0 -0.46371161516E+03  0.63303243078E+02 -0.87237426527E+03  0.98999732894E+03  0.46999998093E+01 0. -1.
       -5    1    3    3    0  502  0.46371161516E+03 -0.63303243078E+02  0.36517491688E+03  0.59364178806E+03  0.46999998093E+01 0.  1.
</event>
<event>
 5   0  0.1254487E-04  0.1533483E+04  0.7818609E-02  0.8862487E-01
        2   -1    0    0  501    0  0.00000000000E+00  0.00000000000E+00  0.72278186863E+03  0.72278186864E+03  0.25500000920E-02 0.  1.
       -2   -1    0    0    0  501  0.00000000000E+00  0.00000000000E+00 -0.81337482630E+03  0.81337482630E+03  0.25500000920E-02 0. -1.
    10030    2    1    2    0    0  0.00000000000E+00  0.00000000000E+00 -0.90592957662E+02  0.15361566949E+04  0.15334830640E+04 0.  0.
        5    1    3    3  502    0  0.24009899198E+03 -0.30942111779E+03  0.61500488605E+03  0.72913788404E+03  0.46999998093E+01 0.  1.
       -5    1    3    3    0  502 -0.24009899198E+03  0.30942111779E+03 -0.70559784371E+03  0.80701881089E+03  0.46999998093E+01 0. -1.
</event>
<event>
 5   0  0.1254487E-04  0.1498588E+04  0.7818609E-02  0.8885392E-01
        2   -1    0    0  501    0  0.00000000000E+00  0.00000000000E+00  0.53218602562E+03  0.53218602562E+03  0.25500000920E-02 0.  1.
       -2   -1    0    0    0  501  0.00000000000E+00  0.00000000000E+00 -0.10549729596E+04  0.10549729596E+04  0.25500000920E-02 0. -1.
    10030    2    1    2    0    0  0.00000000000E+00  0.00000000000E+00 -0.52278693400E+03  0.15871589852E+04  0.14985884912E+04 0.  0.
        5    1    3    3  502    0 -0.65584722948E+03 -0.24421914588E+03  0.22084595295E+02  0.70020596897E+03  0.46999998093E+01 0. -1.
       -5    1    3    3    0  502  0.65584722948E+03  0.24421914588E+03 -0.54487152930E+03  0.88695301627E+03  0.46999998093E+01 0.  1.
</event>
<event>
 5   0  0.1228286E-04  0.1498810E+04  0.7818609E-02  0.8885245E-01
       -2   -1    0    0    0  501  0.00000000000E+00  0.00000000000E+00  0.61322659967E+03  0.61322659967E+03  0.25500000920E-02 0.  1.
        2   -1    0    0  501    0  0.00000000000E+00  0.00000000000E+00 -0.91582387434E+03  0.91582387435E+03  0.25500000920E-02 0. -1.
    10030    2    1    2    0    0  0.00000000000E+00  0.00000000000E+00 -0.30259727468E+03  0.15290504740E+04  0.14988096081E+04 0.  0.
        2    1    3    3  502    0 -0.28882385262E+03  0.28475018102E+03  0.49157912153E+03  0.63730049127E+03  0.25500000920E-02 0.  1.
       -2    1    3    3    0  502  0.28882385262E+03 -0.28475018102E+03 -0.79417639621E+03  0.89174998275E+03  0.25500000920E-02 0. -1.
</event>
<event>
 5   0  0.6542036E-05  0.1501261E+04  0.7818609E-02  0.8883615E-01
       -1   -1    0    0    0  501  0.00000000000E+00  0.00000000000E+00  0.30340350617E+03  0.30340350621E+03  0.50400001928E-02 0. -1.
        1   -1    0    0  501    0  0.00000000000E+00  0.00000000000E+00 -0.18570850984E+04  0.18570850984E+04  0.50400001928E-02 0.  1.
    10030    2    1    2    0    0  0.00000000000E+00  0.00000000000E+00 -0.15536815922E+04  0.21604886046E+04  0.15012609769E+04 0.  0.
        4    1    3    3  502    0 -0.10247193882E+03  0.72449283331E+03 -0.10178837099E+04  0.12535865441E+04  0.12699999809E+01 0.  1.
       -4    1    3    3    0  502  0.10247193882E+03 -0.72449283331E+03 -0.53579788230E+03  0.90690206050E+03  0.12699999809E+01 0. -1.
</event>
<event>
 5   0  0.1219810E-04  0.1496946E+04  0.7818609E-02  0.8886487E-01
       -2   -1    0    0    0  501  0.00000000000E+00  0.00000000000E+00  0.25577199222E+03  0.25577199224E+03  0.25500000920E-02 0.  1.
        2   -1    0    0  501    0  0.00000000000E+00  0.00000000000E+00 -0.21902774079E+04  0.21902774079E+04  0.25500000920E-02 0. -1.
    10030    2    1    2    0    0  0.00000000000E+00  0.00000000000E+00 -0.19345054157E+04  0.24460494002E+04  0.14969457120E+04 0.  0.
        1    1    3    3  502    0 -0.26070251880E+03 -0.11605547009E+03  0.16339104079E+03  0.32883325209E+03  0.50400001928E-02 0.  1.
       -1    1    3    3    0  502  0.26070251880E+03  0.11605547009E+03 -0.20978964565E+04  0.21172161481E+04  0.50400001928E-02 0. -1.
</event>
<event>
 5   0  0.1254487E-04  0.1500236E+04  0.7818609E-02  0.8884296E-01
       -2   -1    0    0    0  501  0.00000000000E+00  0.00000000000E+00  0.40048961441E+03  0.40048961441E+03  0.25500000920E-02 0. -1.
        2   -1    0    0  501    0  0.00000000000E+00  0.00000000000E+00 -0.14049724138E+04  0.14049724138E+04  0.25500000920E-02 0.  1.
    10030    2    1    2    0    0  0.00000000000E+00  0.00000000000E+00 -0.10044827994E+04  0.18054620282E+04  0.15002357951E+04 0.  0.
        5    1    3    3  502    0  0.11713695545E+03  0.57259926089E+03 -0.10680735779E+04  0.12175361341E+04  0.46999998093E+01 0.  1.
       -5    1    3    3    0  502 -0.11713695545E+03 -0.57259926089E+03  0.63590778523E+02  0.58792589415E+03  0.46999998093E+01 0. -1.
</event>
<event>
 5   0  0.1216921E-04  0.1503563E+04  0.7818609E-02  0.8882087E-01
       -2   -1    0    0    0  501  0.00000000000E+00  0.00000000000E+00  0.12249008678E+04  0.12249008678E+04  0.25500000920E-02 0. -1.
        2   -1    0    0  501    0  0.00000000000E+00  0.00000000000E+00 -0.46140524243E+03  0.46140524244E+03  0.25500000920E-02 0.  1.
    10030    2    1    2    0    0  0.00000000000E+00  0.00000000000E+00  0.76349562541E+03  0.16863061103E+04  0.15035633434E+04 0.  0.
        4    1    3    3  502    0  0.31883442119E+03 -0.14328902940E+03 -0.36471837994E+03  0.50518139678E+03  0.12699999809E+01 0.  1.
       -4    1    3    3    0  502 -0.31883442119E+03  0.14328902940E+03  0.11282140054E+04  0.11811247135E+04  0.12699999809E+01 0. -1.
</event>
<event>
 5   0  0.1254487E-04  0.1508736E+04  0.7818609E-02  0.8878664E-01
        2   -1    0    0  501    0  0.00000000000E+00  0.00000000000E+00  0.80725402769E+03  0.80725402769E+03  0.25500000920E-02 0.  1.
       -2   -1    0    0    0  501  0.00000000000E+00  0.00000000000E+00 -0.70494708332E+03  0.70494708333E+03  0.25500000920E-02 0. -1.
    10030    2    1    2    0    0  0.00000000000E+00  0.00000000000E+00  0.10230694437E+03  0.15122011110E+04  0.15087363883E+04 0.  0.
        5    1    3    3  502    0 -0.43875244992E+03  0.57632229411E+02  0.66347711044E+03  0.79752689751E+03  0.46999998093E+01 0.  1.
       -5    1    3    3    0  502  0.43875244992E+03 -0.57632229411E+02 -0.56117016607E+03  0.71467421351E+03  0.46999998093E+01 0. -1.
</event>
<event>
 5   0  0.1254487E-04  0.1501866E+04  0.7818609E-02  0.8883213E-01
        2   -1    0    0  501    0  0.00000000000E+00  0.00000000000E+00  0.57712865692E+03  0.57712865693E+03  0.25500000920E-02 0.  1.
       -2   -1    0    0    0  501  0.00000000000E+00  0.00000000000E+00 -0.97707964843E+03  0.97707964843E+03  0.25500000920E-02 0. -1.
    10030    2    1    2    0    0  0.00000000000E+00  0.00000000000E+00 -0.39995099150E+03  0.15542083054E+04  0.15018663925E+04 0.  0.
        5    1    3    3  502    0 -0.59848512176E+02  0.41615236522E+03 -0.84384422231E+03  0.94279361316E+03  0.46999998093E+01 0. -1.
       -5    1    3    3    0  502  0.59848512176E+02 -0.41615236522E+03  0.44389323081E+03  0.61141469220E+03  0.46999998093E+01 0.  1.
</event>
<event>
 5   0  0.6542036E-05  0.1500010E+04  0.7818609E-02  0.8884446E-01
       -1   -1    0    0    0  501  0.00000000000E+00  0.00000000000E+00  0.86754021450E+03  0.86754021451E+03  0.50400001928E-02 0.  1.
        1   -1    0    0  501    0  0.00000000000E+00  0.00000000000E+00 -0.64839397101E+03  0.64839397103E+03  0.50400001928E-02 0. -1.
    10030    2    1    2    0    0  0.00000000000E+00  0.00000000000E+00  0.21914624349E+03  0.15159341855E+04  0.15000104596E+04 0.  0.
        4    1    3    3  502    0 -0.10120687304E+03 -0.59102978387E+03 -0.34570584419E+03  0.69215112525E+03  0.12699999809E+01 0. -1.
       -4    1    3    3    0  502  0.10120687304E+03  0.59102978387E+03  0.56485208768E+03  0.82378306029E+03  0.12699999809E+01 0.  1.
</event>
<event>
 5   0  0.6361716E-05  0.1500869E+04  0.7818609E-02  0.8883875E-01
        1   -1    0    0  501    0  0.00000000000E+00  0.00000000000E+00  0.98326360647E+03  0.98326360649E+03  0.50400001928E-02 0. -1.
       -1   -1    0    0    0  501  0.00000000000E+00  0.00000000000E+00 -0.57273779181E+03  0.57273779183E+03  0.50400001928E-02 0.  1.
    10030    2    1    2    0    0  0.00000000000E+00  0.00000000000E+00  0.41052581467E+03  0.15560013983E+04  0.15008693837E+04 0.  0.
        3    1    3    3  502    0  0.65665670738E+03  0.29024734241E+03  0.43171420897E+03  0.83774621429E+03  0.10100000352E+00 0. -1.
       -3    1    3    3    0  502 -0.65665670738E+03 -0.29024734241E+03 -0.21188394305E+02  0.71825518403E+03  0.10100000352E+00 0.  1.
</event>
<event>
 5   0  0.6364378E-05  0.1503702E+04  0.7818609E-02  0.8881995E-01
        1   -1    0    0  501    0  0.00000000000E+00  0.00000000000E+00  0.20527220810E+04  0.20527220810E+04  0.50400001928E-02 0. -1.
       -1   -1    0    0    0  501  0.00000000000E+00  0.00000000000E+00 -0.27538049678E+03  0.27538049682E+03  0.50400001928E-02 0.  1.
    10030    2    1    2    0    0  0.00000000000E+00  0.00000000000E+00  0.17773415843E+04  0.23281025779E+04  0.15037016014E+04 0.  0.
        5    1    3    3  502    0 -0.23964090772E+03 -0.71198343903E+03  0.93535898121E+03  0.11996944177E+04  0.46999998093E+01 0. -1.
       -5    1    3    3    0  502  0.23964090772E+03  0.71198343903E+03  0.84198260305E+03  0.11284081602E+04  0.46999998093E+01 0.  1.
</event>
<event>
 5   0  0.1219810E-04  0.1502903E+04  0.7818609E-02  0.8882525E-01
        2   -1    0    0  501    0  0.00000000000E+00  0.00000000000E+00  0.69160722696E+03  0.69160722696E+03  0.25500000920E-02 0.  1.
       -2   -1    0    0    0  501  0.00000000000E+00  0.00000000000E+00 -0.81647430018E+03  0.81647430018E+03  0.25500000920E-02 0. -1.
    10030    2    1    2    0    0  0.00000000000E+00  0.00000000000E+00 -0.12486707322E+03  0.15080815271E+04  0.15029032259E+04 0.  0.
        1    1    3    3  502    0  0.35470570958E+03 -0.63664371010E+03  0.12135915496E+03  0.73882298187E+03  0.50400001928E-02 0.  1.
       -1    1    3    3    0  502 -0.35470570958E+03  0.63664371010E+03 -0.24622622819E+03  0.76925854528E+03  0.50400001928E-02 0. -1.
</event>
<event>
 5   0  0.1254487E-04  0.1500465E+04  0.7818609E-02  0.8884144E-01
       -2   -1    0    0    0  501  0.00000000000E+00  0.00000000000E+00  0.53001597358E+03  0.53001597359E+03  0.25500000920E-02 0.  1.
        2   -1    0    0  501    0  0.00000000000E+00  0.00000000000E+00 -0.10619463965E+04  0.10619463965E+04  0.25500000920E-02 0. -1.
    10030    2    1    2    0    0  0.00000000000E+00  0.00000000000E+00 -0.53193042295E+03  0.15919623701E+04  0.15004646657E+04 0.  0.
        5    1    3    3  502    0  0.37951916070E+03 -0.33583996847E+03  0.32094274750E+03  0.59987466602E+03  0.46999998093E+01 0.  1.
       -5    1    3    3    0  502 -0.37951916070E+03  0.33583996847E+03 -0.85287317045E+03  0.99208770411E+03  0.46999998093E+01 0. -1.
</event>
<event>
 5   0  0.6364378E-05  0.1509105E+04  0.7818609E-02  0.8878421E-01
       -1   -1    0    0    0  501  0.00000000000E+00  0.00000000000E+00  0.30442805493E+03  0.30442805497E+03  0.50400001928E-02 0. -1.
        1   -1    0    0  501    0  0.00000000000E+00  0.00000000000E+00 -0.18702264343E+04  0.18702264343E+04  0.50400001928E-02 0.  1.
    10030    2    1    2    0    0  0.00000000000E+00  0.00000000000E+00 -0.15657983794E+04  0.21746544893E+04  0.15091048946E+04 0.  0.
        5    1    3    3  502    0  0.47062152510E+02 -0.66889979664E+03 -0.12814295897E+04  0.14462799409E+04  0.46999998093E+01 0.  1.
       -5    1    3    3    0  502 -0.47062152510E+02  0.66889979664E+03 -0.28436878965E+03  0.72837454834E+03  0.46999998093E+01 0. -1.
</event>
<event>
 5   0  0.6668433E-05  0.1535423E+04  0.7818609E-02  0.8861233E-01
       -1   -1    0    0    0  501  0.00000000000E+00  0.00000000000E+00  0.49595257885E+03  0.49595257888E+03  0.50400001928E-02 0. -1.
        1   -1    0    0  501    0  0.00000000000E+00  0.00000000000E+00 -0.11883816720E+04  0.11883816720E+04  0.50400001928E-02 0.  1.
    10030    2    1    2    0    0  0.00000000000E+00  0.00000000000E+00 -0.69242909317E+03  0.16843342509E+04  0.15354230100E+04 0.  0.
        1    1    3    3  502    0 -0.63583735859E+03 -0.25603574243E+03 -0.72548790069E+03  0.99808623979E+03  0.50400001928E-02 0.  1.
       -1    1    3    3    0  502  0.63583735859E+03  0.25603574243E+03  0.33058807522E+02  0.68624801112E+03  0.50400001928E-02 0. -1.
</event>
<event>
 5   0  0.1216921E-04  0.1502183E+04  0.7818609E-02  0.8883003E-01
        2   -1    0    0  501    0  0.00000000000E+00  0.00000000000E+00  0.55224967435E+03  0.55224967435E+03  0.25500000920E-02 0. -1.
       -2   -1    0    0    0  501  0.00000000000E+00  0.00000000000E+00 -0.10215278066E+04  0.10215278066E+04  0.25500000920E-02 0.  1.
    10030    2    1    2    0    0  0.00000000000E+00  0.00000000000E+00 -0.46927813222E+03  0.15737774809E+04  0.15021829430E+04 0.  0.
        4    1    3    3  502    0 -0.39096735563E+03 -0.54544109852E+03  0.11874302328E+03  0.68151521156E+03  0.12699999809E+01 0. -1.
       -4    1    3    3    0  502  0.39096735563E+03  0.54544109852E+03 -0.58802115550E+03  0.89226226936E+03  0.12699999809E+01 0.  1.
</event>
<event>
 5   0  0.6668433E-05  0.1501153E+04  0.7818609E-02  0.8883687E-01
       -1   -1    0    0    0  501  0.00000000000E+00  0.00000000000E+00  0.83000367588E+03  0.83000367590E+03  0.50400001928E-02 0. -1.
        1   -1    0    0  501    0  0.00000000000E+00  0.00000000000E+00 -0.67874991354E+03  0.67874991356E+03  0.50400001928E-02 0.  1.
    10030    2    1    2    0    0  0.00000000000E+00  0.00000000000E+00  0.15125376234E+03  0.15087535895E+04  0.15011527881E+04 0.  0.
        1    1    3    3  502    0  0.25840130734E+03  0.66162956292E+03  0.31942468252E+03  0.77881772064E+03  0.50400001928E-02 0.  1.
       -1    1    3    3    0  502 -0.25840130734E+03 -0.66162956292E+03 -0.16817092017E+03  0.72993586881E+03  0.50400001928E-02 0. -1.
</event>
<event>
 5   0  0.1216921E-04  0.1499795E+04  0.7818609E-02  0.8884590E-01
        2   -1    0    0  501    0  0.00000000000E+00  0.00000000000E+00  0.13202322535E+04  0.13202322535E+04  0.25500000920E-02 0. -1.
       -2   -1    0    0    0  501  0.00000000000E+00  0.00000000000E+00 -0.42594473046E+03  0.42594473047E+03  0.25500000920E-02 0.  1.
    10030    2    1    2    0    0  0.00000000000E+00  0.00000000000E+00  0.89428752307E+03  0.17461769840E+04  0.14997946145E+04 0.  0.
        4    1    3    3  502    0  0.58016860446E+03  0.47465788223E+03  0.42248295562E+03  0.86045870061E+03  0.12699999809E+01 0. -1.
       -4    1    3    3    0  502 -0.58016860446E+03 -0.47465788223E+03  0.47180456745E+03  0.88571828339E+03  0.12699999809E+01 0.  1.
</event>
<event>
 5   0  0.1219810E-04  0.1498176E+04  0.7818609E-02  0.8885667E-01
       -2   -1    0    0    0  501  0.00000000000E+00  0.00000000000E+00  0.56138482881E+03  0.56138482881E+03  0.25500000920E-02 0.  1.
        2   -1    0    0  501    0  0.00000000000E+00  0.00000000000E+00 -0.99955135533E+03  0.99955135533E+03  0.25500000920E-02 0. -1.
    10030    2    1    2    0    0  0.00000000000E+00  0.00000000000E+00 -0.43816652652E+03  0.15609361841E+04  0.14981761799E+04 0.  0.
        1    1    3    3  502    0 -0.67582139499E+03 -0.22257779740E+03 -0.46311167624E+03  0.84896870291E+03  0.50400001928E-02 0. -1.
       -1    1    3    3    0  502  0.67582139499E+03  0.22257779740E+03  0.24945149720E+02  0.71196748124E+03  0.50400001928E-02 0.  1.
</event>
<event>
 5   0  0.4462875E-05  0.1497987E+04  0.7818609E-02  0.8885793E-01
        4   -1    0    0  501    0  0.00000000000E+00  0.00000000000E+00  0.84450522906E+03  0.84450618400E+03  0.12699999809E+01 0. -1.
       -4   -1    0    0    0  501  0.00000000000E+00  0.00000000000E+00 -0.66428217661E+03  0.66428339062E+03  0.12699999809E+01 0.  1.
    10030    2    1    2    0    0  0.00000000000E+00  0.00000000000E+00  0.18022305246E+03  0.15087895746E+04  0.14979871935E+04 0.  0.
        5    1    3    3  502    0 -0.61872879114E+03  0.42552253346E+02 -0.33283722777E+03  0.70387408067E+03  0.46999998093E+01 0.  1.
       -5    1    3    3    0  502  0.61872879114E+03 -0.42552253346E+02  0.51306028023E+03  0.80491549395E+03  0.46999998093E+01 0. -1.
</event>
<event>
 5   0  0.6668433E-05  0.1498548E+04  0.7818609E-02  0.8885419E-01
       -1   -1    0    0    0  501  0.00000000000E+00  0.00000000000E+00  0.91793356690E+03  0.91793356691E+03  0.50400001928E-02 0. -1.
        1   -1    0    0  501    0  0.00000000000E+00  0.00000000000E+00 -0.61160385026E+03  0.61160385028E+03  0.50400001928E-02 0.  1.
    10030    2    1    2    0    0  0.00000000000E+00  0.00000000000E+00  0.30632971664E+03  0.15295374172E+04  0.14985482359E+04 0.  0.
        1    1    3    3  502    0  0.45398798474E+03  0.48604103122E+03  0.50536691365E+03  0.83530634605E+03  0.50400001928E-02 0. -1.
       -1    1    3    3    0  502 -0.45398798474E+03 -0.48604103122E+03 -0.19903719701E+03  0.69423107114E+03  0.50400001928E-02 0.  1.
</event>
<event>
 5   0  0.4462875E-05  0.1501238E+04  0.7818609E-02  0.8883630E-01
        3   -1    0    0  501    0  0.00000000000E+00  0.00000000000E+00  0.48081120436E+03  0.48081121497E+03  0.10100000352E+00 0.  1.
       -3   -1    0    0    0  501  0.00000000000E+00  0.00000000000E+00 -0.11718292987E+04  0.11718293030E+04  0.10100000352E+00 0. -1.
    10030    2    1    2    0    0  0.00000000000E+00  0.00000000000E+00 -0.69101809432E+03  0.16526405180E+04  0.15012377144E+04 0.  0.
        1    1    3    3  502    0  0.60481180797E+03 -0.30390705028E+03 -0.70268734099E+03  0.97566711408E+03  0.50400001928E-02 0. -1.
       -1    1    3    3    0  502 -0.60481180797E+03  0.30390705028E+03  0.11669246672E+02  0.67697340392E+03  0.50400001928E-02 0.  1.
</event>
<event>
 5   0  0.1216921E-04  0.1504287E+04  0.7818609E-02  0.8881607E-01
        2   -1    0    0  501    0  0.00000000000E+00  0.00000000000E+00  0.78857061199E+03  0.78857061199E+03  0.25500000920E-02 0.  1.
       -2   -1    0    0    0  501  0.00000000000E+00  0.00000000000E+00 -0.71739870132E+03  0.71739870133E+03  0.25500000920E-02 0. -1.
    10030    2    1    2    0    0  0.00000000000E+00  0.00000000000E+00  0.71171910665E+02  0.15059693133E+04  0.15042865857E+04 0.  0.
        4    1    3    3  502    0  0.71798460641E+03 -0.15313701299E+03  0.19936932977E+03  0.76072503728E+03  0.12699999809E+01 0. -1.
       -4    1    3    3    0  502 -0.71798460641E+03  0.15313701299E+03 -0.12819741911E+03  0.74524427604E+03  0.12699999809E+01 0.  1.
</event>
<event>
 5   0  0.6542036E-05  0.1499722E+04  0.7818609E-02  0.8884638E-01
        1   -1    0    0  501    0  0.00000000000E+00  0.00000000000E+00  0.25582395074E+04  0.25582395074E+04  0.50400001928E-02 0. -1.
       -1   -1    0    0    0  501  0.00000000000E+00  0.00000000000E+00 -0.21979631624E+03  0.21979631630E+03  0.50400001928E-02 0.  1.
    10030    2    1    2    0    0  0.00000000000E+00  0.00000000000E+00  0.23384431912E+04  0.27780358237E+04  0.14997221341E+04 0.  0.
        4    1    3    3  502    0 -0.56146536743E+03 -0.24947647763E+03  0.37290166947E+03  0.71870657414E+03  0.12699999809E+01 0.  1.
       -4    1    3    3    0  502  0.56146536743E+03  0.24947647763E+03  0.19655415217E+04  0.20593292496E+04  0.12699999809E+01 0. -1.
</event>
<event>
 5   0  0.1216921E-04  0.1499504E+04  0.7818609E-02  0.8884783E-01
       -2   -1    0    0    0  501  0.00000000000E+00  0.00000000000E+00  0.11683039110E+04  0.11683039110E+04  0.25500000920E-02 0. -1.
        2   -1    0    0  501    0  0.00000000000E+00  0.00000000000E+00 -0.48114870832E+03  0.48114870833E+03  0.25500000920E-02 0.  1.
    10030    2    1    2    0    0  0.00000000000E+00  0.00000000000E+00  0.68715520267E+03  0.16494526193E+04  0.14995038082E+04 0.  0.
        4    1    3    3  502    0 -0.37030444014E+03 -0.53637267060E+03  0.75117921837E+03  0.99453147319E+03  0.12699999809E+01 0. -1.
       -4    1    3    3    0  502  0.37030444014E+03  0.53637267060E+03 -0.64024015703E+02  0.65492114613E+03  0.12699999809E+01 0.  1.
</event>
<event>
 5   0  0.6509279E-05  0.1499992E+04  0.7818609E-02  0.8884458E-01
        1   -1    0    0  501    0  0.00000000000E+00  0.00000000000E+00  0.63450345813E+03  0.63450345815E+03  0.50400001928E-02 0.  1.
       -1   -1    0    0    0  501  0.00000000000E+00  0.00000000000E+00 -0.88651080297E+03  0.88651080298E+03  0.50400001928E-02 0. -1.
    10030    2    1    2    0    0  0.00000000000E+00  0.00000000000E+00 -0.25200734484E+03  0.15210142611E+04  0.14999922269E+04 0.  0.
        2    1    3    3  502    0  0.17394985430E+03  0.39741560658E+03 -0.74637559509E+03  0.86329267640E+03  0.25500000920E-02 0. -1.
       -2    1    3    3    0  502 -0.17394985430E+03 -0.39741560658E+03  0.49436825026E+03  0.65772158474E+03  0.25500000920E-02 0.  1.
</event>
<event>
 5   0  0.1219810E-04  0.1498643E+04  0.7818609E-02  0.8885356E-01
       -2   -1    0    0    0  501  0.00000000000E+00  0.00000000000E+00  0.10163040042E+04  0.10163040042E+04  0.25500000920E-02 0. -1.
        2   -1    0    0  501    0  0.00000000000E+00  0.00000000000E+00 -0.55247511592E+03  0.55247511592E+03  0.25500000920E-02 0.  1.
    10030    2    1    2    0    0  0.00000000000E+00  0.00000000000E+00  0.46382888828E+03  0.15687791201E+04  0.14986429495E+04 0.  0.
        1    1    3    3  502    0 -0.47488092627E+03 -0.56635605818E+03  0.10280708896E+03  0.74621737874E+03  0.50400001928E-02 0.  1.
       -1    1    3    3    0  502  0.47488092627E+03  0.56635605818E+03  0.36102179932E+03  0.82256174138E+03  0.50400001928E-02 0. -1.
</event>
<event>
 5   0  0.6361716E-05  0.1500629E+04  0.7818609E-02  0.8884035E-01
        1   -1    0    0  501    0  0.00000000000E+00  0.00000000000E+00  0.20141438755E+04  0.20141438755E+04  0.50400001928E-02 0. -1.
       -1   -1    0    0    0  501  0.00000000000E+00  0.00000000000E+00 -0.27950913099E+03  0.27950913104E+03  0.50400001928E-02 0.  1.
    10030    2    1    2    0    0  0.00000000000E+00  0.00000000000E+00  0.17346347445E+04  0.22936530065E+04  0.15006286741E+04 0.  0.
        3    1    3    3  502    0 -0.11862697241E+03 -0.34190388446E+03 -0.13729110043E+03  0.38706521576E+03  0.10100000352E+00 0.  1.
       -3    1    3    3    0  502  0.11862697241E+03  0.34190388446E+03  0.18719258449E+04  0.19065877908E+04  0.10100000352E+00 0. -1.
</event>
<event>
 5   0  0.6668433E-05  0.1500022E+04  0.7818609E-02  0.8884438E-01
        1   -1    0    0  501    0  0.00000000000E+00  0.00000000000E+00  0.31179987188E+03  0.31179987192E+03  0.50400001928E-02 0. -1.
       -1   -1    0    0    0  501  0.00000000000E+00  0.00000000000E+00 -0.18040949596E+04  0.18040949596E+04  0.50400001928E-02 0.  1.
    10030    2    1    2    0    0  0.00000000000E+00  0.00000000000E+00 -0.14922950878E+04  0.21158948316E+04  0.15000221029E+04 0.  0.
        1    1    3    3  502    0 -0.63424108720E+03  0.21227917003E+03 -0.12248969902E+04  0.13955990970E+04  0.50400001928E-02 0.  1.
       -1    1    3    3    0  502  0.63424108720E+03 -0.21227917003E+03 -0.26739809752E+03  0.72029573461E+03  0.50400001928E-02 0. -1.
</event>
<event>
 5   0  0.6361716E-05  0.1501294E+04  0.7818609E-02  0.8883593E-01
        1   -1    0    0  501    0  0.00000000000E+00  0.00000000000E+00  0.20622999366E+04  0.20622999366E+04  0.50400001928E-02 0.  1.
       -1   -1    0    0    0  501  0.00000000000E+00  0.00000000000E+00 -0.27322448533E+03  0.27322448537E+03  0.50400001928E-02 0. -1.
    10030    2    1    2    0    0  0.00000000000E+00  0.00000000000E+00  0.17890754513E+04  0.23355244220E+04  0.15012938937E+04 0.  0.
        3    1    3    3  502    0  0.36090534088E+03  0.60063979470E+03  0.47580404804E+03  0.84700078535E+03  0.10100000352E+00 0. -1.
       -3    1    3    3    0  502 -0.36090534088E+03 -0.60063979470E+03  0.13132714032E+04  0.14885236366E+04  0.10100000352E+00 0.  1.
</event>
<event>
 5   0  0.1186664E-04  0.1497976E+04  0.7818609E-02  0.8885800E-01
        2   -1    0    0  501    0  0.00000000000E+00  0.00000000000E+00  0.11542335888E+04  0.11542335888E+04  0.25500000920E-02 0.  1.
       -2   -1    0    0    0  501  0.00000000000E+00  0.00000000000E+00 -0.48602181071E+03  0.48602181072E+03  0.25500000920E-02 0. -1.
    10030    2    1    2    0    0  0.00000000000E+00  0.00000000000E+00  0.66821177813E+03  0.16402553996E+04  0.14979755657E+04 0.  0.
        3    1    3    3  502    0 -0.82021518440E+02 -0.45312507776E+03 -0.31270550058E+03  0.55662788816E+03  0.10100000352E+00 0. -1.
       -3    1    3    3    0  502  0.82021518440E+02  0.45312507776E+03  0.98091727871E+03  0.10836275114E+04  0.10100000352E+00 0.  1.
</event>
<event>
 5   0  0.1228286E-04  0.1503495E+04  0.7818609E-02  0.8882132E-01
        2   -1    0    0  501    0  0.00000000000E+00  0.00000000000E+00  0.22033988436E+04  0.22033988436E+04  0.25500000920E-02 0. -1.
       -2   -1    0    0    0  501  0.00000000000E+00  0.00000000000E+00 -0.25647832388E+03  0.25647832389E+03  0.25500000920E-02 0.  1.
    10030    2    1    2    0    0  0.00000000000E+00  0.00000000000E+00  0.19469205197E+04  0.24598771675E+04  0.15034946522E+04 0.  0.
        2    1    3    3  502    0 -0.12822717455E+03  0.25584955935E+03 -0.16386650371E+03  0.32977785911E+03  0.25500000920E-02 0.  1.
       -2    1    3    3    0  502  0.12822717455E+03 -0.25584955935E+03  0.21107870234E+04  0.21300993084E+04  0.25500000920E-02 0. -1.
</event>
<event>
 5   0  0.6542036E-05  0.1501754E+04  0.7818609E-02  0.8883288E-01
        1   -1    0    0  501    0  0.00000000000E+00  0.00000000000E+00  0.71684303515E+03  0.71684303517E+03  0.50400001928E-02 0. -1.
       -1   -1    0    0    0  501  0.00000000000E+00  0.00000000000E+00 -0.78652659845E+03  0.78652659847E+03  0.50400001928E-02 0.  1.
    10030    2    1    2    0    0  0.00000000000E+00  0.00000000000E+00 -0.69683563299E+02  0.15033696336E+04  0.15017537935E+04 0.  0.
        4    1    3    3  502    0  0.40744224935E+03 -0.63068112368E+03 -0.28005462120E+02  0.75136794258E+03  0.12699999809E+01 0.  1.
       -4    1    3    3    0  502 -0.40744224935E+03  0.63068112368E+03 -0.41678101179E+02  0.75200169105E+03  0.12699999809E+01 0. -1.
</event>
<event>
 5   0  0.1219810E-04  0.1500709E+04  0.7818609E-02  0.8883981E-01
        2   -1    0    0  501    0  0.00000000000E+00  0.00000000000E+00  0.10914491991E+04  0.10914491991E+04  0.25500000920E-02 0. -1.
       -2   -1    0    0    0  501  0.00000000000E+00  0.00000000000E+00 -0.51585728424E+03  0.51585728425E+03  0.25500000920E-02 0.  1.
    10030    2    1    2    0    0  0.00000000000E+00  0.00000000000E+00  0.57559191484E+03  0.16073064833E+04  0.15007091920E+04 0.  0.
        1    1    3    3  502    0  0.42961293791E+03  0.61208096315E+03  0.35400646510E+03  0.82736386145E+03  0.50400001928E-02 0. -1.
       -1    1    3    3    0  502 -0.42961293791E+03 -0.61208096315E+03  0.22158544974E+03  0.77994262189E+03  0.50400001928E-02 0.  1.
</event>
<event>
 5   0  0.4462875E-05  0.1500749E+04  0.7818609E-02  0.8883955E-01
       -4   -1    0    0    0  501  0.00000000000E+00  0.00000000000E+00  0.47026208090E+03  0.47026379580E+03  0.12699999809E+01 0. -1.
        4   -1    0    0  501    0  0.00000000000E+00  0.00000000000E+00 -0.11973326151E+04  0.11973332886E+04  0.12699999809E+01 0.  1.
    10030    2    1    2    0    0  0.00000000000E+00  0.00000000000E+00 -0.72707053415E+03  0.16675970844E+04  0.15007493043E+04 0.  0.
        4    1    3    3  502    0  0.12044218008E+03  0.63994090971E+03  0.50785741417E+02  0.65315502838E+03  0.12699999809E+01 0. -1.
       -4    1    3    3    0  502 -0.12044218008E+03 -0.63994090971E+03 -0.77785627557E+03  0.10144420560E+04  0.12699999809E+01 0.  1.
</event>
<event>
 5   0  0.6542036E-05  0.1503210E+04  0.7818609E-02  0.8882321E-01
        1   -1    0    0  501    0  0.00000000000E+00  0.00000000000E+00  0.97085399701E+03  0.97085399702E+03  0.50400001928E-02 0. -1.
       -1   -1    0    0    0  501  0.00000000000E+00  0.00000000000E+00 -0.58186915245E+03  0.58186915247E+03  0.50400001928E-02 0.  1.
    10030    2    1    2    0    0  0.00000000000E+00  0.00000000000E+00  0.38898484456E+03  0.15527231495E+04  0.15032098888E+04 0.  0.
        4    1    3    3  502    0  0.41345074413E+03  0.12138985377E+03  0.83059408170E+03  0.93571638645E+03  0.12699999809E+01 0. -1.
       -4    1    3    3    0  502 -0.41345074413E+03 -0.12138985377E+03 -0.44160923714E+03  0.61700676305E+03  0.12699999809E+01 0.  1.
</event>
<event>
 5   0  0.1219810E-04  0.1501636E+04  0.7818609E-02  0.8883366E-01
       -2   -1    0    0    0  501  0.00000000000E+00  0.00000000000E+00  0.63159436653E+03  0.63159436654E+03  0.25500000920E-02 0.  1.
        2   -1    0    0  501    0  0.00000000000E+00  0.00000000000E+00 -0.89254705994E+03  0.89254705994E+03  0.25500000920E-02 0. -1.
    10030    2    1    2    0    0  0.00000000000E+00  0.00000000000E+00 -0.26095269340E+03  0.15241414265E+04  0.15016360344E+04 0.  0.
        1    1    3    3  502    0  0.21953207991E+03 -0.63526473958E+03  0.20916100226E+03  0.70392041337E+03  0.50400001928E-02 0. -1.
       -1    1    3    3    0  502 -0.21953207991E+03  0.63526473958E+03 -0.47011369567E+03  0.82022101311E+03  0.50400001928E-02 0.  1.
</event>
<event>
 5   0  0.6668433E-05  0.1500398E+04  0.7818609E-02  0.8884188E-01
        1   -1    0    0  501    0  0.00000000000E+00  0.00000000000E+00  0.90488868531E+03  0.90488868532E+03  0.50400001928E-02 0.  1.
       -1   -1    0    0    0  501  0.00000000000E+00  0.00000000000E+00 -0.62195326254E+03  0.62195326256E+03  0.50400001928E-02 0. -1.
    10030    2    1    2    0    0  0.00000000000E+00  0.00000000000E+00  0.28293542277E+03  0.15268419479E+04  0.15003979073E+04 0.  0.
        1    1    3    3  502    0 -0.36928741405E+03 -0.20248146404E+03 -0.49030147111E+03  0.64634934057E+03  0.50400001928E-02 0. -1.
       -1    1    3    3    0  502  0.36928741405E+03  0.20248146404E+03  0.77323689388E+03  0.88049260731E+03  0.50400001928E-02 0.  1.
</event>
<event>
 5   0  0.1219810E-04  0.1486428E+04  0.7818609E-02  0.8893529E-01
       -2   -1    0    0    0  501  0.00000000000E+00  0.00000000000E+00  0.30548712744E+03  0.30548712745E+03  0.25500000920E-02 0.  1.
        2   -1    0    0  501    0  0.00000000000E+00  0.00000000000E+00 -0.18081514591E+04  0.18081514591E+04  0.25500000920E-02 0. -1.
    10030    2    1    2    0    0  0.00000000000E+00  0.00000000000E+00 -0.15026643317E+04  0.21136385865E+04  0.14864279266E+04 0.  0.
        1    1    3    3  502    0  0.12309947814E+02  0.20892252321E+03  0.26272139013E+03  0.33589088165E+03  0.50400001928E-02 0.  1.
       -1    1    3    3    0  502 -0.12309947814E+02 -0.20892252321E+03 -0.17653857218E+04  0.17777477049E+04  0.50400001928E-02 0. -1.
</event>
<event>
 5   0  0.6542036E-05  0.1499745E+04  0.7818609E-02  0.8884623E-01
        1   -1    0    0  501    0  0.00000000000E+00  0.00000000000E+00  0.91861899436E+03  0.91861899438E+03  0.50400001928E-02 0.  1.
       -1   -1    0    0    0  501  0.00000000000E+00  0.00000000000E+00 -0.61212371601E+03  0.61212371603E+03  0.50400001928E-02 0. -1.
    10030    2    1    2    0    0  0.00000000000E+00  0.00000000000E+00  0.30649527836E+03  0.15307427104E+04  0.14997446082E+04 0.  0.
        4    1    3    3  502    0  0.70242209369E+03  0.22122068475E+03  0.90062448075E+01  0.73649040348E+03  0.12699999809E+01 0. -1.
       -4    1    3    3    0  502 -0.70242209369E+03 -0.22122068475E+03  0.29748903355E+03  0.79425230692E+03  0.12699999809E+01 0.  1.
</event>
<event>
 5   0  0.1228286E-04  0.1503778E+04  0.7818609E-02  0.8881944E-01
       -2   -1    0    0    0  501  0.00000000000E+00  0.00000000000E+00  0.65479659309E+03  0.65479659309E+03  0.25500000920E-02 0. -1.
        2   -1    0    0  501    0  0.00000000000E+00  0.00000000000E+00 -0.86337867765E+03  0.86337867765E+03  0.25500000920E-02 0.  1.
    10030    2    1    2    0    0  0.00000000000E+00  0.00000000000E+00 -0.20858208456E+03  0.15181752707E+04  0.15037784633E+04 0.  0.
        2    1    3    3  502    0  0.59606754412E+03 -0.11487932452E+03 -0.55220928055E+03  0.82062711744E+03  0.25500000920E-02 0.  1.
       -2    1    3    3    0  502 -0.59606754412E+03  0.11487932452E+03  0.34362719599E+03  0.69754815331E+03  0.25500000920E-02 0. -1.
</event>
<event>
 5   0  0.1228286E-04  0.1499745E+04  0.7818609E-02  0.8884622E-01
        2   -1    0    0  501    0  0.00000000000E+00  0.00000000000E+00  0.19670265572E+04  0.19670265572E+04  0.25500000920E-02 0.  1.
       -2   -1    0    0    0  501  0.00000000000E+00  0.00000000000E+00 -0.28586741018E+03  0.28586741019E+03  0.25500000920E-02 0. -1.
    10030    2    1    2    0    0  0.00000000000E+00  0.00000000000E+00  0.16811591470E+04  0.22528939674E+04  0.14997450286E+04 0.  0.
        2    1    3    3  502    0  0.13359576736E+03 -0.26621255449E+03  0.18743531421E+04  0.18978716117E+04  0.25500000920E-02 0.  1.
       -2    1    3    3    0  502 -0.13359576736E+03  0.26621255449E+03 -0.19319399515E+03  0.35502235562E+03  0.25500000920E-02 0. -1.
</event>
<event>
 5   0  0.6542036E-05  0.1499047E+04  0.7818609E-02  0.8885087E-01
       -1   -1    0    0    0  501  0.00000000000E+00  0.00000000000E+00  0.31499246097E+03  0.31499246101E+03  0.50400001928E-02 0. -1.
        1   -1    0    0  501    0  0.00000000000E+00  0.00000000000E+00 -0.17834888242E+04  0.17834888242E+04  0.50400001928E-02 0.  1.
    10030    2    1    2    0    0  0.00000000000E+00  0.00000000000E+00 -0.14684963632E+04  0.20984812852E+04  0.14990470758E+04 0.  0.
        4    1    3    3  502    0  0.25971447883E+03  0.54400944833E+03 -0.11073538255E+03  0.61291257797E+03  0.12699999809E+01 0. -1.
       -4    1    3    3    0  502 -0.25971447883E+03 -0.54400944833E+03 -0.13577609807E+04  0.14855687073E+04  0.12699999809E+01 0.  1.
</event>
<event>
 5   0  0.6364378E-05  0.1499995E+04  0.7818609E-02  0.8884456E-01
        1   -1    0    0  501    0  0.00000000000E+00  0.00000000000E+00  0.96304357727E+03  0.96304357729E+03  0.50400001928E-02 0. -1.
       -1   -1    0    0    0  501  0.00000000000E+00  0.00000000000E+00 -0.58408186583E+03  0.58408186585E+03  0.50400001928E-02 0.  1.
    10030    2    1    2    0    0  0.00000000000E+00  0.00000000000E+00  0.37896171144E+03  0.15471254431E+04  0.14999950527E+04 0.  0.
        5    1    3    3  502    0 -0.34754690775E+03 -0.21921103402E+03 -0.45763319219E+03  0.61505492365E+03  0.46999998093E+01 0.  1.
       -5    1    3    3    0  502  0.34754690775E+03  0.21921103402E+03  0.83659490363E+03  0.93207051949E+03  0.46999998093E+01 0. -1.
</event>
<event>
 5   0  0.6509279E-05  0.1499734E+04  0.7818609E-02  0.8884630E-01
       -1   -1    0    0    0  501  0.00000000000E+00  0.00000000000E+00  0.78277203177E+03  0.78277203179E+03  0.50400001928E-02 0.  1.
        1   -1    0    0  501    0  0.00000000000E+00  0.00000000000E+00 -0.71834517107E+03  0.71834517109E+03  0.50400001928E-02 0. -1.
    10030    2    1    2    0    0  0.00000000000E+00  0.00000000000E+00  0.64426860696E+02  0.15011172029E+04  0.14997339885E+04 0.  0.
        2    1    3    3  502    0  0.41520540798E+03  0.60252168901E+03 -0.13186638235E+03  0.74351641498E+03  0.25500000920E-02 0. -1.
       -2    1    3    3    0  502 -0.41520540798E+03 -0.60252168901E+03  0.19629324305E+03  0.75760078790E+03  0.25500000920E-02 0.  1.
</event>
<event>
 5   0  0.1186664E-04  0.1501164E+04  0.7818609E-02  0.8883679E-01
        2   -1    0    0  501    0  0.00000000000E+00  0.00000000000E+00  0.16179933032E+04  0.16179933032E+04  0.25500000920E-02 0. -1.
       -2   -1    0    0    0  501  0.00000000000E+00  0.00000000000E+00 -0.34819256731E+03  0.34819256732E+03  0.25500000920E-02 0.  1.
    10030    2    1    2    0    0  0.00000000000E+00  0.00000000000E+00  0.12698007359E+04  0.19661858705E+04  0.15011638713E+04 0.  0.
        3    1    3    3  502    0 -0.21704666637E+03  0.57865234837E+03  0.11927864864E+04  0.13433865445E+04  0.10100000352E+00 0. -1.
       -3    1    3    3    0  502  0.21704666637E+03 -0.57865234837E+03  0.77014249507E+02  0.62279932601E+03  0.10100000352E+00 0.  1.
</event>
<event>
 5   0  0.6509279E-05  0.1519092E+04  0.7818609E-02  0.8871855E-01
        1   -1    0    0  501    0  0.00000000000E+00  0.00000000000E+00  0.83807030229E+03  0.83807030231E+03  0.50400001928E-02 0. -1.
       -1   -1    0    0    0  501  0.00000000000E+00  0.00000000000E+00 -0.68837908578E+03  0.68837908580E+03  0.50400001928E-02 0.  1.
    10030    2    1    2    0    0  0.00000000000E+00  0.00000000000E+00  0.14969121651E+03  0.15264493881E+04  0.15190919242E+04 0.  0.
        2    1    3    3  502    0  0.71623629117E+03  0.20868423668E+02  0.32801857766E+03  0.78805209421E+03  0.25500000920E-02 0. -1.
       -2    1    3    3    0  502 -0.71623629117E+03 -0.20868423668E+02 -0.17832736115E+03  0.73839729390E+03  0.25500000920E-02 0.  1.
</event>
<event>
 5   0  0.6668433E-05  0.1500664E+04  0.7818609E-02  0.8884011E-01
       -1   -1    0    0    0  501  0.00000000000E+00  0.00000000000E+00  0.53142014414E+03  0.53142014416E+03  0.50400001928E-02 0. -1.
        1   -1    0    0  501    0  0.00000000000E+00  0.00000000000E+00 -0.10594222403E+04  0.10594222404E+04  0.50400001928E-02 0.  1.
    10030    2    1    2    0    0  0.00000000000E+00  0.00000000000E+00 -0.52800209620E+03  0.15908423845E+04  0.15006642792E+04 0.  0.
        1    1    3    3  502    0  0.17998651426E+03 -0.62342278405E+03  0.13539800750E+03  0.66286026691E+03  0.50400001928E-02 0.  1.
       -1    1    3    3    0  502 -0.17998651426E+03  0.62342278405E+03 -0.66340010370E+03  0.92798211761E+03  0.50400001928E-02 0. -1.
</event>
<event>
 5   0  0.1219810E-04  0.1498714E+04  0.7818609E-02  0.8885309E-01
       -2   -1    0    0    0  501  0.00000000000E+00  0.00000000000E+00  0.10566620643E+04  0.10566620643E+04  0.25500000920E-02 0.  1.
        2   -1    0    0  501    0  0.00000000000E+00  0.00000000000E+00 -0.53142408173E+03  0.53142408174E+03  0.25500000920E-02 0. -1.
    10030    2    1    2    0    0  0.00000000000E+00  0.00000000000E+00  0.52523798257E+03  0.15880861460E+04  0.14987136714E+04 0.  0.
        1    1    3    3  502    0  0.66085804063E+03  0.20495497871E+03  0.56752042985E+03  0.89488509401E+03  0.50400001928E-02 0.  1.
       -1    1    3    3    0  502 -0.66085804063E+03 -0.20495497871E+03 -0.42282447285E+02  0.69320105203E+03  0.50400001928E-02 0. -1.
</event>
<event>
 5   0  0.4462875E-05  0.1499904E+04  0.7818609E-02  0.8884517E-01
       -3   -1    0    0    0  501  0.00000000000E+00  0.00000000000E+00  0.10007088739E+04  0.10007088790E+04  0.10100000352E+00 0. -1.
        3   -1    0    0  501    0  0.00000000000E+00  0.00000000000E+00 -0.56202933620E+03  0.56202934527E+03  0.10100000352E+00 0.  1.
    10030    2    1    2    0    0  0.00000000000E+00  0.00000000000E+00  0.43867953767E+03  0.15627382242E+04  0.14999036705E+04 0.  0.
        4    1    3    3  502    0 -0.21340019359E+03  0.63309227806E+03 -0.13563935635E+03  0.68172217439E+03  0.12699999809E+01 0.  1.
       -4    1    3    3    0  502  0.21340019359E+03 -0.63309227806E+03  0.57431889402E+03  0.88101604985E+03  0.12699999809E+01 0. -1.
</event>
<event>
 5   0  0.6364378E-05  0.1499111E+04  0.7818609E-02  0.8885045E-01
       -1   -1    0    0    0  501  0.00000000000E+00  0.00000000000E+00  0.40161916474E+03  0.40161916477E+03  0.50400001928E-02 0.  1.
        1   -1    0    0  501    0  0.00000000000E+00  0.00000000000E+00 -0.13989200230E+04  0.13989200230E+04  0.50400001928E-02 0. -1.
    10030    2    1    2    0    0  0.00000000000E+00  0.00000000000E+00 -0.99730085823E+03  0.18005391877E+04  0.14991105245E+04 0.  0.
        5    1    3    3  502    0 -0.49293977071E+03  0.93587004039E+02 -0.11674466287E+04  0.12707091980E+04  0.46999998093E+01 0. -1.
       -5    1    3    3    0  502  0.49293977071E+03 -0.93587004039E+02  0.17014577048E+03  0.52982998979E+03  0.46999998093E+01 0.  1.
</event>
<event>
 5   0  0.1228286E-04  0.1503033E+04  0.7818609E-02  0.8882438E-01
        2   -1    0    0  501    0  0.00000000000E+00  0.00000000000E+00  0.10183747543E+04  0.10183747543E+04  0.25500000920E-02 0. -1.
       -2   -1    0    0    0  501  0.00000000000E+00  0.00000000000E+00 -0.55458699429E+03  0.55458699429E+03  0.25500000920E-02 0.  1.
    10030    2    1    2    0    0  0.00000000000E+00  0.00000000000E+00  0.46378775999E+03  0.15729617486E+04  0.15030334581E+04 0.  0.
        2    1    3    3  502    0  0.47532055630E+03 -0.56708967083E+03  0.94415939059E+02  0.74594550441E+03  0.25500000920E-02 0.  1.
       -2    1    3    3    0  502 -0.47532055630E+03  0.56708967083E+03  0.36937182093E+03  0.82701624416E+03  0.25500000920E-02 0. -1.
</event>
<event>
 5   0  0.1228286E-04  0.1499407E+04  0.7818609E-02  0.8884847E-01
        2   -1    0    0  501    0  0.00000000000E+00  0.00000000000E+00  0.13326265118E+04  0.13326265118E+04  0.25500000920E-02 0. -1.
       -2   -1    0    0    0  501  0.00000000000E+00  0.00000000000E+00 -0.42176518917E+03  0.42176518918E+03  0.25500000920E-02 0.  1.
    10030    2    1    2    0    0  0.00000000000E+00  0.00000000000E+00  0.91086132258E+03  0.17543917009E+04  0.14994071800E+04 0.  0.
        2    1    3    3  502    0 -0.46785196827E+03 -0.55842370095E+03  0.66254388133E+03  0.98472680916E+03  0.25500000920E-02 0. -1.
       -2    1    3    3    0  502  0.46785196827E+03  0.55842370095E+03  0.24831744125E+03  0.76966489177E+03  0.25500000920E-02 0.  1.
</event>
<event>
 5   0  0.6361716E-05  0.1499240E+04  0.7818609E-02  0.8884959E-01
        1   -1    0    0  501    0  0.00000000000E+00  0.00000000000E+00  0.14329713156E+04  0.14329713156E+04  0.50400001928E-02 0.  1.
       -1   -1    0    0    0  501  0.00000000000E+00  0.00000000000E+00 -0.39214327812E+03  0.39214327816E+03  0.50400001928E-02 0. -1.
    10030    2    1    2    0    0  0.00000000000E+00  0.00000000000E+00  0.10408280375E+04  0.18251145938E+04  0.14992398997E+04 0.  0.
        3    1    3    3  502    0 -0.11819602733E+03 -0.56489757855E+03  0.11027785594E+04  0.12446686854E+04  0.10100000352E+00 0.  1.
       -3    1    3    3    0  502  0.11819602733E+03  0.56489757855E+03 -0.61950521963E+02  0.58044590834E+03  0.10100000352E+00 0. -1.
</event>
<event>
 5   0  0.1254487E-04  0.1501866E+04  0.7818609E-02  0.8883213E-01
        2   -1    0    0  501    0  0.00000000000E+00  0.00000000000E+00  0.11995452382E+04  0.11995452382E+04  0.25500000920E-02 0. -1.
       -2   -1    0    0    0  501  0.00000000000E+00  0.00000000000E+00 -0.47009525894E+03  0.47009525894E+03  0.25500000920E-02 0.  1.
    10030    2    1    2    0    0  0.00000000000E+00  0.00000000000E+00  0.72944997929E+03  0.16696404972E+04  0.15018662116E+04 0.  0.
        5    1    3    3  502    0 -0.63701031497E+03 -0.24077646477E+03  0.12955124037E+02  0.68113535557E+03  0.46999998093E+01 0.  1.
       -5    1    3    3    0  502  0.63701031497E+03  0.24077646477E+03  0.71649485525E+03  0.98850514160E+03  0.46999998093E+01 0. -1.
</event>
<event>
 5   0  0.6542036E-05  0.1505175E+04  0.7818609E-02  0.8881019E-01
       -1   -1    0    0    0  501  0.00000000000E+00  0.00000000000E+00  0.77144705189E+03  0.77144705190E+03  0.50400001928E-02 0.  1.
        1   -1    0    0  501    0  0.00000000000E+00  0.00000000000E+00 -0.73418890231E+03  0.73418890232E+03  0.50400001928E-02 0. -1.
    10030    2    1    2    0    0  0.00000000000E+00  0.00000000000E+00  0.37258149581E+02  0.15056359542E+04  0.15051748925E+04 0.  0.
        4    1    3    3  502    0  0.43336573113E+03 -0.20085327674E+03  0.60038985397E+03  0.76721410658E+03  0.12699999809E+01 0.  1.
       -4    1    3    3    0  502 -0.43336573113E+03  0.20085327674E+03 -0.56313170439E+03  0.73842184764E+03  0.12699999809E+01 0. -1.
</event>
<event>
 5   0  0.1228286E-04  0.1500233E+04  0.7818609E-02  0.8884298E-01
        2   -1    0    0  501    0  0.00000000000E+00  0.00000000000E+00  0.12445584071E+04  0.12445584071E+04  0.25500000920E-02 0. -1.
       -2   -1    0    0    0  501  0.00000000000E+00  0.00000000000E+00 -0.45210798463E+03  0.45210798464E+03  0.25500000920E-02 0.  1.
    10030    2    1    2    0    0  0.00000000000E+00  0.00000000000E+00  0.79245042245E+03  0.16966663917E+04  0.15002330395E+04 0.  0.
        2    1    3    3  502    0  0.19863267564E+03  0.59003848954E+03  0.86942996333E+03  0.10693497183E+04  0.25500000920E-02 0. -1.
       -2    1    3    3    0  502 -0.19863267564E+03 -0.59003848954E+03 -0.76979540884E+02  0.62731667338E+03  0.25500000920E-02 0.  1.
</event>
<event>
 5   0  0.6364378E-05  0.1499907E+04  0.7818609E-02  0.8884515E-01
       -1   -1    0    0    0  501  0.00000000000E+00  0.00000000000E+00  0.58924758184E+03  0.58924758186E+03  0.50400001928E-02 0. -1.
        1   -1    0    0  501    0  0.00000000000E+00  0.00000000000E+00 -0.95448837693E+03  0.95448837695E+03  0.50400001928E-02 0.  1.
    10030    2    1    2    0    0  0.00000000000E+00  0.00000000000E+00 -0.36524079509E+03  0.15437359588E+04  0.14999066211E+04 0.  0.
        5    1    3    3  502    0  0.52555354945E+03 -0.18765571601E+03  0.33300480022E+03  0.64987344003E+03  0.46999998093E+01 0. -1.
       -5    1    3    3    0  502 -0.52555354945E+03  0.18765571601E+03 -0.69824559532E+03  0.89386251877E+03  0.46999998093E+01 0.  1.
</event>
<event>
 5   0  0.4462875E-05  0.1495603E+04  0.7818609E-02  0.8887382E-01
       -3   -1    0    0    0  501  0.00000000000E+00  0.00000000000E+00  0.47706121324E+03  0.47706122393E+03  0.10100000352E+00 0. -1.
        3   -1    0    0  501    0  0.00000000000E+00  0.00000000000E+00 -0.11721915734E+04  0.11721915777E+04  0.10100000352E+00 0.  1.
    10030    2    1    2    0    0  0.00000000000E+00  0.00000000000E+00 -0.69513036016E+03  0.16492528017E+04  0.14956030844E+04 0.  0.
        4    1    3    3  502    0  0.60984227925E+03 -0.43250418464E+03 -0.33055093813E+03  0.81745520421E+03  0.12699999809E+01 0.  1.
       -4    1    3    3    0  502 -0.60984227925E+03  0.43250418464E+03 -0.36457942202E+03  0.83179759746E+03  0.12699999809E+01 0. -1.
</event>
<event>
 5   0  0.6509279E-05  0.1499914E+04  0.7818609E-02  0.8884510E-01
        1   -1    0    0  501    0  0.00000000000E+00  0.00000000000E+00  0.23827776208E+04  0.23827776208E+04  0.50400001928E-02 0.  1.
       -1   -1    0    0    0  501  0.00000000000E+00  0.00000000000E+00 -0.23604200924E+03  0.23604200930E+03  0.50400001928E-02 0. -1.
    10030    2    1    2    0    0  0.00000000000E+00  0.00000000000E+00  0.21467356116E+04  0.26188196301E+04  0.14999141539E+04 0.  0.
        2    1    3    3  502    0  0.37550664672E+03 -0.63290057865E+03  0.82115239578E+03  0.11026602565E+04  0.25500000920E-02 0. -1.
       -2    1    3    3    0  502 -0.37550664672E+03  0.63290057865E+03  0.13255832158E+04  0.15161593736E+04  0.25500000920E-02 0.  1.
</event>
<event>
 5   0  0.6364378E-05  0.1498634E+04  0.7818609E-02  0.8885362E-01
        1   -1    0    0  501    0  0.00000000000E+00  0.00000000000E+00  0.85398431583E+03  0.85398431585E+03  0.50400001928E-02 0.  1.
       -1   -1    0    0    0  501  0.00000000000E+00  0.00000000000E+00 -0.65747792863E+03  0.65747792865E+03  0.50400001928E-02 0. -1.
    10030    2    1    2    0    0  0.00000000000E+00  0.00000000000E+00  0.19650638720E+03  0.15114622445E+04  0.14986338300E+04 0.  0.
        5    1    3    3  502    0  0.64933257203E+03 -0.13359045461E+03 -0.25398495046E+03  0.70993636596E+03  0.46999998093E+01 0. -1.
       -5    1    3    3    0  502 -0.64933257203E+03  0.13359045461E+03  0.45049133766E+03  0.80152587854E+03  0.46999998093E+01 0.  1.
</event>
<event>
 5   0  0.1228286E-04  0.1499529E+04  0.7818609E-02  0.8884766E-01
       -2   -1    0    0    0  501  0.00000000000E+00  0.00000000000E+00  0.28414777119E+03  0.28414777120E+03  0.25500000920E-02 0. -1.
        2   -1    0    0  501    0  0.00000000000E+00  0.00000000000E+00 -0.19783603011E+04  0.19783603011E+04  0.25500000920E-02 0.  1.
    10030    2    1    2    0    0  0.00000000000E+00  0.00000000000E+00 -0.16942125299E+04  0.22625080723E+04  0.14995288196E+04 0.  0.
        2    1    3    3  502    0 -0.47382046651E+03  0.39354915116E+03 -0.20208240788E+03  0.64824691935E+03  0.25500000920E-02 0. -1.
       -2    1    3    3    0  502  0.47382046651E+03 -0.39354915116E+03 -0.14921301220E+04  0.16142611530E+04  0.25500000920E-02 0.  1.
</event>
<event>
 5   0  0.1228286E-04  0.1501382E+04  0.7818609E-02  0.8883534E-01
       -2   -1    0    0    0  501  0.00000000000E+00  0.00000000000E+00  0.19565695482E+03  0.19565695484E+03  0.25500000920E-02 0.  1.
        2   -1    0    0  501    0  0.00000000000E+00  0.00000000000E+00 -0.28802313940E+04  0.28802313940E+04  0.25500000920E-02 0. -1.
    10030    2    1    2    0    0  0.00000000000E+00  0.00000000000E+00 -0.26845744391E+04  0.30758883488E+04  0.15013824346E+04 0.  0.
        2    1    3    3  502    0 -0.67135425995E+03 -0.22463251188E+03 -0.18538933713E+04  0.19844638923E+04  0.25500000920E-02 0. -1.
       -2    1    3    3    0  502  0.67135425995E+03  0.22463251188E+03 -0.83068106784E+03  0.10914244565E+04  0.25500000920E-02 0.  1.
</event>
<event>
 5   0  0.6542036E-05  0.1498898E+04  0.7818609E-02  0.8885186E-01
       -1   -1    0    0    0  501  0.00000000000E+00  0.00000000000E+00  0.64630850824E+03  0.64630850826E+03  0.50400001928E-02 0. -1.
        1   -1    0    0  501    0  0.00000000000E+00  0.00000000000E+00 -0.86904923291E+03  0.86904923292E+03  0.50400001928E-02 0.  1.
    10030    2    1    2    0    0  0.00000000000E+00  0.00000000000E+00 -0.22274072467E+03  0.15153577412E+04  0.14988981464E+04 0.  0.
        4    1    3    3  502    0  0.27302291980E+03  0.30546019165E+03  0.52307556131E+03  0.66442238009E+03  0.12699999809E+01 0. -1.
       -4    1    3    3    0  502 -0.27302291980E+03 -0.30546019165E+03 -0.74581628598E+03  0.85093536109E+03  0.12699999809E+01 0.  1.
</event>
<event>
 5   0  0.1216921E-04  0.1505827E+04  0.7818609E-02  0.8880587E-01
       -2   -1    0    0    0  501  0.00000000000E+00  0.00000000000E+00  0.24041324078E+03  0.24041324079E+03  0.25500000920E-02 0.  1.
        2   -1    0    0  501    0  0.00000000000E+00  0.00000000000E+00 -0.23579339713E+04  0.23579339713E+04  0.25500000920E-02 0. -1.
    10030    2    1    2    0    0  0.00000000000E+00  0.00000000000E+00 -0.21175207305E+04  0.25983472121E+04  0.15058267465E+04 0.  0.
        4    1    3    3  502    0  0.41731897453E+03  0.61679518483E+03 -0.12500179822E+04  0.14550388294E+04  0.12699999809E+01 0. -1.
       -4    1    3    3    0  502 -0.41731897453E+03 -0.61679518483E+03 -0.86750274836E+03  0.11433083827E+04  0.12699999809E+01 0.  1.
</event>
<event>
 5   0  0.4462875E-05  0.1502368E+04  0.7818609E-02  0.8882879E-01
        3   -1    0    0  501    0  0.00000000000E+00  0.00000000000E+00  0.44010162840E+03  0.44010163999E+03  0.10100000352E+00 0. -1.
       -3   -1    0    0    0  501  0.00000000000E+00  0.00000000000E+00 -0.12821531760E+04  0.12821531799E+04  0.10100000352E+00 0.  1.
    10030    2    1    2    0    0  0.00000000000E+00  0.00000000000E+00 -0.84205154757E+03  0.17222548199E+04  0.15023684155E+04 0.  0.
        3    1    3    3  502    0 -0.71001380055E+01  0.22122792646E+03 -0.12439217209E+04  0.12634609078E+04  0.10100000352E+00 0.  1.
       -3    1    3    3    0  502  0.71001380055E+01 -0.22122792646E+03  0.40187017337E+03  0.45879391218E+03  0.10100000352E+00 0. -1.
</event>
<event>
 5   0  0.4462875E-05  0.1497746E+04  0.7818609E-02  0.8885953E-01
        3   -1    0    0  501    0  0.00000000000E+00  0.00000000000E+00  0.54600435554E+03  0.54600436489E+03  0.10100000352E+00 0. -1.
       -3   -1    0    0    0  501  0.00000000000E+00  0.00000000000E+00 -0.10271171435E+04  0.10271171485E+04  0.10100000352E+00 0.  1.
    10030    2    1    2    0    0  0.00000000000E+00  0.00000000000E+00 -0.48111278798E+03  0.15731215134E+04  0.14977455662E+04 0.  0.
        4    1    3    3  502    0 -0.15151644589E+03 -0.51585451332E+03  0.30697066132E+03  0.61910880474E+03  0.12699999809E+01 0. -1.
       -4    1    3    3    0  502  0.15151644589E+03  0.51585451332E+03 -0.78808344930E+03  0.95401270864E+03  0.12699999809E+01 0.  1.
</event>
<event>
 5   0  0.6361716E-05  0.1500188E+04  0.7818609E-02  0.8884328E-01
        1   -1    0    0  501    0  0.00000000000E+00  0.00000000000E+00  0.77705808242E+03  0.77705808244E+03  0.50400001928E-02 0. -1.
       -1   -1    0    0    0  501  0.00000000000E+00  0.00000000000E+00 -0.72406586755E+03  0.72406586756E+03  0.50400001928E-02 0.  1.
    10030    2    1    2    0    0  0.00000000000E+00  0.00000000000E+00  0.52992214873E+02  0.15011239500E+04  0.15001883010E+04 0.  0.
        3    1    3    3  502    0 -0.73859710911E+03  0.64786035965E+02 -0.87233498929E+02  0.74654712750E+03  0.10100000352E+00 0.  1.
       -3    1    3    3    0  502  0.73859710911E+03 -0.64786035965E+02  0.14022571380E+03  0.75457682250E+03  0.10100000352E+00 0. -1.
</event>
<event>
 5   0  0.1228286E-04  0.1501973E+04  0.7818609E-02  0.8883142E-01
       -2   -1    0    0    0  501  0.00000000000E+00  0.00000000000E+00  0.98838335898E+03  0.98838335898E+03  0.25500000920E-02 0.  1.
        2   -1    0    0  501    0  0.00000000000E+00  0.00000000000E+00 -0.57060928958E+03  0.57060928959E+03  0.25500000920E-02 0. -1.
    10030    2    1    2    0    0  0.00000000000E+00  0.00000000000E+00  0.41777406939E+03  0.15589926486E+04  0.15019730042E+04 0.  0.
        2    1    3    3  502    0  0.60214712933E+02  0.50957598903E+02 -0.56629720952E+03  0.57176482758E+03  0.25500000920E-02 0. -1.
       -2    1    3    3    0  502 -0.60214712933E+02 -0.50957598903E+02  0.98407127891E+03  0.98722782099E+03  0.25500000920E-02 0.  1.
</event>
<event>
 5   0  0.6668433E-05  0.1500417E+04  0.7818609E-02  0.8884176E-01
        1   -1    0    0  501    0  0.00000000000E+00  0.00000000000E+00  0.59252718988E+03  0.59252718990E+03  0.50400001928E-02 0. -1.
       -1   -1    0    0    0  501  0.00000000000E+00  0.00000000000E+00 -0.94985138920E+03  0.94985138922E+03  0.50400001928E-02 0.  1.
    10030    2    1    2    0    0  0.00000000000E+00  0.00000000000E+00 -0.35732419932E+03  0.15423785791E+04  0.15004169747E+04 0.  0.
        1    1    3    3  502    0 -0.35011807995E+03 -0.64869403167E+03 -0.32193777775E+03  0.80438209167E+03  0.50400001928E-02 0.  1.
       -1    1    3    3    0  502  0.35011807995E+03  0.64869403167E+03 -0.35386421575E+02  0.73799648745E+03  0.50400001928E-02 0. -1.
</event>
<event>
 5   0  0.1228286E-04  0.1498680E+04  0.7818609E-02  0.8885331E-01
       -2   -1    0    0    0  501  0.00000000000E+00  0.00000000000E+00  0.75805988267E+03  0.75805988268E+03  0.25500000920E-02 0.  1.
        2   -1    0    0  501    0  0.00000000000E+00  0.00000000000E+00 -0.74072027148E+03  0.74072027149E+03  0.25500000920E-02 0. -1.
    10030    2    1    2    0    0  0.00000000000E+00  0.00000000000E+00  0.17339611191E+02  0.14987801542E+04  0.14986798485E+04 0.  0.
        2    1    3    3  502    0 -0.26214865590E+02  0.31939032805E+03 -0.66873283641E+03  0.74155310486E+03  0.25500000920E-02 0. -1.
       -2    1    3    3    0  502  0.26214865590E+02 -0.31939032805E+03  0.68607244760E+03  0.75722704930E+03  0.25500000920E-02 0.  1.
</event>
<event>
 5   0  0.1228286E-04  0.1495914E+04  0.7818609E-02  0.8887174E-01
       -2   -1    0    0    0  501  0.00000000000E+00  0.00000000000E+00  0.43582232413E+03  0.43582232414E+03  0.25500000920E-02 0.  1.
        2   -1    0    0  501    0  0.00000000000E+00  0.00000000000E+00 -0.12836423699E+04  0.12836423699E+04  0.25500000920E-02 0. -1.
    10030    2    1    2    0    0  0.00000000000E+00  0.00000000000E+00 -0.84782004578E+03  0.17194646940E+04  0.14959144374E+04 0.  0.
        2    1    3    3  502    0  0.59412012125E+03  0.43520539892E+03 -0.27378788168E+03  0.78571130950E+03  0.25500000920E-02 0. -1.
       -2    1    3    3    0  502 -0.59412012125E+03 -0.43520539892E+03 -0.57403216409E+03  0.93375338454E+03  0.25500000920E-02 0.  1.
</event>
<event>
 5   0  0.6361716E-05  0.1504178E+04  0.7818609E-02  0.8881679E-01
        1   -1    0    0  501    0  0.00000000000E+00  0.00000000000E+00  0.45846480649E+03  0.45846480652E+03  0.50400001928E-02 0.  1.
       -1   -1    0    0    0  501  0.00000000000E+00  0.00000000000E+00 -0.12337652135E+04  0.12337652135E+04  0.50400001928E-02 0. -1.
    10030    2    1    2    0    0  0.00000000000E+00  0.00000000000E+00 -0.77530040704E+03  0.16922300201E+04  0.15041780877E+04 0.  0.
        3    1    3    3  502    0 -0.45846031626E+03 -0.57970814853E+03 -0.23099137573E+03  0.77434128452E+03  0.10100000352E+00 0.  1.
       -3    1    3    3    0  502  0.45846031626E+03  0.57970814853E+03 -0.54430903131E+03  0.91788873554E+03  0.10100000352E+00 0. -1.
</event>
<event>
 5   0  0.6668433E-05  0.1501193E+04  0.7818609E-02  0.8883660E-01
       -1   -1    0    0    0  501  0.00000000000E+00  0.00000000000E+00  0.82379665442E+03  0.82379665444E+03  0.50400001928E-02 0. -1.
        1   -1    0    0  501    0  0.00000000000E+00  0.00000000000E+00 -0.68390025282E+03  0.68390025284E+03  0.50400001928E-02 0.  1.
    10030    2    1    2    0    0  0.00000000000E+00  0.00000000000E+00  0.13989640160E+03  0.15076969073E+04  0.15011925130E+04 0.  0.
        1    1    3    3  502    0  0.29995636079E+03 -0.46907282307E+03 -0.43561303692E+03  0.70693836342E+03  0.50400001928E-02 0.  1.
       -1    1    3    3    0  502 -0.29995636079E+03  0.46907282307E+03  0.57550943852E+03  0.80075854386E+03  0.50400001928E-02 0. -1.
</event>
<event>
 5   0  0.6361716E-05  0.1500199E+04  0.7818609E-02  0.8884320E-01
        1   -1    0    0  501    0  0.00000000000E+00  0.00000000000E+00  0.72183836555E+03  0.72183836556E+03  0.50400001928E-02 0. -1.
       -1   -1    0    0    0  501  0.00000000000E+00  0.00000000000E+00 -0.77946748708E+03  0.77946748709E+03  0.50400001928E-02 0.  1.
    10030    2    1    2    0    0  0.00000000000E+00  0.00000000000E+00 -0.57629121530E+02  0.15013058527E+04  0.15001993693E+04 0.  0.
        3    1    3    3  502    0  0.24817010793E+03 -0.37125451685E+03 -0.63194573504E+03  0.77380471760E+03  0.10100000352E+00 0.  1.
       -3    1    3    3    0  502 -0.24817010793E+03  0.37125451685E+03  0.57431661351E+03  0.72750113505E+03  0.10100000352E+00 0. -1.
</event>
<event>
 5   0  0.4462875E-05  0.1499662E+04  0.7818609E-02  0.8884678E-01
        3   -1    0    0  501    0  0.00000000000E+00  0.00000000000E+00  0.10895325409E+04  0.10895325456E+04  0.10100000352E+00 0.  1.
       -3   -1    0    0    0  501  0.00000000000E+00  0.00000000000E+00 -0.51604383387E+03  0.51604384376E+03  0.10100000352E+00 0. -1.
    10030    2    1    2    0    0  0.00000000000E+00  0.00000000000E+00  0.57348870702E+03  0.16055763893E+04  0.14996620436E+04 0.  0.
        1    1    3    3  502    0 -0.12215757496E+03  0.62963927734E+03 -0.12911953203E+03  0.65424761846E+03  0.50400001928E-02 0. -1.
       -1    1    3    3    0  502  0.12215757496E+03 -0.62963927734E+03  0.70260823905E+03  0.95132877087E+03  0.50400001928E-02 0.  1.
</event>
<event>
 5   0  0.6542036E-05  0.1499625E+04  0.7818609E-02  0.8884702E-01
       -1   -1    0    0    0  501  0.00000000000E+00  0.00000000000E+00  0.34654200119E+03  0.34654200123E+03  0.50400001928E-02 0. -1.
        1   -1    0    0  501    0  0.00000000000E+00  0.00000000000E+00 -0.16223693393E+04  0.16223693393E+04  0.50400001928E-02 0.  1.
    10030    2    1    2    0    0  0.00000000000E+00  0.00000000000E+00 -0.12758273381E+04  0.19689113406E+04  0.14996254433E+04 0.  0.
        4    1    3    3  502    0 -0.70401858362E+03  0.21535594535E+03 -0.45132362658E+03  0.86354790144E+03  0.12699999809E+01 0. -1.
       -4    1    3    3    0  502  0.70401858362E+03 -0.21535594535E+03 -0.82450371155E+03  0.11053634391E+04  0.12699999809E+01 0.  1.
</event>
<event>
 5   0  0.6542036E-05  0.1503752E+04  0.7818609E-02  0.8881962E-01
        1   -1    0    0  501    0  0.00000000000E+00  0.00000000000E+00  0.34044894112E+03  0.34044894115E+03  0.50400001928E-02 0.  1.
       -1   -1    0    0    0  501  0.00000000000E+00  0.00000000000E+00 -0.16605063375E+04  0.16605063375E+04  0.50400001928E-02 0. -1.
    10030    2    1    2    0    0  0.00000000000E+00  0.00000000000E+00 -0.13200573964E+04  0.20009552787E+04  0.15037521397E+04 0.  0.
        4    1    3    3  502    0 -0.66102454917E+02 -0.10252157620E+03  0.32719247560E+03  0.34919441165E+03  0.12699999809E+01 0.  1.
       -4    1    3    3    0  502  0.66102454917E+02  0.10252157620E+03 -0.16472498720E+04  0.16517608670E+04  0.12699999809E+01 0. -1.
</event>
<event>
 5   0  0.1219810E-04  0.1499147E+04  0.7818609E-02  0.8885020E-01
       -2   -1    0    0    0  501  0.00000000000E+00  0.00000000000E+00  0.40850709481E+03  0.40850709482E+03  0.25500000920E-02 0.  1.
        2   -1    0    0  501    0  0.00000000000E+00  0.00000000000E+00 -0.13753991367E+04  0.13753991367E+04  0.25500000920E-02 0. -1.
    10030    2    1    2    0    0  0.00000000000E+00  0.00000000000E+00 -0.96689204187E+03  0.17839062315E+04  0.14991468314E+04 0.  0.
        1    1    3    3  502    0 -0.25643157246E+03  0.62315524205E+03 -0.87410548349E+03  0.11036937996E+04  0.50400001928E-02 0.  1.
       -1    1    3    3    0  502  0.25643157246E+03 -0.62315524205E+03 -0.92786558379E+02  0.68021243188E+03  0.50400001928E-02 0. -1.
</event>
<event>
 5   0  0.1186664E-04  0.1499812E+04  0.7818609E-02  0.8884578E-01
       -2   -1    0    0    0  501  0.00000000000E+00  0.00000000000E+00  0.13944347183E+04  0.13944347183E+04  0.25500000920E-02 0.  1.
        2   -1    0    0  501    0  0.00000000000E+00  0.00000000000E+00 -0.40328806523E+03  0.40328806524E+03  0.25500000920E-02 0. -1.
    10030    2    1    2    0    0  0.00000000000E+00  0.00000000000E+00  0.99114665308E+03  0.17977227835E+04  0.14998118277E+04 0.  0.
        3    1    3    3  502    0  0.74333459966E+03 -0.20120834720E+02  0.61183258510E+03  0.96295913591E+03  0.10100000352E+00 0.  1.
       -3    1    3    3    0  502 -0.74333459966E+03  0.20120834720E+02  0.37931406798E+03  0.83476364764E+03  0.10100000352E+00 0. -1.
</event>
<event>
 5   0  0.4462875E-05  0.1499277E+04  0.7818609E-02  0.8884934E-01
       -3   -1    0    0    0  501  0.00000000000E+00  0.00000000000E+00  0.17837198433E+04  0.17837198461E+04  0.10100000352E+00 0.  1.
        3   -1    0    0  501    0  0.00000000000E+00  0.00000000000E+00 -0.31504820190E+03  0.31504821809E+03  0.10100000352E+00 0. -1.
    10030    2    1    2    0    0  0.00000000000E+00  0.00000000000E+00  0.14686716414E+04  0.20987680642E+04  0.14992768248E+04 0.  0.
        4    1    3    3  502    0  0.53566654993E+03 -0.11776190683E+03  0.14497002077E+04  0.15499802659E+04  0.12699999809E+01 0.  1.
       -4    1    3    3    0  502 -0.53566654993E+03  0.11776190683E+03  0.18971433639E+02  0.54878779834E+03  0.12699999809E+01 0. -1.
</event>
<event>
 5   0  0.1228286E-04  0.1483663E+04  0.7818609E-02  0.8895390E-01
       -2   -1    0    0    0  501  0.00000000000E+00  0.00000000000E+00  0.72197100821E+03  0.72197100822E+03  0.25500000920E-02 0.  1.
        2   -1    0    0  501    0  0.00000000000E+00  0.00000000000E+00 -0.76223814297E+03  0.76223814298E+03  0.25500000920E-02 0. -1.
    10030    2    1    2    0    0  0.00000000000E+00  0.00000000000E+00 -0.40267134761E+02  0.14842091512E+04  0.14836628196E+04 0.  0.
        2    1    3    3  502    0 -0.58104502647E+03 -0.43895560428E+03 -0.16167239902E+03  0.74594457564E+03  0.25500000920E-02 0. -1.
       -2    1    3    3    0  502  0.58104502647E+03  0.43895560428E+03  0.12140526425E+03  0.73826457555E+03  0.25500000920E-02 0.  1.
</event>
<event>
 5   0  0.1216921E-04  0.1500930E+04  0.7818609E-02  0.8883835E-01
        2   -1    0    0  501    0  0.00000000000E+00  0.00000000000E+00  0.12390344217E+04  0.12390344217E+04  0.25500000920E-02 0.  1.
       -2   -1    0    0    0  501  0.00000000000E+00  0.00000000000E+00 -0.45454571900E+03  0.45454571900E+03  0.25500000920E-02 0. -1.
    10030    2    1    2    0    0  0.00000000000E+00  0.00000000000E+00  0.78448870268E+03  0.16935801407E+04  0.15009301011E+04 0.  0.
        4    1    3    3  502    0 -0.74187945054E+03  0.94813770745E+02  0.32249229093E+03  0.81447999415E+03  0.12699999809E+01 0. -1.
       -4    1    3    3    0  502  0.74187945054E+03 -0.94813770745E+02  0.46199641174E+03  0.87910014653E+03  0.12699999809E+01 0.  1.
</event>
<event>
 5   0  0.6542036E-05  0.1499224E+04  0.7818609E-02  0.8884969E-01
       -1   -1    0    0    0  501  0.00000000000E+00  0.00000000000E+00  0.42783728267E+03  0.42783728270E+03  0.50400001928E-02 0.  1.
        1   -1    0    0  501    0  0.00000000000E+00  0.00000000000E+00 -0.13133928397E+04  0.13133928397E+04  0.50400001928E-02 0. -1.
    10030    2    1    2    0    0  0.00000000000E+00  0.00000000000E+00 -0.88555555698E+03  0.17412301224E+04  0.14992243643E+04 0.  0.
        4    1    3    3  502    0 -0.74020738525E+03 -0.32936285114E+02 -0.57481776338E+03  0.93776801291E+03  0.12699999809E+01 0. -1.
       -4    1    3    3    0  502  0.74020738525E+03  0.32936285114E+02 -0.31073779360E+03  0.80346210945E+03  0.12699999809E+01 0.  1.
</event>
<event>
 5   0  0.1254487E-04  0.1498499E+04  0.7818609E-02  0.8885452E-01
        2   -1    0    0  501    0  0.00000000000E+00  0.00000000000E+00  0.49778043013E+03  0.49778043014E+03  0.25500000920E-02 0.  1.
       -2   -1    0    0    0  501  0.00000000000E+00  0.00000000000E+00 -0.11277559885E+04  0.11277559885E+04  0.25500000920E-02 0. -1.
    10030    2    1    2    0    0  0.00000000000E+00  0.00000000000E+00 -0.62997555832E+03  0.16255364186E+04  0.14984990638E+04 0.  0.
        5    1    3    3  502    0  0.58553666305E+03  0.23018006581E+03  0.12633990335E+03  0.64173195935E+03  0.46999998093E+01 0.  1.
       -5    1    3    3    0  502 -0.58553666305E+03 -0.23018006581E+03 -0.75631546167E+03  0.98380445925E+03  0.46999998093E+01 0. -1.
</event>
<event>
 5   0  0.1186664E-04  0.1502356E+04  0.7818609E-02  0.8882888E-01
        2   -1    0    0  501    0  0.00000000000E+00  0.00000000000E+00  0.17378199509E+04  0.17378199509E+04  0.25500000920E-02 0.  1.
       -2   -1    0    0    0  501  0.00000000000E+00  0.00000000000E+00 -0.32469907943E+03  0.32469907944E+03  0.25500000920E-02 0. -1.
    10030    2    1    2    0    0  0.00000000000E+00  0.00000000000E+00  0.14131208715E+04  0.20625190303E+04  0.15023562005E+04 0.  0.
        3    1    3    3  502    0  0.55163522128E+03 -0.21695531709E+03  0.13400075071E+04  0.14652614634E+04  0.10100000352E+00 0.  1.
       -3    1    3    3    0  502 -0.55163522128E+03  0.21695531709E+03  0.73113364378E+02  0.59725756690E+03  0.10100000352E+00 0. -1.
</event>
<event>
 5   0  0.6542036E-05  0.1503671E+04  0.7818609E-02  0.8882015E-01
        1   -1    0    0  501    0  0.00000000000E+00  0.00000000000E+00  0.27849756309E+04  0.27849756309E+04  0.50400001928E-02 0.  1.
       -1   -1    0    0    0  501  0.00000000000E+00  0.00000000000E+00 -0.20296649956E+03  0.20296649962E+03  0.50400001928E-02 0. -1.
    10030    2    1    2    0    0  0.00000000000E+00  0.00000000000E+00  0.25820091313E+04  0.29879421305E+04  0.15036711812E+04 0.  0.
        4    1    3    3  502    0 -0.23554378212E+03  0.46455752491E+03  0.21363711664E+03  0.56297157810E+03  0.12699999809E+01 0. -1.
       -4    1    3    3    0  502  0.23554378212E+03 -0.46455752491E+03  0.23683720147E+04  0.24249705524E+04  0.12699999809E+01 0.  1.
</event>
<event>
 5   0  0.6361716E-05  0.1497664E+04  0.7818609E-02  0.8886008E-01
        1   -1    0    0  501    0  0.00000000000E+00  0.00000000000E+00  0.73333608200E+03  0.73333608202E+03  0.50400001928E-02 0.  1.
       -1   -1    0    0    0  501  0.00000000000E+00  0.00000000000E+00 -0.76465491720E+03  0.76465491721E+03  0.50400001928E-02 0. -1.
    10030    2    1    2    0    0  0.00000000000E+00  0.00000000000E+00 -0.31318835195E+02  0.14979909992E+04  0.14976635685E+04 0.  0.
        3    1    3    3  502    0  0.33995418879E+02 -0.60124683080E+03  0.42951719755E+03  0.73968809186E+03  0.10100000352E+00 0.  1.
       -3    1    3    3    0  502 -0.33995418879E+02  0.60124683080E+03 -0.46083603275E+03  0.75830290737E+03  0.10100000352E+00 0. -1.
</event>
<event>
 5   0  0.1216921E-04  0.1497623E+04  0.7818609E-02  0.8886035E-01
        2   -1    0    0  501    0  0.00000000000E+00  0.00000000000E+00  0.67863260374E+03  0.67863260375E+03  0.25500000920E-02 0. -1.
       -2   -1    0    0    0  501  0.00000000000E+00  0.00000000000E+00 -0.82624758790E+03  0.82624758791E+03  0.25500000920E-02 0.  1.
    10030    2    1    2    0    0  0.00000000000E+00  0.00000000000E+00 -0.14761498416E+03  0.15048801917E+04  0.14976228523E+04 0.  0.
        4    1    3    3  502    0 -0.49190554285E+02 -0.12077764991E+03  0.66713264744E+03  0.67976064429E+03  0.12699999809E+01 0. -1.
       -4    1    3    3    0  502  0.49190554285E+02  0.12077764991E+03 -0.81474763160E+03  0.82511954737E+03  0.12699999809E+01 0.  1.
</event>
<event>
 5   0  0.1186664E-04  0.1497403E+04  0.7818609E-02  0.8886181E-01
       -2   -1    0    0    0  501  0.00000000000E+00  0.00000000000E+00  0.41989202683E+03  0.41989202684E+03  0.25500000920E-02 0. -1.
        2   -1    0    0  501    0  0.00000000000E+00  0.00000000000E+00 -0.13349963101E+04  0.13349963101E+04  0.25500000920E-02 0.  1.
    10030    2    1    2    0    0  0.00000000000E+00  0.00000000000E+00 -0.91510428331E+03  0.17548883370E+04  0.14974034947E+04 0.  0.
        3    1    3    3  502    0 -0.45790118713E+03 -0.17699781798E+02  0.23634720966E+03  0.51560332928E+03  0.10100000352E+00 0. -1.
       -3    1    3    3    0  502  0.45790118713E+03  0.17699781798E+02 -0.11514514930E+04  0.12392850077E+04  0.10100000352E+00 0.  1.
</event>
<event>
 5   0  0.1228286E-04  0.1498832E+04  0.7818609E-02  0.8885230E-01
        2   -1    0    0  501    0  0.00000000000E+00  0.00000000000E+00  0.11338914223E+04  0.11338914223E+04  0.25500000920E-02 0.  1.
       -2   -1    0    0    0  501  0.00000000000E+00  0.00000000000E+00 -0.49530666919E+03  0.49530666920E+03  0.25500000920E-02 0. -1.
    10030    2    1    2    0    0  0.00000000000E+00  0.00000000000E+00  0.63858475309E+03  0.16291980915E+04  0.14988315230E+04 0.  0.
        2    1    3    3  502    0 -0.25866216921E+03 -0.58616201435E+03  0.74186292947E+03  0.98023090696E+03  0.25500000920E-02 0.  1.
       -2    1    3    3    0  502  0.25866216921E+03  0.58616201435E+03 -0.10327817638E+03  0.64896718451E+03  0.25500000920E-02 0. -1.
</event>
<event>
 5   0  0.1228286E-04  0.1500982E+04  0.7818609E-02  0.8883800E-01
        2   -1    0    0  501    0  0.00000000000E+00  0.00000000000E+00  0.67217283836E+03  0.67217283837E+03  0.25500000920E-02 0.  1.
       -2   -1    0    0    0  501  0.00000000000E+00  0.00000000000E+00 -0.83793402927E+03  0.83793402928E+03  0.25500000920E-02 0. -1.
    10030    2    1    2    0    0  0.00000000000E+00  0.00000000000E+00 -0.16576119091E+03  0.15101068676E+04  0.15009816719E+04 0.  0.
        2    1    3    3  502    0 -0.58587431756E+03 -0.44562264665E+03  0.64324462160E+02  0.73889505048E+03  0.25500000920E-02 0.  1.
       -2    1    3    3    0  502  0.58587431756E+03  0.44562264665E+03 -0.23008565307E+03  0.77121181717E+03  0.25500000920E-02 0. -1.
</event>
<event>
 5   0  0.1216921E-04  0.1488444E+04  0.7818609E-02  0.8892174E-01
        2   -1    0    0  501    0  0.00000000000E+00  0.00000000000E+00  0.21974390771E+04  0.21974390771E+04  0.25500000920E-02 0.  1.
       -2   -1    0    0    0  501  0.00000000000E+00  0.00000000000E+00 -0.25205085550E+03  0.25205085552E+03  0.25500000920E-02 0. -1.
    10030    2    1    2    0    0  0.00000000000E+00  0.00000000000E+00  0.19453882216E+04  0.24494899326E+04  0.14884440189E+04 0.  0.
        4    1    3    3  502    0  0.39963268031E+03  0.60977833776E+03  0.12186043896E+04  0.14200472428E+04  0.12699999809E+01 0.  1.
       -4    1    3    3    0  502 -0.39963268031E+03 -0.60977833776E+03  0.72678383199E+03  0.10294426899E+04  0.12699999809E+01 0. -1.
</event>
<event>
 5   0  0.1254487E-04  0.1499435E+04  0.7818609E-02  0.8884828E-01
        2   -1    0    0  501    0  0.00000000000E+00  0.00000000000E+00  0.12477212602E+04  0.12477212602E+04  0.25500000920E-02 0.  1.
       -2   -1    0    0    0  501  0.00000000000E+00  0.00000000000E+00 -0.45048249696E+03  0.45048249697E+03  0.25500000920E-02 0. -1.
    10030    2    1    2    0    0  0.00000000000E+00  0.00000000000E+00  0.79723876322E+03  0.16982037571E+04  0.14994353455E+04 0.  0.
        5    1    3    3  502    0 -0.27782285383E+03  0.26792844699E+03  0.11265347295E+04  0.11908290295E+04  0.46999998093E+01 0.  1.
       -5    1    3    3    0  502  0.27782285383E+03 -0.26792844699E+03 -0.32929596628E+03  0.50737472761E+03  0.46999998093E+01 0. -1.
</event>
<event>
 5   0  0.1254487E-04  0.1501909E+04  0.7818609E-02  0.8883184E-01
        2   -1    0    0  501    0  0.00000000000E+00  0.00000000000E+00  0.36204757931E+03  0.36204757932E+03  0.25500000920E-02 0. -1.
       -2   -1    0    0    0  501  0.00000000000E+00  0.00000000000E+00 -0.15576213156E+04  0.15576213156E+04  0.25500000920E-02 0.  1.
    10030    2    1    2    0    0  0.00000000000E+00  0.00000000000E+00 -0.11955737363E+04  0.19196688950E+04  0.15019094870E+04 0.  0.
        5    1    3    3  502    0  0.15713462775E+03  0.68684321541E+03 -0.26579672715E+03  0.75307030479E+03  0.46999998093E+01 0. -1.
       -5    1    3    3    0  502 -0.15713462775E+03 -0.68684321541E+03 -0.92977700918E+03  0.11665985902E+04  0.46999998093E+01 0.  1.
</event>
<event>
 5   0  0.1186664E-04  0.1512930E+04  0.7818609E-02  0.8875900E-01
       -2   -1    0    0    0  501  0.00000000000E+00  0.00000000000E+00  0.42566667252E+03  0.42566667252E+03  0.25500000920E-02 0.  1.
        2   -1    0    0  501    0  0.00000000000E+00  0.00000000000E+00 -0.13443373688E+04  0.13443373688E+04  0.25500000920E-02 0. -1.
    10030    2    1    2    0    0  0.00000000000E+00  0.00000000000E+00 -0.91867069632E+03  0.17700040414E+04  0.15129304208E+04 0.  0.
        3    1    3    3  502    0 -0.22377565417E+03  0.69071551151E+03 -0.21094845403E+03  0.75608380600E+03  0.10100000352E+00 0.  1.
       -3    1    3    3    0  502  0.22377565417E+03 -0.69071551151E+03 -0.70772224229E+03  0.10139202354E+04  0.10100000352E+00 0. -1.
</event>
<event>
 5   0  0.6668433E-05  0.1503411E+04  0.7818609E-02  0.8882188E-01
       -1   -1    0    0    0  501  0.00000000000E+00  0.00000000000E+00  0.42929891219E+03  0.42929891222E+03  0.50400001928E-02 0. -1.
        1   -1    0    0  501    0  0.00000000000E+00  0.00000000000E+00 -0.13162409943E+04  0.13162409943E+04  0.50400001928E-02 0.  1.
    10030    2    1    2    0    0  0.00000000000E+00  0.00000000000E+00 -0.88694208207E+03  0.17455399065E+04  0.15034105588E+04 0.  0.
        1    1    3    3  502    0 -0.48382395582E+03 -0.39732075666E+03  0.39604500470E+02  0.62731006717E+03  0.50400001928E-02 0. -1.
       -1    1    3    3    0  502  0.48382395582E+03  0.39732075666E+03 -0.92654658254E+03  0.11182298393E+04  0.50400001928E-02 0.  1.
</event>
<event>
 5   0  0.6668433E-05  0.1497390E+04  0.7818609E-02  0.8886190E-01
       -1   -1    0    0    0  501  0.00000000000E+00  0.00000000000E+00  0.26656591301E+03  0.26656591306E+03  0.50400001928E-02 0. -1.
        1   -1    0    0  501    0  0.00000000000E+00  0.00000000000E+00 -0.21028350906E+04  0.21028350906E+04  0.50400001928E-02 0.  1.
    10030    2    1    2    0    0  0.00000000000E+00  0.00000000000E+00 -0.18362691776E+04  0.23694010037E+04  0.14973899371E+04 0.  0.
        1    1    3    3  502    0 -0.64554987634E+03  0.44735837007E+02 -0.15140084811E+04  0.16464985936E+04  0.50400001928E-02 0.  1.
       -1    1    3    3    0  502  0.64554987634E+03 -0.44735837007E+02 -0.32226069656E+03  0.72290241010E+03  0.50400001928E-02 0. -1.
</event>
<event>
 5   0  0.1228286E-04  0.1499942E+04  0.7818609E-02  0.8884491E-01
       -2   -1    0    0    0  501  0.00000000000E+00  0.00000000000E+00  0.34900666017E+03  0.34900666018E+03  0.25500000920E-02 0. -1.
        2   -1    0    0  501    0  0.00000000000E+00  0.00000000000E+00 -0.16115930332E+04  0.16115930332E+04  0.25500000920E-02 0.  1.
    10030    2    1    2    0    0  0.00000000000E+00  0.00000000000E+00 -0.12625863731E+04  0.19605996934E+04  0.14999422683E+04 0.  0.
        2    1    3    3  502    0 -0.66420065099E+03  0.12569211750E+03 -0.20674035383E+03  0.70689644722E+03  0.25500000920E-02 0. -1.
       -2    1    3    3    0  502  0.66420065099E+03 -0.12569211750E+03 -0.10558460192E+04  0.12537032462E+04  0.25500000920E-02 0.  1.
</event>
<event>
 5   0  0.1216921E-04  0.1501892E+04  0.7818609E-02  0.8883196E-01
       -2   -1    0    0    0  501  0.00000000000E+00  0.00000000000E+00  0.35280528928E+03  0.35280528929E+03  0.25500000920E-02 0. -1.
        2   -1    0    0  501    0  0.00000000000E+00  0.00000000000E+00 -0.15983880927E+04  0.15983880927E+04  0.25500000920E-02 0.  1.
    10030    2    1    2    0    0  0.00000000000E+00  0.00000000000E+00 -0.12455828034E+04  0.19511933820E+04  0.15018918382E+04 0.  0.
        4    1    3    3  502    0  0.61648575269E+03 -0.41791261705E+03 -0.49809586149E+03  0.89599483196E+03  0.12699999809E+01 0.  1.
       -4    1    3    3    0  502 -0.61648575269E+03  0.41791261705E+03 -0.74748694192E+03  0.10551985500E+04  0.12699999809E+01 0. -1.
</event>
<event>
 5   0  0.6364378E-05  0.1501288E+04  0.7818609E-02  0.8883597E-01
       -1   -1    0    0    0  501  0.00000000000E+00  0.00000000000E+00  0.88392651409E+03  0.88392651410E+03  0.50400001928E-02 0. -1.
        1   -1    0    0  501    0  0.00000000000E+00  0.00000000000E+00 -0.63745870366E+03  0.63745870368E+03  0.50400001928E-02 0.  1.
    10030    2    1    2    0    0  0.00000000000E+00  0.00000000000E+00  0.24646781042E+03  0.15213852178E+04  0.15012883132E+04 0.  0.
        5    1    3    3  502    0 -0.10211478014E+03 -0.73964949441E+03  0.45158698512E+02  0.74804425066E+03  0.46999998093E+01 0.  1.
       -5    1    3    3    0  502  0.10211478014E+03  0.73964949441E+03  0.20130911191E+03  0.77334096713E+03  0.46999998093E+01 0. -1.
</event>
<event>
 5   0  0.1219810E-04  0.1498316E+04  0.7818609E-02  0.8885574E-01
        2   -1    0    0  501    0  0.00000000000E+00  0.00000000000E+00  0.43881188006E+03  0.43881188007E+03  0.25500000920E-02 0. -1.
       -2   -1    0    0    0  501  0.00000000000E+00  0.00000000000E+00 -0.12789936289E+04  0.12789936289E+04  0.25500000920E-02 0.  1.
    10030    2    1    2    0    0  0.00000000000E+00  0.00000000000E+00 -0.84018174881E+03  0.17178055089E+04  0.14983158531E+04 0.  0.
        1    1    3    3  502    0 -0.16196792683E+03  0.46363966449E+03  0.22850513867E+03  0.54167328367E+03  0.50400001928E-02 0. -1.
       -1    1    3    3    0  502  0.16196792683E+03 -0.46363966449E+03 -0.10686868875E+04  0.11761322253E+04  0.50400001928E-02 0.  1.
</event>
<event>
 5   0  0.6364378E-05  0.1501161E+04  0.7818609E-02  0.8883681E-01
        1   -1    0    0  501    0  0.00000000000E+00  0.00000000000E+00  0.90502575204E+03  0.90502575205E+03  0.50400001928E-02 0.  1.
       -1   -1    0    0    0  501  0.00000000000E+00  0.00000000000E+00 -0.62249216220E+03  0.62249216222E+03  0.50400001928E-02 0. -1.
    10030    2    1    2    0    0  0.00000000000E+00  0.00000000000E+00  0.28253358984E+03  0.15275179143E+04  0.15011614667E+04 0.  0.
        5    1    3    3  502    0  0.29844884681E+03  0.36254618948E+03 -0.45453706615E+03  0.65355756301E+03  0.46999998093E+01 0. -1.
       -5    1    3    3    0  502 -0.29844884681E+03 -0.36254618948E+03  0.73707065599E+03  0.87396035126E+03  0.46999998093E+01 0.  1.
</event>
<event>
 5   0  0.6542036E-05  0.1486625E+04  0.7818609E-02  0.8893396E-01
        1   -1    0    0  501    0  0.00000000000E+00  0.00000000000E+00  0.30812447505E+03  0.30812447509E+03  0.50400001928E-02 0.  1.
       -1   -1    0    0    0  501  0.00000000000E+00  0.00000000000E+00 -0.17931508167E+04  0.17931508167E+04  0.50400001928E-02 0. -1.
    10030    2    1    2    0    0  0.00000000000E+00  0.00000000000E+00 -0.14850263416E+04  0.21012752918E+04  0.14866252441E+04 0.  0.
        4    1    3    3  502    0 -0.25848397224E+03  0.19543238441E+03  0.20302711631E+03  0.38239953404E+03  0.12699999809E+01 0.  1.
       -4    1    3    3    0  502  0.25848397224E+03 -0.19543238441E+03 -0.16880534579E+04  0.17188757577E+04  0.12699999809E+01 0. -1.
</event>
<event>
 5   0  0.6668433E-05  0.1501532E+04  0.7818609E-02  0.8883435E-01
        1   -1    0    0  501    0  0.00000000000E+00  0.00000000000E+00  0.11439395647E+04  0.11439395648E+04  0.50400001928E-02 0. -1.
       -1   -1    0    0    0  501  0.00000000000E+00  0.00000000000E+00 -0.49272649313E+03  0.49272649316E+03  0.50400001928E-02 0.  1.
    10030    2    1    2    0    0  0.00000000000E+00  0.00000000000E+00  0.65121307161E+03  0.16366660579E+04  0.15015316582E+04 0.  0.
        1    1    3    3  502    0 -0.12282525837E+03  0.46755970765E+03  0.95171625076E+03  0.10674558287E+04  0.50400001928E-02 0. -1.
       -1    1    3    3    0  502  0.12282525837E+03 -0.46755970765E+03 -0.30050317914E+03  0.56921022919E+03  0.50400001928E-02 0.  1.
</event>
<event>
 5   0  0.6668433E-05  0.1499530E+04  0.7818609E-02  0.8884766E-01
       -1   -1    0    0    0  501  0.00000000000E+00  0.00000000000E+00  0.12209462041E+04  0.12209462041E+04  0.50400001928E-02 0. -1.
        1   -1    0    0  501    0  0.00000000000E+00  0.00000000000E+00 -0.46041936414E+03  0.46041936416E+03  0.50400001928E-02 0.  1.
    10030    2    1    2    0    0  0.00000000000E+00  0.00000000000E+00  0.76052683994E+03  0.16813655682E+04  0.14995296262E+04 0.  0.
        1    1    3    3  502    0 -0.46329933606E+03 -0.41075153469E+03  0.85436525757E+03  0.10551317887E+04  0.50400001928E-02 0. -1.
       -1    1    3    3    0  502  0.46329933606E+03  0.41075153469E+03 -0.93838417638E+02  0.62623377959E+03  0.50400001928E-02 0.  1.
</event>
<event>
 5   0  0.6668433E-05  0.1497783E+04  0.7818609E-02  0.8885929E-01
        1   -1    0    0  501    0  0.00000000000E+00  0.00000000000E+00  0.50136228976E+03  0.50136228979E+03  0.50400001928E-02 0. -1.
       -1   -1    0    0    0  501  0.00000000000E+00  0.00000000000E+00 -0.11186285836E+04  0.11186285836E+04  0.50400001928E-02 0.  1.
    10030    2    1    2    0    0  0.00000000000E+00  0.00000000000E+00 -0.61726629385E+03  0.16199908734E+04  0.14977826119E+04 0.  0.
        1    1    3    3  502    0  0.72905564402E+03  0.14188349435E+03 -0.41229200921E+03  0.84949264795E+03  0.50400001928E-02 0.  1.
       -1    1    3    3    0  502 -0.72905564402E+03 -0.14188349435E+03 -0.20497428464E+03  0.77049822546E+03  0.50400001928E-02 0. -1.
</event>
<event>
 5   0  0.6509279E-05  0.1500766E+04  0.7818609E-02  0.8883944E-01
        1   -1    0    0  501    0  0.00000000000E+00  0.00000000000E+00  0.13855131955E+04  0.13855131955E+04  0.50400001928E-02 0. -1.
       -1   -1    0    0    0  501  0.00000000000E+00  0.00000000000E+00 -0.40640139517E+03  0.40640139520E+03  0.50400001928E-02 0.  1.
    10030    2    1    2    0    0  0.00000000000E+00  0.00000000000E+00  0.97911180035E+03  0.17919145907E+04  0.15007657988E+04 0.  0.
        2    1    3    3  502    0 -0.11208309928E+03  0.45944647642E+03  0.11851783899E+04  0.12760491769E+04  0.25500000920E-02 0. -1.
       -2    1    3    3    0  502  0.11208309928E+03 -0.45944647642E+03 -0.20606658960E+03  0.51586541383E+03  0.25500000920E-02 0.  1.
</event>
<event>
 5   0  0.6364378E-05  0.1500902E+04  0.7818609E-02  0.8883853E-01
       -1   -1    0    0    0  501  0.00000000000E+00  0.00000000000E+00  0.13234563755E+04  0.13234563755E+04  0.50400001928E-02 0. -1.
        1   -1    0    0  501    0  0.00000000000E+00  0.00000000000E+00 -0.42553500475E+03  0.42553500478E+03  0.50400001928E-02 0.  1.
    10030    2    1    2    0    0  0.00000000000E+00  0.00000000000E+00  0.89792137071E+03  0.17489913802E+04  0.15009024153E+04 0.  0.
        5    1    3    3  502    0 -0.41574085153E+03  0.26802791891E+03 -0.20865661430E+03  0.53687903073E+03  0.46999998093E+01 0.  1.
       -5    1    3    3    0  502  0.41574085153E+03 -0.26802791891E+03  0.11065779850E+04  0.12121123495E+04  0.46999998093E+01 0. -1.
</event>
<event>
 5   0  0.1186664E-04  0.1541037E+04  0.7818609E-02  0.8857613E-01
        2   -1    0    0  501    0  0.00000000000E+00  0.00000000000E+00  0.15472806222E+04  0.15472806222E+04  0.25500000920E-02 0.  1.
       -2   -1    0    0    0  501  0.00000000000E+00  0.00000000000E+00 -0.38370478294E+03  0.38370478295E+03  0.25500000920E-02 0. -1.
    10030    2    1    2    0    0  0.00000000000E+00  0.00000000000E+00  0.11635758393E+04  0.19309854052E+04  0.15410372809E+04 0.  0.
        3    1    3    3  502    0 -0.11553879124E+03 -0.42232609096E+02  0.15348964576E+04  0.15398181553E+04  0.10100000352E+00 0.  1.
       -3    1    3    3    0  502  0.11553879124E+03  0.42232609096E+02 -0.37132061835E+03  0.39116724987E+03  0.10100000352E+00 0. -1.
</event>
<event>
 5   0  0.6361716E-05  0.1500404E+04  0.7818609E-02  0.8884185E-01
       -1   -1    0    0    0  501  0.00000000000E+00  0.00000000000E+00  0.15208408903E+04  0.15208408903E+04  0.50400001928E-02 0.  1.
        1   -1    0    0  501    0  0.00000000000E+00  0.00000000000E+00 -0.37006026000E+03  0.37006026003E+03  0.50400001928E-02 0. -1.
    10030    2    1    2    0    0  0.00000000000E+00  0.00000000000E+00  0.11507806303E+04  0.18909011503E+04  0.15004036461E+04 0.  0.
        3    1    3    3  502    0  0.41597155072E+03 -0.53925982348E+03  0.17891978296E+03  0.70416318220E+03  0.10100000352E+00 0. -1.
       -3    1    3    3    0  502 -0.41597155072E+03  0.53925982348E+03  0.97186084735E+03  0.11867379681E+04  0.10100000352E+00 0.  1.
</event>
<event>
 5   0  0.6509279E-05  0.1505064E+04  0.7818609E-02  0.8881093E-01
       -1   -1    0    0    0  501  0.00000000000E+00  0.00000000000E+00  0.46596913840E+03  0.46596913843E+03  0.50400001928E-02 0.  1.
        1   -1    0    0  501    0  0.00000000000E+00  0.00000000000E+00 -0.12153254033E+04  0.12153254034E+04  0.50400001928E-02 0. -1.
    10030    2    1    2    0    0  0.00000000000E+00  0.00000000000E+00 -0.74935626494E+03  0.16812945418E+04  0.15050636280E+04 0.  0.
        2    1    3    3  502    0  0.21319317288E+03 -0.21488220322E+03 -0.11443200202E+04  0.11836781652E+04  0.25500000920E-02 0. -1.
       -2    1    3    3    0  502 -0.21319317288E+03  0.21488220322E+03  0.39496375526E+03  0.49761637654E+03  0.25500000920E-02 0.  1.
</event>
<event>
 5   0  0.1254487E-04  0.1502524E+04  0.7818609E-02  0.8882776E-01
       -2   -1    0    0    0  501  0.00000000000E+00  0.00000000000E+00  0.30641287364E+03  0.30641287365E+03  0.25500000920E-02 0. -1.
        2   -1    0    0  501    0  0.00000000000E+00  0.00000000000E+00 -0.18419423981E+04  0.18419423981E+04  0.25500000920E-02 0.  1.
    10030    2    1    2    0    0  0.00000000000E+00  0.00000000000E+00 -0.15355295244E+04  0.21483552717E+04  0.15025243602E+04 0.  0.
        5    1    3    3  502    0 -0.54948620970E+03 -0.12116259767E+03 -0.56063374115E+02  0.56549152217E+03  0.46999998093E+01 0. -1.
       -5    1    3    3    0  502  0.54948620970E+03  0.12116259767E+03 -0.14794661503E+04  0.15828637496E+04  0.46999998093E+01 0.  1.
</event>
<event>
 5   0  0.1186664E-04  0.1490024E+04  0.7818609E-02  0.8891114E-01
       -2   -1    0    0    0  501  0.00000000000E+00  0.00000000000E+00  0.41555353131E+03  0.41555353132E+03  0.25500000920E-02 0. -1.
        2   -1    0    0  501    0  0.00000000000E+00  0.00000000000E+00 -0.13356715033E+04  0.13356715033E+04  0.25500000920E-02 0.  1.
    10030    2    1    2    0    0  0.00000000000E+00  0.00000000000E+00 -0.92011797200E+03  0.17512250346E+04  0.14900241741E+04 0.  0.
        3    1    3    3  502    0  0.15150818800E+03 -0.64425811163E+03 -0.58010682884E+02  0.66437075113E+03  0.10100000352E+00 0. -1.
       -3    1    3    3    0  502 -0.15150818800E+03  0.64425811163E+03 -0.86210728911E+03  0.10868542835E+04  0.10100000352E+00 0.  1.
</event>
<event>
 5   0  0.6668433E-05  0.1498473E+04  0.7818609E-02  0.8885469E-01
        1   -1    0    0  501    0  0.00000000000E+00  0.00000000000E+00  0.10959732007E+04  0.10959732007E+04  0.50400001928E-02 0. -1.
       -1   -1    0    0    0  501  0.00000000000E+00  0.00000000000E+00 -0.51219835403E+03  0.51219835405E+03  0.50400001928E-02 0.  1.
    10030    2    1    2    0    0  0.00000000000E+00  0.00000000000E+00  0.58377484665E+03  0.16081715547E+04  0.14984734492E+04 0.  0.
        1    1    3    3  502    0  0.49136047826E+03 -0.54162662980E+03  0.11698061702E+03  0.74059367435E+03  0.50400001928E-02 0.  1.
       -1    1    3    3    0  502 -0.49136047826E+03  0.54162662980E+03  0.46679422963E+03  0.86757788039E+03  0.50400001928E-02 0. -1.
</event>
<event>
 5   0  0.1216921E-04  0.1500993E+04  0.7818609E-02  0.8883793E-01
       -2   -1    0    0    0  501  0.00000000000E+00  0.00000000000E+00  0.87340278876E+03  0.87340278877E+03  0.25500000920E-02 0.  1.
        2   -1    0    0  501    0  0.00000000000E+00  0.00000000000E+00 -0.64488538191E+03  0.64488538192E+03  0.25500000920E-02 0. -1.
    10030    2    1    2    0    0  0.00000000000E+00  0.00000000000E+00  0.22851740685E+03  0.15182881707E+04  0.15009925929E+04 0.  0.
        4    1    3    3  502    0  0.23378825992E+03  0.70326055452E+03  0.23398950430E+03  0.77716475669E+03  0.12699999809E+01 0.  1.
       -4    1    3    3    0  502 -0.23378825992E+03 -0.70326055452E+03 -0.54720974491E+01  0.74112341399E+03  0.12699999809E+01 0. -1.
</event>
<event>
 5   0  0.1219810E-04  0.1499822E+04  0.7818609E-02  0.8884572E-01
        2   -1    0    0  501    0  0.00000000000E+00  0.00000000000E+00  0.92695392170E+03  0.92695392170E+03  0.25500000920E-02 0. -1.
       -2   -1    0    0    0  501  0.00000000000E+00  0.00000000000E+00 -0.60668189184E+03  0.60668189185E+03  0.25500000920E-02 0.  1.
    10030    2    1    2    0    0  0.00000000000E+00  0.00000000000E+00  0.32027202986E+03  0.15336358135E+04  0.14998215345E+04 0.  0.
        1    1    3    3  502    0  0.61596033039E+03 -0.14047070014E+03 -0.25298631778E+03  0.68054479884E+03  0.50400001928E-02 0.  1.
       -1    1    3    3    0  502 -0.61596033039E+03  0.14047070014E+03  0.57325834764E+03  0.85309101471E+03  0.50400001928E-02 0. -1.
</event>
<event>
 5   0  0.1186664E-04  0.1509779E+04  0.7818609E-02  0.8877976E-01
       -2   -1    0    0    0  501  0.00000000000E+00  0.00000000000E+00  0.10932961734E+04  0.10932961734E+04  0.25500000920E-02 0.  1.
        2   -1    0    0  501    0  0.00000000000E+00  0.00000000000E+00 -0.52122930882E+03  0.52122930882E+03  0.25500000920E-02 0. -1.
    10030    2    1    2    0    0  0.00000000000E+00  0.00000000000E+00  0.57206686457E+03  0.16145254822E+04  0.15097788034E+04 0.  0.
        3    1    3    3  502    0  0.60609277797E+03  0.24924199450E+03 -0.11464551974E+03  0.66529214089E+03  0.10100000352E+00 0. -1.
       -3    1    3    3    0  502 -0.60609277797E+03 -0.24924199450E+03  0.68671238432E+03  0.94923334133E+03  0.10100000352E+00 0.  1.
</event>
<event>
 5   0  0.6364378E-05  0.1499145E+04  0.7818609E-02  0.8885022E-01
       -1   -1    0    0    0  501  0.00000000000E+00  0.00000000000E+00  0.11131186146E+04  0.11131186146E+04  0.50400001928E-02 0.  1.
        1   -1    0    0  501    0  0.00000000000E+00  0.00000000000E+00 -0.50476100379E+03  0.50476100381E+03  0.50400001928E-02 0. -1.
    10030    2    1    2    0    0  0.00000000000E+00  0.00000000000E+00  0.60835761080E+03  0.16178796184E+04  0.14991449153E+04 0.  0.
        5    1    3    3  502    0  0.65164496284E+03  0.35094167013E+03  0.43203375658E+03  0.85701602683E+03  0.46999998093E+01 0. -1.
       -5    1    3    3    0  502 -0.65164496284E+03 -0.35094167013E+03  0.17632385421E+03  0.76086359158E+03  0.46999998093E+01 0.  1.
</event>
<event>
 5   0  0.6509279E-05  0.1501189E+04  0.7818609E-02  0.8883663E-01
       -1   -1    0    0    0  501  0.00000000000E+00  0.00000000000E+00  0.32268580862E+03  0.32268580866E+03  0.50400001928E-02 0. -1.
        1   -1    0    0  501    0  0.00000000000E+00  0.00000000000E+00 -0.17459463346E+04  0.17459463346E+04  0.50400001928E-02 0.  1.
    10030    2    1    2    0    0  0.00000000000E+00  0.00000000000E+00 -0.14232605259E+04  0.20686321432E+04  0.15011890019E+04 0.  0.
        2    1    3    3  502    0  0.71304578555E+03  0.22937206945E+03 -0.77837799980E+03  0.10802398572E+04  0.25500000920E-02 0.  1.
       -2    1    3    3    0  502 -0.71304578555E+03 -0.22937206945E+03 -0.64488252614E+03  0.98839228602E+03  0.25500000920E-02 0. -1.
</event>
<event>
 5   0  0.6361716E-05  0.1499282E+04  0.7818609E-02  0.8884930E-01
       -1   -1    0    0    0  501  0.00000000000E+00  0.00000000000E+00  0.50000985891E+03  0.50000985893E+03  0.50400001928E-02 0.  1.
        1   -1    0    0  501    0  0.00000000000E+00  0.00000000000E+00 -0.11239011480E+04  0.11239011480E+04  0.50400001928E-02 0. -1.
    10030    2    1    2    0    0  0.00000000000E+00  0.00000000000E+00 -0.62389128913E+03  0.16239110070E+04  0.14992820342E+04 0.  0.
        3    1    3    3  502    0 -0.22133700054E+03  0.55532529934E+03  0.17796423218E+03  0.62373675059E+03  0.10100000352E+00 0.  1.
       -3    1    3    3    0  502  0.22133700054E+03 -0.55532529934E+03 -0.80185552131E+03  0.10001742564E+04  0.10100000352E+00 0. -1.
</event>
<event>
 5   0  0.1228286E-04  0.1506210E+04  0.7818609E-02  0.8880334E-01
       -2   -1    0    0    0  501  0.00000000000E+00  0.00000000000E+00  0.22377092561E+03  0.22377092562E+03  0.25500000920E-02 0.  1.
        2   -1    0    0  501    0  0.00000000000E+00  0.00000000000E+00 -0.25345897047E+04  0.25345897047E+04  0.25500000920E-02 0. -1.
    10030    2    1    2    0    0  0.00000000000E+00  0.00000000000E+00 -0.23108187791E+04  0.27583606303E+04  0.15062104558E+04 0.  0.
        2    1    3    3  502    0 -0.22518378420E+03 -0.77168259856E+02  0.15306523751E+03  0.28300467123E+03  0.25500000920E-02 0.  1.
       -2    1    3    3    0  502  0.22518378420E+03  0.77168259856E+02 -0.24638840166E+04  0.24753559591E+04  0.25500000920E-02 0. -1.
</event>
<event>
 5   0  0.1216921E-04  0.1498953E+04  0.7818609E-02  0.8885150E-01
       -2   -1    0    0    0  501  0.00000000000E+00  0.00000000000E+00  0.18907479833E+04  0.18907479833E+04  0.25500000920E-02 0.  1.
        2   -1    0    0  501    0  0.00000000000E+00  0.00000000000E+00 -0.29708603058E+03  0.29708603059E+03  0.25500000920E-02 0. -1.
    10030    2    1    2    0    0  0.00000000000E+00  0.00000000000E+00  0.15936619527E+04  0.21878340138E+04  0.14989527186E+04 0.  0.
        4    1    3    3  502    0  0.66464111882E+03  0.20316499073E+03  0.38739644304E+03  0.79567672283E+03  0.12699999809E+01 0. -1.
       -4    1    3    3    0  502 -0.66464111882E+03 -0.20316499073E+03  0.12062655096E+04  0.13921572910E+04  0.12699999809E+01 0.  1.
</event>
<event>
 5   0  0.6509279E-05  0.1498622E+04  0.7818609E-02  0.8885370E-01
       -1   -1    0    0    0  501  0.00000000000E+00  0.00000000000E+00  0.95722763592E+03  0.95722763593E+03  0.50400001928E-02 0.  1.
        1   -1    0    0  501    0  0.00000000000E+00  0.00000000000E+00 -0.58655565537E+03  0.58655565539E+03  0.50400001928E-02 0. -1.
    10030    2    1    2    0    0  0.00000000000E+00  0.00000000000E+00  0.37067198054E+03  0.15437832913E+04  0.14986224119E+04 0.  0.
        2    1    3    3  502    0  0.24311985206E+03  0.69226837201E+03  0.28685955670E+02  0.73427899698E+03  0.25500000920E-02 0. -1.
       -2    1    3    3    0  502 -0.24311985206E+03 -0.69226837201E+03  0.34198602487E+03  0.80950429434E+03  0.25500000920E-02 0.  1.
</event>
<event>
 5   0  0.6364378E-05  0.1493872E+04  0.7818609E-02  0.8888538E-01
        1   -1    0    0  501    0  0.00000000000E+00  0.00000000000E+00  0.12506918587E+04  0.12506918587E+04  0.50400001928E-02 0.  1.
       -1   -1    0    0    0  501  0.00000000000E+00  0.00000000000E+00 -0.44608382726E+03  0.44608382729E+03  0.50400001928E-02 0. -1.
    10030    2    1    2    0    0  0.00000000000E+00  0.00000000000E+00  0.80460803143E+03  0.16967756860E+04  0.14938720308E+04 0.  0.
        5    1    3    3  502    0 -0.71223007538E+03 -0.22294494342E+03  0.43666514154E+03  0.86468182813E+03  0.46999998093E+01 0.  1.
       -5    1    3    3    0  502  0.71223007538E+03  0.22294494342E+03  0.36794288989E+03  0.83209385786E+03  0.46999998093E+01 0. -1.
</event>
<event>
 5   0  0.6509279E-05  0.1500627E+04  0.7818609E-02  0.8884036E-01
        1   -1    0    0  501    0  0.00000000000E+00  0.00000000000E+00  0.70876224859E+03  0.70876224861E+03  0.50400001928E-02 0.  1.
       -1   -1    0    0    0  501  0.00000000000E+00  0.00000000000E+00 -0.79430112501E+03  0.79430112502E+03  0.50400001928E-02 0. -1.
    10030    2    1    2    0    0  0.00000000000E+00  0.00000000000E+00 -0.85538876418E+02  0.15030633736E+04  0.15006274040E+04 0.  0.
        2    1    3    3  502    0  0.25617045976E+03  0.40182518342E+03 -0.62326511874E+03  0.78456751827E+03  0.25500000920E-02 0. -1.
       -2    1    3    3    0  502 -0.25617045976E+03 -0.40182518342E+03  0.53772624232E+03  0.71849585536E+03  0.25500000920E-02 0.  1.
</event>
<event>
 5   0  0.1228286E-04  0.1505841E+04  0.7818609E-02  0.8880578E-01
        2   -1    0    0  501    0  0.00000000000E+00  0.00000000000E+00  0.80874763607E+03  0.80874763608E+03  0.25500000920E-02 0.  1.
       -2   -1    0    0    0  501  0.00000000000E+00  0.00000000000E+00 -0.70094674934E+03  0.70094674934E+03  0.25500000920E-02 0. -1.
    10030    2    1    2    0    0  0.00000000000E+00  0.00000000000E+00  0.10780088673E+03  0.15096943854E+04  0.15058406643E+04 0.  0.
        2    1    3    3  502    0  0.16811550593E+03 -0.70620660049E+03 -0.14635668316E+03  0.74054767883E+03  0.25500000920E-02 0. -1.
       -2    1    3    3    0  502 -0.16811550593E+03  0.70620660049E+03  0.25415756989E+03  0.76914670659E+03  0.25500000920E-02 0.  1.
</event>
<event>
 5   0  0.1186664E-04  0.1498174E+04  0.7818609E-02  0.8885668E-01
        2   -1    0    0  501    0  0.00000000000E+00  0.00000000000E+00  0.63923214573E+03  0.63923214573E+03  0.25500000920E-02 0.  1.
       -2   -1    0    0    0  501  0.00000000000E+00  0.00000000000E+00 -0.87782098907E+03  0.87782098908E+03  0.25500000920E-02 0. -1.
    10030    2    1    2    0    0  0.00000000000E+00  0.00000000000E+00 -0.23858884335E+03  0.15170531348E+04  0.14981740812E+04 0.  0.
        3    1    3    3  502    0  0.31638775796E+03  0.25282536551E+02 -0.80636588104E+03  0.86658315489E+03  0.10100000352E+00 0. -1.
       -3    1    3    3    0  502 -0.31638775796E+03 -0.25282536551E+02  0.56777703769E+03  0.65046997992E+03  0.10100000352E+00 0.  1.
</event>
<event>
 5   0  0.1228286E-04  0.1493884E+04  0.7818609E-02  0.8888530E-01
       -2   -1    0    0    0  501  0.00000000000E+00  0.00000000000E+00  0.58125266945E+03  0.58125266946E+03  0.25500000920E-02 0. -1.
        2   -1    0    0  501    0  0.00000000000E+00  0.00000000000E+00 -0.95986213486E+03  0.95986213486E+03  0.25500000920E-02 0.  1.
    10030    2    1    2    0    0  0.00000000000E+00  0.00000000000E+00 -0.37860946541E+03  0.15411148043E+04  0.14938841029E+04 0.  0.
        2    1    3    3  502    0  0.65382640071E+03 -0.36055248655E+03 -0.21082994872E+03  0.77584555493E+03  0.25500000920E-02 0. -1.
       -2    1    3    3    0  502 -0.65382640071E+03  0.36055248655E+03 -0.16777951669E+03  0.76526924939E+03  0.25500000920E-02 0.  1.
</event>
<event>
 5   0  0.6361716E-05  0.1496049E+04  0.7818609E-02  0.8887084E-01
       -1   -1    0    0    0  501  0.00000000000E+00  0.00000000000E+00  0.75454933118E+03  0.75454933120E+03  0.50400001928E-02 0. -1.
        1   -1    0    0  501    0  0.00000000000E+00  0.00000000000E+00 -0.74155619425E+03  0.74155619426E+03  0.50400001928E-02 0.  1.
    10030    2    1    2    0    0  0.00000000000E+00  0.00000000000E+00  0.12993136940E+02  0.14961055255E+04  0.14960491040E+04 0.  0.
        3    1    3    3  502    0  0.71982732724E+03  0.87350335747E+01  0.20976032463E+03  0.74981803515E+03  0.10100000352E+00 0. -1.
       -3    1    3    3    0  502 -0.71982732724E+03 -0.87350335747E+01 -0.19676718769E+03  0.74628749031E+03  0.10100000352E+00 0.  1.
</event>
<event>
 5   0  0.6364378E-05  0.1500200E+04  0.7818609E-02  0.8884320E-01
       -1   -1    0    0    0  501  0.00000000000E+00  0.00000000000E+00  0.13365512281E+04  0.13365512281E+04  0.50400001928E-02 0.  1.
        1   -1    0    0  501    0  0.00000000000E+00  0.00000000000E+00 -0.42097157519E+03  0.42097157522E+03  0.50400001928E-02 0. -1.
    10030    2    1    2    0    0  0.00000000000E+00  0.00000000000E+00  0.91557965289E+03  0.17575228033E+04  0.15002000878E+04 0.  0.
        5    1    3    3  502    0  0.24160332070E+02 -0.64738264055E+03  0.14866409205E+02  0.64802091405E+03  0.46999998093E+01 0. -1.
       -5    1    3    3    0  502 -0.24160332070E+02  0.64738264055E+03  0.90071324369E+03  0.11095018893E+04  0.46999998093E+01 0.  1.
</event>
<event>
 5   0  0.1254487E-04  0.1491021E+04  0.7818609E-02  0.8890446E-01
       -2   -1    0    0    0  501  0.00000000000E+00  0.00000000000E+00  0.49816665444E+03  0.49816665444E+03  0.25500000920E-02 0. -1.
        2   -1    0    0  501    0  0.00000000000E+00  0.00000000000E+00 -0.11156623696E+04  0.11156623696E+04  0.25500000920E-02 0.  1.
    10030    2    1    2    0    0  0.00000000000E+00  0.00000000000E+00 -0.61749571516E+03  0.16138290240E+04  0.14910208451E+04 0.  0.
        5    1    3    3  502    0  0.21418717140E+03  0.45804162380E+03 -0.90166807487E+03  0.10337822212E+04  0.46999998093E+01 0.  1.
       -5    1    3    3    0  502 -0.21418717140E+03 -0.45804162380E+03  0.28417235971E+03  0.58004680289E+03  0.46999998093E+01 0. -1.
</event>
<event>
 5   0  0.6364378E-05  0.1499528E+04  0.7818609E-02  0.8884767E-01
        1   -1    0    0  501    0  0.00000000000E+00  0.00000000000E+00  0.93928063609E+03  0.93928063610E+03  0.50400001928E-02 0. -1.
       -1   -1    0    0    0  501  0.00000000000E+00  0.00000000000E+00 -0.59848607645E+03  0.59848607648E+03  0.50400001928E-02 0.  1.
    10030    2    1    2    0    0  0.00000000000E+00  0.00000000000E+00  0.34079455963E+03  0.15377667126E+04  0.14995284360E+04 0.  0.
        5    1    3    3  502    0 -0.40856367632E+02 -0.42564242682E+03  0.80196186253E+03  0.90884852271E+03  0.46999998093E+01 0. -1.
       -5    1    3    3    0  502  0.40856367632E+02  0.42564242682E+03 -0.46116730290E+03  0.62891818986E+03  0.46999998093E+01 0.  1.
</event>
<event>
 5   0  0.6509279E-05  0.1497304E+04  0.7818609E-02  0.8886248E-01
        1   -1    0    0  501    0  0.00000000000E+00  0.00000000000E+00  0.57898808228E+03  0.57898808230E+03  0.50400001928E-02 0. -1.
       -1   -1    0    0    0  501  0.00000000000E+00  0.00000000000E+00 -0.96803284731E+03  0.96803284732E+03  0.50400001928E-02 0.  1.
    10030    2    1    2    0    0  0.00000000000E+00  0.00000000000E+00 -0.38904476503E+03  0.15470209296E+04  0.14973035522E+04 0.  0.
        2    1    3    3  502    0 -0.25264842981E+03 -0.48109121837E+03  0.33755240298E+03  0.63970431783E+03  0.25500000920E-02 0. -1.
       -2    1    3    3    0  502  0.25264842981E+03  0.48109121837E+03 -0.72659716801E+03  0.90731661180E+03  0.25500000920E-02 0.  1.
</event>
<event>
 5   0  0.1254487E-04  0.1499387E+04  0.7818609E-02  0.8884861E-01
       -2   -1    0    0    0  501  0.00000000000E+00  0.00000000000E+00  0.70373324874E+03  0.70373324875E+03  0.25500000920E-02 0.  1.
        2   -1    0    0  501    0  0.00000000000E+00  0.00000000000E+00 -0.79865503890E+03  0.79865503891E+03  0.25500000920E-02 0. -1.
    10030    2    1    2    0    0  0.00000000000E+00  0.00000000000E+00 -0.94921790158E+02  0.15023882877E+04  0.14993866815E+04 0.  0.
        5    1    3    3  502    0 -0.24711175167E+03  0.55065693590E+03  0.39809852723E+03  0.72304343317E+03  0.46999998093E+01 0.  1.
       -5    1    3    3    0  502  0.24711175167E+03 -0.55065693590E+03 -0.49302031739E+03  0.77934485449E+03  0.46999998093E+01 0. -1.
</event>
<event>
 5   0  0.6668433E-05  0.1501740E+04  0.7818609E-02  0.8883297E-01
       -1   -1    0    0    0  501  0.00000000000E+00  0.00000000000E+00  0.21632526972E+03  0.21632526978E+03  0.50400001928E-02 0.  1.
        1   -1    0    0  501    0  0.00000000000E+00  0.00000000000E+00 -0.26062860420E+04  0.26062860420E+04  0.50400001928E-02 0. -1.
    10030    2    1    2    0    0  0.00000000000E+00  0.00000000000E+00 -0.23899607723E+04  0.28226113118E+04  0.15017396993E+04 0.  0.
        1    1    3    3  502    0 -0.12581567175E+03 -0.31621274585E+03 -0.24530027714E+04  0.24764980680E+04  0.50400001928E-02 0. -1.
       -1    1    3    3    0  502  0.12581567175E+03  0.31621274585E+03  0.63041999129E+02  0.34611324386E+03  0.50400001928E-02 0.  1.
</event>
<event>
 5   0  0.1186664E-04  0.1497476E+04  0.7818609E-02  0.8886133E-01
        2   -1    0    0  501    0  0.00000000000E+00  0.00000000000E+00  0.20790874433E+04  0.20790874433E+04  0.25500000920E-02 0.  1.
       -2   -1    0    0    0  501  0.00000000000E+00  0.00000000000E+00 -0.26964148491E+03  0.26964148492E+03  0.25500000920E-02 0. -1.
    10030    2    1    2    0    0  0.00000000000E+00  0.00000000000E+00  0.18094459583E+04  0.23487289282E+04  0.14974755096E+04 0.  0.
        3    1    3    3  502    0 -0.13738292862E+03 -0.57414900554E+02 -0.24618576224E+03  0.28771162578E+03  0.10100000352E+00 0. -1.
       -3    1    3    3    0  502  0.13738292862E+03  0.57414900554E+02  0.20556317206E+04  0.20610173024E+04  0.10100000352E+00 0.  1.
</event>
<event>
 5   0  0.1219810E-04  0.1497487E+04  0.7818609E-02  0.8886126E-01
       -2   -1    0    0    0  501  0.00000000000E+00  0.00000000000E+00  0.43010486169E+03  0.43010486170E+03  0.25500000920E-02 0. -1.
        2   -1    0    0  501    0  0.00000000000E+00  0.00000000000E+00 -0.13034419917E+04  0.13034419917E+04  0.25500000920E-02 0.  1.
    10030    2    1    2    0    0  0.00000000000E+00  0.00000000000E+00 -0.87333713001E+03  0.17335468534E+04  0.14974868782E+04 0.  0.
        1    1    3    3  502    0  0.30969151971E+03  0.17023688008E+03  0.32748377333E+03  0.48180395862E+03  0.50400001928E-02 0. -1.
       -1    1    3    3    0  502 -0.30969151971E+03 -0.17023688008E+03 -0.12008209033E+04  0.12517428948E+04  0.50400001928E-02 0.  1.
</event>
<event>
 5   0  0.1186664E-04  0.1496600E+04  0.7818609E-02  0.8886717E-01
        2   -1    0    0  501    0  0.00000000000E+00  0.00000000000E+00  0.17632743129E+04  0.17632743129E+04  0.25500000920E-02 0.  1.
       -2   -1    0    0    0  501  0.00000000000E+00  0.00000000000E+00 -0.31756406450E+03  0.31756406451E+03  0.25500000920E-02 0. -1.
    10030    2    1    2    0    0  0.00000000000E+00  0.00000000000E+00  0.14457102484E+04  0.20808383774E+04  0.14965995559E+04 0.  0.
        3    1    3    3  502    0  0.74276727261E+03 -0.89423944084E+02  0.70075361303E+03  0.10250636563E+04  0.10100000352E+00 0. -1.
       -3    1    3    3    0  502 -0.74276727261E+03  0.89423944084E+02  0.74495663537E+03  0.10557747211E+04  0.10100000352E+00 0.  1.
</event>
<event>
 5   0  0.6509279E-05  0.1498294E+04  0.7818609E-02  0.8885588E-01
       -1   -1    0    0    0  501  0.00000000000E+00  0.00000000000E+00  0.26866197995E+03  0.26866198000E+03  0.50400001928E-02 0. -1.
        1   -1    0    0  501    0  0.00000000000E+00  0.00000000000E+00 -0.20889500936E+04  0.20889500937E+04  0.50400001928E-02 0.  1.
    10030    2    1    2    0    0  0.00000000000E+00  0.00000000000E+00 -0.18202881137E+04  0.23576120737E+04  0.14982943212E+04 0.  0.
        2    1    3    3  502    0 -0.16286879589E+03 -0.72928943445E+03 -0.99388404730E+03  0.12434608250E+04  0.25500000920E-02 0. -1.
       -2    1    3    3    0  502  0.16286879589E+03  0.72928943445E+03 -0.82640406640E+03  0.11141512486E+04  0.25500000920E-02 0.  1.
</event>
<event>
 5   0  0.1216921E-04  0.1501458E+04  0.7818609E-02  0.8883484E-01
        2   -1    0    0  501    0  0.00000000000E+00  0.00000000000E+00  0.73613412123E+03  0.73613412123E+03  0.25500000920E-02 0.  1.
       -2   -1    0    0    0  501  0.00000000000E+00  0.00000000000E+00 -0.76561275142E+03  0.76561275143E+03  0.25500000920E-02 0. -1.
    10030    2    1    2    0    0  0.00000000000E+00  0.00000000000E+00 -0.29478630196E+02  0.15017468727E+04  0.15014575185E+04 0.  0.
        4    1    3    3  502    0 -0.47811218356E+03 -0.56300201565E+03  0.11956063720E+03  0.74823718737E+03  0.12699999809E+01 0.  1.
       -4    1    3    3    0  502  0.47811218356E+03  0.56300201565E+03 -0.14903926740E+03  0.75350968529E+03  0.12699999809E+01 0. -1.
</event>
<event>
 5   0  0.6364378E-05  0.1503798E+04  0.7818609E-02  0.8881931E-01
        1   -1    0    0  501    0  0.00000000000E+00  0.00000000000E+00  0.96774486789E+03  0.96774486791E+03  0.50400001928E-02 0.  1.
       -1   -1    0    0    0  501  0.00000000000E+00  0.00000000000E+00 -0.58419547647E+03  0.58419547649E+03  0.50400001928E-02 0. -1.
    10030    2    1    2    0    0  0.00000000000E+00  0.00000000000E+00  0.38354939142E+03  0.15519403444E+04  0.15037980905E+04 0.  0.
        5    1    3    3  502    0 -0.71647592116E+03  0.10106644765E+03  0.40271465533E+03  0.82810226183E+03  0.46999998093E+01 0.  1.
       -5    1    3    3    0  502  0.71647592116E+03 -0.10106644765E+03 -0.19165263909E+02  0.72383808257E+03  0.46999998093E+01 0. -1.
</event>
<event>
 5   0  0.6509279E-05  0.1500041E+04  0.7818609E-02  0.8884426E-01
        1   -1    0    0  501    0  0.00000000000E+00  0.00000000000E+00  0.11526367616E+04  0.11526367616E+04  0.50400001928E-02 0.  1.
       -1   -1    0    0    0  501  0.00000000000E+00  0.00000000000E+00 -0.48803789568E+03  0.48803789571E+03  0.50400001928E-02 0. -1.
    10030    2    1    2    0    0  0.00000000000E+00  0.00000000000E+00  0.66459886593E+03  0.16406746573E+04  0.15000405590E+04 0.  0.
        2    1    3    3  502    0 -0.11502936665E+03 -0.19198411470E+03 -0.45066368171E+03  0.50317731419E+03  0.25500000920E-02 0. -1.
       -2    1    3    3    0  502  0.11502936665E+03  0.19198411470E+03  0.11152625476E+04  0.11374973432E+04  0.25500000920E-02 0.  1.
</event>
<event>
 5   0  0.4462875E-05  0.1502268E+04  0.7818609E-02  0.8882946E-01
       -3   -1    0    0    0  501  0.00000000000E+00  0.00000000000E+00  0.77595944784E+03  0.77595945441E+03  0.10100000352E+00 0. -1.
        3   -1    0    0  501    0  0.00000000000E+00  0.00000000000E+00 -0.72710276962E+03  0.72710277663E+03  0.10100000352E+00 0.  1.
    10030    2    1    2    0    0  0.00000000000E+00  0.00000000000E+00  0.48856678221E+02  0.15030622310E+04  0.15022679839E+04 0.  0.
        5    1    3    3  502    0 -0.29847391750E+03 -0.63292670098E+03  0.29751457033E+03  0.76040771813E+03  0.46999998093E+01 0. -1.
       -5    1    3    3    0  502  0.29847391750E+03  0.63292670098E+03 -0.24865789211E+03  0.74265451291E+03  0.46999998093E+01 0.  1.
</event>
<event>
 5   0  0.6509279E-05  0.1502586E+04  0.7818609E-02  0.8882735E-01
        1   -1    0    0  501    0  0.00000000000E+00  0.00000000000E+00  0.10261509528E+04  0.10261509528E+04  0.50400001928E-02 0. -1.
       -1   -1    0    0    0  501  0.00000000000E+00  0.00000000000E+00 -0.55005660392E+03  0.55005660395E+03  0.50400001928E-02 0.  1.
    10030    2    1    2    0    0  0.00000000000E+00  0.00000000000E+00  0.47609434889E+03  0.15762075568E+04  0.15025859153E+04 0.  0.
        2    1    3    3  502    0 -0.11674597294E+03  0.63180859010E+03 -0.17042811366E+03  0.66472359569E+03  0.25500000920E-02 0.  1.
       -2    1    3    3    0  502  0.11674597294E+03 -0.63180859010E+03  0.64652246256E+03  0.91148396109E+03  0.25500000920E-02 0. -1.
</event>
<event>
 5   0  0.6361716E-05  0.1517983E+04  0.7818609E-02  0.8872582E-01
       -1   -1    0    0    0  501  0.00000000000E+00  0.00000000000E+00  0.55228825087E+03  0.55228825089E+03  0.50400001928E-02 0. -1.
        1   -1    0    0  501    0  0.00000000000E+00  0.00000000000E+00 -0.10430565041E+04  0.10430565041E+04  0.50400001928E-02 0.  1.
    10030    2    1    2    0    0  0.00000000000E+00  0.00000000000E+00 -0.49076825318E+03  0.15953447550E+04  0.15179826774E+04 0.  0.
        3    1    3    3  502    0 -0.63000753743E+03  0.34495513017E+03  0.12400597392E+02  0.71837129958E+03  0.10100000352E+00 0. -1.
       -3    1    3    3    0  502  0.63000753743E+03 -0.34495513017E+03 -0.50316885058E+03  0.87697345538E+03  0.10100000352E+00 0.  1.
</event>
<event>
 5   0  0.6364378E-05  0.1499803E+04  0.7818609E-02  0.8884584E-01
        1   -1    0    0  501    0  0.00000000000E+00  0.00000000000E+00  0.14680127191E+04  0.14680127191E+04  0.50400001928E-02 0. -1.
       -1   -1    0    0    0  501  0.00000000000E+00  0.00000000000E+00 -0.38307061754E+03  0.38307061757E+03  0.50400001928E-02 0.  1.
    10030    2    1    2    0    0  0.00000000000E+00  0.00000000000E+00  0.10849421015E+04  0.18510833366E+04  0.14998033723E+04 0.  0.
        5    1    3    3  502    0 -0.67129036722E+03 -0.33073360983E+03  0.60185436501E+03  0.96034693964E+03  0.46999998093E+01 0.  1.
       -5    1    3    3    0  502  0.67129036722E+03  0.33073360983E+03  0.48308773652E+03  0.89073639701E+03  0.46999998093E+01 0. -1.
</event>
<event>
 5   0  0.1254487E-04  0.1501615E+04  0.7818609E-02  0.8883379E-01
        2   -1    0    0  501    0  0.00000000000E+00  0.00000000000E+00  0.14352636859E+04  0.14352636859E+04  0.25500000920E-02 0.  1.
       -2   -1    0    0    0  501  0.00000000000E+00  0.00000000000E+00 -0.39275859549E+03  0.39275859549E+03  0.25500000920E-02 0. -1.
    10030    2    1    2    0    0  0.00000000000E+00  0.00000000000E+00  0.10425050904E+04  0.18280222814E+04  0.15016153295E+04 0.  0.
        5    1    3    3  502    0  0.25621429681E+03  0.16513879764E+03  0.13565261979E+04  0.13903603864E+04  0.46999998093E+01 0.  1.
       -5    1    3    3    0  502 -0.25621429681E+03 -0.16513879764E+03 -0.31402110751E+03  0.43766189501E+03  0.46999998093E+01 0. -1.
</event>
<event>
 5   0  0.6361716E-05  0.1499932E+04  0.7818609E-02  0.8884498E-01
        1   -1    0    0  501    0  0.00000000000E+00  0.00000000000E+00  0.10572517407E+04  0.10572517408E+04  0.50400001928E-02 0. -1.
       -1   -1    0    0    0  501  0.00000000000E+00  0.00000000000E+00 -0.53199177445E+03  0.53199177448E+03  0.50400001928E-02 0.  1.
    10030    2    1    2    0    0  0.00000000000E+00  0.00000000000E+00  0.52525996630E+03  0.15892435152E+04  0.14999323046E+04 0.  0.
        3    1    3    3  502    0  0.35221080829E+02  0.10247217886E+03  0.10489141673E+04  0.10544960941E+04  0.10100000352E+00 0. -1.
       -3    1    3    3    0  502 -0.35221080829E+02 -0.10247217886E+03 -0.52365420099E+03  0.53474742112E+03  0.10100000352E+00 0.  1.
</event>
<event>
 5   0  0.6364378E-05  0.1501334E+04  0.7818609E-02  0.8883566E-01
       -1   -1    0    0    0  501  0.00000000000E+00  0.00000000000E+00  0.34140223699E+03  0.34140223703E+03  0.50400001928E-02 0. -1.
        1   -1    0    0  501    0  0.00000000000E+00  0.00000000000E+00 -0.16505495299E+04  0.16505495299E+04  0.50400001928E-02 0.  1.
    10030    2    1    2    0    0  0.00000000000E+00  0.00000000000E+00 -0.13091472929E+04  0.19919517669E+04  0.15013344755E+04 0.  0.
        5    1    3    3  502    0 -0.23289217691E+03  0.47827071410E+03  0.48119814519E+02  0.53415283261E+03  0.46999998093E+01 0. -1.
       -5    1    3    3    0  502  0.23289217691E+03 -0.47827071410E+03 -0.13572671074E+04  0.14577989343E+04  0.46999998093E+01 0.  1.
</event>
<event>
 5   0  0.6542036E-05  0.1500489E+04  0.7818609E-02  0.8884128E-01
       -1   -1    0    0    0  501  0.00000000000E+00  0.00000000000E+00  0.54420330409E+03  0.54420330411E+03  0.50400001928E-02 0. -1.
        1   -1    0    0  501    0  0.00000000000E+00  0.00000000000E+00 -0.10342944300E+04  0.10342944300E+04  0.50400001928E-02 0.  1.
    10030    2    1    2    0    0  0.00000000000E+00  0.00000000000E+00 -0.49009112588E+03  0.15784977341E+04  0.15004885154E+04 0.  0.
        4    1    3    3  502    0  0.65721572600E+03 -0.53173865154E+02  0.13147967796E+03  0.67234551315E+03  0.12699999809E+01 0.  1.
       -4    1    3    3    0  502 -0.65721572600E+03  0.53173865154E+02 -0.62157080383E+03  0.90615222094E+03  0.12699999809E+01 0. -1.
</event>
<event>
 5   0  0.6509279E-05  0.1499019E+04  0.7818609E-02  0.8885105E-01
        1   -1    0    0  501    0  0.00000000000E+00  0.00000000000E+00  0.17715353002E+04  0.17715353002E+04  0.50400001928E-02 0. -1.
       -1   -1    0    0    0  501  0.00000000000E+00  0.00000000000E+00 -0.31710604967E+03  0.31710604971E+03  0.50400001928E-02 0.  1.
    10030    2    1    2    0    0  0.00000000000E+00  0.00000000000E+00  0.14544292505E+04  0.20886413499E+04  0.14990190938E+04 0.  0.
        2    1    3    3  502    0 -0.37952647607E+03 -0.44685818972E+03  0.13778336506E+04  0.14973804314E+04  0.25500000920E-02 0. -1.
       -2    1    3    3    0  502  0.37952647607E+03  0.44685818972E+03  0.76595599931E+02  0.59126091846E+03  0.25500000920E-02 0.  1.
</event>
<event>
 5   0  0.1228286E-04  0.1500121E+04  0.7818609E-02  0.8884372E-01
       -2   -1    0    0    0  501  0.00000000000E+00  0.00000000000E+00  0.73613711606E+03  0.73613711607E+03  0.25500000920E-02 0. -1.
        2   -1    0    0  501    0  0.00000000000E+00  0.00000000000E+00 -0.76424761974E+03  0.76424761975E+03  0.25500000920E-02 0.  1.
    10030    2    1    2    0    0  0.00000000000E+00  0.00000000000E+00 -0.28110503681E+02  0.15003847358E+04  0.15001213801E+04 0.  0.
        2    1    3    3  502    0 -0.69282035786E+03  0.41421815732E+02  0.27038036913E+03  0.74486331571E+03  0.25500000920E-02 0. -1.
       -2    1    3    3    0  502  0.69282035786E+03 -0.41421815732E+02 -0.29849087281E+03  0.75552142010E+03  0.25500000920E-02 0.  1.
</event>
<event>
 5   0  0.1186664E-04  0.1499511E+04  0.7818609E-02  0.8884778E-01
        2   -1    0    0  501    0  0.00000000000E+00  0.00000000000E+00  0.17335686360E+04  0.17335686360E+04  0.25500000920E-02 0.  1.
       -2   -1    0    0    0  501  0.00000000000E+00  0.00000000000E+00 -0.32426381433E+03  0.32426381434E+03  0.25500000920E-02 0. -1.
    10030    2    1    2    0    0  0.00000000000E+00  0.00000000000E+00  0.14093048217E+04  0.20578324504E+04  0.14995113582E+04 0.  0.
        3    1    3    3  502    0  0.60142597548E+03  0.33464789270E+03  0.11127489325E+04  0.13084007846E+04  0.10100000352E+00 0.  1.
       -3    1    3    3    0  502 -0.60142597548E+03 -0.33464789270E+03  0.29655588917E+03  0.74943166578E+03  0.10100000352E+00 0. -1.
</event>
<event>
 5   0  0.1216921E-04  0.1503749E+04  0.7818609E-02  0.8881964E-01
       -2   -1    0    0    0  501  0.00000000000E+00  0.00000000000E+00  0.19160488452E+03  0.19160488453E+03  0.25500000920E-02 0.  1.
        2   -1    0    0  501    0  0.00000000000E+00  0.00000000000E+00 -0.29504227450E+04  0.29504227450E+04  0.25500000920E-02 0. -1.
    10030    2    1    2    0    0  0.00000000000E+00  0.00000000000E+00 -0.27588178605E+04  0.31420276296E+04  0.15037491937E+04 0.  0.
        4    1    3    3  502    0 -0.70813742108E+03  0.24557754353E+03 -0.15038479503E+04  0.16802759320E+04  0.12699999809E+01 0.  1.
       -4    1    3    3    0  502  0.70813742108E+03 -0.24557754353E+03 -0.12549699102E+04  0.14617516976E+04  0.12699999809E+01 0. -1.
</event>
<event>
 5   0  0.6364378E-05  0.1497086E+04  0.7818609E-02  0.8886393E-01
        1   -1    0    0  501    0  0.00000000000E+00  0.00000000000E+00  0.13787151966E+04  0.13787151966E+04  0.50400001928E-02 0. -1.
       -1   -1    0    0    0  501  0.00000000000E+00  0.00000000000E+00 -0.40640485201E+03  0.40640485204E+03  0.50400001928E-02 0.  1.
    10030    2    1    2    0    0  0.00000000000E+00  0.00000000000E+00  0.97231034457E+03  0.17851200486E+04  0.14970858966E+04 0.  0.
        5    1    3    3  502    0 -0.24760136253E+03  0.68757591343E+03  0.67926225188E+03  0.99774063177E+03  0.46999998093E+01 0. -1.
       -5    1    3    3    0  502  0.24760136253E+03 -0.68757591343E+03  0.29304809269E+03  0.78737941686E+03  0.46999998093E+01 0.  1.
</event>
<event>
 5   0  0.1219810E-04  0.1493744E+04  0.7818609E-02  0.8888624E-01
       -2   -1    0    0    0  501  0.00000000000E+00  0.00000000000E+00  0.60421196113E+03  0.60421196113E+03  0.25500000920E-02 0.  1.
        2   -1    0    0  501    0  0.00000000000E+00  0.00000000000E+00 -0.92321514367E+03  0.92321514367E+03  0.25500000920E-02 0. -1.
    10030    2    1    2    0    0  0.00000000000E+00  0.00000000000E+00 -0.31900318254E+03  0.15274271048E+04  0.14937437966E+04 0.  0.
        1    1    3    3  502    0 -0.24769750791E+03 -0.29941969044E+03 -0.81170182412E+03  0.89992558457E+03  0.50400001928E-02 0. -1.
       -1    1    3    3    0  502  0.24769750791E+03  0.29941969044E+03  0.49269864158E+03  0.62750152023E+03  0.50400001928E-02 0.  1.
</event>
<event>
 5   0  0.1254487E-04  0.1481513E+04  0.7818609E-02  0.8896840E-01
        2   -1    0    0  501    0  0.00000000000E+00  0.00000000000E+00  0.95959445036E+03  0.95959445036E+03  0.25500000920E-02 0. -1.
       -2   -1    0    0    0  501  0.00000000000E+00  0.00000000000E+00 -0.57182524146E+03  0.57182524147E+03  0.25500000920E-02 0.  1.
    10030    2    1    2    0    0  0.00000000000E+00  0.00000000000E+00  0.38776920889E+03  0.15314196918E+04  0.14815131836E+04 0.  0.
        5    1    3    3  502    0 -0.66717503423E+03 -0.26902081031E+03  0.37648027266E+03  0.81194470772E+03  0.46999998093E+01 0.  1.
       -5    1    3    3    0  502  0.66717503423E+03  0.26902081031E+03  0.11288936231E+02  0.71947498411E+03  0.46999998093E+01 0. -1.
</event>
<event>
 5   0  0.6542036E-05  0.1501337E+04  0.7818609E-02  0.8883564E-01
        1   -1    0    0  501    0  0.00000000000E+00  0.00000000000E+00  0.12574986698E+04  0.12574986698E+04  0.50400001928E-02 0. -1.
       -1   -1    0    0    0  501  0.00000000000E+00  0.00000000000E+00 -0.44811452609E+03  0.44811452612E+03  0.50400001928E-02 0.  1.
    10030    2    1    2    0    0  0.00000000000E+00  0.00000000000E+00  0.80938414371E+03  0.17056131959E+04  0.15013372979E+04 0.  0.
        4    1    3    3  502    0 -0.16435684409E+03  0.46463268066E+03 -0.23856932841E+03  0.54755240617E+03  0.12699999809E+01 0.  1.
       -4    1    3    3    0  502  0.16435684409E+03 -0.46463268066E+03  0.10479534721E+04  0.11580607898E+04  0.12699999809E+01 0. -1.
</event>
<event>
 5   0  0.6509279E-05  0.1499134E+04  0.7818609E-02  0.8885029E-01
        1   -1    0    0  501    0  0.00000000000E+00  0.00000000000E+00  0.84848535811E+03  0.84848535813E+03  0.50400001928E-02 0.  1.
       -1   -1    0    0    0  501  0.00000000000E+00  0.00000000000E+00 -0.66218048392E+03  0.66218048394E+03  0.50400001928E-02 0. -1.
    10030    2    1    2    0    0  0.00000000000E+00  0.00000000000E+00  0.18630487419E+03  0.15106658421E+04  0.14991336766E+04 0.  0.
        2    1    3    3  502    0 -0.64514864299E+03  0.19291380611E+03  0.42495414605E+03  0.79625280809E+03  0.25500000920E-02 0.  1.
       -2    1    3    3    0  502  0.64514864299E+03 -0.19291380611E+03 -0.23864927187E+03  0.71441303397E+03  0.25500000920E-02 0. -1.
</event>
<event>
 5   0  0.6509279E-05  0.1502789E+04  0.7818609E-02  0.8882600E-01
       -1   -1    0    0    0  501  0.00000000000E+00  0.00000000000E+00  0.64161658074E+03  0.64161658076E+03  0.50400001928E-02 0. -1.
        1   -1    0    0  501    0  0.00000000000E+00  0.00000000000E+00 -0.87995531351E+03  0.87995531352E+03  0.50400001928E-02 0.  1.
    10030    2    1    2    0    0  0.00000000000E+00  0.00000000000E+00 -0.23833873277E+03  0.15215718943E+04  0.15027892992E+04 0.  0.
        2    1    3    3  502    0  0.30410636472E+03 -0.41048851927E+03 -0.67706652050E+03  0.84817485149E+03  0.25500000920E-02 0.  1.
       -2    1    3    3    0  502 -0.30410636472E+03  0.41048851927E+03  0.43872778773E+03  0.67339704279E+03  0.25500000920E-02 0. -1.
</event>
<event>
 5   0  0.6364378E-05  0.1499968E+04  0.7818609E-02  0.8884474E-01
        1   -1    0    0  501    0  0.00000000000E+00  0.00000000000E+00  0.17406718715E+04  0.17406718715E+04  0.50400001928E-02 0.  1.
       -1   -1    0    0    0  501  0.00000000000E+00  0.00000000000E+00 -0.32313730151E+03  0.32313730155E+03  0.50400001928E-02 0. -1.
    10030    2    1    2    0    0  0.00000000000E+00  0.00000000000E+00  0.14175345700E+04  0.20638091730E+04  0.14999680149E+04 0.  0.
        5    1    3    3  502    0 -0.11361576999E+02  0.65443773577E+03  0.20503659777E+03  0.68591539701E+03  0.46999998093E+01 0. -1.
       -5    1    3    3    0  502  0.11361576999E+02 -0.65443773577E+03  0.12124979722E+04  0.13778937760E+04  0.46999998093E+01 0.  1.
</event>
<event>
 5   0  0.6509279E-05  0.1501758E+04  0.7818609E-02  0.8883285E-01
       -1   -1    0    0    0  501  0.00000000000E+00  0.00000000000E+00  0.65448315235E+03  0.65448315237E+03  0.50400001928E-02 0.  1.
        1   -1    0    0  501    0  0.00000000000E+00  0.00000000000E+00 -0.86147203968E+03  0.86147203969E+03  0.50400001928E-02 0. -1.
    10030    2    1    2    0    0  0.00000000000E+00  0.00000000000E+00 -0.20698888732E+03  0.15159551921E+04  0.15017575520E+04 0.  0.
        2    1    3    3  502    0  0.17127265745E+03  0.67358098677E+03 -0.39038771687E+03  0.79715007271E+03  0.25500000920E-02 0. -1.
       -2    1    3    3    0  502 -0.17127265745E+03 -0.67358098677E+03  0.18339882955E+03  0.71880511936E+03  0.25500000920E-02 0.  1.
</event>
<event>
 5   0  0.1228286E-04  0.1498501E+04  0.7818609E-02  0.8885451E-01
       -2   -1    0    0    0  501  0.00000000000E+00  0.00000000000E+00  0.19434947048E+03  0.19434947049E+03  0.25500000920E-02 0. -1.
        2   -1    0    0  501    0  0.00000000000E+00  0.00000000000E+00 -0.28884879316E+04  0.28884879316E+04  0.25500000920E-02 0.  1.
    10030    2    1    2    0    0  0.00000000000E+00  0.00000000000E+00 -0.26941384611E+04  0.30828374021E+04  0.14985007174E+04 0.  0.
        2    1    3    3  502    0  0.33702642739E+03 -0.57347309893E+03 -0.63762662693E+03  0.92142602706E+03  0.25500000920E-02 0. -1.
       -2    1    3    3    0  502 -0.33702642739E+03  0.57347309893E+03 -0.20565118342E+04  0.21614113750E+04  0.25500000920E-02 0.  1.
</event>
<event>
 5   0  0.1228286E-04  0.1506283E+04  0.7818609E-02  0.8880286E-01
        2   -1    0    0  501    0  0.00000000000E+00  0.00000000000E+00  0.15564541543E+04  0.15564541543E+04  0.25500000920E-02 0.  1.
       -2   -1    0    0    0  501  0.00000000000E+00  0.00000000000E+00 -0.36443205365E+03  0.36443205365E+03  0.25500000920E-02 0. -1.
    10030    2    1    2    0    0  0.00000000000E+00  0.00000000000E+00  0.11920221007E+04  0.19208862080E+04  0.15062825550E+04 0.  0.
        2    1    3    3  502    0 -0.47907611960E+03 -0.25932458796E+03 -0.67190603686E+02  0.54888773672E+03  0.25500000920E-02 0. -1.
       -2    1    3    3    0  502  0.47907611960E+03  0.25932458796E+03  0.12592127044E+04  0.13719984713E+04  0.25500000920E-02 0.  1.
</event>
<event>
 5   0  0.1186664E-04  0.1500321E+04  0.7818609E-02  0.8884239E-01
        2   -1    0    0  501    0  0.00000000000E+00  0.00000000000E+00  0.54841698604E+03  0.54841698605E+03  0.25500000920E-02 0. -1.
       -2   -1    0    0    0  501  0.00000000000E+00  0.00000000000E+00 -0.10261188308E+04  0.10261188308E+04  0.25500000920E-02 0.  1.
    10030    2    1    2    0    0  0.00000000000E+00  0.00000000000E+00 -0.47770184474E+03  0.15745358168E+04  0.15003212943E+04 0.  0.
        3    1    3    3  502    0  0.26373267873E+03  0.20628447626E+03  0.46564690593E+03  0.57352878061E+03  0.10100000352E+00 0. -1.
       -3    1    3    3    0  502 -0.26373267873E+03 -0.20628447626E+03 -0.94334875067E+03  0.10010070362E+04  0.10100000352E+00 0.  1.
</event>
<event>
 5   0  0.6668433E-05  0.1485937E+04  0.7818609E-02  0.8893859E-01
        1   -1    0    0  501    0  0.00000000000E+00  0.00000000000E+00  0.31792439629E+03  0.31792439633E+03  0.50400001928E-02 0. -1.
       -1   -1    0    0    0  501  0.00000000000E+00  0.00000000000E+00 -0.17362675955E+04  0.17362675955E+04  0.50400001928E-02 0.  1.
    10030    2    1    2    0    0  0.00000000000E+00  0.00000000000E+00 -0.14183431992E+04  0.20541919918E+04  0.14859365089E+04 0.  0.
        1    1    3    3  502    0 -0.55596168521E+03 -0.49246403633E+03 -0.68195491358E+03  0.10083038861E+04  0.50400001928E-02 0. -1.
       -1    1    3    3    0  502  0.55596168521E+03  0.49246403633E+03 -0.73638828561E+03  0.10458881057E+04  0.50400001928E-02 0.  1.
</event>
<event>
 5   0  0.6509279E-05  0.1500003E+04  0.7818609E-02  0.8884451E-01
       -1   -1    0    0    0  501  0.00000000000E+00  0.00000000000E+00  0.45533915689E+03  0.45533915692E+03  0.50400001928E-02 0. -1.
        1   -1    0    0  501    0  0.00000000000E+00  0.00000000000E+00 -0.12353473660E+04  0.12353473660E+04  0.50400001928E-02 0.  1.
    10030    2    1    2    0    0  0.00000000000E+00  0.00000000000E+00 -0.78000820906E+03  0.16906865229E+04  0.15000027042E+04 0.  0.
        2    1    3    3  502    0  0.40514690197E+03 -0.59914049896E+03 -0.61369935006E+03  0.94854638366E+03  0.25500000920E-02 0.  1.
       -2    1    3    3    0  502 -0.40514690197E+03  0.59914049896E+03 -0.16630885900E+03  0.74214013923E+03  0.25500000920E-02 0. -1.
</event>
<event>
 5   0  0.6509279E-05  0.1500208E+04  0.7818609E-02  0.8884315E-01
       -1   -1    0    0    0  501  0.00000000000E+00  0.00000000000E+00  0.30903841411E+03  0.30903841415E+03  0.50400001928E-02 0.  1.
        1   -1    0    0  501    0  0.00000000000E+00  0.00000000000E+00 -0.18206666438E+04  0.18206666438E+04  0.50400001928E-02 0. -1.
    10030    2    1    2    0    0  0.00000000000E+00  0.00000000000E+00 -0.15116282297E+04  0.21297050580E+04  0.15002078953E+04 0.  0.
        2    1    3    3  502    0  0.19549795581E+03 -0.34667071263E+03 -0.16584159212E+04  0.17055038556E+04  0.25500000920E-02 0. -1.
       -2    1    3    3    0  502 -0.19549795581E+03  0.34667071263E+03  0.14678769150E+03  0.42420120238E+03  0.25500000920E-02 0.  1.
</event>
<event>
 5   0  0.1186664E-04  0.1499886E+04  0.7818609E-02  0.8884529E-01
       -2   -1    0    0    0  501  0.00000000000E+00  0.00000000000E+00  0.22787080360E+03  0.22787080361E+03  0.25500000920E-02 0.  1.
        2   -1    0    0  501    0  0.00000000000E+00  0.00000000000E+00 -0.24681281582E+04  0.24681281582E+04  0.25500000920E-02 0. -1.
    10030    2    1    2    0    0  0.00000000000E+00  0.00000000000E+00 -0.22402573546E+04  0.26959989618E+04  0.14998857914E+04 0.  0.
        3    1    3    3  502    0 -0.73349837989E+03 -0.82475820316E+01 -0.83977851322E+03  0.11150407425E+04  0.10100000352E+00 0.  1.
       -3    1    3    3    0  502  0.73349837989E+03  0.82475820316E+01 -0.14004788413E+04  0.15809582193E+04  0.10100000352E+00 0. -1.
</event>
<event>
 5   0  0.1228286E-04  0.1495875E+04  0.7818609E-02  0.8887201E-01
       -2   -1    0    0    0  501  0.00000000000E+00  0.00000000000E+00  0.30157637290E+03  0.30157637291E+03  0.25500000920E-02 0.  1.
        2   -1    0    0  501    0  0.00000000000E+00  0.00000000000E+00 -0.18549544364E+04  0.18549544364E+04  0.25500000920E-02 0. -1.
    10030    2    1    2    0    0  0.00000000000E+00  0.00000000000E+00 -0.15533780635E+04  0.21565308094E+04  0.14958749023E+04 0.  0.
        2    1    3    3  502    0  0.31016495134E+03  0.62796278045E+02  0.20030509591E+03  0.37452343189E+03  0.25500000920E-02 0.  1.
       -2    1    3    3    0  502 -0.31016495134E+03 -0.62796278045E+02 -0.17536831595E+04  0.17820073775E+04  0.25500000920E-02 0. -1.
</event>
<event>
 5   0  0.1228286E-04  0.1499206E+04  0.7818609E-02  0.8884981E-01
        2   -1    0    0  501    0  0.00000000000E+00  0.00000000000E+00  0.14479408965E+04  0.14479408965E+04  0.25500000920E-02 0. -1.
       -2   -1    0    0    0  501  0.00000000000E+00  0.00000000000E+00 -0.38807135381E+03  0.38807135382E+03  0.25500000920E-02 0.  1.
    10030    2    1    2    0    0  0.00000000000E+00  0.00000000000E+00  0.10598695427E+04  0.18360122503E+04  0.14992056349E+04 0.  0.
        2    1    3    3  502    0 -0.34700354243E+03  0.19803733668E+03  0.13066743329E+04  0.13663923512E+04  0.25500000920E-02 0. -1.
       -2    1    3    3    0  502  0.34700354243E+03 -0.19803733668E+03 -0.24680479020E+03  0.46961989912E+03  0.25500000920E-02 0.  1.
</event>
<event>
 5   0  0.6542036E-05  0.1506393E+04  0.7818609E-02  0.8880213E-01
        1   -1    0    0  501    0  0.00000000000E+00  0.00000000000E+00  0.22870882577E+04  0.22870882577E+04  0.50400001928E-02 0.  1.
       -1   -1    0    0    0  501  0.00000000000E+00  0.00000000000E+00 -0.24804673611E+03  0.24804673616E+03  0.50400001928E-02 0. -1.
    10030    2    1    2    0    0  0.00000000000E+00  0.00000000000E+00  0.20390415216E+04  0.25351349939E+04  0.15063927477E+04 0.  0.
        4    1    3    3  502    0 -0.23625214463E+03  0.32910855585E+03 -0.49066567585E+02  0.40808903236E+03  0.12699999809E+01 0. -1.
       -4    1    3    3    0  502  0.23625214463E+03 -0.32910855585E+03  0.20881080892E+04  0.21270459615E+04  0.12699999809E+01 0.  1.
</event>
<event>
 5   0  0.4462875E-05  0.1505396E+04  0.7818609E-02  0.8880873E-01
       -3   -1    0    0    0  501  0.00000000000E+00  0.00000000000E+00  0.38034495686E+03  0.38034497027E+03  0.10100000352E+00 0.  1.
        3   -1    0    0  501    0  0.00000000000E+00  0.00000000000E+00 -0.14895801696E+04  0.14895801731E+04  0.10100000352E+00 0. -1.
    10030    2    1    2    0    0  0.00000000000E+00  0.00000000000E+00 -0.11092352128E+04  0.18699251433E+04  0.15053960557E+04 0.  0.
        1    1    3    3  502    0 -0.29696974468E+03 -0.65004547955E+03 -0.84804912397E+03  0.11090254602E+04  0.50400001928E-02 0. -1.
       -1    1    3    3    0  502  0.29696974468E+03  0.65004547955E+03 -0.26118608881E+03  0.76089968311E+03  0.50400001928E-02 0.  1.
</event>
<event>
 5   0  0.1219810E-04  0.1500872E+04  0.7818609E-02  0.8883873E-01
        2   -1    0    0  501    0  0.00000000000E+00  0.00000000000E+00  0.64820005661E+03  0.64820005662E+03  0.25500000920E-02 0.  1.
       -2   -1    0    0    0  501  0.00000000000E+00  0.00000000000E+00 -0.86879664998E+03  0.86879664999E+03  0.25500000920E-02 0. -1.
    10030    2    1    2    0    0  0.00000000000E+00  0.00000000000E+00 -0.22059659337E+03  0.15169967066E+04  0.15008717969E+04 0.  0.
        1    1    3    3  502    0 -0.96813331980E+02  0.89834307297E+02 -0.85695746220E+03  0.86707503485E+03  0.50400001928E-02 0. -1.
       -1    1    3    3    0  502  0.96813331980E+02 -0.89834307297E+02  0.63636086883E+03  0.64992167176E+03  0.50400001928E-02 0.  1.
</event>
<event>
 5   0  0.1186664E-04  0.1517014E+04  0.7818609E-02  0.8873217E-01
        2   -1    0    0  501    0  0.00000000000E+00  0.00000000000E+00  0.88949778423E+03  0.88949778424E+03  0.25500000920E-02 0. -1.
       -2   -1    0    0    0  501  0.00000000000E+00  0.00000000000E+00 -0.64680681693E+03  0.64680681693E+03  0.25500000920E-02 0.  1.
    10030    2    1    2    0    0  0.00000000000E+00  0.00000000000E+00  0.24269096730E+03  0.15363046012E+04  0.15170144765E+04 0.  0.
        3    1    3    3  502    0 -0.73998159133E+03 -0.16506057612E+03  0.14433817045E+03  0.77178446923E+03  0.10100000352E+00 0. -1.
       -3    1    3    3    0  502  0.73998159133E+03  0.16506057612E+03  0.98352796856E+02  0.76452013194E+03  0.10100000352E+00 0.  1.
</event>
<event>
 5   0  0.6509279E-05  0.1512490E+04  0.7818609E-02  0.8876189E-01
        1   -1    0    0  501    0  0.00000000000E+00  0.00000000000E+00  0.14779139541E+04  0.14779139541E+04  0.50400001928E-02 0. -1.
       -1   -1    0    0    0  501  0.00000000000E+00  0.00000000000E+00 -0.38696894045E+03  0.38696894048E+03  0.50400001928E-02 0.  1.
    10030    2    1    2    0    0  0.00000000000E+00  0.00000000000E+00  0.10909450136E+04  0.18648828946E+04  0.15124903926E+04 0.  0.
        2    1    3    3  502    0  0.35636673777E+03  0.51148619565E+03  0.17598831135E+02  0.62363859645E+03  0.25500000920E-02 0.  1.
       -2    1    3    3    0  502 -0.35636673777E+03 -0.51148619565E+03  0.10733461825E+04  0.12412442981E+04  0.25500000920E-02 0. -1.
</event>
<event>
 5   0  0.1186664E-04  0.1503784E+04  0.7818609E-02  0.8881940E-01
        2   -1    0    0  501    0  0.00000000000E+00  0.00000000000E+00  0.71398693272E+03  0.71398693272E+03  0.25500000920E-02 0.  1.
       -2   -1    0    0    0  501  0.00000000000E+00  0.00000000000E+00 -0.79180949024E+03  0.79180949025E+03  0.25500000920E-02 0. -1.
    10030    2    1    2    0    0  0.00000000000E+00  0.00000000000E+00 -0.77822557525E+02  0.15057964230E+04  0.15037840659E+04 0.  0.
        3    1    3    3  502    0  0.43797788177E+03 -0.19833561665E+03 -0.61776788622E+03  0.78281467360E+03  0.10100000352E+00 0. -1.
       -3    1    3    3    0  502 -0.43797788177E+03  0.19833561665E+03  0.53994532869E+03  0.72298174938E+03  0.10100000352E+00 0.  1.
</event>
<event>
 5   0  0.1228286E-04  0.1489508E+04  0.7818609E-02  0.8891460E-01
       -2   -1    0    0    0  501  0.00000000000E+00  0.00000000000E+00  0.60693934722E+03  0.60693934723E+03  0.25500000920E-02 0. -1.
        2   -1    0    0  501    0  0.00000000000E+00  0.00000000000E+00 -0.91386206983E+03  0.91386206984E+03  0.25500000920E-02 0.  1.
    10030    2    1    2    0    0  0.00000000000E+00  0.00000000000E+00 -0.30692272261E+03  0.15208014171E+04  0.14895084399E+04 0.  0.
        2    1    3    3  502    0  0.57650144165E+02 -0.66020331188E+03  0.19348176349E+03  0.69038188342E+03  0.25500000920E-02 0. -1.
       -2    1    3    3    0  502 -0.57650144165E+02  0.66020331188E+03 -0.50040448610E+03  0.83041953365E+03  0.25500000920E-02 0.  1.
</event>
<event>
 5   0  0.1254487E-04  0.1499364E+04  0.7818609E-02  0.8884876E-01
       -2   -1    0    0    0  501  0.00000000000E+00  0.00000000000E+00  0.62372537226E+03  0.62372537226E+03  0.25500000920E-02 0. -1.
        2   -1    0    0  501    0  0.00000000000E+00  0.00000000000E+00 -0.90107489480E+03  0.90107489480E+03  0.25500000920E-02 0.  1.
    10030    2    1    2    0    0  0.00000000000E+00  0.00000000000E+00 -0.27734952254E+03  0.15248002671E+04  0.14993642309E+04 0.  0.
        5    1    3    3  502    0  0.64892014777E+03 -0.35048453449E+03 -0.27535879584E+03  0.78726191546E+03  0.46999998093E+01 0.  1.
       -5    1    3    3    0  502 -0.64892014777E+03  0.35048453449E+03 -0.19907267008E+01  0.73753835160E+03  0.46999998093E+01 0. -1.
</event>
<event>
 5   0  0.6364378E-05  0.1498231E+04  0.7818609E-02  0.8885630E-01
       -1   -1    0    0    0  501  0.00000000000E+00  0.00000000000E+00  0.12606677006E+04  0.12606677006E+04  0.50400001928E-02 0. -1.
        1   -1    0    0  501    0  0.00000000000E+00  0.00000000000E+00 -0.44514033133E+03  0.44514033135E+03  0.50400001928E-02 0.  1.
    10030    2    1    2    0    0  0.00000000000E+00  0.00000000000E+00  0.81552736923E+03  0.17058080319E+04  0.14982310075E+04 0.  0.
        5    1    3    3  502    0  0.72340584433E+02 -0.46154810666E+03  0.10744631925E+04  0.11716454485E+04  0.46999998093E+01 0. -1.
       -5    1    3    3    0  502 -0.72340584433E+02  0.46154810666E+03 -0.25893582331E+03  0.53416258340E+03  0.46999998093E+01 0.  1.
</event>
<event>
 5   0  0.6364378E-05  0.1499817E+04  0.7818609E-02  0.8884575E-01
        1   -1    0    0  501    0  0.00000000000E+00  0.00000000000E+00  0.49578853573E+03  0.49578853575E+03  0.50400001928E-02 0. -1.
       -1   -1    0    0    0  501  0.00000000000E+00  0.00000000000E+00 -0.11342792970E+04  0.11342792970E+04  0.50400001928E-02 0.  1.
    10030    2    1    2    0    0  0.00000000000E+00  0.00000000000E+00 -0.63849076130E+03  0.16300678328E+04  0.14998168846E+04 0.  0.
        5    1    3    3  502    0  0.44734328334E+03  0.21508232251E+03  0.29167744610E+03  0.57573799698E+03  0.46999998093E+01 0. -1.
       -5    1    3    3    0  502 -0.44734328334E+03 -0.21508232251E+03 -0.93016820740E+03  0.10543298358E+04  0.46999998093E+01 0.  1.
</event>
<event>
 5   0  0.1219810E-04  0.1498598E+04  0.7818609E-02  0.8885386E-01
        2   -1    0    0  501    0  0.00000000000E+00  0.00000000000E+00  0.10415583251E+04  0.10415583251E+04  0.25500000920E-02 0.  1.
       -2   -1    0    0    0  501  0.00000000000E+00  0.00000000000E+00 -0.53904711226E+03  0.53904711226E+03  0.25500000920E-02 0. -1.
    10030    2    1    2    0    0  0.00000000000E+00  0.00000000000E+00  0.50251121280E+03  0.15806054373E+04  0.14985980213E+04 0.  0.
        1    1    3    3  502    0 -0.10050476543E+03  0.74208770165E+03  0.27822110578E+03  0.79887567778E+03  0.50400001928E-02 0.  1.
       -1    1    3    3    0  502  0.10050476543E+03 -0.74208770165E+03  0.22429010701E+03  0.78172975954E+03  0.50400001928E-02 0. -1.
</event>
<event>
 5   0  0.6542036E-05  0.1498577E+04  0.7818609E-02  0.8885399E-01
       -1   -1    0    0    0  501  0.00000000000E+00  0.00000000000E+00  0.16060361257E+04  0.16060361257E+04  0.50400001928E-02 0.  1.
        1   -1    0    0  501    0  0.00000000000E+00  0.00000000000E+00 -0.34957717565E+03  0.34957717569E+03  0.50400001928E-02 0. -1.
    10030    2    1    2    0    0  0.00000000000E+00  0.00000000000E+00  0.12564589501E+04  0.19556133014E+04  0.14985774226E+04 0.  0.
        4    1    3    3  502    0  0.26195648611E+03  0.36535919920E+03 -0.15402229853E+03  0.47521892471E+03  0.12699999809E+01 0. -1.
       -4    1    3    3    0  502 -0.26195648611E+03 -0.36535919920E+03  0.14104812486E+04  0.14803943767E+04  0.12699999809E+01 0.  1.
</event>
<event>
 5   0  0.1228286E-04  0.1486753E+04  0.7818609E-02  0.8893310E-01
        2   -1    0    0  501    0  0.00000000000E+00  0.00000000000E+00  0.84723126509E+03  0.84723126510E+03  0.25500000920E-02 0. -1.
       -2   -1    0    0    0  501  0.00000000000E+00  0.00000000000E+00 -0.65225218342E+03  0.65225218343E+03  0.25500000920E-02 0.  1.
    10030    2    1    2    0    0  0.00000000000E+00  0.00000000000E+00  0.19497908167E+03  0.14994834485E+04  0.14867527603E+04 0.  0.
        2    1    3    3  502    0 -0.13598145505E+03 -0.66296161774E+03  0.40769330785E+03  0.79007777844E+03  0.25500000920E-02 0. -1.
       -2    1    3    3    0  502  0.13598145505E+03  0.66296161774E+03 -0.21271422618E+03  0.70940567008E+03  0.25500000920E-02 0.  1.
</event>
<event>
 5   0  0.6668433E-05  0.1498490E+04  0.7818609E-02  0.8885458E-01
        1   -1    0    0  501    0  0.00000000000E+00  0.00000000000E+00  0.15318644286E+04  0.15318644286E+04  0.50400001928E-02 0. -1.
       -1   -1    0    0    0  501  0.00000000000E+00  0.00000000000E+00 -0.36646058496E+03  0.36646058499E+03  0.50400001928E-02 0.  1.
    10030    2    1    2    0    0  0.00000000000E+00  0.00000000000E+00  0.11654038436E+04  0.18983250136E+04  0.14984898193E+04 0.  0.
        1    1    3    3  502    0  0.74430318779E+03 -0.12584864608E+02  0.47504172986E+03  0.88306866058E+03  0.50400001928E-02 0.  1.
       -1    1    3    3    0  502 -0.74430318779E+03  0.12584864608E+02  0.69036211377E+03  0.10152563530E+04  0.50400001928E-02 0. -1.
</event>
<event>
 5   0  0.1216921E-04  0.1499004E+04  0.7818609E-02  0.8885116E-01
       -2   -1    0    0    0  501  0.00000000000E+00  0.00000000000E+00  0.41193638161E+03  0.41193638162E+03  0.25500000920E-02 0. -1.
        2   -1    0    0  501    0  0.00000000000E+00  0.00000000000E+00 -0.13636891603E+04  0.13636891603E+04  0.25500000920E-02 0.  1.
    10030    2    1    2    0    0  0.00000000000E+00  0.00000000000E+00 -0.95175277869E+03  0.17756255419E+04  0.14990039071E+04 0.  0.
        4    1    3    3  502    0  0.61201779992E+03 -0.35064978384E+03 -0.17567044025E+03  0.72689942550E+03  0.12699999809E+01 0. -1.
       -4    1    3    3    0  502 -0.61201779992E+03  0.35064978384E+03 -0.77608233844E+03  0.10487261164E+04  0.12699999809E+01 0.  1.
</event>
<event>
 5   0  0.6542036E-05  0.1466130E+04  0.7818609E-02  0.8907294E-01
       -1   -1    0    0    0  501  0.00000000000E+00  0.00000000000E+00  0.56340159954E+03  0.56340159956E+03  0.50400001928E-02 0.  1.
        1   -1    0    0  501    0  0.00000000000E+00  0.00000000000E+00 -0.95382113314E+03  0.95382113316E+03  0.50400001928E-02 0. -1.
    10030    2    1    2    0    0  0.00000000000E+00  0.00000000000E+00 -0.39041953361E+03  0.15172227327E+04  0.14661300790E+04 0.  0.
        4    1    3    3  502    0 -0.60865996425E+03  0.36394779036E+03 -0.31127739131E+01  0.70917998311E+03  0.12699999809E+01 0.  1.
       -4    1    3    3    0  502  0.60865996425E+03 -0.36394779036E+03 -0.38730675969E+03  0.80804274961E+03  0.12699999809E+01 0. -1.
</event>
<event>
 5   0  0.4462875E-05  0.1500182E+04  0.7818609E-02  0.8884332E-01
       -4   -1    0    0    0  501  0.00000000000E+00  0.00000000000E+00  0.10817742568E+04  0.10817750023E+04  0.12699999809E+01 0.  1.
        4   -1    0    0  501    0  0.00000000000E+00  0.00000000000E+00 -0.52010365284E+03  0.52010520340E+03  0.12699999809E+01 0. -1.
    10030    2    1    2    0    0  0.00000000000E+00  0.00000000000E+00  0.56167060397E+03  0.16018802057E+04  0.15001820976E+04 0.  0.
        1    1    3    3  502    0 -0.46599588829E+03 -0.43158728990E+03  0.70690488945E+03  0.95033377266E+03  0.50400001928E-02 0.  1.
       -1    1    3    3    0  502  0.46599588829E+03  0.43158728990E+03 -0.14523428548E+03  0.65154643304E+03  0.50400001928E-02 0. -1.
</event>
<event>
 5   0  0.6542036E-05  0.1491305E+04  0.7818609E-02  0.8890256E-01
       -1   -1    0    0    0  501  0.00000000000E+00  0.00000000000E+00  0.25893461271E+03  0.25893461276E+03  0.50400001928E-02 0.  1.
        1   -1    0    0  501    0  0.00000000000E+00  0.00000000000E+00 -0.21472510739E+04  0.21472510739E+04  0.50400001928E-02 0. -1.
    10030    2    1    2    0    0  0.00000000000E+00  0.00000000000E+00 -0.18883164612E+04  0.24061856867E+04  0.14913049658E+04 0.  0.
        4    1    3    3  502    0  0.49449023605E+01 -0.57362244171E+03 -0.17127708944E+04  0.18062815138E+04  0.12699999809E+01 0.  1.
       -4    1    3    3    0  502 -0.49449023605E+01  0.57362244171E+03 -0.17554556687E+03  0.59990417288E+03  0.12699999809E+01 0. -1.
</event>
<event>
 5   0  0.6364378E-05  0.1499773E+04  0.7818609E-02  0.8884604E-01
        1   -1    0    0  501    0  0.00000000000E+00  0.00000000000E+00  0.44350767945E+03  0.44350767948E+03  0.50400001928E-02 0.  1.
       -1   -1    0    0    0  501  0.00000000000E+00  0.00000000000E+00 -0.12679139142E+04  0.12679139142E+04  0.50400001928E-02 0. -1.
    10030    2    1    2    0    0  0.00000000000E+00  0.00000000000E+00 -0.82440623470E+03  0.17114215936E+04  0.14997727266E+04 0.  0.
        5    1    3    3  502    0 -0.35735099141E+03 -0.45365419047E+03 -0.95804253143E+03  0.11186462522E+04  0.46999998093E+01 0. -1.
       -5    1    3    3    0  502  0.35735099141E+03  0.45365419047E+03  0.13363629673E+03  0.59277534142E+03  0.46999998093E+01 0.  1.
</event>
<event>
 5   0  0.1219810E-04  0.1500159E+04  0.7818609E-02  0.8884347E-01
       -2   -1    0    0    0  501  0.00000000000E+00  0.00000000000E+00  0.30847204514E+03  0.30847204515E+03  0.25500000920E-02 0. -1.
        2   -1    0    0  501    0  0.00000000000E+00  0.00000000000E+00 -0.18238917549E+04  0.18238917549E+04  0.25500000920E-02 0.  1.
    10030    2    1    2    0    0  0.00000000000E+00  0.00000000000E+00 -0.15154197097E+04  0.21323638000E+04  0.15001594845E+04 0.  0.
        1    1    3    3  502    0  0.26514440404E+03 -0.20388009859E+03  0.19660614260E+03  0.38797245383E+03  0.50400001928E-02 0. -1.
       -1    1    3    3    0  502 -0.26514440404E+03  0.20388009859E+03 -0.17120258523E+04  0.17443913462E+04  0.50400001928E-02 0.  1.
</event>
<event>
 5   0  0.6364378E-05  0.1503880E+04  0.7818609E-02  0.8881877E-01
        1   -1    0    0  501    0  0.00000000000E+00  0.00000000000E+00  0.69641963185E+03  0.69641963187E+03  0.50400001928E-02 0. -1.
       -1   -1    0    0    0  501  0.00000000000E+00  0.00000000000E+00 -0.81188645249E+03  0.81188645251E+03  0.50400001928E-02 0.  1.
    10030    2    1    2    0    0  0.00000000000E+00  0.00000000000E+00 -0.11546682065E+03  0.15083060844E+04  0.15038798680E+04 0.  0.
        5    1    3    3  502    0  0.39126866663E+03  0.61845090822E+03 -0.23092308393E+03  0.76741139949E+03  0.46999998093E+01 0.  1.
       -5    1    3    3    0  502 -0.39126866663E+03 -0.61845090822E+03  0.11545626329E+03  0.74089468489E+03  0.46999998093E+01 0. -1.
</event>
<event>
 5   0  0.1219810E-04  0.1499054E+04  0.7818609E-02  0.8885082E-01
        2   -1    0    0  501    0  0.00000000000E+00  0.00000000000E+00  0.10016018572E+04  0.10016018572E+04  0.25500000920E-02 0. -1.
       -2   -1    0    0    0  501  0.00000000000E+00  0.00000000000E+00 -0.56089222668E+03  0.56089222668E+03  0.25500000920E-02 0.  1.
    10030    2    1    2    0    0  0.00000000000E+00  0.00000000000E+00  0.44070963051E+03  0.15624940839E+04  0.14990539629E+04 0.  0.
        1    1    3    3  502    0 -0.23666158071E+03  0.24461429250E+03 -0.47569796622E+03  0.58492171354E+03  0.50400001928E-02 0.  1.
       -1    1    3    3    0  502  0.23666158071E+03 -0.24461429250E+03  0.91640759673E+03  0.97757237034E+03  0.50400001928E-02 0. -1.
</event>
<event>
 5   0  0.6361716E-05  0.1499711E+04  0.7818609E-02  0.8884645E-01
       -1   -1    0    0    0  501  0.00000000000E+00  0.00000000000E+00  0.25055445001E+03  0.25055445006E+03  0.50400001928E-02 0.  1.
        1   -1    0    0  501    0  0.00000000000E+00  0.00000000000E+00 -0.22441549800E+04  0.22441549800E+04  0.50400001928E-02 0. -1.
    10030    2    1    2    0    0  0.00000000000E+00  0.00000000000E+00 -0.19936005300E+04  0.24947094300E+04  0.14997106612E+04 0.  0.
        3    1    3    3  502    0 -0.12930740049E+03 -0.64766113471E+03 -0.40610158674E+03  0.77530887921E+03  0.10100000352E+00 0.  1.
       -3    1    3    3    0  502  0.12930740049E+03  0.64766113471E+03 -0.15874989432E+04  0.17194005508E+04  0.10100000352E+00 0. -1.
</event>
<event>
 5   0  0.6364378E-05  0.1499970E+04  0.7818609E-02  0.8884473E-01
       -1   -1    0    0    0  501  0.00000000000E+00  0.00000000000E+00  0.57786644298E+03  0.57786644300E+03  0.50400001928E-02 0.  1.
        1   -1    0    0  501    0  0.00000000000E+00  0.00000000000E+00 -0.97336900758E+03  0.97336900759E+03  0.50400001928E-02 0. -1.
    10030    2    1    2    0    0  0.00000000000E+00  0.00000000000E+00 -0.39550256460E+03  0.15512354506E+04  0.14999697146E+04 0.  0.
        5    1    3    3  502    0  0.34960584509E+03 -0.41325820629E+03 -0.73457685960E+03  0.91248662710E+03  0.46999998093E+01 0. -1.
       -5    1    3    3    0  502 -0.34960584509E+03  0.41325820629E+03  0.33907429500E+03  0.63874882349E+03  0.46999998093E+01 0.  1.
</event>
<event>
 5   0  0.1216921E-04  0.1474288E+04  0.7818609E-02  0.8901733E-01
       -2   -1    0    0    0  501  0.00000000000E+00  0.00000000000E+00  0.51439123551E+03  0.51439123551E+03  0.25500000920E-02 0.  1.
        2   -1    0    0  501    0  0.00000000000E+00  0.00000000000E+00 -0.10563580736E+04  0.10563580736E+04  0.25500000920E-02 0. -1.
    10030    2    1    2    0    0  0.00000000000E+00  0.00000000000E+00 -0.54196683813E+03  0.15707493092E+04  0.14742880786E+04 0.  0.
        4    1    3    3  502    0 -0.87571628144E+02 -0.46138213051E+03  0.33438043428E+03  0.57650164626E+03  0.12699999809E+01 0.  1.
       -4    1    3    3    0  502  0.87571628144E+02  0.46138213051E+03 -0.87634727241E+03  0.99424766289E+03  0.12699999809E+01 0. -1.
</event>
<event>
 5   0  0.1228286E-04  0.1478688E+04  0.7818609E-02  0.8898750E-01
       -2   -1    0    0    0  501  0.00000000000E+00  0.00000000000E+00  0.11238546071E+04  0.11238546071E+04  0.25500000920E-02 0. -1.
        2   -1    0    0  501    0  0.00000000000E+00  0.00000000000E+00 -0.48638808493E+03  0.48638808494E+03  0.25500000920E-02 0.  1.
    10030    2    1    2    0    0  0.00000000000E+00  0.00000000000E+00  0.63746652219E+03  0.16102426921E+04  0.14786879185E+04 0.  0.
        2    1    3    3  502    0  0.17315547898E+03  0.71770298439E+03  0.36159344539E+03  0.82208893282E+03  0.25500000920E-02 0.  1.
       -2    1    3    3    0  502 -0.17315547898E+03 -0.71770298439E+03  0.27587307679E+03  0.78815375925E+03  0.25500000920E-02 0. -1.
</event>
<event>
 5   0  0.6542036E-05  0.1500425E+04  0.7818609E-02  0.8884170E-01
       -1   -1    0    0    0  501  0.00000000000E+00  0.00000000000E+00  0.58856751055E+03  0.58856751057E+03  0.50400001928E-02 0. -1.
        1   -1    0    0  501    0  0.00000000000E+00  0.00000000000E+00 -0.95625213205E+03  0.95625213207E+03  0.50400001928E-02 0.  1.
    10030    2    1    2    0    0  0.00000000000E+00  0.00000000000E+00 -0.36768462150E+03  0.15448196426E+04  0.15004251889E+04 0.  0.
        4    1    3    3  502    0  0.19230465499E+03  0.13761930663E+03  0.54919042511E+03  0.59793970417E+03  0.12699999809E+01 0. -1.
       -4    1    3    3    0  502 -0.19230465499E+03 -0.13761930663E+03 -0.91687504661E+03  0.94687993847E+03  0.12699999809E+01 0.  1.
</event>
<event>
 5   0  0.1254487E-04  0.1504013E+04  0.7818609E-02  0.8881789E-01
        2   -1    0    0  501    0  0.00000000000E+00  0.00000000000E+00  0.17767800631E+04  0.17767800631E+04  0.25500000920E-02 0. -1.
       -2   -1    0    0    0  501  0.00000000000E+00  0.00000000000E+00 -0.31828014422E+03  0.31828014423E+03  0.25500000920E-02 0.  1.
    10030    2    1    2    0    0  0.00000000000E+00  0.00000000000E+00  0.14584999189E+04  0.20950602073E+04  0.15040130515E+04 0.  0.
        5    1    3    3  502    0 -0.43565997088E+03  0.48310857110E+03  0.12547159850E+04  0.14133392355E+04  0.46999998093E+01 0.  1.
       -5    1    3    3    0  502  0.43565997088E+03 -0.48310857110E+03  0.20378393389E+03  0.68172097181E+03  0.46999998093E+01 0. -1.
</event>
<event>
 5   0  0.6668433E-05  0.1498845E+04  0.7818609E-02  0.8885221E-01
       -1   -1    0    0    0  501  0.00000000000E+00  0.00000000000E+00  0.90310314138E+03  0.90310314139E+03  0.50400001928E-02 0.  1.
        1   -1    0    0  501    0  0.00000000000E+00  0.00000000000E+00 -0.62189389737E+03  0.62189389739E+03  0.50400001928E-02 0. -1.
    10030    2    1    2    0    0  0.00000000000E+00  0.00000000000E+00  0.28120924401E+03  0.15249970388E+04  0.14988453320E+04 0.  0.
        1    1    3    3  502    0  0.59507815382E+03  0.13096902493E+03 -0.30331459943E+03  0.68063987607E+03  0.50400001928E-02 0. -1.
       -1    1    3    3    0  502 -0.59507815382E+03 -0.13096902493E+03  0.58452384344E+03  0.84435716271E+03  0.50400001928E-02 0.  1.
</event>
<event>
 5   0  0.1216921E-04  0.1500978E+04  0.7818609E-02  0.8883803E-01
       -2   -1    0    0    0  501  0.00000000000E+00  0.00000000000E+00  0.35035768888E+03  0.35035768889E+03  0.25500000920E-02 0.  1.
        2   -1    0    0  501    0  0.00000000000E+00  0.00000000000E+00 -0.16075963013E+04  0.16075963013E+04  0.25500000920E-02 0. -1.
    10030    2    1    2    0    0  0.00000000000E+00  0.00000000000E+00 -0.12572386124E+04  0.19579539901E+04  0.15009779809E+04 0.  0.
        4    1    3    3  502    0 -0.40773696642E+03 -0.18791506741E+03 -0.14131045294E+04  0.14827095232E+04  0.12699999809E+01 0. -1.
       -4    1    3    3    0  502  0.40773696642E+03  0.18791506741E+03  0.15586591703E+03  0.47524446691E+03  0.12699999809E+01 0.  1.
</event>
<event>
 5   0  0.6509279E-05  0.1499766E+04  0.7818609E-02  0.8884609E-01
       -1   -1    0    0    0  501  0.00000000000E+00  0.00000000000E+00  0.48699942904E+03  0.48699942907E+03  0.50400001928E-02 0. -1.
        1   -1    0    0  501    0  0.00000000000E+00  0.00000000000E+00 -0.11546715588E+04  0.11546715588E+04  0.50400001928E-02 0.  1.
    10030    2    1    2    0    0  0.00000000000E+00  0.00000000000E+00 -0.66767212974E+03  0.16416709879E+04  0.14997658349E+04 0.  0.
        2    1    3    3  502    0 -0.25858652650E+03 -0.36276737109E+03 -0.99411611154E+03  0.10893732145E+04  0.25500000920E-02 0.  1.
       -2    1    3    3    0  502  0.25858652650E+03  0.36276737109E+03  0.32644398180E+03  0.55229777337E+03  0.25500000920E-02 0. -1.
</event>
<event>
 5   0  0.6509279E-05  0.1499620E+04  0.7818609E-02  0.8884705E-01
       -1   -1    0    0    0  501  0.00000000000E+00  0.00000000000E+00  0.13240010066E+04  0.13240010066E+04  0.50400001928E-02 0.  1.
        1   -1    0    0  501    0  0.00000000000E+00  0.00000000000E+00 -0.42463356877E+03  0.42463356880E+03  0.50400001928E-02 0. -1.
    10030    2    1    2    0    0  0.00000000000E+00  0.00000000000E+00  0.89936743779E+03  0.17486345754E+04  0.14996203153E+04 0.  0.
        2    1    3    3  502    0 -0.30705637599E+02  0.73668343091E+03  0.29078396741E+03  0.79259108579E+03  0.25500000920E-02 0. -1.
       -2    1    3    3    0  502  0.30705637599E+02 -0.73668343091E+03  0.60858347037E+03  0.95604348958E+03  0.25500000920E-02 0.  1.
</event>
<event>
 5   0  0.1228286E-04  0.1464846E+04  0.7818609E-02  0.8908173E-01
       -2   -1    0    0    0  501  0.00000000000E+00  0.00000000000E+00  0.56920049274E+03  0.56920049275E+03  0.25500000920E-02 0.  1.
        2   -1    0    0  501    0  0.00000000000E+00  0.00000000000E+00 -0.94245045201E+03  0.94245045201E+03  0.25500000920E-02 0. -1.
    10030    2    1    2    0    0  0.00000000000E+00  0.00000000000E+00 -0.37324995927E+03  0.15116509448E+04  0.14648457416E+04 0.  0.
        2    1    3    3  502    0  0.81683614201E+02  0.35391557134E+03 -0.84296191380E+03  0.91788519575E+03  0.25500000920E-02 0. -1.
       -2    1    3    3    0  502 -0.81683614201E+02 -0.35391557134E+03  0.46971195453E+03  0.59376574901E+03  0.25500000920E-02 0.  1.
</event>
<event>
 5   0  0.6364378E-05  0.1501552E+04  0.7818609E-02  0.8883421E-01
       -1   -1    0    0    0  501  0.00000000000E+00  0.00000000000E+00  0.59247156790E+03  0.59247156792E+03  0.50400001928E-02 0. -1.
        1   -1    0    0  501    0  0.00000000000E+00  0.00000000000E+00 -0.95137848463E+03  0.95137848464E+03  0.50400001928E-02 0.  1.
    10030    2    1    2    0    0  0.00000000000E+00  0.00000000000E+00 -0.35890691673E+03  0.15438500526E+04  0.15015521336E+04 0.  0.
        5    1    3    3  502    0  0.33599704737E+03 -0.21264806803E+03  0.47529709146E+03  0.61971173285E+03  0.46999998093E+01 0. -1.
       -5    1    3    3    0  502 -0.33599704737E+03  0.21264806803E+03 -0.83420400819E+03  0.92413831971E+03  0.46999998093E+01 0.  1.
</event>
<event>
 5   0  0.6668433E-05  0.1496355E+04  0.7818609E-02  0.8886880E-01
       -1   -1    0    0    0  501  0.00000000000E+00  0.00000000000E+00  0.31359181387E+03  0.31359181391E+03  0.50400001928E-02 0. -1.
        1   -1    0    0  501    0  0.00000000000E+00  0.00000000000E+00 -0.17850262548E+04  0.17850262548E+04  0.50400001928E-02 0.  1.
    10030    2    1    2    0    0  0.00000000000E+00  0.00000000000E+00 -0.14714344409E+04  0.20986180687E+04  0.14963550663E+04 0.  0.
        1    1    3    3  502    0 -0.74477308726E+03  0.70429541736E+02 -0.75123034755E+03  0.10601859775E+04  0.50400001928E-02 0.  1.
       -1    1    3    3    0  502  0.74477308726E+03 -0.70429541736E+02 -0.72020409339E+03  0.10384320912E+04  0.50400001928E-02 0. -1.
</event>
<event>
 5   0  0.6364378E-05  0.1500473E+04  0.7818609E-02  0.8884139E-01
       -1   -1    0    0    0  501  0.00000000000E+00  0.00000000000E+00  0.66516089837E+03  0.66516089839E+03  0.50400001928E-02 0.  1.
        1   -1    0    0  501    0  0.00000000000E+00  0.00000000000E+00 -0.84619294221E+03  0.84619294223E+03  0.50400001928E-02 0. -1.
    10030    2    1    2    0    0  0.00000000000E+00  0.00000000000E+00 -0.18103204384E+03  0.15113538406E+04  0.15004725358E+04 0.  0.
        5    1    3    3  502    0 -0.56618651547E+03 -0.47683269703E+03 -0.21344936033E+03  0.77040204483E+03  0.46999998093E+01 0.  1.
       -5    1    3    3    0  502  0.56618651547E+03  0.47683269703E+03  0.32417316489E+02  0.74095179578E+03  0.46999998093E+01 0. -1.
</event>
<event>
 5   0  0.1228286E-04  0.1498777E+04  0.7818609E-02  0.8885267E-01
        2   -1    0    0  501    0  0.00000000000E+00  0.00000000000E+00  0.10927832493E+04  0.10927832493E+04  0.25500000920E-02 0.  1.
       -2   -1    0    0    0  501  0.00000000000E+00  0.00000000000E+00 -0.51390171682E+03  0.51390171682E+03  0.25500000920E-02 0. -1.
    10030    2    1    2    0    0  0.00000000000E+00  0.00000000000E+00  0.57888153252E+03  0.16066849662E+04  0.14987770854E+04 0.  0.
        2    1    3    3  502    0  0.17953992423E+02 -0.69976970479E+03  0.57625404022E+03  0.90668004525E+03  0.25500000920E-02 0.  1.
       -2    1    3    3    0  502 -0.17953992423E+02  0.69976970479E+03  0.26274923030E+01  0.70000492092E+03  0.25500000920E-02 0. -1.
</event>
<event>
 5   0  0.1228286E-04  0.1503325E+04  0.7818609E-02  0.8882245E-01
        2   -1    0    0  501    0  0.00000000000E+00  0.00000000000E+00  0.12217321375E+04  0.12217321375E+04  0.25500000920E-02 0.  1.
       -2   -1    0    0    0  501  0.00000000000E+00  0.00000000000E+00 -0.46245534987E+03  0.46245534988E+03  0.25500000920E-02 0. -1.
    10030    2    1    2    0    0  0.00000000000E+00  0.00000000000E+00  0.75927678761E+03  0.16841874874E+04  0.15033250654E+04 0.  0.
        2    1    3    3  502    0 -0.56747024745E+03  0.49185468432E+03  0.34328355583E+03  0.82570400988E+03  0.25500000920E-02 0. -1.
       -2    1    3    3    0  502  0.56747024745E+03 -0.49185468432E+03  0.41599323178E+03  0.85848347749E+03  0.25500000920E-02 0.  1.
</event>
<event>
 5   0  0.6668433E-05  0.1499744E+04  0.7818609E-02  0.8884623E-01
        1   -1    0    0  501    0  0.00000000000E+00  0.00000000000E+00  0.11907094306E+04  0.11907094306E+04  0.50400001928E-02 0.  1.
       -1   -1    0    0    0  501  0.00000000000E+00  0.00000000000E+00 -0.47224620659E+03  0.47224620662E+03  0.50400001928E-02 0. -1.
    10030    2    1    2    0    0  0.00000000000E+00  0.00000000000E+00  0.71846322397E+03  0.16629556372E+04  0.14997439938E+04 0.  0.
        1    1    3    3  502    0 -0.45916682186E+03 -0.51294660975E+03  0.29629151801E+02  0.68907639737E+03  0.50400001928E-02 0. -1.
       -1    1    3    3    0  502  0.45916682186E+03  0.51294660975E+03  0.68883407217E+03  0.97387923982E+03  0.50400001928E-02 0.  1.
</event>
<event>
 5   0  0.1186664E-04  0.1502676E+04  0.7818609E-02  0.8882675E-01
        2   -1    0    0  501    0  0.00000000000E+00  0.00000000000E+00  0.11258829701E+04  0.11258829701E+04  0.25500000920E-02 0.  1.
       -2   -1    0    0    0  501  0.00000000000E+00  0.00000000000E+00 -0.50139225479E+03  0.50139225480E+03  0.25500000920E-02 0. -1.
    10030    2    1    2    0    0  0.00000000000E+00  0.00000000000E+00  0.62449071534E+03  0.16272752249E+04  0.15026762806E+04 0.  0.
        3    1    3    3  502    0  0.38980479048E+03  0.72073791498E+02 -0.37893005773E+03  0.54838891761E+03  0.10100000352E+00 0. -1.
       -3    1    3    3    0  502 -0.38980479048E+03 -0.72073791498E+02  0.10034207731E+04  0.10788863073E+04  0.10100000352E+00 0.  1.
</event>
<event>
 5   0  0.1186664E-04  0.1507849E+04  0.7818609E-02  0.8879250E-01
        2   -1    0    0  501    0  0.00000000000E+00  0.00000000000E+00  0.78559970565E+03  0.78559970565E+03  0.25500000920E-02 0.  1.
       -2   -1    0    0    0  501  0.00000000000E+00  0.00000000000E+00 -0.72352610592E+03  0.72352610593E+03  0.25500000920E-02 0. -1.
    10030    2    1    2    0    0  0.00000000000E+00  0.00000000000E+00  0.62073599725E+02  0.15091258116E+04  0.15078486606E+04 0.  0.
        3    1    3    3  502    0  0.21214784737E+03 -0.50911870335E+03 -0.48339595232E+03  0.73340317709E+03  0.10100000352E+00 0. -1.
       -3    1    3    3    0  502 -0.21214784737E+03  0.50911870335E+03  0.54546955205E+03  0.77572263449E+03  0.10100000352E+00 0.  1.
</event>
<event>
 5   0  0.1216921E-04  0.1496173E+04  0.7818609E-02  0.8887002E-01
       -2   -1    0    0    0  501  0.00000000000E+00  0.00000000000E+00  0.12767696729E+04  0.12767696729E+04  0.25500000920E-02 0.  1.
        2   -1    0    0  501    0  0.00000000000E+00  0.00000000000E+00 -0.43831989076E+03  0.43831989077E+03  0.25500000920E-02 0. -1.
    10030    2    1    2    0    0  0.00000000000E+00  0.00000000000E+00  0.83844978218E+03  0.17150895637E+04  0.14961731766E+04 0.  0.
        4    1    3    3  502    0 -0.29808172915E+03 -0.20734694304E+03 -0.33052853047E+03  0.49101547267E+03  0.12699999809E+01 0.  1.
       -4    1    3    3    0  502  0.29808172915E+03  0.20734694304E+03  0.11689783126E+04  0.12240740910E+04  0.12699999809E+01 0. -1.
</event>
<event>
 5   0  0.6542036E-05  0.1499136E+04  0.7818609E-02  0.8885028E-01
       -1   -1    0    0    0  501  0.00000000000E+00  0.00000000000E+00  0.48595261281E+03  0.48595261284E+03  0.50400001928E-02 0. -1.
        1   -1    0    0  501    0  0.00000000000E+00  0.00000000000E+00 -0.11561868157E+04  0.11561868157E+04  0.50400001928E-02 0.  1.
    10030    2    1    2    0    0  0.00000000000E+00  0.00000000000E+00 -0.67023420289E+03  0.16421394285E+04  0.14991357564E+04 0.  0.
        4    1    3    3  502    0 -0.71680718950E+03  0.18564681202E+03 -0.46273414419E+03  0.87315622132E+03  0.12699999809E+01 0.  1.
       -4    1    3    3    0  502  0.71680718950E+03 -0.18564681202E+03 -0.20750005870E+03  0.76898320722E+03  0.12699999809E+01 0. -1.
</event>
<event>
 5   0  0.6542036E-05  0.1499417E+04  0.7818609E-02  0.8884840E-01
        1   -1    0    0  501    0  0.00000000000E+00  0.00000000000E+00  0.44265772964E+03  0.44265772967E+03  0.50400001928E-02 0.  1.
       -1   -1    0    0    0  501  0.00000000000E+00  0.00000000000E+00 -0.12697466814E+04  0.12697466814E+04  0.50400001928E-02 0. -1.
    10030    2    1    2    0    0  0.00000000000E+00  0.00000000000E+00 -0.82708895175E+03  0.17124044111E+04  0.14994174645E+04 0.  0.
        4    1    3    3  502    0 -0.26875677986E+03 -0.32063404038E+02  0.38491124748E+03  0.47054920034E+03  0.12699999809E+01 0.  1.
       -4    1    3    3    0  502  0.26875677986E+03  0.32063404038E+02 -0.12120001992E+04  0.12418552107E+04  0.12699999809E+01 0. -1.
</event>
<event>
 5   0  0.1254487E-04  0.1502546E+04  0.7818609E-02  0.8882762E-01
        2   -1    0    0  501    0  0.00000000000E+00  0.00000000000E+00  0.11052476251E+04  0.11052476251E+04  0.25500000920E-02 0. -1.
       -2   -1    0    0    0  501  0.00000000000E+00  0.00000000000E+00 -0.51066467688E+03  0.51066467689E+03  0.25500000920E-02 0.  1.
    10030    2    1    2    0    0  0.00000000000E+00  0.00000000000E+00  0.59458294823E+03  0.16159123020E+04  0.15025457349E+04 0.  0.
        5    1    3    3  502    0 -0.61580793919E+02 -0.68562199101E+03  0.62085551841E+03  0.92701314633E+03  0.46999998093E+01 0. -1.
       -5    1    3    3    0  502  0.61580793919E+02  0.68562199101E+03 -0.26272570176E+02  0.68889915567E+03  0.46999998093E+01 0.  1.
</event>
<event>
 5   0  0.6542036E-05  0.1486825E+04  0.7818609E-02  0.8893261E-01
        1   -1    0    0  501    0  0.00000000000E+00  0.00000000000E+00  0.20009299431E+04  0.20009299431E+04  0.50400001928E-02 0.  1.
       -1   -1    0    0    0  501  0.00000000000E+00  0.00000000000E+00 -0.27620280854E+03  0.27620280859E+03  0.50400001928E-02 0. -1.
    10030    2    1    2    0    0  0.00000000000E+00  0.00000000000E+00  0.17247271345E+04  0.22771327516E+04  0.14868254370E+04 0.  0.
        4    1    3    3  502    0 -0.64530691806E+03 -0.35481206121E+03  0.10181614711E+04  0.12565695410E+04  0.12699999809E+01 0. -1.
       -4    1    3    3    0  502  0.64530691806E+03  0.35481206121E+03  0.70656566344E+03  0.10205632106E+04  0.12699999809E+01 0.  1.
</event>
<event>
 5   0  0.1186664E-04  0.1498173E+04  0.7818609E-02  0.8885669E-01
       -2   -1    0    0    0  501  0.00000000000E+00  0.00000000000E+00  0.57852361525E+03  0.57852361526E+03  0.25500000920E-02 0.  1.
        2   -1    0    0  501    0  0.00000000000E+00  0.00000000000E+00 -0.96993515219E+03  0.96993515219E+03  0.25500000920E-02 0. -1.
    10030    2    1    2    0    0  0.00000000000E+00  0.00000000000E+00 -0.39141153694E+03  0.15484587674E+04  0.14981727415E+04 0.  0.
        3    1    3    3  502    0 -0.57590041701E+02  0.40659198568E+02  0.57508741054E+03  0.57939220162E+03  0.10100000352E+00 0.  1.
       -3    1    3    3    0  502  0.57590041701E+02 -0.40659198568E+02 -0.96649894748E+03  0.96906656583E+03  0.10100000352E+00 0. -1.
</event>
<event>
 5   0  0.1254487E-04  0.1500514E+04  0.7818609E-02  0.8884111E-01
        2   -1    0    0  501    0  0.00000000000E+00  0.00000000000E+00  0.73967233894E+03  0.73967233895E+03  0.25500000920E-02 0. -1.
       -2   -1    0    0    0  501  0.00000000000E+00  0.00000000000E+00 -0.76099321873E+03  0.76099321874E+03  0.25500000920E-02 0.  1.
    10030    2    1    2    0    0  0.00000000000E+00  0.00000000000E+00 -0.21320879791E+02  0.15006655577E+04  0.15005140906E+04 0.  0.
        5    1    3    3  502    0 -0.28344984610E+03  0.17167923762E+03 -0.68381527856E+03  0.75989670421E+03  0.46999998093E+01 0.  1.
       -5    1    3    3    0  502  0.28344984610E+03 -0.17167923762E+03  0.66249439876E+03  0.74076885347E+03  0.46999998093E+01 0. -1.
</event>
<event>
 5   0  0.6542036E-05  0.1502048E+04  0.7818609E-02  0.8883092E-01
       -1   -1    0    0    0  501  0.00000000000E+00  0.00000000000E+00  0.77524849435E+03  0.77524849437E+03  0.50400001928E-02 0.  1.
        1   -1    0    0  501    0  0.00000000000E+00  0.00000000000E+00 -0.72755654331E+03  0.72755654333E+03  0.50400001928E-02 0. -1.
    10030    2    1    2    0    0  0.00000000000E+00  0.00000000000E+00  0.47691951038E+02  0.15028050377E+04  0.15020480882E+04 0.  0.
        4    1    3    3  502    0  0.47079198658E+03  0.49873206787E+03  0.33003407326E+03  0.76111948639E+03  0.12699999809E+01 0.  1.
       -4    1    3    3    0  502 -0.47079198658E+03 -0.49873206787E+03 -0.28234212223E+03  0.74168555131E+03  0.12699999809E+01 0. -1.
</event>
<event>
 5   0  0.6361716E-05  0.1499445E+04  0.7818609E-02  0.8884822E-01
        1   -1    0    0  501    0  0.00000000000E+00  0.00000000000E+00  0.23343037948E+04  0.23343037948E+04  0.50400001928E-02 0.  1.
       -1   -1    0    0    0  501  0.00000000000E+00  0.00000000000E+00 -0.24079276601E+03  0.24079276607E+03  0.50400001928E-02 0. -1.
    10030    2    1    2    0    0  0.00000000000E+00  0.00000000000E+00  0.20935110288E+04  0.25750965608E+04  0.14994445205E+04 0.  0.
        3    1    3    3  502    0 -0.44081205338E+03  0.14842533355E+03  0.20565587198E+04  0.21085016301E+04  0.10100000352E+00 0.  1.
       -3    1    3    3    0  502  0.44081205338E+03 -0.14842533355E+03  0.36952308972E+02  0.46659493073E+03  0.10100000352E+00 0. -1.
</event>
<event>
 5   0  0.6542036E-05  0.1500441E+04  0.7818609E-02  0.8884160E-01
       -1   -1    0    0    0  501  0.00000000000E+00  0.00000000000E+00  0.28030412310E+03  0.28030412315E+03  0.50400001928E-02 0.  1.
        1   -1    0    0  501    0  0.00000000000E+00  0.00000000000E+00 -0.20079289547E+04  0.20079289547E+04  0.50400001928E-02 0. -1.
    10030    2    1    2    0    0  0.00000000000E+00  0.00000000000E+00 -0.17276248316E+04  0.22882330779E+04  0.15004409551E+04 0.  0.
        4    1    3    3  502    0 -0.57932018778E+03  0.41762038477E+02 -0.15879628873E+04  0.16908529481E+04  0.12699999809E+01 0. -1.
       -4    1    3    3    0  502  0.57932018778E+03 -0.41762038477E+02 -0.13966194430E+03  0.59738012974E+03  0.12699999809E+01 0.  1.
</event>
<event>
 5   0  0.1254487E-04  0.1501190E+04  0.7818609E-02  0.8883662E-01
       -2   -1    0    0    0  501  0.00000000000E+00  0.00000000000E+00  0.41672103623E+03  0.41672103624E+03  0.25500000920E-02 0. -1.
        2   -1    0    0  501    0  0.00000000000E+00  0.00000000000E+00 -0.13519660447E+04  0.13519660447E+04  0.25500000920E-02 0.  1.
    10030    2    1    2    0    0  0.00000000000E+00  0.00000000000E+00 -0.93524500845E+03  0.17686870809E+04  0.15011897829E+04 0.  0.
        5    1    3    3  502    0  0.12713500995E+01  0.40735359434E+03  0.27513464094E+03  0.49158898258E+03  0.46999998093E+01 0. -1.
       -5    1    3    3    0  502 -0.12713500995E+01 -0.40735359434E+03 -0.12103796494E+04  0.12770980983E+04  0.46999998093E+01 0.  1.
</event>
<event>
 5   0  0.6542036E-05  0.1497129E+04  0.7818609E-02  0.8886365E-01
       -1   -1    0    0    0  501  0.00000000000E+00  0.00000000000E+00  0.69535820097E+03  0.69535820099E+03  0.50400001928E-02 0.  1.
        1   -1    0    0  501    0  0.00000000000E+00  0.00000000000E+00 -0.80584160723E+03  0.80584160724E+03  0.50400001928E-02 0. -1.
    10030    2    1    2    0    0  0.00000000000E+00  0.00000000000E+00 -0.11048340626E+03  0.15011998082E+04  0.14971286789E+04 0.  0.
        4    1    3    3  502    0  0.53952836959E+03 -0.51292422423E+03 -0.13397168196E+03  0.75639417360E+03  0.12699999809E+01 0.  1.
       -4    1    3    3    0  502 -0.53952836959E+03  0.51292422423E+03  0.23488275709E+02  0.74480563463E+03  0.12699999809E+01 0. -1.
</event>
<event>
 5   0  0.6509279E-05  0.1496300E+04  0.7818609E-02  0.8886917E-01
       -1   -1    0    0    0  501  0.00000000000E+00  0.00000000000E+00  0.73943075869E+03  0.73943075871E+03  0.50400001928E-02 0.  1.
        1   -1    0    0  501    0  0.00000000000E+00  0.00000000000E+00 -0.75697164552E+03  0.75697164553E+03  0.50400001928E-02 0. -1.
    10030    2    1    2    0    0  0.00000000000E+00  0.00000000000E+00 -0.17540886826E+02  0.14964024042E+04  0.14962995932E+04 0.  0.
        2    1    3    3  502    0  0.38005882534E+03  0.45872644551E+03  0.44386805213E+03  0.74289535618E+03  0.25500000920E-02 0.  1.
       -2    1    3    3    0  502 -0.38005882534E+03 -0.45872644551E+03 -0.46140893896E+03  0.75350704806E+03  0.25500000920E-02 0. -1.
</event>
<event>
 5   0  0.6364378E-05  0.1500089E+04  0.7818609E-02  0.8884394E-01
        1   -1    0    0  501    0  0.00000000000E+00  0.00000000000E+00  0.11652960750E+04  0.11652960750E+04  0.50400001928E-02 0. -1.
       -1   -1    0    0    0  501  0.00000000000E+00  0.00000000000E+00 -0.48276694958E+03  0.48276694960E+03  0.50400001928E-02 0.  1.
    10030    2    1    2    0    0  0.00000000000E+00  0.00000000000E+00  0.68252912538E+03  0.16480630246E+04  0.15000885727E+04 0.  0.
        5    1    3    3  502    0 -0.62297322731E+02  0.74703814221E+03  0.36811734032E+03  0.83515232657E+03  0.46999998093E+01 0.  1.
       -5    1    3    3    0  502  0.62297322731E+02 -0.74703814221E+03  0.31441178506E+03  0.81291069800E+03  0.46999998093E+01 0. -1.
</event>
<event>
 5   0  0.1228286E-04  0.1499176E+04  0.7818609E-02  0.8885001E-01
        2   -1    0    0  501    0  0.00000000000E+00  0.00000000000E+00  0.15566511409E+04  0.15566511409E+04  0.25500000920E-02 0.  1.
       -2   -1    0    0    0  501  0.00000000000E+00  0.00000000000E+00 -0.36095585814E+03  0.36095585815E+03  0.25500000920E-02 0. -1.
    10030    2    1    2    0    0  0.00000000000E+00  0.00000000000E+00  0.11956952828E+04  0.19176069991E+04  0.14991762383E+04 0.  0.
        2    1    3    3  502    0  0.29240688466E+03  0.64617650882E+03  0.28758444431E+03  0.76534350416E+03  0.25500000920E-02 0.  1.
       -2    1    3    3    0  502 -0.29240688466E+03 -0.64617650882E+03  0.90811083845E+03  0.11522634949E+04  0.25500000920E-02 0. -1.
</event>
<event>
 5   0  0.1216921E-04  0.1505209E+04  0.7818609E-02  0.8880997E-01
        2   -1    0    0  501    0  0.00000000000E+00  0.00000000000E+00  0.71842811999E+03  0.71842812000E+03  0.25500000920E-02 0. -1.
       -2   -1    0    0    0  501  0.00000000000E+00  0.00000000000E+00 -0.78840629719E+03  0.78840629719E+03  0.25500000920E-02 0.  1.
    10030    2    1    2    0    0  0.00000000000E+00  0.00000000000E+00 -0.69978177195E+02  0.15068344172E+04  0.15052086286E+04 0.  0.
        4    1    3    3  502    0  0.72548500163E+03  0.30084157123E+02  0.16315927949E+03  0.74421509491E+03  0.12699999809E+01 0. -1.
       -4    1    3    3    0  502 -0.72548500163E+03 -0.30084157123E+02 -0.23313745669E+03  0.76261932228E+03  0.12699999809E+01 0.  1.
</event>
<event>
 5   0  0.1186664E-04  0.1499661E+04  0.7818609E-02  0.8884678E-01
        2   -1    0    0  501    0  0.00000000000E+00  0.00000000000E+00  0.11057859516E+04  0.11057859516E+04  0.25500000920E-02 0. -1.
       -2   -1    0    0    0  501  0.00000000000E+00  0.00000000000E+00 -0.50845802073E+03  0.50845802074E+03  0.25500000920E-02 0.  1.
    10030    2    1    2    0    0  0.00000000000E+00  0.00000000000E+00  0.59732793082E+03  0.16142439723E+04  0.14996609434E+04 0.  0.
        3    1    3    3  502    0  0.36112016933E+03  0.64352334544E+03  0.15539415763E+03  0.75410703965E+03  0.10100000352E+00 0.  1.
       -3    1    3    3    0  502 -0.36112016933E+03 -0.64352334544E+03  0.44193377318E+03  0.86013693265E+03  0.10100000352E+00 0. -1.
</event>
<event>
 5   0  0.6668433E-05  0.1481212E+04  0.7818609E-02  0.8897044E-01
        1   -1    0    0  501    0  0.00000000000E+00  0.00000000000E+00  0.82175430213E+03  0.82175430215E+03  0.50400001928E-02 0.  1.
       -1   -1    0    0    0  501  0.00000000000E+00  0.00000000000E+00 -0.66747087748E+03  0.66747087750E+03  0.50400001928E-02 0. -1.
    10030    2    1    2    0    0  0.00000000000E+00  0.00000000000E+00  0.15428342465E+03  0.14892251796E+04  0.14812117541E+04 0.  0.
        1    1    3    3  502    0 -0.77208382374E+02 -0.59361803044E+03 -0.36128343500E+03  0.69919183405E+03  0.50400001928E-02 0. -1.
       -1    1    3    3    0  502  0.77208382374E+02  0.59361803044E+03  0.51556685964E+03  0.79003334560E+03  0.50400001928E-02 0.  1.
</event>
<event>
 5   0  0.6361716E-05  0.1499287E+04  0.7818609E-02  0.8884927E-01
       -1   -1    0    0    0  501  0.00000000000E+00  0.00000000000E+00  0.97612912173E+03  0.97612912174E+03  0.50400001928E-02 0.  1.
        1   -1    0    0  501    0  0.00000000000E+00  0.00000000000E+00 -0.57570801115E+03  0.57570801117E+03  0.50400001928E-02 0. -1.
    10030    2    1    2    0    0  0.00000000000E+00  0.00000000000E+00  0.40042111058E+03  0.15518371329E+04  0.14992869710E+04 0.  0.
        3    1    3    3  502    0 -0.45650103947E+03  0.59208674379E+03  0.14346720630E+03  0.76127705908E+03  0.10100000352E+00 0.  1.
       -3    1    3    3    0  502  0.45650103947E+03 -0.59208674379E+03  0.25695390428E+03  0.79056007383E+03  0.10100000352E+00 0. -1.
</event>
<event>
 5   0  0.6364378E-05  0.1499763E+04  0.7818609E-02  0.8884611E-01
        1   -1    0    0  501    0  0.00000000000E+00  0.00000000000E+00  0.10137907051E+04  0.10137907051E+04  0.50400001928E-02 0. -1.
       -1   -1    0    0    0  501  0.00000000000E+00  0.00000000000E+00 -0.55467268336E+03  0.55467268338E+03  0.50400001928E-02 0.  1.
    10030    2    1    2    0    0  0.00000000000E+00  0.00000000000E+00  0.45911802178E+03  0.15684633885E+04  0.14997626623E+04 0.  0.
        5    1    3    3  502    0  0.49417173632E+03  0.55185980405E+03  0.10784490521E+03  0.74860374156E+03  0.46999998093E+01 0.  1.
       -5    1    3    3    0  502 -0.49417173632E+03 -0.55185980405E+03  0.35127311657E+03  0.81985964697E+03  0.46999998093E+01 0. -1.
</event>
<event>
 5   0  0.6364378E-05  0.1478648E+04  0.7818609E-02  0.8898777E-01
       -1   -1    0    0    0  501  0.00000000000E+00  0.00000000000E+00  0.82618536117E+03  0.82618536119E+03  0.50400001928E-02 0.  1.
        1   -1    0    0  501    0  0.00000000000E+00  0.00000000000E+00 -0.66159486241E+03  0.66159486243E+03  0.50400001928E-02 0. -1.
    10030    2    1    2    0    0  0.00000000000E+00  0.00000000000E+00  0.16459049876E+03  0.14877802236E+04  0.14786480181E+04 0.  0.
        5    1    3    3  502    0  0.57092504032E+03 -0.32289390551E+03 -0.26093030116E+03  0.70591967528E+03  0.46999998093E+01 0. -1.
       -5    1    3    3    0  502 -0.57092504032E+03  0.32289390551E+03  0.42552079992E+03  0.78186054834E+03  0.46999998093E+01 0.  1.
</event>
<event>
 5   0  0.1228286E-04  0.1499695E+04  0.7818609E-02  0.8884655E-01
       -2   -1    0    0    0  501  0.00000000000E+00  0.00000000000E+00  0.33823434727E+03  0.33823434728E+03  0.25500000920E-02 0. -1.
        2   -1    0    0  501    0  0.00000000000E+00  0.00000000000E+00 -0.16623728878E+04  0.16623728878E+04  0.25500000920E-02 0.  1.
    10030    2    1    2    0    0  0.00000000000E+00  0.00000000000E+00 -0.13241385406E+04  0.20006072351E+04  0.14996954473E+04 0.  0.
        2    1    3    3  502    0  0.40129524404E+03  0.47514421108E+03 -0.12208768929E+04  0.13701606774E+04  0.25500000920E-02 0.  1.
       -2    1    3    3    0  502 -0.40129524404E+03 -0.47514421108E+03 -0.10326164761E+03  0.63044655768E+03  0.25500000920E-02 0. -1.
</event>
<event>
 5   0  0.1228286E-04  0.1500254E+04  0.7818609E-02  0.8884284E-01
        2   -1    0    0  501    0  0.00000000000E+00  0.00000000000E+00  0.11877305039E+04  0.11877305039E+04  0.25500000920E-02 0. -1.
       -2   -1    0    0    0  501  0.00000000000E+00  0.00000000000E+00 -0.47375249039E+03  0.47375249040E+03  0.25500000920E-02 0.  1.
    10030    2    1    2    0    0  0.00000000000E+00  0.00000000000E+00  0.71397801353E+03  0.16614829943E+04  0.15002536908E+04 0.  0.
        2    1    3    3  502    0 -0.59589911417E+03 -0.24145230549E+03  0.78490082882E+03  0.10146251925E+04  0.25500000920E-02 0. -1.
       -2    1    3    3    0  502  0.59589911417E+03  0.24145230549E+03 -0.70922815295E+02  0.64685780186E+03  0.25500000920E-02 0.  1.
</event>
<event>
 5   0  0.6361716E-05  0.1520415E+04  0.7818609E-02  0.8870990E-01
        1   -1    0    0  501    0  0.00000000000E+00  0.00000000000E+00  0.89407567421E+03  0.89407567422E+03  0.50400001928E-02 0.  1.
       -1   -1    0    0    0  501  0.00000000000E+00  0.00000000000E+00 -0.64638307656E+03  0.64638307658E+03  0.50400001928E-02 0. -1.
    10030    2    1    2    0    0  0.00000000000E+00  0.00000000000E+00  0.24769259765E+03  0.15404587508E+04  0.15204149236E+04 0.  0.
        3    1    3    3  502    0  0.42370402702E+03  0.60830278529E+03  0.29446463423E+03  0.79766334511E+03  0.10100000352E+00 0. -1.
       -3    1    3    3    0  502 -0.42370402702E+03 -0.60830278529E+03 -0.46772036579E+02  0.74279540569E+03  0.10100000352E+00 0.  1.
</event>
<event>
 5   0  0.6668433E-05  0.1500809E+04  0.7818609E-02  0.8883915E-01
        1   -1    0    0  501    0  0.00000000000E+00  0.00000000000E+00  0.14641172413E+04  0.14641172413E+04  0.50400001928E-02 0.  1.
       -1   -1    0    0    0  501  0.00000000000E+00  0.00000000000E+00 -0.38460510868E+03  0.38460510871E+03  0.50400001928E-02 0. -1.
    10030    2    1    2    0    0  0.00000000000E+00  0.00000000000E+00  0.10795121326E+04  0.18487223500E+04  0.15008090761E+04 0.  0.
        1    1    3    3  502    0 -0.24090197635E+03  0.21833259275E+03  0.13728543981E+04  0.14108267369E+04  0.50400001928E-02 0.  1.
       -1    1    3    3    0  502  0.24090197635E+03 -0.21833259275E+03 -0.29334226544E+03  0.43789561311E+03  0.50400001928E-02 0. -1.
</event>
<event>
 5   0  0.1186664E-04  0.1498729E+04  0.7818609E-02  0.8885298E-01
        2   -1    0    0  501    0  0.00000000000E+00  0.00000000000E+00  0.11289530384E+04  0.11289530384E+04  0.25500000920E-02 0.  1.
       -2   -1    0    0    0  501  0.00000000000E+00  0.00000000000E+00 -0.49740545902E+03  0.49740545903E+03  0.25500000920E-02 0. -1.
    10030    2    1    2    0    0  0.00000000000E+00  0.00000000000E+00  0.63154757940E+03  0.16263584974E+04  0.14987293342E+04 0.  0.
        3    1    3    3  502    0 -0.72475900346E+03 -0.12649172170E+03  0.16127063161E+03  0.75318257785E+03  0.10100000352E+00 0. -1.
       -3    1    3    3    0  502  0.72475900346E+03  0.12649172170E+03  0.47027694778E+03  0.87317591960E+03  0.10100000352E+00 0.  1.
</event>
<event>
 5   0  0.1254487E-04  0.1499809E+04  0.7818609E-02  0.8884580E-01
        2   -1    0    0  501    0  0.00000000000E+00  0.00000000000E+00  0.89302734469E+03  0.89302734469E+03  0.25500000920E-02 0.  1.
       -2   -1    0    0    0  501  0.00000000000E+00  0.00000000000E+00 -0.62971978154E+03  0.62971978154E+03  0.25500000920E-02 0. -1.
    10030    2    1    2    0    0  0.00000000000E+00  0.00000000000E+00  0.26330756315E+03  0.15227471262E+04  0.14998093004E+04 0.  0.
        5    1    3    3  502    0  0.57913297537E+03  0.47335744595E+03  0.18607030685E+03  0.77078305890E+03  0.46999998093E+01 0.  1.
       -5    1    3    3    0  502 -0.57913297537E+03 -0.47335744595E+03  0.77237256302E+02  0.75196406733E+03  0.46999998093E+01 0. -1.
</event>
<event>
 5   0  0.6509279E-05  0.1499274E+04  0.7818609E-02  0.8884936E-01
        1   -1    0    0  501    0  0.00000000000E+00  0.00000000000E+00  0.12728021498E+04  0.12728021498E+04  0.50400001928E-02 0.  1.
       -1   -1    0    0    0  501  0.00000000000E+00  0.00000000000E+00 -0.44151050712E+03  0.44151050715E+03  0.50400001928E-02 0. -1.
    10030    2    1    2    0    0  0.00000000000E+00  0.00000000000E+00  0.83129164264E+03  0.17143126569E+04  0.14992738544E+04 0.  0.
        2    1    3    3  502    0 -0.23779378219E+03 -0.34421953048E+03  0.11268938691E+04  0.12020494001E+04  0.25500000920E-02 0.  1.
       -2    1    3    3    0  502  0.23779378219E+03  0.34421953048E+03 -0.29560222647E+03  0.51226325684E+03  0.25500000920E-02 0. -1.
</event>
<event>
 5   0  0.6509279E-05  0.1507633E+04  0.7818609E-02  0.8879393E-01
        1   -1    0    0  501    0  0.00000000000E+00  0.00000000000E+00  0.80102804037E+03  0.80102804039E+03  0.50400001928E-02 0. -1.
       -1   -1    0    0    0  501  0.00000000000E+00  0.00000000000E+00 -0.70938746153E+03  0.70938746155E+03  0.50400001928E-02 0.  1.
    10030    2    1    2    0    0  0.00000000000E+00  0.00000000000E+00  0.91640578839E+02  0.15104155019E+04  0.15076329105E+04 0.  0.
        2    1    3    3  502    0 -0.19970466663E+03  0.20997629613E+03 -0.65135722974E+03  0.71290829673E+03  0.25500000920E-02 0.  1.
       -2    1    3    3    0  502  0.19970466663E+03 -0.20997629613E+03  0.74299780857E+03  0.79750720521E+03  0.25500000920E-02 0. -1.
</event>
<event>
 5   0  0.6361716E-05  0.1498748E+04  0.7818609E-02  0.8885286E-01
       -1   -1    0    0    0  501  0.00000000000E+00  0.00000000000E+00  0.31396425923E+03  0.31396425927E+03  0.50400001928E-02 0.  1.
        1   -1    0    0  501    0  0.00000000000E+00  0.00000000000E+00 -0.17886161273E+04  0.17886161273E+04  0.50400001928E-02 0. -1.
    10030    2    1    2    0    0  0.00000000000E+00  0.00000000000E+00 -0.14746518681E+04  0.21025803866E+04  0.14987481943E+04 0.  0.
        3    1    3    3  502    0 -0.48869935585E+03  0.52532000372E+03 -0.43392059194E+03  0.83849583006E+03  0.10100000352E+00 0.  1.
       -3    1    3    3    0  502  0.48869935585E+03 -0.52532000372E+03 -0.10407312761E+04  0.12640845565E+04  0.10100000352E+00 0. -1.
</event>
<event>
 5   0  0.1186664E-04  0.1498492E+04  0.7818609E-02  0.8885457E-01
        2   -1    0    0  501    0  0.00000000000E+00  0.00000000000E+00  0.19710072309E+04  0.19710072309E+04  0.25500000920E-02 0.  1.
       -2   -1    0    0    0  501  0.00000000000E+00  0.00000000000E+00 -0.28481340196E+03  0.28481340197E+03  0.25500000920E-02 0. -1.
    10030    2    1    2    0    0  0.00000000000E+00  0.00000000000E+00  0.16861938290E+04  0.22558206329E+04  0.14984916079E+04 0.  0.
        3    1    3    3  502    0 -0.10388639052E+03  0.74063534215E+03  0.91102627381E+03  0.11786865461E+04  0.10100000352E+00 0.  1.
       -3    1    3    3    0  502  0.10388639052E+03 -0.74063534215E+03  0.77516755517E+03  0.10771340868E+04  0.10100000352E+00 0. -1.
</event>
<event>
 5   0  0.6364378E-05  0.1500870E+04  0.7818609E-02  0.8883875E-01
       -1   -1    0    0    0  501  0.00000000000E+00  0.00000000000E+00  0.73793197532E+03  0.73793197533E+03  0.50400001928E-02 0. -1.
        1   -1    0    0  501    0  0.00000000000E+00  0.00000000000E+00 -0.76314955305E+03  0.76314955306E+03  0.50400001928E-02 0.  1.
    10030    2    1    2    0    0  0.00000000000E+00  0.00000000000E+00 -0.25217577729E+02  0.15010815284E+04  0.15008696908E+04 0.  0.
        5    1    3    3  502    0 -0.28796767399E+03  0.49997482430E+03 -0.49249956438E+03  0.75860273998E+03  0.46999998093E+01 0.  1.
       -5    1    3    3    0  502  0.28796767399E+03 -0.49997482430E+03  0.46728198665E+03  0.74247878841E+03  0.46999998093E+01 0. -1.
</event>
<event>
 5   0  0.6542036E-05  0.1500482E+04  0.7818609E-02  0.8884132E-01
       -1   -1    0    0    0  501  0.00000000000E+00  0.00000000000E+00  0.70024313434E+03  0.70024313435E+03  0.50400001928E-02 0. -1.
        1   -1    0    0  501    0  0.00000000000E+00  0.00000000000E+00 -0.80380907511E+03  0.80380907513E+03  0.50400001928E-02 0.  1.
    10030    2    1    2    0    0  0.00000000000E+00  0.00000000000E+00 -0.10356594078E+03  0.15040522095E+04  0.15004823040E+04 0.  0.
        4    1    3    3  502    0  0.21906925262E+03  0.42156571754E+03  0.53024569846E+03  0.71194880804E+03  0.12699999809E+01 0. -1.
       -4    1    3    3    0  502 -0.21906925262E+03 -0.42156571754E+03 -0.63381163923E+03  0.79210340144E+03  0.12699999809E+01 0.  1.
</event>
<event>
 5   0  0.1186664E-04  0.1498377E+04  0.7818609E-02  0.8885533E-01
       -2   -1    0    0    0  501  0.00000000000E+00  0.00000000000E+00  0.37063634291E+03  0.37063634292E+03  0.25500000920E-02 0.  1.
        2   -1    0    0  501    0  0.00000000000E+00  0.00000000000E+00 -0.15143781551E+04  0.15143781551E+04  0.25500000920E-02 0. -1.
    10030    2    1    2    0    0  0.00000000000E+00  0.00000000000E+00 -0.11437418122E+04  0.18850144980E+04  0.14983772305E+04 0.  0.
        3    1    3    3  502    0  0.12006875605E+03 -0.63851044225E+03 -0.10255134833E+03  0.65774530047E+03  0.10100000352E+00 0.  1.
       -3    1    3    3    0  502 -0.12006875605E+03  0.63851044225E+03 -0.10411904639E+04  0.12272691976E+04  0.10100000352E+00 0. -1.
</event>
<event>
 5   0  0.1254487E-04  0.1501093E+04  0.7818609E-02  0.8883726E-01
        2   -1    0    0  501    0  0.00000000000E+00  0.00000000000E+00  0.16104651092E+04  0.16104651092E+04  0.25500000920E-02 0.  1.
       -2   -1    0    0    0  501  0.00000000000E+00  0.00000000000E+00 -0.34978722794E+03  0.34978722795E+03  0.25500000920E-02 0. -1.
    10030    2    1    2    0    0  0.00000000000E+00  0.00000000000E+00  0.12606778812E+04  0.19602523371E+04  0.15010931034E+04 0.  0.
        5    1    3    3  502    0  0.11995631049E+03 -0.15384660525E+03 -0.31607938347E+03  0.37146542373E+03  0.46999998093E+01 0. -1.
       -5    1    3    3    0  502 -0.11995631049E+03  0.15384660525E+03  0.15767572647E+04  0.15887869134E+04  0.46999998093E+01 0.  1.
</event>
<event>
 5   0  0.1254487E-04  0.1501136E+04  0.7818609E-02  0.8883698E-01
       -2   -1    0    0    0  501  0.00000000000E+00  0.00000000000E+00  0.57243689900E+03  0.57243689900E+03  0.25500000920E-02 0.  1.
        2   -1    0    0  501    0  0.00000000000E+00  0.00000000000E+00 -0.98413049126E+03  0.98413049127E+03  0.25500000920E-02 0. -1.
    10030    2    1    2    0    0  0.00000000000E+00  0.00000000000E+00 -0.41169359227E+03  0.15565673903E+04  0.15011363784E+04 0.  0.
        5    1    3    3  502    0  0.43944020966E+03 -0.49874258281E+03  0.15556120682E+03  0.68269556966E+03  0.46999998093E+01 0.  1.
       -5    1    3    3    0  502 -0.43944020966E+03  0.49874258281E+03 -0.56725479909E+03  0.87387182061E+03  0.46999998093E+01 0. -1.
</event>
<event>
 5   0  0.1254487E-04  0.1498698E+04  0.7818609E-02  0.8885319E-01
        2   -1    0    0  501    0  0.00000000000E+00  0.00000000000E+00  0.94303875339E+03  0.94303875339E+03  0.25500000920E-02 0.  1.
       -2   -1    0    0    0  501  0.00000000000E+00  0.00000000000E+00 -0.59544127555E+03  0.59544127556E+03  0.25500000920E-02 0. -1.
    10030    2    1    2    0    0  0.00000000000E+00  0.00000000000E+00  0.34759747783E+03  0.15384800289E+04  0.14986983662E+04 0.  0.
        5    1    3    3  502    0  0.11859579052E+03  0.73611711289E+03  0.25040357881E+03  0.78654777840E+03  0.46999998093E+01 0. -1.
       -5    1    3    3    0  502 -0.11859579052E+03 -0.73611711289E+03  0.97193899023E+02  0.75193225055E+03  0.46999998093E+01 0.  1.
</event>
<event>
 5   0  0.1228286E-04  0.1497237E+04  0.7818609E-02  0.8886293E-01
       -2   -1    0    0    0  501  0.00000000000E+00  0.00000000000E+00  0.51025895671E+03  0.51025895671E+03  0.25500000920E-02 0.  1.
        2   -1    0    0  501    0  0.00000000000E+00  0.00000000000E+00 -0.10983234514E+04  0.10983234514E+04  0.25500000920E-02 0. -1.
    10030    2    1    2    0    0  0.00000000000E+00  0.00000000000E+00 -0.58806449465E+03  0.16085824081E+04  0.14972366258E+04 0.  0.
        2    1    3    3  502    0 -0.56617000880E+03 -0.35926104977E+03  0.63608545009E+02  0.67354511931E+03  0.25500000920E-02 0.  1.
       -2    1    3    3    0  502  0.56617000880E+03  0.35926104977E+03 -0.65167303966E+03  0.93503728876E+03  0.25500000920E-02 0. -1.
</event>
<event>
 5   0  0.1216921E-04  0.1500852E+04  0.7818609E-02  0.8883887E-01
       -2   -1    0    0    0  501  0.00000000000E+00  0.00000000000E+00  0.12341059891E+04  0.12341059891E+04  0.25500000920E-02 0. -1.
        2   -1    0    0  501    0  0.00000000000E+00  0.00000000000E+00 -0.45631320939E+03  0.45631320939E+03  0.25500000920E-02 0.  1.
    10030    2    1    2    0    0  0.00000000000E+00  0.00000000000E+00  0.77779277969E+03  0.16904191985E+04  0.15008515777E+04 0.  0.
        4    1    3    3  502    0 -0.62991758012E+03  0.36227975725E+03  0.59989326494E+03  0.94229311919E+03  0.12699999809E+01 0.  1.
       -4    1    3    3    0  502  0.62991758012E+03 -0.36227975725E+03  0.17789951474E+03  0.74812607928E+03  0.12699999809E+01 0. -1.
</event>
<event>
 5   0  0.1254487E-04  0.1506817E+04  0.7818609E-02  0.8879932E-01
        2   -1    0    0  501    0  0.00000000000E+00  0.00000000000E+00  0.96476296964E+03  0.96476296964E+03  0.25500000920E-02 0.  1.
       -2   -1    0    0    0  501  0.00000000000E+00  0.00000000000E+00 -0.58835625663E+03  0.58835625664E+03  0.25500000920E-02 0. -1.
    10030    2    1    2    0    0  0.00000000000E+00  0.00000000000E+00  0.37640671301E+03  0.15531192263E+04  0.15068169489E+04 0.  0.
        5    1    3    3  502    0 -0.47894710955E+03 -0.50316882938E+03  0.48876817108E+03  0.84940309610E+03  0.46999998093E+01 0.  1.
       -5    1    3    3    0  502  0.47894710955E+03  0.50316882938E+03 -0.11236145807E+03  0.70371613017E+03  0.46999998093E+01 0. -1.
</event>
<event>
 5   0  0.1254487E-04  0.1501857E+04  0.7818609E-02  0.8883219E-01
        2   -1    0    0  501    0  0.00000000000E+00  0.00000000000E+00  0.15613895884E+04  0.15613895884E+04  0.25500000920E-02 0. -1.
       -2   -1    0    0    0  501  0.00000000000E+00  0.00000000000E+00 -0.36114856240E+03  0.36114856240E+03  0.25500000920E-02 0.  1.
    10030    2    1    2    0    0  0.00000000000E+00  0.00000000000E+00  0.12002410260E+04  0.19225381508E+04  0.15018569908E+04 0.  0.
        5    1    3    3  502    0  0.31165053896E+02 -0.30632576112E+03 -0.27660329441E+03  0.41393019337E+03  0.46999998093E+01 0.  1.
       -5    1    3    3    0  502 -0.31165053896E+02  0.30632576112E+03  0.14768443204E+04  0.15086079574E+04  0.46999998093E+01 0. -1.
</event>
<event>
 5   0  0.1219810E-04  0.1500596E+04  0.7818609E-02  0.8884057E-01
       -2   -1    0    0    0  501  0.00000000000E+00  0.00000000000E+00  0.86952297390E+03  0.86952297390E+03  0.25500000920E-02 0. -1.
        2   -1    0    0  501    0  0.00000000000E+00  0.00000000000E+00 -0.64742069419E+03  0.64742069419E+03  0.25500000920E-02 0.  1.
    10030    2    1    2    0    0  0.00000000000E+00  0.00000000000E+00  0.22210227971E+03  0.15169436681E+04  0.15005961047E+04 0.  0.
        1    1    3    3  502    0 -0.48120954283E+03  0.32733936803E+03 -0.36764052844E+03  0.68838451766E+03  0.50400001928E-02 0.  1.
       -1    1    3    3    0  502  0.48120954283E+03 -0.32733936803E+03  0.58974280815E+03  0.82855915043E+03  0.50400001928E-02 0. -1.
</event>
<event>
 5   0  0.4462875E-05  0.1498128E+04  0.7818609E-02  0.8885698E-01
       -3   -1    0    0    0  501  0.00000000000E+00  0.00000000000E+00  0.24158823686E+04  0.24158823707E+04  0.10100000352E+00 0.  1.
        3   -1    0    0  501    0  0.00000000000E+00  0.00000000000E+00 -0.23225351266E+03  0.23225353462E+03  0.10100000352E+00 0. -1.
    10030    2    1    2    0    0  0.00000000000E+00  0.00000000000E+00  0.21836288560E+04  0.26481359054E+04  0.14981284300E+04 0.  0.
        5    1    3    3  502    0  0.64568565875E+02  0.56821495481E+03  0.23668037114E+03  0.61893216321E+03  0.46999998093E+01 0. -1.
       -5    1    3    3    0  502 -0.64568565875E+02 -0.56821495481E+03  0.19469484848E+04  0.20292037421E+04  0.46999998093E+01 0.  1.
</event>
<event>
 5   0  0.1219810E-04  0.1499553E+04  0.7818609E-02  0.8884750E-01
        2   -1    0    0  501    0  0.00000000000E+00  0.00000000000E+00  0.13984736510E+04  0.13984736511E+04  0.25500000920E-02 0. -1.
       -2   -1    0    0    0  501  0.00000000000E+00  0.00000000000E+00 -0.40198444887E+03  0.40198444888E+03  0.25500000920E-02 0.  1.
    10030    2    1    2    0    0  0.00000000000E+00  0.00000000000E+00  0.99648920218E+03  0.18004580999E+04  0.14995528132E+04 0.  0.
        1    1    3    3  502    0 -0.54962444366E+03 -0.36954843153E+03  0.76280888248E+02  0.66668721771E+03  0.50400001928E-02 0.  1.
       -1    1    3    3    0  502  0.54962444366E+03  0.36954843153E+03  0.92020831393E+03  0.11337708822E+04  0.50400001928E-02 0. -1.
</event>
<event>
 5   0  0.6509279E-05  0.1496518E+04  0.7818609E-02  0.8886772E-01
       -1   -1    0    0    0  501  0.00000000000E+00  0.00000000000E+00  0.33519741468E+03  0.33519741472E+03  0.50400001928E-02 0. -1.
        1   -1    0    0  501    0  0.00000000000E+00  0.00000000000E+00 -0.16703326430E+04  0.16703326430E+04  0.50400001928E-02 0.  1.
    10030    2    1    2    0    0  0.00000000000E+00  0.00000000000E+00 -0.13351352283E+04  0.20055300577E+04  0.14965175357E+04 0.  0.
        2    1    3    3  502    0  0.67990212103E+03  0.21358679877E+03 -0.36195604873E+03  0.79931120097E+03  0.25500000920E-02 0. -1.
       -2    1    3    3    0  502 -0.67990212103E+03 -0.21358679877E+03 -0.97317917961E+03  0.12062188568E+04  0.25500000920E-02 0.  1.
</event>
<event>
 5   0  0.1186664E-04  0.1484287E+04  0.7818609E-02  0.8894970E-01
        2   -1    0    0  501    0  0.00000000000E+00  0.00000000000E+00  0.23267193671E+04  0.23267193671E+04  0.25500000920E-02 0.  1.
       -2   -1    0    0    0  501  0.00000000000E+00  0.00000000000E+00 -0.23671819788E+03  0.23671819789E+03  0.25500000920E-02 0. -1.
    10030    2    1    2    0    0  0.00000000000E+00  0.00000000000E+00  0.20900011692E+04  0.25634375650E+04  0.14842867857E+04 0.  0.
        3    1    3    3  502    0 -0.37060494595E+03  0.22953184163E+03  0.20823007070E+04  0.21274419232E+04  0.10100000352E+00 0.  1.
       -3    1    3    3    0  502  0.37060494595E+03 -0.22953184163E+03  0.77004622260E+01  0.43599564173E+03  0.10100000352E+00 0. -1.
</event>
<event>
 5   0  0.6542036E-05  0.1497782E+04  0.7818609E-02  0.8885929E-01
        1   -1    0    0  501    0  0.00000000000E+00  0.00000000000E+00  0.90648166358E+03  0.90648166360E+03  0.50400001928E-02 0. -1.
       -1   -1    0    0    0  501  0.00000000000E+00  0.00000000000E+00 -0.61869727765E+03  0.61869727767E+03  0.50400001928E-02 0.  1.
    10030    2    1    2    0    0  0.00000000000E+00  0.00000000000E+00  0.28778438593E+03  0.15251789413E+04  0.14977820102E+04 0.  0.
        4    1    3    3  502    0 -0.54918539301E+03  0.50374124068E+03  0.21924777970E+03  0.77680823584E+03  0.12699999809E+01 0. -1.
       -4    1    3    3    0  502  0.54918539301E+03 -0.50374124068E+03  0.68536606224E+02  0.74837070543E+03  0.12699999809E+01 0.  1.
</event>
<event>
 5   0  0.6668433E-05  0.1499925E+04  0.7818609E-02  0.8884503E-01
        1   -1    0    0  501    0  0.00000000000E+00  0.00000000000E+00  0.78454088168E+03  0.78454088170E+03  0.50400001928E-02 0. -1.
       -1   -1    0    0    0  501  0.00000000000E+00  0.00000000000E+00 -0.71690806909E+03  0.71690806910E+03  0.50400001928E-02 0.  1.
    10030    2    1    2    0    0  0.00000000000E+00  0.00000000000E+00  0.67632812595E+02  0.15014489508E+04  0.14999249163E+04 0.  0.
        1    1    3    3  502    0 -0.55528929792E+02  0.22061966259E+03 -0.68153351513E+03  0.71850151694E+03  0.50400001928E-02 0.  1.
       -1    1    3    3    0  502  0.55528929792E+02 -0.22061966259E+03  0.74916632773E+03  0.78294743386E+03  0.50400001928E-02 0. -1.
</event>
<event>
 5   0  0.6364378E-05  0.1501434E+04  0.7818609E-02  0.8883500E-01
        1   -1    0    0  501    0  0.00000000000E+00  0.00000000000E+00  0.73446075484E+03  0.73446075486E+03  0.50400001928E-02 0. -1.
       -1   -1    0    0    0  501  0.00000000000E+00  0.00000000000E+00 -0.76733307645E+03  0.76733307647E+03  0.50400001928E-02 0.  1.
    10030    2    1    2    0    0  0.00000000000E+00  0.00000000000E+00 -0.32872321611E+02  0.15017938313E+04  0.15014340220E+04 0.  0.
        5    1    3    3  502    0  0.24867311432E+03  0.28251140388E+03  0.63326005017E+03  0.73667590719E+03  0.46999998093E+01 0. -1.
       -5    1    3    3    0  502 -0.24867311432E+03 -0.28251140388E+03 -0.66613237178E+03  0.76511792414E+03  0.46999998093E+01 0.  1.
</event>
<event>
 5   0  0.1216921E-04  0.1491713E+04  0.7818609E-02  0.8889982E-01
        2   -1    0    0  501    0  0.00000000000E+00  0.00000000000E+00  0.12014910753E+04  0.12014910753E+04  0.25500000920E-02 0. -1.
       -2   -1    0    0    0  501  0.00000000000E+00  0.00000000000E+00 -0.46300975689E+03  0.46300975690E+03  0.25500000920E-02 0.  1.
    10030    2    1    2    0    0  0.00000000000E+00  0.00000000000E+00  0.73848131841E+03  0.16645008322E+04  0.14917132307E+04 0.  0.
        4    1    3    3  502    0 -0.28123889126E+03 -0.32899819417E+03  0.10470249012E+04  0.11329597885E+04  0.12699999809E+01 0. -1.
       -4    1    3    3    0  502  0.28123889126E+03  0.32899819417E+03 -0.30854358281E+03  0.53154104368E+03  0.12699999809E+01 0.  1.
</event>
<event>
 5   0  0.6509279E-05  0.1499539E+04  0.7818609E-02  0.8884759E-01
       -1   -1    0    0    0  501  0.00000000000E+00  0.00000000000E+00  0.56439458577E+03  0.56439458579E+03  0.50400001928E-02 0.  1.
        1   -1    0    0  501    0  0.00000000000E+00  0.00000000000E+00 -0.99603082178E+03  0.99603082179E+03  0.50400001928E-02 0. -1.
    10030    2    1    2    0    0  0.00000000000E+00  0.00000000000E+00 -0.43163623601E+03  0.15604254076E+04  0.14995391333E+04 0.  0.
        2    1    3    3  502    0 -0.48921547178E+03 -0.12773989855E+03 -0.79192636551E+03  0.93957257725E+03  0.25500000920E-02 0. -1.
       -2    1    3    3    0  502  0.48921547178E+03  0.12773989855E+03  0.36029012951E+03  0.62085283034E+03  0.25500000920E-02 0.  1.
</event>
<event>
 5   0  0.1228286E-04  0.1500564E+04  0.7818609E-02  0.8884078E-01
        2   -1    0    0  501    0  0.00000000000E+00  0.00000000000E+00  0.10066313034E+04  0.10066313034E+04  0.25500000920E-02 0.  1.
       -2   -1    0    0    0  501  0.00000000000E+00  0.00000000000E+00 -0.55921492914E+03  0.55921492915E+03  0.25500000920E-02 0. -1.
    10030    2    1    2    0    0  0.00000000000E+00  0.00000000000E+00  0.44741637424E+03  0.15658462325E+04  0.15005642312E+04 0.  0.
        2    1    3    3  502    0 -0.40273465936E+03  0.45225568984E+03  0.68591473816E+03  0.91499149879E+03  0.25500000920E-02 0.  1.
       -2    1    3    3    0  502  0.40273465936E+03 -0.45225568984E+03 -0.23849836392E+03  0.65085473374E+03  0.25500000920E-02 0. -1.
</event>
<event>
 5   0  0.1219810E-04  0.1501692E+04  0.7818609E-02  0.8883329E-01
       -2   -1    0    0    0  501  0.00000000000E+00  0.00000000000E+00  0.15436424957E+04  0.15436424957E+04  0.25500000920E-02 0.  1.
        2   -1    0    0  501    0  0.00000000000E+00  0.00000000000E+00 -0.36522024185E+03  0.36522024186E+03  0.25500000920E-02 0. -1.
    10030    2    1    2    0    0  0.00000000000E+00  0.00000000000E+00  0.11784222539E+04  0.19088627376E+04  0.15016916936E+04 0.  0.
        1    1    3    3  502    0  0.25333503454E+02 -0.74573536649E+03  0.69561154114E+03  0.10201168754E+04  0.50400001928E-02 0. -1.
       -1    1    3    3    0  502 -0.25333503454E+02  0.74573536649E+03  0.48281071273E+03  0.88874586220E+03  0.50400001928E-02 0.  1.
</event>
<event>
 5   0  0.1254487E-04  0.1505634E+04  0.7818609E-02  0.8880715E-01
        2   -1    0    0  501    0  0.00000000000E+00  0.00000000000E+00  0.18500046807E+04  0.18500046807E+04  0.25500000920E-02 0. -1.
       -2   -1    0    0    0  501  0.00000000000E+00  0.00000000000E+00 -0.30634157616E+03  0.30634157617E+03  0.25500000920E-02 0.  1.
    10030    2    1    2    0    0  0.00000000000E+00  0.00000000000E+00  0.15436631045E+04  0.21563462568E+04  0.15056338862E+04 0.  0.
        5    1    3    3  502    0 -0.51379214227E+03  0.52309112016E+03  0.52749989272E+03  0.90326347887E+03  0.46999998093E+01 0.  1.
       -5    1    3    3    0  502  0.51379214227E+03 -0.52309112016E+03  0.10161632118E+04  0.12530827780E+04  0.46999998093E+01 0. -1.
</event>
<event>
 5   0  0.6509279E-05  0.1500966E+04  0.7818609E-02  0.8883811E-01
        1   -1    0    0  501    0  0.00000000000E+00  0.00000000000E+00  0.86224634409E+03  0.86224634410E+03  0.50400001928E-02 0.  1.
       -1   -1    0    0    0  501  0.00000000000E+00  0.00000000000E+00 -0.65320591828E+03  0.65320591830E+03  0.50400001928E-02 0. -1.
    10030    2    1    2    0    0  0.00000000000E+00  0.00000000000E+00  0.20904042580E+03  0.15154522624E+04  0.15009655759E+04 0.  0.
        2    1    3    3  502    0 -0.71893232596E+03 -0.20963892473E+03  0.54931548851E+02  0.75088590554E+03  0.25500000920E-02 0.  1.
       -2    1    3    3    0  502  0.71893232596E+03  0.20963892473E+03  0.15410887695E+03  0.76456635686E+03  0.25500000920E-02 0. -1.
</event>
<event>
 5   0  0.6542036E-05  0.1498837E+04  0.7818609E-02  0.8885226E-01
       -1   -1    0    0    0  501  0.00000000000E+00  0.00000000000E+00  0.10689848099E+04  0.10689848099E+04  0.50400001928E-02 0.  1.
        1   -1    0    0  501    0  0.00000000000E+00  0.00000000000E+00 -0.52538486100E+03  0.52538486102E+03  0.50400001928E-02 0. -1.
    10030    2    1    2    0    0  0.00000000000E+00  0.00000000000E+00  0.54359994891E+03  0.15943696709E+04  0.14988374639E+04 0.  0.
        4    1    3    3  502    0 -0.24076031749E+03 -0.26854653368E+02 -0.48258429705E+03  0.53997770282E+03  0.12699999809E+01 0. -1.
       -4    1    3    3    0  502  0.24076031749E+03  0.26854653368E+02  0.10261842460E+04  0.10543919681E+04  0.12699999809E+01 0.  1.
</event>
<event>
 5   0  0.1216921E-04  0.1500176E+04  0.7818609E-02  0.8884336E-01
       -2   -1    0    0    0  501  0.00000000000E+00  0.00000000000E+00  0.63544617123E+03  0.63544617124E+03  0.25500000920E-02 0.  1.
        2   -1    0    0  501    0  0.00000000000E+00  0.00000000000E+00 -0.88541214742E+03  0.88541214743E+03  0.25500000920E-02 0. -1.
    10030    2    1    2    0    0  0.00000000000E+00  0.00000000000E+00 -0.24996597619E+03  0.15208583187E+04  0.15001756684E+04 0.  0.
        4    1    3    3  502    0 -0.57922024966E+03  0.28005597819E+03  0.26595337091E+03  0.69617544982E+03  0.12699999809E+01 0. -1.
       -4    1    3    3    0  502  0.57922024966E+03 -0.28005597819E+03 -0.51591934711E+03  0.82468286884E+03  0.12699999809E+01 0.  1.
</event>
<event>
 5   0  0.1186664E-04  0.1498217E+04  0.7818609E-02  0.8885639E-01
       -2   -1    0    0    0  501  0.00000000000E+00  0.00000000000E+00  0.92943447863E+03  0.92943447863E+03  0.25500000920E-02 0. -1.
        2   -1    0    0  501    0  0.00000000000E+00  0.00000000000E+00 -0.60376914051E+03  0.60376914051E+03  0.25500000920E-02 0.  1.
    10030    2    1    2    0    0  0.00000000000E+00  0.00000000000E+00  0.32566533812E+03  0.15332036191E+04  0.14982174159E+04 0.  0.
        3    1    3    3  502    0 -0.17907129170E+03  0.53672974870E+03  0.66523330460E+03  0.87331592817E+03  0.10100000352E+00 0. -1.
       -3    1    3    3    0  502  0.17907129170E+03 -0.53672974870E+03 -0.33956796648E+03  0.65988769098E+03  0.10100000352E+00 0.  1.
</event>
<event>
 5   0  0.6668433E-05  0.1499994E+04  0.7818609E-02  0.8884457E-01
       -1   -1    0    0    0  501  0.00000000000E+00  0.00000000000E+00  0.26314329440E+03  0.26314329445E+03  0.50400001928E-02 0.  1.
        1   -1    0    0  501    0  0.00000000000E+00  0.00000000000E+00 -0.21376020574E+04  0.21376020574E+04  0.50400001928E-02 0. -1.
    10030    2    1    2    0    0  0.00000000000E+00  0.00000000000E+00 -0.18744587630E+04  0.24007453518E+04  0.14999941967E+04 0.  0.
        1    1    3    3  502    0  0.50778779712E+02 -0.33563318685E+02  0.25918352572E+03  0.26623501058E+03  0.50400001928E-02 0.  1.
       -1    1    3    3    0  502 -0.50778779712E+02  0.33563318685E+02 -0.21336422887E+04  0.21345103412E+04  0.50400001928E-02 0. -1.
</event>
<event>
 5   0  0.6361716E-05  0.1499488E+04  0.7818609E-02  0.8884794E-01
       -1   -1    0    0    0  501  0.00000000000E+00  0.00000000000E+00  0.27838542763E+03  0.27838542767E+03  0.50400001928E-02 0.  1.
        1   -1    0    0  501    0  0.00000000000E+00  0.00000000000E+00 -0.20191994241E+04  0.20191994241E+04  0.50400001928E-02 0. -1.
    10030    2    1    2    0    0  0.00000000000E+00  0.00000000000E+00 -0.17408139964E+04  0.22975848517E+04  0.14994875060E+04 0.  0.
        3    1    3    3  502    0  0.21465464574E+03 -0.34749482277E+03  0.92944224348E+02  0.41888889676E+03  0.10100000352E+00 0.  1.
       -3    1    3    3    0  502 -0.21465464574E+03  0.34749482277E+03 -0.18337582208E+04  0.18786959550E+04  0.10100000352E+00 0. -1.
</event>
<event>
 5   0  0.6509279E-05  0.1497856E+04  0.7818609E-02  0.8885880E-01
        1   -1    0    0  501    0  0.00000000000E+00  0.00000000000E+00  0.18670376842E+04  0.18670376842E+04  0.50400001928E-02 0. -1.
       -1   -1    0    0    0  501  0.00000000000E+00  0.00000000000E+00 -0.30041873170E+03  0.30041873174E+03  0.50400001928E-02 0.  1.
    10030    2    1    2    0    0  0.00000000000E+00  0.00000000000E+00  0.15666189525E+04  0.21674564160E+04  0.14978559252E+04 0.  0.
        2    1    3    3  502    0  0.13056669111E+03  0.31269465991E+03 -0.18314324635E+03  0.38518444913E+03  0.25500000920E-02 0.  1.
       -2    1    3    3    0  502 -0.13056669111E+03 -0.31269465991E+03  0.17497621989E+04  0.17822719668E+04  0.25500000920E-02 0. -1.
</event>
<event>
 5   0  0.6509279E-05  0.1500109E+04  0.7818609E-02  0.8884381E-01
        1   -1    0    0  501    0  0.00000000000E+00  0.00000000000E+00  0.10758048608E+04  0.10758048608E+04  0.50400001928E-02 0.  1.
       -1   -1    0    0    0  501  0.00000000000E+00  0.00000000000E+00 -0.52294002089E+03  0.52294002091E+03  0.50400001928E-02 0. -1.
    10030    2    1    2    0    0  0.00000000000E+00  0.00000000000E+00  0.55286483987E+03  0.15987448817E+04  0.15001085513E+04 0.  0.
        2    1    3    3  502    0  0.13059981016E+03 -0.73739731435E+03  0.23159085687E+03  0.78386569935E+03  0.25500000920E-02 0.  1.
       -2    1    3    3    0  502 -0.13059981016E+03  0.73739731435E+03  0.32127398299E+03  0.81487918232E+03  0.25500000920E-02 0. -1.
</event>
<event>
 5   0  0.1254487E-04  0.1496344E+04  0.7818609E-02  0.8886888E-01
        2   -1    0    0  501    0  0.00000000000E+00  0.00000000000E+00  0.19969361540E+04  0.19969361540E+04  0.25500000920E-02 0.  1.
       -2   -1    0    0    0  501  0.00000000000E+00  0.00000000000E+00 -0.28031017528E+03  0.28031017529E+03  0.25500000920E-02 0. -1.
    10030    2    1    2    0    0  0.00000000000E+00  0.00000000000E+00  0.17166259787E+04  0.22772463293E+04  0.14963442430E+04 0.  0.
        5    1    3    3  502    0  0.27743878183E+03 -0.15260486636E+03 -0.17328689533E+03  0.36098609529E+03  0.46999998093E+01 0. -1.
       -5    1    3    3    0  502 -0.27743878183E+03  0.15260486636E+03  0.18899128741E+04  0.19162602340E+04  0.46999998093E+01 0.  1.
</event>
<event>
 5   0  0.6364378E-05  0.1504150E+04  0.7818609E-02  0.8881698E-01
       -1   -1    0    0    0  501  0.00000000000E+00  0.00000000000E+00  0.72572604520E+03  0.72572604522E+03  0.50400001928E-02 0. -1.
        1   -1    0    0  501    0  0.00000000000E+00  0.00000000000E+00 -0.77938030038E+03  0.77938030040E+03  0.50400001928E-02 0.  1.
    10030    2    1    2    0    0  0.00000000000E+00  0.00000000000E+00 -0.53654255182E+02  0.15051063456E+04  0.15041497042E+04 0.  0.
        5    1    3    3  502    0  0.62449454912E+03  0.40322003381E+03  0.87327221997E+02  0.74848378155E+03  0.46999998093E+01 0. -1.
       -5    1    3    3    0  502 -0.62449454912E+03 -0.40322003381E+03 -0.14098147718E+03  0.75662256406E+03  0.46999998093E+01 0.  1.
</event>
<event>
 5   0  0.6361716E-05  0.1495607E+04  0.7818609E-02  0.8887380E-01
       -1   -1    0    0    0  501  0.00000000000E+00  0.00000000000E+00  0.12150833638E+04  0.12150833638E+04  0.50400001928E-02 0. -1.
        1   -1    0    0  501    0  0.00000000000E+00  0.00000000000E+00 -0.46022358238E+03  0.46022358241E+03  0.50400001928E-02 0.  1.
    10030    2    1    2    0    0  0.00000000000E+00  0.00000000000E+00  0.75485978144E+03  0.16753069462E+04  0.14956069251E+04 0.  0.
        3    1    3    3  502    0 -0.11736904467E+03 -0.43630778612E+03 -0.29004346036E+03  0.53690333951E+03  0.10100000352E+00 0.  1.
       -3    1    3    3    0  502  0.11736904467E+03  0.43630778612E+03  0.10449032418E+04  0.11384036067E+04  0.10100000352E+00 0. -1.
</event>
<event>
 5   0  0.6364378E-05  0.1497630E+04  0.7818609E-02  0.8886030E-01
        1   -1    0    0  501    0  0.00000000000E+00  0.00000000000E+00  0.72681971868E+03  0.72681971870E+03  0.50400001928E-02 0. -1.
       -1   -1    0    0    0  501  0.00000000000E+00  0.00000000000E+00 -0.77147637938E+03  0.77147637940E+03  0.50400001928E-02 0.  1.
    10030    2    1    2    0    0  0.00000000000E+00  0.00000000000E+00 -0.44656660700E+02  0.14982960981E+04  0.14976304552E+04 0.  0.
        5    1    3    3  502    0 -0.12020418344E+03 -0.32148794373E+03 -0.68813040598E+03  0.76899225569E+03  0.46999998093E+01 0.  1.
       -5    1    3    3    0  502  0.12020418344E+03  0.32148794373E+03  0.64347374528E+03  0.72930384240E+03  0.46999998093E+01 0. -1.
</event>
<event>
 5   0  0.6668433E-05  0.1492559E+04  0.7818609E-02  0.8889416E-01
       -1   -1    0    0    0  501  0.00000000000E+00  0.00000000000E+00  0.70267121432E+03  0.70267121434E+03  0.50400001928E-02 0.  1.
        1   -1    0    0  501    0  0.00000000000E+00  0.00000000000E+00 -0.79259447509E+03  0.79259447511E+03  0.50400001928E-02 0. -1.
    10030    2    1    2    0    0  0.00000000000E+00  0.00000000000E+00 -0.89923260776E+02  0.14952656894E+04  0.14925593084E+04 0.  0.
        1    1    3    3  502    0  0.60590677270E+03  0.37019796122E+02 -0.47984533423E+03  0.77378616382E+03  0.50400001928E-02 0. -1.
       -1    1    3    3    0  502 -0.60590677270E+03 -0.37019796122E+02  0.38992207345E+03  0.72147952563E+03  0.50400001928E-02 0.  1.
</event>
<event>
 5   0  0.1228286E-04  0.1501929E+04  0.7818609E-02  0.8883171E-01
       -2   -1    0    0    0  501  0.00000000000E+00  0.00000000000E+00  0.82774011424E+03  0.82774011424E+03  0.25500000920E-02 0.  1.
        2   -1    0    0  501    0  0.00000000000E+00  0.00000000000E+00 -0.68131004590E+03  0.68131004591E+03  0.25500000920E-02 0. -1.
    10030    2    1    2    0    0  0.00000000000E+00  0.00000000000E+00  0.14643006834E+03  0.15090501601E+04  0.15019289667E+04 0.  0.
        2    1    3    3  502    0  0.15209080223E+03  0.51422845689E+03  0.60143112268E+03  0.80578031332E+03  0.25500000920E-02 0.  1.
       -2    1    3    3    0  502 -0.15209080223E+03 -0.51422845689E+03 -0.45500105434E+03  0.70326984683E+03  0.25500000920E-02 0. -1.
</event>
<event>
 5   0  0.1219810E-04  0.1491131E+04  0.7818609E-02  0.8890372E-01
        2   -1    0    0  501    0  0.00000000000E+00  0.00000000000E+00  0.20169268430E+04  0.20169268430E+04  0.25500000920E-02 0.  1.
       -2   -1    0    0    0  501  0.00000000000E+00  0.00000000000E+00 -0.27560134383E+03  0.27560134384E+03  0.25500000920E-02 0. -1.
    10030    2    1    2    0    0  0.00000000000E+00  0.00000000000E+00  0.17413254992E+04  0.22925281869E+04  0.14911307768E+04 0.  0.
        1    1    3    3  502    0 -0.74228324981E+03  0.13210930176E+02  0.97616310459E+03  0.12263985316E+04  0.50400001928E-02 0.  1.
       -1    1    3    3    0  502  0.74228324981E+03 -0.13210930176E+02  0.76516239463E+03  0.10661296552E+04  0.50400001928E-02 0. -1.
</event>
<event>
 5   0  0.4462875E-05  0.1499953E+04  0.7818609E-02  0.8884484E-01
       -3   -1    0    0    0  501  0.00000000000E+00  0.00000000000E+00  0.57938963030E+03  0.57938963910E+03  0.10100000352E+00 0.  1.
        3   -1    0    0  501    0  0.00000000000E+00  0.00000000000E+00 -0.97078893871E+03  0.97078894397E+03  0.10100000352E+00 0. -1.
    10030    2    1    2    0    0  0.00000000000E+00  0.00000000000E+00 -0.39139930841E+03  0.15501785831E+04  0.14999534062E+04 0.  0.
        2    1    3    3  502    0  0.57847659759E+03  0.24019114813E+03 -0.62198926160E+03  0.88272170198E+03  0.25500000920E-02 0. -1.
       -2    1    3    3    0  502 -0.57847659759E+03 -0.24019114813E+03  0.23058995318E+03  0.66745688109E+03  0.25500000920E-02 0.  1.
</event>
<event>
 5   0  0.6509279E-05  0.1500515E+04  0.7818609E-02  0.8884111E-01
        1   -1    0    0  501    0  0.00000000000E+00  0.00000000000E+00  0.12586132245E+04  0.12586132246E+04  0.50400001928E-02 0. -1.
       -1   -1    0    0    0  501  0.00000000000E+00  0.00000000000E+00 -0.44722723900E+03  0.44722723903E+03  0.50400001928E-02 0.  1.
    10030    2    1    2    0    0  0.00000000000E+00  0.00000000000E+00  0.81138598554E+03  0.17058404636E+04  0.15005147349E+04 0.  0.
        2    1    3    3  502    0  0.18043517460E+03  0.24105125032E+03  0.11869105099E+04  0.12245077035E+04  0.25500000920E-02 0. -1.
       -2    1    3    3    0  502 -0.18043517460E+03 -0.24105125032E+03 -0.37552452435E+03  0.48133276006E+03  0.25500000920E-02 0.  1.
</event>
<event>
 5   0  0.6361716E-05  0.1498256E+04  0.7818609E-02  0.8885613E-01
        1   -1    0    0  501    0  0.00000000000E+00  0.00000000000E+00  0.97808051028E+03  0.97808051030E+03  0.50400001928E-02 0.  1.
       -1   -1    0    0    0  501  0.00000000000E+00  0.00000000000E+00 -0.57376986182E+03  0.57376986184E+03  0.50400001928E-02 0. -1.
    10030    2    1    2    0    0  0.00000000000E+00  0.00000000000E+00  0.40431064846E+03  0.15518503721E+04  0.14982564791E+04 0.  0.
        3    1    3    3  502    0  0.14549549537E+03 -0.49102653171E+03  0.76844555727E+03  0.92346336079E+03  0.10100000352E+00 0.  1.
       -3    1    3    3    0  502 -0.14549549537E+03  0.49102653171E+03 -0.36413490881E+03  0.62838701135E+03  0.10100000352E+00 0. -1.
</event>
<event>
 5   0  0.1228286E-04  0.1500380E+04  0.7818609E-02  0.8884200E-01
       -2   -1    0    0    0  501  0.00000000000E+00  0.00000000000E+00  0.26924456138E+03  0.26924456139E+03  0.25500000920E-02 0.  1.
        2   -1    0    0  501    0  0.00000000000E+00  0.00000000000E+00 -0.20902365556E+04  0.20902365556E+04  0.25500000920E-02 0. -1.
    10030    2    1    2    0    0  0.00000000000E+00  0.00000000000E+00 -0.18209919942E+04  0.23594811170E+04  0.15003797181E+04 0.  0.
        2    1    3    3  502    0 -0.28280088639E+03  0.19639631333E+03 -0.19586441445E+04  0.19886766298E+04  0.25500000920E-02 0. -1.
       -2    1    3    3    0  502  0.28280088639E+03 -0.19639631333E+03  0.13765215027E+03  0.37080448718E+03  0.25500000920E-02 0.  1.
</event>
<event>
 5   0  0.1186664E-04  0.1500842E+04  0.7818609E-02  0.8883893E-01
       -2   -1    0    0    0  501  0.00000000000E+00  0.00000000000E+00  0.82774352174E+03  0.82774352174E+03  0.25500000920E-02 0.  1.
        2   -1    0    0  501    0  0.00000000000E+00  0.00000000000E+00 -0.68032133549E+03  0.68032133549E+03  0.25500000920E-02 0. -1.
    10030    2    1    2    0    0  0.00000000000E+00  0.00000000000E+00  0.14742218625E+03  0.15080648572E+04  0.15008418680E+04 0.  0.
        3    1    3    3  502    0 -0.59688612870E+03  0.12117576236E+03  0.51419847657E+03  0.79709265429E+03  0.10100000352E+00 0.  1.
       -3    1    3    3    0  502  0.59688612870E+03 -0.12117576236E+03 -0.36677629032E+03  0.71097220294E+03  0.10100000352E+00 0. -1.
</event>
<event>
 5   0  0.6668433E-05  0.1504196E+04  0.7818609E-02  0.8881668E-01
       -1   -1    0    0    0  501  0.00000000000E+00  0.00000000000E+00  0.68707672726E+03  0.68707672727E+03  0.50400001928E-02 0.  1.
        1   -1    0    0  501    0  0.00000000000E+00  0.00000000000E+00 -0.82327239254E+03  0.82327239255E+03  0.50400001928E-02 0. -1.
    10030    2    1    2    0    0  0.00000000000E+00  0.00000000000E+00 -0.13619566528E+03  0.15103491198E+04  0.15041958664E+04 0.  0.
        1    1    3    3  502    0 -0.70456960031E+03  0.12213962004E+03  0.16591109083E+03  0.73407281556E+03  0.50400001928E-02 0.  1.
       -1    1    3    3    0  502  0.70456960031E+03 -0.12213962004E+03 -0.30210675611E+03  0.77627630427E+03  0.50400001928E-02 0. -1.
</event>
<event>
 5   0  0.1228286E-04  0.1500310E+04  0.7818609E-02  0.8884247E-01
        2   -1    0    0  501    0  0.00000000000E+00  0.00000000000E+00  0.10039205872E+04  0.10039205872E+04  0.25500000920E-02 0.  1.
       -2   -1    0    0    0  501  0.00000000000E+00  0.00000000000E+00 -0.56053511693E+03  0.56053511693E+03  0.25500000920E-02 0. -1.
    10030    2    1    2    0    0  0.00000000000E+00  0.00000000000E+00  0.44338547031E+03  0.15644557042E+04  0.15003102929E+04 0.  0.
        2    1    3    3  502    0 -0.57174640866E+02  0.69517337211E+03 -0.66148733064E+02  0.70065013505E+03  0.25500000920E-02 0. -1.
       -2    1    3    3    0  502  0.57174640866E+02 -0.69517337211E+03  0.50953420338E+03  0.86380556913E+03  0.25500000920E-02 0.  1.
</event>
<event>
 5   0  0.6542036E-05  0.1494470E+04  0.7818609E-02  0.8888139E-01
        1   -1    0    0  501    0  0.00000000000E+00  0.00000000000E+00  0.12345058676E+04  0.12345058676E+04  0.50400001928E-02 0.  1.
       -1   -1    0    0    0  501  0.00000000000E+00  0.00000000000E+00 -0.45229453968E+03  0.45229453971E+03  0.50400001928E-02 0. -1.
    10030    2    1    2    0    0  0.00000000000E+00  0.00000000000E+00  0.78221132788E+03  0.16868004073E+04  0.14944701578E+04 0.  0.
        4    1    3    3  502    0  0.66567227256E+03  0.32417786885E+03  0.27740524073E+03  0.79067448776E+03  0.12699999809E+01 0. -1.
       -4    1    3    3    0  502 -0.66567227256E+03 -0.32417786885E+03  0.50480608715E+03  0.89612591952E+03  0.12699999809E+01 0.  1.
</event>
<event>
 5   0  0.6361716E-05  0.1498500E+04  0.7818609E-02  0.8885451E-01
       -1   -1    0    0    0  501  0.00000000000E+00  0.00000000000E+00  0.57484849264E+03  0.57484849267E+03  0.50400001928E-02 0.  1.
        1   -1    0    0  501    0  0.00000000000E+00  0.00000000000E+00 -0.97656215599E+03  0.97656215600E+03  0.50400001928E-02 0. -1.
    10030    2    1    2    0    0  0.00000000000E+00  0.00000000000E+00 -0.40171366334E+03  0.15514106487E+04  0.14984996275E+04 0.  0.
        3    1    3    3  502    0 -0.40920632558E+03  0.37887214286E+02 -0.84946801912E+03  0.94365310555E+03  0.10100000352E+00 0. -1.
       -3    1    3    3    0  502  0.40920632558E+03 -0.37887214286E+02  0.44775435577E+03  0.60775754312E+03  0.10100000352E+00 0.  1.
</event>
<event>
 5   0  0.1254487E-04  0.1501355E+04  0.7818609E-02  0.8883553E-01
        2   -1    0    0  501    0  0.00000000000E+00  0.00000000000E+00  0.13325722062E+04  0.13325722062E+04  0.25500000920E-02 0.  1.
       -2   -1    0    0    0  501  0.00000000000E+00  0.00000000000E+00 -0.42287867208E+03  0.42287867209E+03  0.25500000920E-02 0. -1.
    10030    2    1    2    0    0  0.00000000000E+00  0.00000000000E+00  0.90969353412E+03  0.17554508783E+04  0.15013545418E+04 0.  0.
        5    1    3    3  502    0  0.28431451082E+03 -0.62736860371E+03  0.10589397176E+03  0.69689434582E+03  0.46999998093E+01 0. -1.
       -5    1    3    3    0  502 -0.28431451082E+03  0.62736860371E+03  0.80379956236E+03  0.10585565325E+04  0.46999998093E+01 0.  1.
</event>
<event>
 5   0  0.1228286E-04  0.1500245E+04  0.7818609E-02  0.8884290E-01
        2   -1    0    0  501    0  0.00000000000E+00  0.00000000000E+00  0.56306377278E+03  0.56306377278E+03  0.25500000920E-02 0. -1.
       -2   -1    0    0    0  501  0.00000000000E+00  0.00000000000E+00 -0.99932487917E+03  0.99932487917E+03  0.25500000920E-02 0.  1.
    10030    2    1    2    0    0  0.00000000000E+00  0.00000000000E+00 -0.43626110640E+03  0.15623886520E+04  0.15002448290E+04 0.  0.
        2    1    3    3  502    0  0.23740606170E+03  0.69426950685E+03 -0.55749279015E+02  0.73585308886E+03  0.25500000920E-02 0. -1.
       -2    1    3    3    0  502 -0.23740606170E+03 -0.69426950685E+03 -0.38051182738E+03  0.82653556309E+03  0.25500000920E-02 0.  1.
</event>
<event>
 5   0  0.4462875E-05  0.1501373E+04  0.7818609E-02  0.8883540E-01
       -3   -1    0    0    0  501  0.00000000000E+00  0.00000000000E+00  0.15011743785E+04  0.15011743819E+04  0.10100000352E+00 0. -1.
        3   -1    0    0  501    0  0.00000000000E+00  0.00000000000E+00 -0.37539312637E+03  0.37539313995E+03  0.10100000352E+00 0.  1.
    10030    2    1    2    0    0  0.00000000000E+00  0.00000000000E+00  0.11257812522E+04  0.18765675219E+04  0.15013734500E+04 0.  0.
        3    1    3    3  502    0  0.21518261799E+03  0.48141721289E+03  0.12306984227E+04  0.13389117632E+04  0.10100000352E+00 0. -1.
       -3    1    3    3    0  502 -0.21518261799E+03 -0.48141721289E+03 -0.10491717050E+03  0.53765575866E+03  0.10100000352E+00 0.  1.
</event>
<event>
 5   0  0.4462875E-05  0.1499227E+04  0.7818609E-02  0.8884967E-01
        3   -1    0    0  501    0  0.00000000000E+00  0.00000000000E+00  0.87720349309E+03  0.87720349890E+03  0.10100000352E+00 0.  1.
       -3   -1    0    0    0  501  0.00000000000E+00  0.00000000000E+00 -0.64058163041E+03  0.64058163838E+03  0.10100000352E+00 0. -1.
    10030    2    1    2    0    0  0.00000000000E+00  0.00000000000E+00  0.23662186267E+03  0.15177851373E+04  0.14992270732E+04 0.  0.
        2    1    3    3  502    0 -0.38009102942E+03  0.23995323769E+02  0.77196212625E+03  0.86079642807E+03  0.25500000920E-02 0.  1.
       -2    1    3    3    0  502  0.38009102942E+03 -0.23995323769E+02 -0.53534026358E+03  0.65698870921E+03  0.25500000920E-02 0. -1.
</event>
<event>
 5   0  0.6509279E-05  0.1508105E+04  0.7818609E-02  0.8879081E-01
       -1   -1    0    0    0  501  0.00000000000E+00  0.00000000000E+00  0.92359433355E+03  0.92359433356E+03  0.50400001928E-02 0.  1.
        1   -1    0    0  501    0  0.00000000000E+00  0.00000000000E+00 -0.61563340739E+03  0.61563340741E+03  0.50400001928E-02 0. -1.
    10030    2    1    2    0    0  0.00000000000E+00  0.00000000000E+00  0.30796092616E+03  0.15392277410E+04  0.15081054693E+04 0.  0.
        2    1    3    3  502    0 -0.51729463573E+03 -0.18168833877E+03  0.68234222552E+03  0.87532582810E+03  0.25500000920E-02 0.  1.
       -2    1    3    3    0  502  0.51729463573E+03  0.18168833877E+03 -0.37438129936E+03  0.66390191287E+03  0.25500000920E-02 0. -1.
</event>
<event>
 5   0  0.6668433E-05  0.1505524E+04  0.7818609E-02  0.8880788E-01
        1   -1    0    0  501    0  0.00000000000E+00  0.00000000000E+00  0.84455644994E+03  0.84455644996E+03  0.50400001928E-02 0. -1.
       -1   -1    0    0    0  501  0.00000000000E+00  0.00000000000E+00 -0.67094482913E+03  0.67094482915E+03  0.50400001928E-02 0.  1.
    10030    2    1    2    0    0  0.00000000000E+00  0.00000000000E+00  0.17361162081E+03  0.15155012791E+04  0.15055242051E+04 0.  0.
        1    1    3    3  502    0 -0.56667943193E+03  0.33685448279E+03 -0.27899509490E+03  0.71584550299E+03  0.50400001928E-02 0.  1.
       -1    1    3    3    0  502  0.56667943193E+03 -0.33685448279E+03  0.45260671571E+03  0.79965577612E+03  0.50400001928E-02 0. -1.
</event>
<event>
 5   0  0.1228286E-04  0.1509232E+04  0.7818609E-02  0.8878337E-01
        2   -1    0    0  501    0  0.00000000000E+00  0.00000000000E+00  0.30746237947E+04  0.30746237947E+04  0.25500000920E-02 0. -1.
       -2   -1    0    0    0  501  0.00000000000E+00  0.00000000000E+00 -0.18520816907E+03  0.18520816909E+03  0.25500000920E-02 0.  1.
    10030    2    1    2    0    0  0.00000000000E+00  0.00000000000E+00  0.28894156256E+04  0.32598319638E+04  0.15092321805E+04 0.  0.
        2    1    3    3  502    0 -0.35603732788E+03  0.34617156361E+03  0.26719726278E+04  0.27177260815E+04  0.25500000920E-02 0. -1.
       -2    1    3    3    0  502  0.35603732788E+03 -0.34617156361E+03  0.21744299780E+03  0.54210588227E+03  0.25500000920E-02 0.  1.
</event>
<event>
 5   0  0.6668433E-05  0.1530960E+04  0.7818609E-02  0.8864122E-01
       -1   -1    0    0    0  501  0.00000000000E+00  0.00000000000E+00  0.10365097406E+04  0.10365097406E+04  0.50400001928E-02 0.  1.
        1   -1    0    0  501    0  0.00000000000E+00  0.00000000000E+00 -0.56532019724E+03  0.56532019726E+03  0.50400001928E-02 0. -1.
    10030    2    1    2    0    0  0.00000000000E+00  0.00000000000E+00  0.47118954336E+03  0.16018299379E+04  0.15309603405E+04 0.  0.
        1    1    3    3  502    0  0.46130611068E+03 -0.33498100342E+03  0.77006850335E+03  0.95813417655E+03  0.50400001928E-02 0.  1.
       -1    1    3    3    0  502 -0.46130611068E+03  0.33498100342E+03 -0.29887895999E+03  0.64369576133E+03  0.50400001928E-02 0. -1.
</event>
<event>
 5   0  0.4462875E-05  0.1498716E+04  0.7818609E-02  0.8885307E-01
        4   -1    0    0  501    0  0.00000000000E+00  0.00000000000E+00  0.36783638728E+03  0.36783857968E+03  0.12699999809E+01 0. -1.
       -4   -1    0    0    0  501  0.00000000000E+00  0.00000000000E+00 -0.15265889649E+04  0.15265894932E+04  0.12699999809E+01 0.  1.
    10030    2    1    2    0    0  0.00000000000E+00  0.00000000000E+00 -0.11587525777E+04  0.18944280729E+04  0.14987161796E+04 0.  0.
        4    1    3    3  502    0 -0.24033458065E+03  0.65715916993E+03 -0.24039583798E+03  0.73987205455E+03  0.12699999809E+01 0. -1.
       -4    1    3    3    0  502  0.24033458065E+03 -0.65715916993E+03 -0.91835673969E+03  0.11545560184E+04  0.12699999809E+01 0.  1.
</event>
<event>
 5   0  0.6361716E-05  0.1498890E+04  0.7818609E-02  0.8885191E-01
        1   -1    0    0  501    0  0.00000000000E+00  0.00000000000E+00  0.18587312396E+04  0.18587312396E+04  0.50400001928E-02 0.  1.
       -1   -1    0    0    0  501  0.00000000000E+00  0.00000000000E+00 -0.30217806334E+03  0.30217806338E+03  0.50400001928E-02 0. -1.
    10030    2    1    2    0    0  0.00000000000E+00  0.00000000000E+00  0.15565531763E+04  0.21609093030E+04  0.14988899977E+04 0.  0.
        3    1    3    3  502    0  0.19135610986E+03  0.71640199243E+03  0.93500720656E+03  0.11933513573E+04  0.10100000352E+00 0.  1.
       -3    1    3    3    0  502 -0.19135610986E+03 -0.71640199243E+03  0.62154596972E+03  0.96755794566E+03  0.10100000352E+00 0. -1.
</event>
<event>
 5   0  0.4462875E-05  0.1502111E+04  0.7818609E-02  0.8883050E-01
       -3   -1    0    0    0  501  0.00000000000E+00  0.00000000000E+00  0.56698158025E+03  0.56698158924E+03  0.10100000352E+00 0. -1.
        3   -1    0    0  501    0  0.00000000000E+00  0.00000000000E+00 -0.99488984902E+03  0.99488985415E+03  0.10100000352E+00 0.  1.
    10030    2    1    2    0    0  0.00000000000E+00  0.00000000000E+00 -0.42790826877E+03  0.15618714434E+04  0.15021108212E+04 0.  0.
        1    1    3    3  502    0  0.61406393790E+03 -0.31246260563E+03 -0.52480764997E+03  0.86610072696E+03  0.50400001928E-02 0. -1.
       -1    1    3    3    0  502 -0.61406393790E+03  0.31246260563E+03  0.96899381190E+02  0.69577071644E+03  0.50400001928E-02 0.  1.
</event>
<event>
 5   0  0.6364378E-05  0.1499640E+04  0.7818609E-02  0.8884692E-01
        1   -1    0    0  501    0  0.00000000000E+00  0.00000000000E+00  0.16213489986E+04  0.16213489986E+04  0.50400001928E-02 0.  1.
       -1   -1    0    0    0  501  0.00000000000E+00  0.00000000000E+00 -0.34676695253E+03  0.34676695256E+03  0.50400001928E-02 0. -1.
    10030    2    1    2    0    0  0.00000000000E+00  0.00000000000E+00  0.12745820461E+04  0.19681159512E+04  0.14996402919E+04 0.  0.
        5    1    3    3  502    0  0.53338503708E+03  0.10942332534E+03  0.13138225527E+04  0.14221901602E+04  0.46999998093E+01 0.  1.
       -5    1    3    3    0  502 -0.53338503708E+03 -0.10942332534E+03 -0.39240506565E+02  0.54592579098E+03  0.46999998093E+01 0. -1.
</event>
<event>
 5   0  0.1228286E-04  0.1498531E+04  0.7818609E-02  0.8885431E-01
       -2   -1    0    0    0  501  0.00000000000E+00  0.00000000000E+00  0.36532727934E+03  0.36532727934E+03  0.25500000920E-02 0. -1.
        2   -1    0    0  501    0  0.00000000000E+00  0.00000000000E+00 -0.15367003028E+04  0.15367003028E+04  0.25500000920E-02 0.  1.
    10030    2    1    2    0    0  0.00000000000E+00  0.00000000000E+00 -0.11713730235E+04  0.19020275821E+04  0.14985306681E+04 0.  0.
        2    1    3    3  502    0 -0.64173254499E+03 -0.82142174241E+02 -0.10653776786E+04  0.12464339510E+04  0.25500000920E-02 0.  1.
       -2    1    3    3    0  502  0.64173254499E+03  0.82142174241E+02 -0.10599534487E+03  0.65559363117E+03  0.25500000920E-02 0. -1.
</event>
<event>
 5   0  0.4462875E-05  0.1498170E+04  0.7818609E-02  0.8885671E-01
        3   -1    0    0  501    0  0.00000000000E+00  0.00000000000E+00  0.16815779401E+04  0.16815779432E+04  0.10100000352E+00 0.  1.
       -3   -1    0    0    0  501  0.00000000000E+00  0.00000000000E+00 -0.33369142874E+03  0.33369144402E+03  0.10100000352E+00 0. -1.
    10030    2    1    2    0    0  0.00000000000E+00  0.00000000000E+00  0.13478865114E+04  0.20152693872E+04  0.14981697685E+04 0.  0.
        1    1    3    3  502    0  0.45850406248E+03 -0.50067868327E+03  0.10997924937E+04  0.12924583740E+04  0.50400001928E-02 0.  1.
       -1    1    3    3    0  502 -0.45850406248E+03  0.50067868327E+03  0.24809401768E+03  0.72281101322E+03  0.50400001928E-02 0. -1.
</event>
<event>
 5   0  0.6668433E-05  0.1471586E+04  0.7818609E-02  0.8903571E-01
        1   -1    0    0  501    0  0.00000000000E+00  0.00000000000E+00  0.72180363834E+03  0.72180363836E+03  0.50400001928E-02 0. -1.
       -1   -1    0    0    0  501  0.00000000000E+00  0.00000000000E+00 -0.75005301915E+03  0.75005301917E+03  0.50400001928E-02 0.  1.
    10030    2    1    2    0    0  0.00000000000E+00  0.00000000000E+00 -0.28249380813E+02  0.14718566575E+04  0.14715855370E+04 0.  0.
        1    1    3    3  502    0 -0.15930031998E+03 -0.53497487072E+03 -0.49360459932E+03  0.74513099838E+03  0.50400001928E-02 0.  1.
       -1    1    3    3    0  502  0.15930031998E+03  0.53497487072E+03  0.46535521851E+03  0.72672565915E+03  0.50400001928E-02 0. -1.
</event>
<event>
 5   0  0.1228286E-04  0.1497986E+04  0.7818609E-02  0.8885794E-01
       -2   -1    0    0    0  501  0.00000000000E+00  0.00000000000E+00  0.47072627472E+03  0.47072627473E+03  0.25500000920E-02 0.  1.
        2   -1    0    0  501    0  0.00000000000E+00  0.00000000000E+00 -0.11917547960E+04  0.11917547960E+04  0.25500000920E-02 0. -1.
    10030    2    1    2    0    0  0.00000000000E+00  0.00000000000E+00 -0.72102852132E+03  0.16624810708E+04  0.14979857083E+04 0.  0.
        2    1    3    3  502    0 -0.40099811964E+03  0.12230534891E+03 -0.10493415313E+04  0.11299892653E+04  0.25500000920E-02 0. -1.
       -2    1    3    3    0  502  0.40099811964E+03 -0.12230534891E+03  0.32831301002E+03  0.53249180546E+03  0.25500000920E-02 0.  1.
</event>
<event>
 5   0  0.6509279E-05  0.1501131E+04  0.7818609E-02  0.8883701E-01
        1   -1    0    0  501    0  0.00000000000E+00  0.00000000000E+00  0.53676319447E+03  0.53676319449E+03  0.50400001928E-02 0. -1.
       -1   -1    0    0    0  501  0.00000000000E+00  0.00000000000E+00 -0.10495284421E+04  0.10495284422E+04  0.50400001928E-02 0.  1.
    10030    2    1    2    0    0  0.00000000000E+00  0.00000000000E+00 -0.51276524767E+03  0.15862916367E+04  0.15011305597E+04 0.  0.
        2    1    3    3  502    0 -0.97887284552E+02 -0.22896848019E+03  0.49183966273E+03  0.55128462634E+03  0.25500000920E-02 0. -1.
       -2    1    3    3    0  502  0.97887284552E+02  0.22896848019E+03 -0.10046049104E+04  0.10350070103E+04  0.25500000920E-02 0.  1.
</event>
<event>
 5   0  0.6509279E-05  0.1500758E+04  0.7818609E-02  0.8883949E-01
        1   -1    0    0  501    0  0.00000000000E+00  0.00000000000E+00  0.13173082274E+04  0.13173082274E+04  0.50400001928E-02 0. -1.
       -1   -1    0    0    0  501  0.00000000000E+00  0.00000000000E+00 -0.42743865771E+03  0.42743865773E+03  0.50400001928E-02 0.  1.
    10030    2    1    2    0    0  0.00000000000E+00  0.00000000000E+00  0.88986956968E+03  0.17447468851E+04  0.15007577560E+04 0.  0.
        2    1    3    3  502    0 -0.40499042526E+03  0.53493455422E+03  0.83556116725E+03  0.10716037915E+04  0.25500000920E-02 0. -1.
       -2    1    3    3    0  502  0.40499042526E+03 -0.53493455422E+03  0.54308402431E+02  0.67314309358E+03  0.25500000920E-02 0.  1.
</event>
<event>
 5   0  0.6542036E-05  0.1499244E+04  0.7818609E-02  0.8884956E-01
        1   -1    0    0  501    0  0.00000000000E+00  0.00000000000E+00  0.45223472427E+03  0.45223472430E+03  0.50400001928E-02 0. -1.
       -1   -1    0    0    0  501  0.00000000000E+00  0.00000000000E+00 -0.12425697613E+04  0.12425697613E+04  0.50400001928E-02 0.  1.
    10030    2    1    2    0    0  0.00000000000E+00  0.00000000000E+00 -0.79033503706E+03  0.16948044856E+04  0.14992440674E+04 0.  0.
        4    1    3    3  502    0  0.10396372821E+03 -0.74218565929E+03 -0.37613141330E+03  0.83852517112E+03  0.12699999809E+01 0.  1.
       -4    1    3    3    0  502 -0.10396372821E+03  0.74218565929E+03 -0.41420362376E+03  0.85627931452E+03  0.12699999809E+01 0. -1.
</event>
<event>
 5   0  0.6542036E-05  0.1500604E+04  0.7818609E-02  0.8884051E-01
       -1   -1    0    0    0  501  0.00000000000E+00  0.00000000000E+00  0.97193430544E+03  0.97193430545E+03  0.50400001928E-02 0. -1.
        1   -1    0    0  501    0  0.00000000000E+00  0.00000000000E+00 -0.57920891475E+03  0.57920891477E+03  0.50400001928E-02 0.  1.
    10030    2    1    2    0    0  0.00000000000E+00  0.00000000000E+00  0.39272539069E+03  0.15511432202E+04  0.15006038975E+04 0.  0.
        4    1    3    3  502    0  0.37891787787E+03  0.43018040834E+03 -0.30400372203E+03  0.64888659857E+03  0.12699999809E+01 0.  1.
       -4    1    3    3    0  502 -0.37891787787E+03 -0.43018040834E+03  0.69672911272E+03  0.90225662165E+03  0.12699999809E+01 0. -1.
</event>
<event>
 5   0  0.6364378E-05  0.1499625E+04  0.7818609E-02  0.8884702E-01
        1   -1    0    0  501    0  0.00000000000E+00  0.00000000000E+00  0.20560274383E+04  0.20560274383E+04  0.50400001928E-02 0.  1.
       -1   -1    0    0    0  501  0.00000000000E+00  0.00000000000E+00 -0.27344919873E+03  0.27344919877E+03  0.50400001928E-02 0. -1.
    10030    2    1    2    0    0  0.00000000000E+00  0.00000000000E+00  0.17825782395E+04  0.23294766370E+04  0.14996253607E+04 0.  0.
        5    1    3    3  502    0 -0.47977224501E+03  0.36781388222E+03  0.20230497093E+03  0.63750909820E+03  0.46999998093E+01 0. -1.
       -5    1    3    3    0  502  0.47977224501E+03 -0.36781388222E+03  0.15802732686E+04  0.16919675388E+04  0.46999998093E+01 0.  1.
</event>
<event>
 5   0  0.6361716E-05  0.1501463E+04  0.7818609E-02  0.8883480E-01
       -1   -1    0    0    0  501  0.00000000000E+00  0.00000000000E+00  0.43377359606E+03  0.43377359609E+03  0.50400001928E-02 0. -1.
        1   -1    0    0  501    0  0.00000000000E+00  0.00000000000E+00 -0.12992909866E+04  0.12992909866E+04  0.50400001928E-02 0.  1.
    10030    2    1    2    0    0  0.00000000000E+00  0.00000000000E+00 -0.86551739055E+03  0.17330645827E+04  0.15014634509E+04 0.  0.
        3    1    3    3  502    0  0.41634030478E+03 -0.54675426537E+02  0.28554253130E+03  0.50780232280E+03  0.10100000352E+00 0. -1.
       -3    1    3    3    0  502 -0.41634030478E+03  0.54675426537E+02 -0.11510599219E+04  0.12252622599E+04  0.10100000352E+00 0.  1.
</event>
<event>
 5   0  0.1254487E-04  0.1499105E+04  0.7818609E-02  0.8885049E-01
        2   -1    0    0  501    0  0.00000000000E+00  0.00000000000E+00  0.10800681089E+04  0.10800681089E+04  0.25500000920E-02 0. -1.
       -2   -1    0    0    0  501  0.00000000000E+00  0.00000000000E+00 -0.52017890259E+03  0.52017890260E+03  0.25500000920E-02 0.  1.
    10030    2    1    2    0    0  0.00000000000E+00  0.00000000000E+00  0.55988920629E+03  0.16002470115E+04  0.14991045909E+04 0.  0.
        5    1    3    3  502    0 -0.54231508030E+02  0.61765685959E+03  0.72950667658E+03  0.95741481806E+03  0.46999998093E+01 0. -1.
       -5    1    3    3    0  502  0.54231508030E+02 -0.61765685959E+03 -0.16961747029E+03  0.64283219342E+03  0.46999998093E+01 0.  1.
</event>
<event>
 5   0  0.6364378E-05  0.1500240E+04  0.7818609E-02  0.8884294E-01
       -1   -1    0    0    0  501  0.00000000000E+00  0.00000000000E+00  0.42304306696E+03  0.42304306699E+03  0.50400001928E-02 0.  1.
        1   -1    0    0  501    0  0.00000000000E+00  0.00000000000E+00 -0.13300765160E+04  0.13300765160E+04  0.50400001928E-02 0. -1.
    10030    2    1    2    0    0  0.00000000000E+00  0.00000000000E+00 -0.90703344902E+03  0.17531195830E+04  0.15002395124E+04 0.  0.
        5    1    3    3  502    0  0.85713448490E+02 -0.21919621215E+03 -0.12857936804E+04  0.13071653504E+04  0.46999998093E+01 0. -1.
       -5    1    3    3    0  502 -0.85713448490E+02  0.21919621215E+03  0.37876023140E+03  0.44595423259E+03  0.46999998093E+01 0.  1.
</event>
<event>
 5   0  0.1219810E-04  0.1502702E+04  0.7818609E-02  0.8882658E-01
        2   -1    0    0  501    0  0.00000000000E+00  0.00000000000E+00  0.46639340649E+03  0.46639340650E+03  0.25500000920E-02 0.  1.
       -2   -1    0    0    0  501  0.00000000000E+00  0.00000000000E+00 -0.12104129757E+04  0.12104129757E+04  0.25500000920E-02 0. -1.
    10030    2    1    2    0    0  0.00000000000E+00  0.00000000000E+00 -0.74401956923E+03  0.16768063822E+04  0.15027024070E+04 0.  0.
        1    1    3    3  502    0  0.19227028891E+03 -0.60862688087E+03  0.70318936084E+02  0.64213650957E+03  0.50400001928E-02 0.  1.
       -1    1    3    3    0  502 -0.19227028891E+03  0.60862688087E+03 -0.81433850531E+03  0.10346698727E+04  0.50400001928E-02 0. -1.
</event>
<event>
 5   0  0.6361716E-05  0.1501449E+04  0.7818609E-02  0.8883490E-01
        1   -1    0    0  501    0  0.00000000000E+00  0.00000000000E+00  0.23732445221E+04  0.23732445222E+04  0.50400001928E-02 0. -1.
       -1   -1    0    0    0  501  0.00000000000E+00  0.00000000000E+00 -0.23747558394E+03  0.23747558400E+03  0.50400001928E-02 0.  1.
    10030    2    1    2    0    0  0.00000000000E+00  0.00000000000E+00  0.21357689382E+04  0.26107201062E+04  0.15014494714E+04 0.  0.
        3    1    3    3  502    0  0.95818842828E+02 -0.27149148845E+03 -0.13766790932E+03  0.31912590368E+03  0.10100000352E+00 0.  1.
       -3    1    3    3    0  502 -0.95818842828E+02  0.27149148845E+03  0.22734368475E+04  0.22915942025E+04  0.10100000352E+00 0. -1.
</event>
<event>
 5   0  0.6542036E-05  0.1521984E+04  0.7818609E-02  0.8869964E-01
        1   -1    0    0  501    0  0.00000000000E+00  0.00000000000E+00  0.74070978424E+03  0.74070978426E+03  0.50400001928E-02 0. -1.
       -1   -1    0    0    0  501  0.00000000000E+00  0.00000000000E+00 -0.78182927887E+03  0.78182927889E+03  0.50400001928E-02 0.  1.
    10030    2    1    2    0    0  0.00000000000E+00  0.00000000000E+00 -0.41119494629E+02  0.15225390631E+04  0.15219837010E+04 0.  0.
        4    1    3    3  502    0  0.42048348349E+03 -0.15909501761E+02 -0.65486328204E+03  0.77840028468E+03  0.12699999809E+01 0.  1.
       -4    1    3    3    0  502 -0.42048348349E+03  0.15909501761E+02  0.61374378741E+03  0.74413877846E+03  0.12699999809E+01 0. -1.
</event>
<event>
 5   0  0.1219810E-04  0.1502624E+04  0.7818609E-02  0.8882710E-01
        2   -1    0    0  501    0  0.00000000000E+00  0.00000000000E+00  0.23652124463E+04  0.23652124463E+04  0.25500000920E-02 0. -1.
       -2   -1    0    0    0  501  0.00000000000E+00  0.00000000000E+00 -0.23865498131E+03  0.23865498132E+03  0.25500000920E-02 0.  1.
    10030    2    1    2    0    0  0.00000000000E+00  0.00000000000E+00  0.21265574650E+04  0.26038674277E+04  0.15026240144E+04 0.  0.
        1    1    3    3  502    0  0.48765689451E+03 -0.24011369071E+03  0.16450691268E+03  0.56791403889E+03  0.50400001928E-02 0.  1.
       -1    1    3    3    0  502 -0.48765689451E+03  0.24011369071E+03  0.19620505523E+04  0.20359533888E+04  0.50400001928E-02 0. -1.
</event>
<event>
 5   0  0.1186664E-04  0.1501309E+04  0.7818609E-02  0.8883583E-01
        2   -1    0    0  501    0  0.00000000000E+00  0.00000000000E+00  0.69889136943E+03  0.69889136944E+03  0.25500000920E-02 0.  1.
       -2   -1    0    0    0  501  0.00000000000E+00  0.00000000000E+00 -0.80625127777E+03  0.80625127777E+03  0.25500000920E-02 0. -1.
    10030    2    1    2    0    0  0.00000000000E+00  0.00000000000E+00 -0.10735990833E+03  0.15051426472E+04  0.15013088418E+04 0.  0.
        3    1    3    3  502    0  0.93992747183E+02 -0.67111459052E+03 -0.37738622053E+03  0.77566087937E+03  0.10100000352E+00 0. -1.
       -3    1    3    3    0  502 -0.93992747183E+02  0.67111459052E+03  0.27002631219E+03  0.72948176784E+03  0.10100000352E+00 0.  1.
</event>
<event>
 5   0  0.1219810E-04  0.1501638E+04  0.7818609E-02  0.8883365E-01
       -2   -1    0    0    0  501  0.00000000000E+00  0.00000000000E+00  0.45139817849E+03  0.45139817850E+03  0.25500000920E-02 0. -1.
        2   -1    0    0  501    0  0.00000000000E+00  0.00000000000E+00 -0.12488508552E+04  0.12488508552E+04  0.25500000920E-02 0.  1.
    10030    2    1    2    0    0  0.00000000000E+00  0.00000000000E+00 -0.79745267673E+03  0.17002490337E+04  0.15016377742E+04 0.  0.
        1    1    3    3  502    0  0.27652015432E+03 -0.28883071593E+03  0.32081097722E+03  0.51264633164E+03  0.50400001928E-02 0. -1.
       -1    1    3    3    0  502 -0.27652015432E+03  0.28883071593E+03 -0.11182636540E+04  0.11876027021E+04  0.50400001928E-02 0.  1.
</event>
<event>
 5   0  0.1186664E-04  0.1500806E+04  0.7818609E-02  0.8883917E-01
        2   -1    0    0  501    0  0.00000000000E+00  0.00000000000E+00  0.52834444307E+03  0.52834444307E+03  0.25500000920E-02 0. -1.
       -2   -1    0    0    0  501  0.00000000000E+00  0.00000000000E+00 -0.10657907325E+04  0.10657907325E+04  0.25500000920E-02 0.  1.
    10030    2    1    2    0    0  0.00000000000E+00  0.00000000000E+00 -0.53744628942E+03  0.15941351756E+04  0.15008059315E+04 0.  0.
        3    1    3    3  502    0  0.58579201404E+03 -0.42328774559E+03 -0.48322110227E+03  0.86938336950E+03  0.10100000352E+00 0. -1.
       -3    1    3    3    0  502 -0.58579201404E+03  0.42328774559E+03 -0.54225187153E+02  0.72475180607E+03  0.10100000352E+00 0.  1.
</event>
<event>
 5   0  0.1228286E-04  0.1501400E+04  0.7818609E-02  0.8883522E-01
        2   -1    0    0  501    0  0.00000000000E+00  0.00000000000E+00  0.83524627958E+03  0.83524627958E+03  0.25500000920E-02 0.  1.
       -2   -1    0    0    0  501  0.00000000000E+00  0.00000000000E+00 -0.67471205608E+03  0.67471205609E+03  0.25500000920E-02 0. -1.
    10030    2    1    2    0    0  0.00000000000E+00  0.00000000000E+00  0.16053422350E+03  0.15099583357E+04  0.15014003259E+04 0.  0.
        2    1    3    3  502    0 -0.46414531248E+03 -0.45392384630E+03  0.45934132458E+03  0.79528119669E+03  0.25500000920E-02 0.  1.
       -2    1    3    3    0  502  0.46414531248E+03  0.45392384630E+03 -0.29880710108E+03  0.71467713899E+03  0.25500000920E-02 0. -1.
</event>
<event>
 5   0  0.1219810E-04  0.1498277E+04  0.7818609E-02  0.8885599E-01
        2   -1    0    0  501    0  0.00000000000E+00  0.00000000000E+00  0.14018126745E+04  0.14018126745E+04  0.25500000920E-02 0. -1.
       -2   -1    0    0    0  501  0.00000000000E+00  0.00000000000E+00 -0.40034511407E+03  0.40034511407E+03  0.25500000920E-02 0.  1.
    10030    2    1    2    0    0  0.00000000000E+00  0.00000000000E+00  0.10014675604E+04  0.18021577885E+04  0.14982774844E+04 0.  0.
        1    1    3    3  502    0 -0.55477453120E+03  0.15624518438E+03  0.10763575289E+04  0.12209557191E+04  0.50400001928E-02 0. -1.
       -1    1    3    3    0  502  0.55477453120E+03 -0.15624518438E+03 -0.74889968449E+02  0.58120206943E+03  0.50400001928E-02 0.  1.
</event>
<event>
 5   0  0.6364378E-05  0.1503123E+04  0.7818609E-02  0.8882379E-01
        1   -1    0    0  501    0  0.00000000000E+00  0.00000000000E+00  0.29880257171E+03  0.29880257175E+03  0.50400001928E-02 0. -1.
       -1   -1    0    0    0  501  0.00000000000E+00  0.00000000000E+00 -0.18903610888E+04  0.18903610888E+04  0.50400001928E-02 0.  1.
    10030    2    1    2    0    0  0.00000000000E+00  0.00000000000E+00 -0.15915585171E+04  0.21891636605E+04  0.15031230886E+04 0.  0.
        5    1    3    3  502    0 -0.23041077560E+03  0.25584050852E+03  0.17716283827E+03  0.38723668805E+03  0.46999998093E+01 0. -1.
       -5    1    3    3    0  502  0.23041077560E+03 -0.25584050852E+03 -0.17687213553E+04  0.18019269725E+04  0.46999998093E+01 0.  1.
</event>
<event>
 5   0  0.6364378E-05  0.1496174E+04  0.7818609E-02  0.8887001E-01
       -1   -1    0    0    0  501  0.00000000000E+00  0.00000000000E+00  0.63157080684E+03  0.63157080686E+03  0.50400001928E-02 0. -1.
        1   -1    0    0  501    0  0.00000000000E+00  0.00000000000E+00 -0.88609864008E+03  0.88609864009E+03  0.50400001928E-02 0.  1.
    10030    2    1    2    0    0  0.00000000000E+00  0.00000000000E+00 -0.25452783324E+03  0.15176694469E+04  0.14961738309E+04 0.  0.
        5    1    3    3  502    0  0.63265373332E+03 -0.60252039279E+02 -0.52756108463E+03  0.82596842708E+03  0.46999998093E+01 0.  1.
       -5    1    3    3    0  502 -0.63265373332E+03  0.60252039279E+02  0.27303325139E+03  0.69170101987E+03  0.46999998093E+01 0. -1.
</event>
<event>
 5   0  0.1228286E-04  0.1499163E+04  0.7818609E-02  0.8885010E-01
       -2   -1    0    0    0  501  0.00000000000E+00  0.00000000000E+00  0.11590414148E+04  0.11590414148E+04  0.25500000920E-02 0. -1.
        2   -1    0    0  501    0  0.00000000000E+00  0.00000000000E+00 -0.48477351338E+03  0.48477351338E+03  0.25500000920E-02 0.  1.
    10030    2    1    2    0    0  0.00000000000E+00  0.00000000000E+00  0.67426790145E+03  0.16438149282E+04  0.14991632050E+04 0.  0.
        2    1    3    3  502    0 -0.44121343793E+03  0.30420409017E+03 -0.23751710103E+03  0.58619433601E+03  0.25500000920E-02 0.  1.
       -2    1    3    3    0  502  0.44121343793E+03 -0.30420409017E+03  0.91178500248E+03  0.10576205922E+04  0.25500000920E-02 0. -1.
</event>
<event>
 5   0  0.6361716E-05  0.1499713E+04  0.7818609E-02  0.8884644E-01
       -1   -1    0    0    0  501  0.00000000000E+00  0.00000000000E+00  0.78902715556E+03  0.78902715557E+03  0.50400001928E-02 0.  1.
        1   -1    0    0  501    0  0.00000000000E+00  0.00000000000E+00 -0.71263065963E+03  0.71263065964E+03  0.50400001928E-02 0. -1.
    10030    2    1    2    0    0  0.00000000000E+00  0.00000000000E+00  0.76396495932E+02  0.15016578152E+04  0.14997132291E+04 0.  0.
        3    1    3    3  502    0 -0.30609507684E+03 -0.28346452216E+03 -0.58569762785E+03  0.71908834844E+03  0.10100000352E+00 0. -1.
       -3    1    3    3    0  502  0.30609507684E+03  0.28346452216E+03  0.66209412378E+03  0.78256946678E+03  0.10100000352E+00 0.  1.
</event>
<event>
 5   0  0.6364378E-05  0.1499656E+04  0.7818609E-02  0.8884682E-01
        1   -1    0    0  501    0  0.00000000000E+00  0.00000000000E+00  0.54197930559E+03  0.54197930561E+03  0.50400001928E-02 0. -1.
       -1   -1    0    0    0  501  0.00000000000E+00  0.00000000000E+00 -0.10373868991E+04  0.10373868991E+04  0.50400001928E-02 0.  1.
    10030    2    1    2    0    0  0.00000000000E+00  0.00000000000E+00 -0.49540759348E+03  0.15793662047E+04  0.14996562689E+04 0.  0.
        5    1    3    3  502    0  0.37236878485E+03 -0.65065384850E+03 -0.23239867645E+03  0.78488226972E+03  0.46999998093E+01 0. -1.
       -5    1    3    3    0  502 -0.37236878485E+03  0.65065384850E+03 -0.26300891703E+03  0.79448393498E+03  0.46999998093E+01 0.  1.
</event>
<event>
 5   0  0.4462875E-05  0.1502950E+04  0.7818609E-02  0.8882494E-01
       -4   -1    0    0    0  501  0.00000000000E+00  0.00000000000E+00  0.42786575171E+03  0.42786763652E+03  0.12699999809E+01 0.  1.
        4   -1    0    0  501    0  0.00000000000E+00  0.00000000000E+00 -0.13198348946E+04  0.13198355056E+04  0.12699999809E+01 0. -1.
    10030    2    1    2    0    0  0.00000000000E+00  0.00000000000E+00 -0.89196914287E+03  0.17477031421E+04  0.15029495405E+04 0.  0.
        3    1    3    3  502    0 -0.33794681133E+03  0.42427617701E+03  0.15880415826E+03  0.56518766136E+03  0.10100000352E+00 0.  1.
       -3    1    3    3    0  502  0.33794681133E+03 -0.42427617701E+03 -0.10507733011E+04  0.11825154808E+04  0.10100000352E+00 0. -1.
</event>
<event>
 5   0  0.1186664E-04  0.1498567E+04  0.7818609E-02  0.8885406E-01
        2   -1    0    0  501    0  0.00000000000E+00  0.00000000000E+00  0.35692736788E+03  0.35692736789E+03  0.25500000920E-02 0. -1.
       -2   -1    0    0    0  501  0.00000000000E+00  0.00000000000E+00 -0.15729409163E+04  0.15729409163E+04  0.25500000920E-02 0.  1.
    10030    2    1    2    0    0  0.00000000000E+00  0.00000000000E+00 -0.12160135484E+04  0.19298682842E+04  0.14985668635E+04 0.  0.
        3    1    3    3  502    0 -0.17481811386E+03  0.12930951008E+03 -0.15314148026E+04  0.15467752358E+04  0.10100000352E+00 0.  1.
       -3    1    3    3    0  502  0.17481811386E+03 -0.12930951008E+03  0.31540125420E+03  0.38309304834E+03  0.10100000352E+00 0. -1.
</event>
<event>
 5   0  0.4462875E-05  0.1501779E+04  0.7818609E-02  0.8883271E-01
       -3   -1    0    0    0  501  0.00000000000E+00  0.00000000000E+00  0.12913076213E+04  0.12913076253E+04  0.10100000352E+00 0. -1.
        3   -1    0    0  501    0  0.00000000000E+00  0.00000000000E+00 -0.43663883843E+03  0.43663885011E+03  0.10100000352E+00 0.  1.
    10030    2    1    2    0    0  0.00000000000E+00  0.00000000000E+00  0.85466878290E+03  0.17279464754E+04  0.15017790428E+04 0.  0.
        2    1    3    3  502    0 -0.72157062561E+03  0.20766674581E+03  0.43508949106E+03  0.86780902870E+03  0.25500000920E-02 0.  1.
       -2    1    3    3    0  502  0.72157062561E+03 -0.20766674581E+03  0.41957929184E+03  0.86013744669E+03  0.25500000920E-02 0. -1.
</event>
<event>
 5   0  0.1228286E-04  0.1496104E+04  0.7818609E-02  0.8887048E-01
       -2   -1    0    0    0  501  0.00000000000E+00  0.00000000000E+00  0.49936369350E+03  0.49936369350E+03  0.25500000920E-02 0. -1.
        2   -1    0    0  501    0  0.00000000000E+00  0.00000000000E+00 -0.11205904092E+04  0.11205904092E+04  0.25500000920E-02 0.  1.
    10030    2    1    2    0    0  0.00000000000E+00  0.00000000000E+00 -0.62122671575E+03  0.16199541028E+04  0.14961044959E+04 0.  0.
        2    1    3    3  502    0 -0.24821818062E+03 -0.61377895065E+03  0.66414324689E+02  0.66539291249E+03  0.25500000920E-02 0.  1.
       -2    1    3    3    0  502  0.24821818062E+03  0.61377895065E+03 -0.68764104044E+03  0.95456119026E+03  0.25500000920E-02 0. -1.
</event>
<event>
 5   0  0.6668433E-05  0.1499197E+04  0.7818609E-02  0.8884987E-01
        1   -1    0    0  501    0  0.00000000000E+00  0.00000000000E+00  0.59639023703E+03  0.59639023705E+03  0.50400001928E-02 0.  1.
       -1   -1    0    0    0  501  0.00000000000E+00  0.00000000000E+00 -0.94216460585E+03  0.94216460586E+03  0.50400001928E-02 0. -1.
    10030    2    1    2    0    0  0.00000000000E+00  0.00000000000E+00 -0.34577436882E+03  0.15385548429E+04  0.14991968151E+04 0.  0.
        1    1    3    3  502    0 -0.26592157432E+03 -0.68273199092E+03 -0.10426099933E+02  0.73276596448E+03  0.50400001928E-02 0.  1.
       -1    1    3    3    0  502  0.26592157432E+03  0.68273199092E+03 -0.33534826889E+03  0.80578887842E+03  0.50400001928E-02 0. -1.
</event>
<event>
 5   0  0.1186664E-04  0.1500191E+04  0.7818609E-02  0.8884326E-01
       -2   -1    0    0    0  501  0.00000000000E+00  0.00000000000E+00  0.73961140500E+03  0.73961140500E+03  0.25500000920E-02 0.  1.
        2   -1    0    0  501    0  0.00000000000E+00  0.00000000000E+00 -0.76072826668E+03  0.76072826668E+03  0.25500000920E-02 0. -1.
    10030    2    1    2    0    0  0.00000000000E+00  0.00000000000E+00 -0.21116861681E+02  0.15003396717E+04  0.15001910574E+04 0.  0.
        3    1    3    3  502    0  0.11214176865E+03 -0.71035136607E+03  0.20269602135E+03  0.74716833901E+03  0.10100000352E+00 0.  1.
       -3    1    3    3    0  502 -0.11214176865E+03  0.71035136607E+03 -0.22381288303E+03  0.75317133267E+03  0.10100000352E+00 0. -1.
</event>
<event>
 5   0  0.6509279E-05  0.1510628E+04  0.7818609E-02  0.8877416E-01
        1   -1    0    0  501    0  0.00000000000E+00  0.00000000000E+00  0.10463250101E+04  0.10463250101E+04  0.50400001928E-02 0. -1.
       -1   -1    0    0    0  501  0.00000000000E+00  0.00000000000E+00 -0.54524125424E+03  0.54524125426E+03  0.50400001928E-02 0.  1.
    10030    2    1    2    0    0  0.00000000000E+00  0.00000000000E+00  0.50108375587E+03  0.15915662644E+04  0.15106284267E+04 0.  0.
        2    1    3    3  502    0 -0.28025269401E+03 -0.26528219208E+02  0.98899040558E+03  0.10282739622E+04  0.25500000920E-02 0. -1.
       -2    1    3    3    0  502  0.28025269401E+03  0.26528219208E+02 -0.48790664971E+03  0.56329230222E+03  0.25500000920E-02 0.  1.
</event>
<event>
 5   0  0.6361716E-05  0.1500708E+04  0.7818609E-02  0.8883982E-01
        1   -1    0    0  501    0  0.00000000000E+00  0.00000000000E+00  0.12220836617E+04  0.12220836617E+04  0.50400001928E-02 0.  1.
       -1   -1    0    0    0  501  0.00000000000E+00  0.00000000000E+00 -0.46071406730E+03  0.46071406732E+03  0.50400001928E-02 0. -1.
    10030    2    1    2    0    0  0.00000000000E+00  0.00000000000E+00  0.76136959441E+03  0.16827977290E+04  0.15007080121E+04 0.  0.
        3    1    3    3  502    0  0.64165317567E+03  0.23240433784E+03  0.73046350086E+03  0.99965369524E+03  0.10100000352E+00 0.  1.
       -3    1    3    3    0  502 -0.64165317567E+03 -0.23240433784E+03  0.30906093546E+02  0.68314403380E+03  0.10100000352E+00 0. -1.
</event>
<event>
 5   0  0.6364378E-05  0.1498827E+04  0.7818609E-02  0.8885233E-01
       -1   -1    0    0    0  501  0.00000000000E+00  0.00000000000E+00  0.35108035639E+03  0.35108035643E+03  0.50400001928E-02 0. -1.
        1   -1    0    0  501    0  0.00000000000E+00  0.00000000000E+00 -0.15996929589E+04  0.15996929589E+04  0.50400001928E-02 0.  1.
    10030    2    1    2    0    0  0.00000000000E+00  0.00000000000E+00 -0.12486126025E+04  0.19507733153E+04  0.14988272404E+04 0.  0.
        5    1    3    3  502    0  0.63924310122E+03  0.22276521099E+03 -0.10427094323E+04  0.12431899017E+04  0.46999998093E+01 0.  1.
       -5    1    3    3    0  502 -0.63924310122E+03 -0.22276521099E+03 -0.20590317026E+03  0.70758341360E+03  0.46999998093E+01 0. -1.
</event>
<event>
 5   0  0.6509279E-05  0.1497099E+04  0.7818609E-02  0.8886385E-01
        1   -1    0    0  501    0  0.00000000000E+00  0.00000000000E+00  0.59996928339E+03  0.59996928342E+03  0.50400001928E-02 0. -1.
       -1   -1    0    0    0  501  0.00000000000E+00  0.00000000000E+00 -0.93392448583E+03  0.93392448584E+03  0.50400001928E-02 0.  1.
    10030    2    1    2    0    0  0.00000000000E+00  0.00000000000E+00 -0.33395520243E+03  0.15338937693E+04  0.14970985332E+04 0.  0.
        2    1    3    3  502    0  0.60748670965E+02 -0.64193934182E+03  0.22256339690E+03  0.68213707218E+03  0.25500000920E-02 0.  1.
       -2    1    3    3    0  502 -0.60748670965E+02  0.64193934182E+03 -0.55651859933E+03  0.85175669707E+03  0.25500000920E-02 0. -1.
</event>
<event>
 5   0  0.1216921E-04  0.1500222E+04  0.7818609E-02  0.8884305E-01
        2   -1    0    0  501    0  0.00000000000E+00  0.00000000000E+00  0.79547498385E+03  0.79547498385E+03  0.25500000920E-02 0.  1.
       -2   -1    0    0    0  501  0.00000000000E+00  0.00000000000E+00 -0.70733428905E+03  0.70733428905E+03  0.25500000920E-02 0. -1.
    10030    2    1    2    0    0  0.00000000000E+00  0.00000000000E+00  0.88140694802E+02  0.15028092729E+04  0.15002222931E+04 0.  0.
        4    1    3    3  502    0  0.11652155855E+02  0.74856415310E+03 -0.27119539388E+01  0.74866082550E+03  0.12699999809E+01 0.  1.
       -4    1    3    3    0  502 -0.11652155855E+02 -0.74856415310E+03  0.90852648740E+02  0.75414844741E+03  0.12699999809E+01 0. -1.
</event>
<event>
 5   0  0.6542036E-05  0.1502509E+04  0.7818609E-02  0.8882786E-01
        1   -1    0    0  501    0  0.00000000000E+00  0.00000000000E+00  0.60950999172E+03  0.60950999174E+03  0.50400001928E-02 0. -1.
       -1   -1    0    0    0  501  0.00000000000E+00  0.00000000000E+00 -0.92596218049E+03  0.92596218050E+03  0.50400001928E-02 0.  1.
    10030    2    1    2    0    0  0.00000000000E+00  0.00000000000E+00 -0.31645218877E+03  0.15354721722E+04  0.15025088366E+04 0.  0.
        4    1    3    3  502    0 -0.52112129543E+03  0.45847588221E+03  0.13550631592E+03  0.70719948648E+03  0.12699999809E+01 0. -1.
       -4    1    3    3    0  502  0.52112129543E+03 -0.45847588221E+03 -0.45195850470E+03  0.82827268577E+03  0.12699999809E+01 0.  1.
</event>
<event>
 5   0  0.6364378E-05  0.1502391E+04  0.7818609E-02  0.8882864E-01
        1   -1    0    0  501    0  0.00000000000E+00  0.00000000000E+00  0.19078439390E+04  0.19078439390E+04  0.50400001928E-02 0.  1.
       -1   -1    0    0    0  501  0.00000000000E+00  0.00000000000E+00 -0.29577625149E+03  0.29577625153E+03  0.50400001928E-02 0. -1.
    10030    2    1    2    0    0  0.00000000000E+00  0.00000000000E+00  0.16120676875E+04  0.22036201906E+04  0.15023913322E+04 0.  0.
        5    1    3    3  502    0 -0.14984233970E+03  0.12345642540E+03 -0.25831816916E+03  0.32317887037E+03  0.46999998093E+01 0. -1.
       -5    1    3    3    0  502  0.14984233970E+03 -0.12345642540E+03  0.18703858567E+04  0.18804413202E+04  0.46999998093E+01 0.  1.
</event>
<event>
 5   0  0.6509279E-05  0.1500576E+04  0.7818609E-02  0.8884070E-01
       -1   -1    0    0    0  501  0.00000000000E+00  0.00000000000E+00  0.20983657806E+04  0.20983657806E+04  0.50400001928E-02 0.  1.
        1   -1    0    0  501    0  0.00000000000E+00  0.00000000000E+00 -0.26827176139E+03  0.26827176144E+03  0.50400001928E-02 0. -1.
    10030    2    1    2    0    0  0.00000000000E+00  0.00000000000E+00  0.18300940192E+04  0.23666375420E+04  0.15005762681E+04 0.  0.
        2    1    3    3  502    0 -0.43782818584E+03 -0.58936603706E+03  0.67129434465E+03  0.99482759467E+03  0.25500000920E-02 0.  1.
       -2    1    3    3    0  502  0.43782818584E+03  0.58936603706E+03  0.11587996745E+04  0.13718099473E+04  0.25500000920E-02 0. -1.
</event>
<event>
 5   0  0.1219810E-04  0.1504941E+04  0.7818609E-02  0.8881174E-01
       -2   -1    0    0    0  501  0.00000000000E+00  0.00000000000E+00  0.90476345062E+03  0.90476345062E+03  0.25500000920E-02 0. -1.
        2   -1    0    0  501    0  0.00000000000E+00  0.00000000000E+00 -0.62581223572E+03  0.62581223572E+03  0.25500000920E-02 0.  1.
    10030    2    1    2    0    0  0.00000000000E+00  0.00000000000E+00  0.27895121490E+03  0.15305756863E+04  0.15049412451E+04 0.  0.
        1    1    3    3  502    0  0.65718638275E+03  0.24791859285E+03  0.41398888767E+03  0.81531856933E+03  0.50400001928E-02 0. -1.
       -1    1    3    3    0  502 -0.65718638275E+03 -0.24791859285E+03 -0.13503767277E+03  0.71525711702E+03  0.50400001928E-02 0.  1.
</event>
<event>
 5   0  0.1186664E-04  0.1497796E+04  0.7818609E-02  0.8885920E-01
       -2   -1    0    0    0  501  0.00000000000E+00  0.00000000000E+00  0.96016106231E+03  0.96016106232E+03  0.25500000920E-02 0.  1.
        2   -1    0    0  501    0  0.00000000000E+00  0.00000000000E+00 -0.58411924799E+03  0.58411924799E+03  0.25500000920E-02 0. -1.
    10030    2    1    2    0    0  0.00000000000E+00  0.00000000000E+00  0.37604181433E+03  0.15442803103E+04  0.14977964584E+04 0.  0.
        3    1    3    3  502    0  0.35854363237E+02  0.30344628934E+03 -0.51692600736E+03  0.60048121800E+03  0.10100000352E+00 0. -1.
       -3    1    3    3    0  502 -0.35854363237E+02 -0.30344628934E+03  0.89296782169E+03  0.94379909231E+03  0.10100000352E+00 0.  1.
</event>
<event>
 5   0  0.1186664E-04  0.1501388E+04  0.7818609E-02  0.8883530E-01
        2   -1    0    0  501    0  0.00000000000E+00  0.00000000000E+00  0.10959923799E+04  0.10959923799E+04  0.25500000920E-02 0.  1.
       -2   -1    0    0    0  501  0.00000000000E+00  0.00000000000E+00 -0.51418400568E+03  0.51418400569E+03  0.25500000920E-02 0. -1.
    10030    2    1    2    0    0  0.00000000000E+00  0.00000000000E+00  0.58180837418E+03  0.16101763855E+04  0.15013883603E+04 0.  0.
        3    1    3    3  502    0  0.19422044180E+03  0.54782901022E+03  0.80041052579E+03  0.98918917526E+03  0.10100000352E+00 0.  1.
       -3    1    3    3    0  502 -0.19422044180E+03 -0.54782901022E+03 -0.21860215161E+03  0.62098721029E+03  0.10100000352E+00 0. -1.
</event>
<event>
 5   0  0.6542036E-05  0.1500637E+04  0.7818609E-02  0.8884029E-01
       -1   -1    0    0    0  501  0.00000000000E+00  0.00000000000E+00  0.56648806937E+03  0.56648806939E+03  0.50400001928E-02 0. -1.
        1   -1    0    0  501    0  0.00000000000E+00  0.00000000000E+00 -0.99380394777E+03  0.99380394779E+03  0.50400001928E-02 0.  1.
    10030    2    1    2    0    0  0.00000000000E+00  0.00000000000E+00 -0.42731587841E+03  0.15602920172E+04  0.15006373043E+04 0.  0.
        4    1    3    3  502    0  0.16858509169E+03  0.14643793932E+03 -0.95845166070E+03  0.98412204630E+03  0.12699999809E+01 0.  1.
       -4    1    3    3    0  502 -0.16858509169E+03 -0.14643793932E+03  0.53113578229E+03  0.57616997088E+03  0.12699999809E+01 0. -1.
</event>
<event>
 5   0  0.1219810E-04  0.1496690E+04  0.7818609E-02  0.8886657E-01
       -2   -1    0    0    0  501  0.00000000000E+00  0.00000000000E+00  0.37686227715E+03  0.37686227716E+03  0.25500000920E-02 0. -1.
        2   -1    0    0  501    0  0.00000000000E+00  0.00000000000E+00 -0.14860075174E+04  0.14860075174E+04  0.25500000920E-02 0.  1.
    10030    2    1    2    0    0  0.00000000000E+00  0.00000000000E+00 -0.11091452403E+04  0.18628697946E+04  0.14966899170E+04 0.  0.
        1    1    3    3  502    0  0.25302627227E+03  0.47086419222E+03 -0.12064284208E+04  0.13195472392E+04  0.50400001928E-02 0.  1.
       -1    1    3    3    0  502 -0.25302627227E+03 -0.47086419222E+03  0.97283180498E+02  0.54332255540E+03  0.50400001928E-02 0. -1.
</event>
<event>
 5   0  0.6509279E-05  0.1499195E+04  0.7818609E-02  0.8884989E-01
        1   -1    0    0  501    0  0.00000000000E+00  0.00000000000E+00  0.63917203906E+03  0.63917203908E+03  0.50400001928E-02 0. -1.
       -1   -1    0    0    0  501  0.00000000000E+00  0.00000000000E+00 -0.87910013303E+03  0.87910013304E+03  0.50400001928E-02 0.  1.
    10030    2    1    2    0    0  0.00000000000E+00  0.00000000000E+00 -0.23992809397E+03  0.15182721721E+04  0.14991947500E+04 0.  0.
        2    1    3    3  502    0 -0.95813987965E+02  0.29681682185E+03 -0.81026505873E+03  0.86822232834E+03  0.25500000920E-02 0.  1.
       -2    1    3    3    0  502  0.95813987965E+02 -0.29681682185E+03  0.57033696476E+03  0.65004984378E+03  0.25500000920E-02 0. -1.
</event>
<event>
 5   0  0.6361716E-05  0.1502229E+04  0.7818609E-02  0.8882972E-01
        1   -1    0    0  501    0  0.00000000000E+00  0.00000000000E+00  0.97465705343E+03  0.97465705344E+03  0.50400001928E-02 0. -1.
       -1   -1    0    0    0  501  0.00000000000E+00  0.00000000000E+00 -0.57884256650E+03  0.57884256652E+03  0.50400001928E-02 0.  1.
    10030    2    1    2    0    0  0.00000000000E+00  0.00000000000E+00  0.39581448694E+03  0.15534996200E+04  0.15022289976E+04 0.  0.
        3    1    3    3  502    0 -0.10907184335E+03  0.73198558073E+03  0.65177904547E+02  0.74293184536E+03  0.10100000352E+00 0. -1.
       -3    1    3    3    0  502  0.10907184335E+03 -0.73198558073E+03  0.33063658239E+03  0.81056777460E+03  0.10100000352E+00 0.  1.
</event>
<event>
 5   0  0.6364378E-05  0.1504070E+04  0.7818609E-02  0.8881751E-01
        1   -1    0    0  501    0  0.00000000000E+00  0.00000000000E+00  0.18875858425E+04  0.18875858425E+04  0.50400001928E-02 0. -1.
       -1   -1    0    0    0  501  0.00000000000E+00  0.00000000000E+00 -0.29961897214E+03  0.29961897218E+03  0.50400001928E-02 0.  1.
    10030    2    1    2    0    0  0.00000000000E+00  0.00000000000E+00  0.15879668703E+04  0.21872048146E+04  0.15040698521E+04 0.  0.
        5    1    3    3  502    0 -0.47503707157E+03 -0.43395025523E+03  0.13601128836E+04  0.15046269271E+04  0.46999998093E+01 0. -1.
       -5    1    3    3    0  502  0.47503707157E+03  0.43395025523E+03  0.22785398668E+03  0.68257788759E+03  0.46999998093E+01 0.  1.
</event>
<event>
 5   0  0.1228286E-04  0.1500473E+04  0.7818609E-02  0.8884138E-01
        2   -1    0    0  501    0  0.00000000000E+00  0.00000000000E+00  0.13591023375E+04  0.13591023375E+04  0.25500000920E-02 0.  1.
       -2   -1    0    0    0  501  0.00000000000E+00  0.00000000000E+00 -0.41413735439E+03  0.41413735440E+03  0.25500000920E-02 0. -1.
    10030    2    1    2    0    0  0.00000000000E+00  0.00000000000E+00  0.94496498306E+03  0.17732396919E+04  0.15004733205E+04 0.  0.
        2    1    3    3  502    0 -0.45804968342E+03  0.29421281568E+03 -0.13758098189E+03  0.56151511109E+03  0.25500000920E-02 0. -1.
       -2    1    3    3    0  502  0.45804968342E+03 -0.29421281568E+03  0.10825459650E+04  0.12117245808E+04  0.25500000920E-02 0.  1.
</event>
<event>
 5   0  0.1219810E-04  0.1497991E+04  0.7818609E-02  0.8885790E-01
        2   -1    0    0  501    0  0.00000000000E+00  0.00000000000E+00  0.16230524884E+04  0.16230524884E+04  0.25500000920E-02 0.  1.
       -2   -1    0    0    0  501  0.00000000000E+00  0.00000000000E+00 -0.34564132847E+03  0.34564132848E+03  0.25500000920E-02 0. -1.
    10030    2    1    2    0    0  0.00000000000E+00  0.00000000000E+00  0.12774111599E+04  0.19686938169E+04  0.14979906786E+04 0.  0.
        1    1    3    3  502    0  0.37760048678E+03  0.61737763598E+03  0.89237698965E+03  0.11489447179E+04  0.50400001928E-02 0. -1.
       -1    1    3    3    0  502 -0.37760048678E+03 -0.61737763598E+03  0.38503417030E+03  0.81974909903E+03  0.50400001928E-02 0.  1.
</event>
<event>
 5   0  0.1254487E-04  0.1498594E+04  0.7818609E-02  0.8885388E-01
        2   -1    0    0  501    0  0.00000000000E+00  0.00000000000E+00  0.11516901500E+04  0.11516901500E+04  0.25500000920E-02 0.  1.
       -2   -1    0    0    0  501  0.00000000000E+00  0.00000000000E+00 -0.48749775974E+03  0.48749775974E+03  0.25500000920E-02 0. -1.
    10030    2    1    2    0    0  0.00000000000E+00  0.00000000000E+00  0.66419239026E+03  0.16391879097E+04  0.14985944989E+04 0.  0.
        5    1    3    3  502    0 -0.95547687080E+02  0.74097752687E+03  0.26976569489E+03  0.79433788527E+03  0.46999998093E+01 0.  1.
       -5    1    3    3    0  502  0.95547687080E+02 -0.74097752687E+03  0.39442669537E+03  0.84485002448E+03  0.46999998093E+01 0. -1.
</event>
<event>
 5   0  0.4462875E-05  0.1500693E+04  0.7818609E-02  0.8883992E-01
       -3   -1    0    0    0  501  0.00000000000E+00  0.00000000000E+00  0.11989948744E+04  0.11989948786E+04  0.10100000352E+00 0.  1.
        3   -1    0    0  501    0  0.00000000000E+00  0.00000000000E+00 -0.46957640159E+03  0.46957641245E+03  0.10100000352E+00 0. -1.
    10030    2    1    2    0    0  0.00000000000E+00  0.00000000000E+00  0.72941847277E+03  0.16685712911E+04  0.15006927883E+04 0.  0.
        5    1    3    3  502    0 -0.64058142059E+03  0.37735475492E+03  0.25210581534E+03  0.78506088909E+03  0.46999998093E+01 0. -1.
       -5    1    3    3    0  502  0.64058142059E+03 -0.37735475492E+03  0.47731265744E+03  0.88351040198E+03  0.46999998093E+01 0.  1.
</event>
<event>
 5   0  0.6509279E-05  0.1498247E+04  0.7818609E-02  0.8885620E-01
        1   -1    0    0  501    0  0.00000000000E+00  0.00000000000E+00  0.62736348422E+03  0.62736348424E+03  0.50400001928E-02 0.  1.
       -1   -1    0    0    0  501  0.00000000000E+00  0.00000000000E+00 -0.89451468214E+03  0.89451468215E+03  0.50400001928E-02 0. -1.
    10030    2    1    2    0    0  0.00000000000E+00  0.00000000000E+00 -0.26715119792E+03  0.15218781664E+04  0.14982467723E+04 0.  0.
        2    1    3    3  502    0 -0.52291825746E+02  0.50492262922E+03 -0.69317744647E+03  0.85917185059E+03  0.25500000920E-02 0. -1.
       -2    1    3    3    0  502  0.52291825746E+02 -0.50492262922E+03  0.42602624856E+03  0.66270631580E+03  0.25500000920E-02 0.  1.
</event>
<event>
 5   0  0.1216921E-04  0.1506613E+04  0.7818609E-02  0.8880067E-01
       -2   -1    0    0    0  501  0.00000000000E+00  0.00000000000E+00  0.65896618693E+03  0.65896618693E+03  0.25500000920E-02 0.  1.
        2   -1    0    0  501    0  0.00000000000E+00  0.00000000000E+00 -0.86115344099E+03  0.86115344099E+03  0.25500000920E-02 0. -1.
    10030    2    1    2    0    0  0.00000000000E+00  0.00000000000E+00 -0.20218725406E+03  0.15201196279E+04  0.15066134201E+04 0.  0.
        4    1    3    3  502    0 -0.53103877064E+03 -0.35450101836E+03  0.30223515159E+03  0.70641407666E+03  0.12699999809E+01 0.  1.
       -4    1    3    3    0  502  0.53103877064E+03  0.35450101836E+03 -0.50442240565E+03  0.81370555127E+03  0.12699999809E+01 0. -1.
</event>
<event>
 5   0  0.1219810E-04  0.1509572E+04  0.7818609E-02  0.8878112E-01
        2   -1    0    0  501    0  0.00000000000E+00  0.00000000000E+00  0.15147409164E+04  0.15147409164E+04  0.25500000920E-02 0.  1.
       -2   -1    0    0    0  501  0.00000000000E+00  0.00000000000E+00 -0.37610521553E+03  0.37610521554E+03  0.25500000920E-02 0. -1.
    10030    2    1    2    0    0  0.00000000000E+00  0.00000000000E+00  0.11386357009E+04  0.18908461320E+04  0.15095720703E+04 0.  0.
        1    1    3    3  502    0 -0.37257971306E+03  0.59666873022E+03  0.22657831137E+03  0.73903108691E+03  0.50400001928E-02 0. -1.
       -1    1    3    3    0  502  0.37257971306E+03 -0.59666873022E+03  0.91205738952E+03  0.11518150451E+04  0.50400001928E-02 0.  1.
</event>
<event>
 5   0  0.6668433E-05  0.1499124E+04  0.7818609E-02  0.8885036E-01
        1   -1    0    0  501    0  0.00000000000E+00  0.00000000000E+00  0.13412916692E+04  0.13412916692E+04  0.50400001928E-02 0. -1.
       -1   -1    0    0    0  501  0.00000000000E+00  0.00000000000E+00 -0.41888223104E+03  0.41888223107E+03  0.50400001928E-02 0.  1.
    10030    2    1    2    0    0  0.00000000000E+00  0.00000000000E+00  0.92240943816E+03  0.17601739003E+04  0.14991240734E+04 0.  0.
        1    1    3    3  502    0 -0.37779100327E+02 -0.45386968176E+03  0.11602029343E+04  0.12463931150E+04  0.50400001928E-02 0. -1.
       -1    1    3    3    0  502  0.37779100327E+02  0.45386968176E+03 -0.23779349613E+03  0.51378078523E+03  0.50400001928E-02 0.  1.
</event>
<event>
 5   0  0.6364378E-05  0.1500454E+04  0.7818609E-02  0.8884151E-01
        1   -1    0    0  501    0  0.00000000000E+00  0.00000000000E+00  0.89427732538E+03  0.89427732539E+03  0.50400001928E-02 0.  1.
       -1   -1    0    0    0  501  0.00000000000E+00  0.00000000000E+00 -0.62938003079E+03  0.62938003081E+03  0.50400001928E-02 0. -1.
    10030    2    1    2    0    0  0.00000000000E+00  0.00000000000E+00  0.26489729459E+03  0.15236573562E+04  0.15004536522E+04 0.  0.
        5    1    3    3  502    0 -0.49457546028E+03  0.13234403271E+03  0.68928844369E+03  0.85863873515E+03  0.46999998093E+01 0.  1.
       -5    1    3    3    0  502  0.49457546028E+03 -0.13234403271E+03 -0.42439114910E+03  0.66501862104E+03  0.46999998093E+01 0. -1.
</event>
<event>
 5   0  0.1254487E-04  0.1500375E+04  0.7818609E-02  0.8884204E-01
        2   -1    0    0  501    0  0.00000000000E+00  0.00000000000E+00  0.85280025470E+03  0.85280025470E+03  0.25500000920E-02 0. -1.
       -2   -1    0    0    0  501  0.00000000000E+00  0.00000000000E+00 -0.65992148613E+03  0.65992148613E+03  0.25500000920E-02 0.  1.
    10030    2    1    2    0    0  0.00000000000E+00  0.00000000000E+00  0.19287876857E+03  0.15127217408E+04  0.15003749018E+04 0.  0.
        5    1    3    3  502    0  0.62457354485E+03 -0.41408340048E+03  0.61484993908E+02  0.75190402975E+03  0.46999998093E+01 0. -1.
       -5    1    3    3    0  502 -0.62457354485E+03  0.41408340048E+03  0.13139377466E+03  0.76081771108E+03  0.46999998093E+01 0.  1.
</event>
<event>
 5   0  0.1254487E-04  0.1469678E+04  0.7818609E-02  0.8904871E-01
        2   -1    0    0  501    0  0.00000000000E+00  0.00000000000E+00  0.16470484477E+04  0.16470484477E+04  0.25500000920E-02 0.  1.
       -2   -1    0    0    0  501  0.00000000000E+00  0.00000000000E+00 -0.32785217631E+03  0.32785217632E+03  0.25500000920E-02 0. -1.
    10030    2    1    2    0    0  0.00000000000E+00  0.00000000000E+00  0.13191962714E+04  0.19749006240E+04  0.14696780846E+04 0.  0.
        5    1    3    3  502    0  0.39529992628E+03 -0.35891251144E+03 -0.18817907670E+02  0.53428122392E+03  0.46999998093E+01 0. -1.
       -5    1    3    3    0  502 -0.39529992628E+03  0.35891251144E+03  0.13380141791E+04  0.14406194001E+04  0.46999998093E+01 0.  1.
</event>
<event>
 5   0  0.1254487E-04  0.1496929E+04  0.7818609E-02  0.8886498E-01
        2   -1    0    0  501    0  0.00000000000E+00  0.00000000000E+00  0.14881416282E+04  0.14881416282E+04  0.25500000920E-02 0.  1.
       -2   -1    0    0    0  501  0.00000000000E+00  0.00000000000E+00 -0.37644218424E+03  0.37644218425E+03  0.25500000920E-02 0. -1.
    10030    2    1    2    0    0  0.00000000000E+00  0.00000000000E+00  0.11116994440E+04  0.18645838125E+04  0.14969292368E+04 0.  0.
        5    1    3    3  502    0  0.44547753046E+03 -0.19713979741E+03 -0.15191626341E+03  0.51030870163E+03  0.46999998093E+01 0. -1.
       -5    1    3    3    0  502 -0.44547753046E+03  0.19713979741E+03  0.12636157074E+04  0.13542751108E+04  0.46999998093E+01 0.  1.
</event>
<event>
 5   0  0.1216921E-04  0.1498437E+04  0.7818609E-02  0.8885493E-01
       -2   -1    0    0    0  501  0.00000000000E+00  0.00000000000E+00  0.84959936407E+03  0.84959936408E+03  0.25500000920E-02 0.  1.
        2   -1    0    0  501    0  0.00000000000E+00  0.00000000000E+00 -0.66069737465E+03  0.66069737466E+03  0.25500000920E-02 0. -1.
    10030    2    1    2    0    0  0.00000000000E+00  0.00000000000E+00  0.18890198942E+03  0.15102967387E+04  0.14984366111E+04 0.  0.
        4    1    3    3  502    0 -0.32767393028E+02  0.63810641042E+03  0.48879310302E+03  0.80447113281E+03  0.12699999809E+01 0.  1.
       -4    1    3    3    0  502  0.32767393028E+02 -0.63810641042E+03 -0.29989111359E+03  0.70582560593E+03  0.12699999809E+01 0. -1.
</event>
<event>
 5   0  0.1216921E-04  0.1498773E+04  0.7818609E-02  0.8885270E-01
       -2   -1    0    0    0  501  0.00000000000E+00  0.00000000000E+00  0.34339273156E+03  0.34339273157E+03  0.25500000920E-02 0. -1.
        2   -1    0    0  501    0  0.00000000000E+00  0.00000000000E+00 -0.16353865497E+04  0.16353865497E+04  0.25500000920E-02 0.  1.
    10030    2    1    2    0    0  0.00000000000E+00  0.00000000000E+00 -0.12919938181E+04  0.19787792812E+04  0.14987726371E+04 0.  0.
        4    1    3    3  502    0  0.42452566479E+03 -0.61741215890E+03 -0.66261483932E+03  0.10002398973E+04  0.12699999809E+01 0.  1.
       -4    1    3    3    0  502 -0.42452566479E+03  0.61741215890E+03 -0.62937897877E+03  0.97853938390E+03  0.12699999809E+01 0. -1.
</event>
<event>
 5   0  0.6364378E-05  0.1495833E+04  0.7818609E-02  0.8887228E-01
       -1   -1    0    0    0  501  0.00000000000E+00  0.00000000000E+00  0.65180278077E+03  0.65180278079E+03  0.50400001928E-02 0.  1.
        1   -1    0    0  501    0  0.00000000000E+00  0.00000000000E+00 -0.85820341764E+03  0.85820341766E+03  0.50400001928E-02 0. -1.
    10030    2    1    2    0    0  0.00000000000E+00  0.00000000000E+00 -0.20640063688E+03  0.15100061984E+04  0.14958333786E+04 0.  0.
        5    1    3    3  502    0  0.57159726198E+02  0.74257251648E+03 -0.34170336952E+02  0.74556748753E+03  0.46999998093E+01 0. -1.
       -5    1    3    3    0  502 -0.57159726198E+02 -0.74257251648E+03 -0.17223029992E+03  0.76443871091E+03  0.46999998093E+01 0.  1.
</event>
<event>
 5   0  0.1186664E-04  0.1501728E+04  0.7818609E-02  0.8883305E-01
       -2   -1    0    0    0  501  0.00000000000E+00  0.00000000000E+00  0.81648607878E+03  0.81648607879E+03  0.25500000920E-02 0.  1.
        2   -1    0    0  501    0  0.00000000000E+00  0.00000000000E+00 -0.69051611987E+03  0.69051611987E+03  0.25500000920E-02 0. -1.
    10030    2    1    2    0    0  0.00000000000E+00  0.00000000000E+00  0.12596995891E+03  0.15070021987E+04  0.15017280700E+04 0.  0.
        3    1    3    3  502    0  0.27905903366E+03  0.15221808823E+03 -0.61966325816E+03  0.69643869390E+03  0.10100000352E+00 0. -1.
       -3    1    3    3    0  502 -0.27905903366E+03 -0.15221808823E+03  0.74563321707E+03  0.81056350476E+03  0.10100000352E+00 0.  1.
</event>
<event>
 5   0  0.1228286E-04  0.1498503E+04  0.7818609E-02  0.8885449E-01
        2   -1    0    0  501    0  0.00000000000E+00  0.00000000000E+00  0.20518915184E+04  0.20518915184E+04  0.25500000920E-02 0. -1.
       -2   -1    0    0    0  501  0.00000000000E+00  0.00000000000E+00 -0.27359029973E+03  0.27359029974E+03  0.25500000920E-02 0.  1.
    10030    2    1    2    0    0  0.00000000000E+00  0.00000000000E+00  0.17783012187E+04  0.23254818182E+04  0.14985027401E+04 0.  0.
        2    1    3    3  502    0 -0.77783234040E+02 -0.73638821054E+03  0.71180376682E+03  0.10271233765E+04  0.25500000920E-02 0. -1.
       -2    1    3    3    0  502  0.77783234040E+02  0.73638821054E+03  0.10664974519E+04  0.12983584417E+04  0.25500000920E-02 0.  1.
</event>
<event>
 5   0  0.6361716E-05  0.1508335E+04  0.7818609E-02  0.8878929E-01
       -1   -1    0    0    0  501  0.00000000000E+00  0.00000000000E+00  0.17899048431E+04  0.17899048431E+04  0.50400001928E-02 0. -1.
        1   -1    0    0  501    0  0.00000000000E+00  0.00000000000E+00 -0.31776466432E+03  0.31776466436E+03  0.50400001928E-02 0.  1.
    10030    2    1    2    0    0  0.00000000000E+00  0.00000000000E+00  0.14721401787E+04  0.21076695074E+04  0.15083348589E+04 0.  0.
        3    1    3    3  502    0 -0.14812453222E+03  0.72501701530E+03  0.53271889680E+03  0.91180040729E+03  0.10100000352E+00 0.  1.
       -3    1    3    3    0  502  0.14812453222E+03 -0.72501701530E+03  0.93942128193E+03  0.11958691001E+04  0.10100000352E+00 0. -1.
</event>
<event>
 5   0  0.1254487E-04  0.1504756E+04  0.7818609E-02  0.8881296E-01
       -2   -1    0    0    0  501  0.00000000000E+00  0.00000000000E+00  0.71226657630E+03  0.71226657631E+03  0.25500000920E-02 0.  1.
        2   -1    0    0  501    0  0.00000000000E+00  0.00000000000E+00 -0.79474882353E+03  0.79474882353E+03  0.25500000920E-02 0. -1.
    10030    2    1    2    0    0  0.00000000000E+00  0.00000000000E+00 -0.82482247225E+02  0.15070153998E+04  0.15047564900E+04 0.  0.
        5    1    3    3  502    0 -0.11782138512E+03  0.67741206470E+03  0.26463830608E+03  0.73676625007E+03  0.46999998093E+01 0.  1.
       -5    1    3    3    0  502  0.11782138512E+03 -0.67741206470E+03 -0.34712055330E+03  0.77024914977E+03  0.46999998093E+01 0. -1.
</event>
<event>
 5   0  0.1228286E-04  0.1499835E+04  0.7818609E-02  0.8884563E-01
        2   -1    0    0  501    0  0.00000000000E+00  0.00000000000E+00  0.91617738989E+03  0.91617738990E+03  0.25500000920E-02 0. -1.
       -2   -1    0    0    0  501  0.00000000000E+00  0.00000000000E+00 -0.61382904496E+03  0.61382904496E+03  0.25500000920E-02 0.  1.
    10030    2    1    2    0    0  0.00000000000E+00  0.00000000000E+00  0.30234834493E+03  0.15300064349E+04  0.14998350473E+04 0.  0.
        2    1    3    3  502    0 -0.12358063159E+03 -0.11678102255E+03  0.89625477908E+03  0.91224043364E+03  0.25500000920E-02 0. -1.
       -2    1    3    3    0  502  0.12358063159E+03  0.11678102255E+03 -0.59390643415E+03  0.61776600122E+03  0.25500000920E-02 0.  1.
</event>
<event>
 5   0  0.6668433E-05  0.1497307E+04  0.7818609E-02  0.8886246E-01
        1   -1    0    0  501    0  0.00000000000E+00  0.00000000000E+00  0.80499254119E+03  0.80499254120E+03  0.50400001928E-02 0. -1.
       -1   -1    0    0    0  501  0.00000000000E+00  0.00000000000E+00 -0.69625756462E+03  0.69625756463E+03  0.50400001928E-02 0.  1.
    10030    2    1    2    0    0  0.00000000000E+00  0.00000000000E+00  0.10873497657E+03  0.15012501058E+04  0.14973071112E+04 0.  0.
        1    1    3    3  502    0  0.52980710563E+03  0.26977378886E+03 -0.40181272278E+03  0.71758409301E+03  0.50400001928E-02 0.  1.
       -1    1    3    3    0  502 -0.52980710563E+03 -0.26977378886E+03  0.51054769935E+03  0.78366601283E+03  0.50400001928E-02 0. -1.
</event>
<event>
 5   0  0.1254487E-04  0.1505258E+04  0.7818609E-02  0.8880964E-01
        2   -1    0    0  501    0  0.00000000000E+00  0.00000000000E+00  0.63535603084E+03  0.63535603085E+03  0.25500000920E-02 0. -1.
       -2   -1    0    0    0  501  0.00000000000E+00  0.00000000000E+00 -0.89154746892E+03  0.89154746892E+03  0.25500000920E-02 0.  1.
    10030    2    1    2    0    0  0.00000000000E+00  0.00000000000E+00 -0.25619143808E+03  0.15269034998E+04  0.15052575343E+04 0.  0.
        5    1    3    3  502    0 -0.12234907386E+03 -0.68798741637E+03 -0.41163629965E+03  0.81102559402E+03  0.46999998093E+01 0.  1.
       -5    1    3    3    0  502  0.12234907386E+03  0.68798741637E+03  0.15544486157E+03  0.71587790576E+03  0.46999998093E+01 0. -1.
</event>
<event>
 5   0  0.4462875E-05  0.1505569E+04  0.7818609E-02  0.8880758E-01
       -4   -1    0    0    0  501  0.00000000000E+00  0.00000000000E+00  0.49825417203E+03  0.49825579058E+03  0.12699999809E+01 0.  1.
        4   -1    0    0  501    0  0.00000000000E+00  0.00000000000E+00 -0.11373367663E+04  0.11373374754E+04  0.12699999809E+01 0. -1.
    10030    2    1    2    0    0  0.00000000000E+00  0.00000000000E+00 -0.63908259432E+03  0.16355932660E+04  0.15055692510E+04 0.  0.
        3    1    3    3  502    0 -0.46882005938E+03  0.14374763707E+03  0.30095028463E+03  0.57534921157E+03  0.10100000352E+00 0.  1.
       -3    1    3    3    0  502  0.46882005938E+03 -0.14374763707E+03 -0.94003287895E+03  0.10602440544E+04  0.10100000352E+00 0. -1.
</event>
<event>
 5   0  0.1186664E-04  0.1491201E+04  0.7818609E-02  0.8890325E-01
       -2   -1    0    0    0  501  0.00000000000E+00  0.00000000000E+00  0.13016717546E+04  0.13016717546E+04  0.25500000920E-02 0.  1.
        2   -1    0    0  501    0  0.00000000000E+00  0.00000000000E+00 -0.42708165439E+03  0.42708165440E+03  0.25500000920E-02 0. -1.
    10030    2    1    2    0    0  0.00000000000E+00  0.00000000000E+00  0.87459010022E+03  0.17287534090E+04  0.14912010280E+04 0.  0.
        3    1    3    3  502    0  0.72681187843E+03  0.16618892474E+03  0.42944502902E+03  0.86040531640E+03  0.10100000352E+00 0. -1.
       -3    1    3    3    0  502 -0.72681187843E+03 -0.16618892474E+03  0.44514507120E+03  0.86834809262E+03  0.10100000352E+00 0.  1.
</event>
<event>
 5   0  0.6509279E-05  0.1500176E+04  0.7818609E-02  0.8884336E-01
       -1   -1    0    0    0  501  0.00000000000E+00  0.00000000000E+00  0.89962473909E+03  0.89962473910E+03  0.50400001928E-02 0. -1.
        1   -1    0    0  501    0  0.00000000000E+00  0.00000000000E+00 -0.62540740744E+03  0.62540740746E+03  0.50400001928E-02 0.  1.
    10030    2    1    2    0    0  0.00000000000E+00  0.00000000000E+00  0.27421733164E+03  0.15250321466E+04  0.15001759574E+04 0.  0.
        2    1    3    3  502    0 -0.32429396867E+03 -0.66245540558E+03  0.27581810987E+03  0.78745753678E+03  0.25500000920E-02 0.  1.
       -2    1    3    3    0  502  0.32429396867E+03  0.66245540558E+03 -0.16007782291E+01  0.73757460978E+03  0.25500000920E-02 0. -1.
</event>
<event>
 5   0  0.6364378E-05  0.1502218E+04  0.7818609E-02  0.8882979E-01
       -1   -1    0    0    0  501  0.00000000000E+00  0.00000000000E+00  0.48648600051E+03  0.48648600054E+03  0.50400001928E-02 0. -1.
        1   -1    0    0  501    0  0.00000000000E+00  0.00000000000E+00 -0.11596727604E+04  0.11596727604E+04  0.50400001928E-02 0.  1.
    10030    2    1    2    0    0  0.00000000000E+00  0.00000000000E+00 -0.67318675986E+03  0.16461587609E+04  0.15022177780E+04 0.  0.
        5    1    3    3  502    0  0.64728031230E+03  0.31238348857E+03 -0.97545983866E+02  0.72532238045E+03  0.46999998093E+01 0. -1.
       -5    1    3    3    0  502 -0.64728031230E+03 -0.31238348857E+03 -0.57564077599E+03  0.92083638047E+03  0.46999998093E+01 0.  1.
</event>
<event>
 5   0  0.1228286E-04  0.1501317E+04  0.7818609E-02  0.8883577E-01
       -2   -1    0    0    0  501  0.00000000000E+00  0.00000000000E+00  0.14782366259E+04  0.14782366259E+04  0.25500000920E-02 0.  1.
        2   -1    0    0  501    0  0.00000000000E+00  0.00000000000E+00 -0.38118964595E+03  0.38118964596E+03  0.25500000920E-02 0. -1.
    10030    2    1    2    0    0  0.00000000000E+00  0.00000000000E+00  0.10970469799E+04  0.18594262718E+04  0.15013174162E+04 0.  0.
        2    1    3    3  502    0 -0.20515161636E+03 -0.10423912403E+03  0.14334748880E+04  0.14518275500E+04  0.25500000920E-02 0.  1.
       -2    1    3    3    0  502  0.20515161636E+03  0.10423912403E+03 -0.33642790805E+03  0.40759872178E+03  0.25500000920E-02 0. -1.
</event>
<event>
 5   0  0.1219810E-04  0.1495175E+04  0.7818609E-02  0.8887668E-01
        2   -1    0    0  501    0  0.00000000000E+00  0.00000000000E+00  0.10238858657E+04  0.10238858657E+04  0.25500000920E-02 0.  1.
       -2   -1    0    0    0  501  0.00000000000E+00  0.00000000000E+00 -0.54584871368E+03  0.54584871368E+03  0.25500000920E-02 0. -1.
    10030    2    1    2    0    0  0.00000000000E+00  0.00000000000E+00  0.47803715206E+03  0.15697345794E+04  0.14951746156E+04 0.  0.
        1    1    3    3  502    0  0.83034696242E+02  0.73730894701E+02 -0.53714195569E+03  0.54850021531E+03  0.50400001928E-02 0. -1.
       -1    1    3    3    0  502 -0.83034696242E+02 -0.73730894701E+02  0.10151791077E+04  0.10212343641E+04  0.50400001928E-02 0.  1.
</event>
<event>
 5   0  0.6542036E-05  0.1497657E+04  0.7818609E-02  0.8886012E-01
       -1   -1    0    0    0  501  0.00000000000E+00  0.00000000000E+00  0.33807194874E+03  0.33807194878E+03  0.50400001928E-02 0. -1.
        1   -1    0    0  501    0  0.00000000000E+00  0.00000000000E+00 -0.16586539531E+04  0.16586539531E+04  0.50400001928E-02 0.  1.
    10030    2    1    2    0    0  0.00000000000E+00  0.00000000000E+00 -0.13205820043E+04  0.19967259019E+04  0.14976573363E+04 0.  0.
        4    1    3    3  502    0  0.41080680699E+03 -0.88138011327E+01 -0.14949233294E+04  0.15503668241E+04  0.12699999809E+01 0.  1.
       -4    1    3    3    0  502 -0.41080680699E+03  0.88138011327E+01  0.17434132503E+03  0.44635907774E+03  0.12699999809E+01 0. -1.
</event>
<event>
 5   0  0.6361716E-05  0.1496849E+04  0.7818609E-02  0.8886551E-01
        1   -1    0    0  501    0  0.00000000000E+00  0.00000000000E+00  0.11004846635E+04  0.11004846635E+04  0.50400001928E-02 0. -1.
       -1   -1    0    0    0  501  0.00000000000E+00  0.00000000000E+00 -0.50899306826E+03  0.50899306829E+03  0.50400001928E-02 0.  1.
    10030    2    1    2    0    0  0.00000000000E+00  0.00000000000E+00  0.59149159524E+03  0.16094777318E+04  0.14968487772E+04 0.  0.
        3    1    3    3  502    0 -0.27850498730E+03 -0.59145720935E+03 -0.96021545110E+02  0.66076229143E+03  0.10100000352E+00 0.  1.
       -3    1    3    3    0  502  0.27850498730E+03  0.59145720935E+03  0.68751314035E+03  0.94871544037E+03  0.10100000352E+00 0. -1.
</event>
<event>
 5   0  0.1228286E-04  0.1497985E+04  0.7818609E-02  0.8885794E-01
       -2   -1    0    0    0  501  0.00000000000E+00  0.00000000000E+00  0.38084385819E+03  0.38084385820E+03  0.25500000920E-02 0. -1.
        2   -1    0    0  501    0  0.00000000000E+00  0.00000000000E+00 -0.14730179223E+04  0.14730179223E+04  0.25500000920E-02 0.  1.
    10030    2    1    2    0    0  0.00000000000E+00  0.00000000000E+00 -0.10921740641E+04  0.18538617805E+04  0.14979850850E+04 0.  0.
        2    1    3    3  502    0 -0.71963296248E+03 -0.97500012014E+02 -0.77297782982E+03  0.10606001030E+04  0.25500000920E-02 0.  1.
       -2    1    3    3    0  502  0.71963296248E+03  0.97500012014E+02 -0.31919623430E+03  0.79326167752E+03  0.25500000920E-02 0. -1.
</event>
<event>
 5   0  0.6361716E-05  0.1500770E+04  0.7818609E-02  0.8883941E-01
       -1   -1    0    0    0  501  0.00000000000E+00  0.00000000000E+00  0.34207057585E+03  0.34207057589E+03  0.50400001928E-02 0. -1.
        1   -1    0    0  501    0  0.00000000000E+00  0.00000000000E+00 -0.16460853203E+04  0.16460853203E+04  0.50400001928E-02 0.  1.
    10030    2    1    2    0    0  0.00000000000E+00  0.00000000000E+00 -0.13040147444E+04  0.19881558962E+04  0.15007696072E+04 0.  0.
        3    1    3    3  502    0  0.32466323605E+03 -0.18023435929E+03  0.21181857720E+03  0.42750176721E+03  0.10100000352E+00 0. -1.
       -3    1    3    3    0  502 -0.32466323605E+03  0.18023435929E+03 -0.15158333216E+04  0.15606541290E+04  0.10100000352E+00 0.  1.
</event>
<event>
 5   0  0.6668433E-05  0.1510029E+04  0.7818609E-02  0.8877811E-01
        1   -1    0    0  501    0  0.00000000000E+00  0.00000000000E+00  0.42669903080E+03  0.42669903083E+03  0.50400001928E-02 0. -1.
       -1   -1    0    0    0  501  0.00000000000E+00  0.00000000000E+00 -0.13359453432E+04  0.13359453433E+04  0.50400001928E-02 0.  1.
    10030    2    1    2    0    0  0.00000000000E+00  0.00000000000E+00 -0.90924631244E+03  0.17626443741E+04  0.15100285867E+04 0.  0.
        1    1    3    3  502    0 -0.57286916705E+03 -0.45314587311E+03 -0.23153193558E+03  0.76624232596E+03  0.50400001928E-02 0.  1.
       -1    1    3    3    0  502  0.57286916705E+03  0.45314587311E+03 -0.67771437687E+03  0.99640204813E+03  0.50400001928E-02 0. -1.
</event>
<event>
 5   0  0.6509279E-05  0.1501993E+04  0.7818609E-02  0.8883128E-01
       -1   -1    0    0    0  501  0.00000000000E+00  0.00000000000E+00  0.50787986177E+03  0.50787986179E+03  0.50400001928E-02 0.  1.
        1   -1    0    0  501    0  0.00000000000E+00  0.00000000000E+00 -0.11104909573E+04  0.11104909573E+04  0.50400001928E-02 0. -1.
    10030    2    1    2    0    0  0.00000000000E+00  0.00000000000E+00 -0.60261109555E+03  0.16183708191E+04  0.15019933341E+04 0.  0.
        2    1    3    3  502    0 -0.16835837735E+03 -0.30908012605E+03 -0.10161244744E+04  0.10753529723E+04  0.25500000920E-02 0. -1.
       -2    1    3    3    0  502  0.16835837735E+03  0.30908012605E+03  0.41351337881E+03  0.54301784686E+03  0.25500000920E-02 0.  1.
</event>
<event>
 5   0  0.1216921E-04  0.1502958E+04  0.7818609E-02  0.8882488E-01
       -2   -1    0    0    0  501  0.00000000000E+00  0.00000000000E+00  0.47121581671E+03  0.47121581671E+03  0.25500000920E-02 0. -1.
        2   -1    0    0  501    0  0.00000000000E+00  0.00000000000E+00 -0.11984329743E+04  0.11984329744E+04  0.25500000920E-02 0.  1.
    10030    2    1    2    0    0  0.00000000000E+00  0.00000000000E+00 -0.72721715764E+03  0.16696487911E+04  0.15029578474E+04 0.  0.
        4    1    3    3  502    0 -0.39667516156E+03 -0.18371646995E+03 -0.10426418909E+04  0.11305780162E+04  0.12699999809E+01 0.  1.
       -4    1    3    3    0  502  0.39667516156E+03  0.18371646995E+03  0.31542473322E+03  0.53907077491E+03  0.12699999809E+01 0. -1.
</event>
<event>
 5   0  0.4462875E-05  0.1498143E+04  0.7818609E-02  0.8885689E-01
       -4   -1    0    0    0  501  0.00000000000E+00  0.00000000000E+00  0.77367267544E+03  0.77367371780E+03  0.12699999809E+01 0.  1.
        4   -1    0    0  501    0  0.00000000000E+00  0.00000000000E+00 -0.72525037226E+03  0.72525148422E+03  0.12699999809E+01 0. -1.
    10030    2    1    2    0    0  0.00000000000E+00  0.00000000000E+00  0.48422303178E+02  0.14989252020E+04  0.14981428643E+04 0.  0.
        5    1    3    3  502    0 -0.52756478381E+03 -0.40700541825E+03  0.36660018394E+03  0.76052337009E+03  0.46999998093E+01 0.  1.
       -5    1    3    3    0  502  0.52756478381E+03  0.40700541825E+03 -0.31817788076E+03  0.73840183193E+03  0.46999998093E+01 0. -1.
</event>
<event>
 5   0  0.1216921E-04  0.1500373E+04  0.7818609E-02  0.8884205E-01
       -2   -1    0    0    0  501  0.00000000000E+00  0.00000000000E+00  0.76929617946E+03  0.76929617947E+03  0.25500000920E-02 0. -1.
        2   -1    0    0  501    0  0.00000000000E+00  0.00000000000E+00 -0.73155137342E+03  0.73155137343E+03  0.25500000920E-02 0.  1.
    10030    2    1    2    0    0  0.00000000000E+00  0.00000000000E+00  0.37744806042E+02  0.15008475529E+04  0.15003728559E+04 0.  0.
        4    1    3    3  502    0 -0.16513405738E+03 -0.73111801315E+03  0.50111399812E+02  0.75120940579E+03  0.12699999809E+01 0.  1.
       -4    1    3    3    0  502  0.16513405738E+03  0.73111801315E+03 -0.12366593770E+02  0.74963814711E+03  0.12699999809E+01 0. -1.
</event>
<event>
 5   0  0.1219810E-04  0.1498045E+04  0.7818609E-02  0.8885754E-01
        2   -1    0    0  501    0  0.00000000000E+00  0.00000000000E+00  0.85905037643E+03  0.85905037644E+03  0.25500000920E-02 0.  1.
       -2   -1    0    0    0  501  0.00000000000E+00  0.00000000000E+00 -0.65308698413E+03  0.65308698414E+03  0.25500000920E-02 0. -1.
    10030    2    1    2    0    0  0.00000000000E+00  0.00000000000E+00  0.20596339230E+03  0.15121373606E+04  0.14980448853E+04 0.  0.
        1    1    3    3  502    0  0.34797436172E+03 -0.51269683639E+03  0.52776158600E+03  0.81392659014E+03  0.50400001928E-02 0.  1.
       -1    1    3    3    0  502 -0.34797436172E+03  0.51269683639E+03 -0.32179819370E+03  0.69821077044E+03  0.50400001928E-02 0. -1.
</event>
<event>
 5   0  0.4462875E-05  0.1496533E+04  0.7818609E-02  0.8886761E-01
       -4   -1    0    0    0  501  0.00000000000E+00  0.00000000000E+00  0.29460624814E+03  0.29460898551E+03  0.12699999809E+01 0. -1.
        4   -1    0    0  501    0  0.00000000000E+00  0.00000000000E+00 -0.19005013009E+04  0.19005017252E+04  0.12699999809E+01 0.  1.
    10030    2    1    2    0    0  0.00000000000E+00  0.00000000000E+00 -0.16058950528E+04  0.21951107107E+04  0.14965333648E+04 0.  0.
        1    1    3    3  502    0  0.31879281421E+03 -0.66621696479E+03 -0.97914108568E+03  0.12264547151E+04  0.50400001928E-02 0. -1.
       -1    1    3    3    0  502 -0.31879281421E+03  0.66621696479E+03 -0.62675396709E+03  0.96865599562E+03  0.50400001928E-02 0.  1.
</event>
<event>
 5   0  0.1186664E-04  0.1503959E+04  0.7818609E-02  0.8881824E-01
        2   -1    0    0  501    0  0.00000000000E+00  0.00000000000E+00  0.16883428074E+04  0.16883428074E+04  0.25500000920E-02 0. -1.
       -2   -1    0    0    0  501  0.00000000000E+00  0.00000000000E+00 -0.33492799171E+03  0.33492799172E+03  0.25500000920E-02 0.  1.
    10030    2    1    2    0    0  0.00000000000E+00  0.00000000000E+00  0.13534148156E+04  0.20232707991E+04  0.15039591295E+04 0.  0.
        3    1    3    3  502    0 -0.71818883622E+03  0.20979282435E+03  0.77796294431E+03  0.10793676790E+04  0.10100000352E+00 0.  1.
       -3    1    3    3    0  502  0.71818883622E+03 -0.20979282435E+03  0.57545187133E+03  0.94390312005E+03  0.10100000352E+00 0. -1.
</event>
<event>
 5   0  0.1216921E-04  0.1488861E+04  0.7818609E-02  0.8891894E-01
       -2   -1    0    0    0  501  0.00000000000E+00  0.00000000000E+00  0.47698242435E+03  0.47698242436E+03  0.25500000920E-02 0.  1.
        2   -1    0    0  501    0  0.00000000000E+00  0.00000000000E+00 -0.11618384691E+04  0.11618384691E+04  0.25500000920E-02 0. -1.
    10030    2    1    2    0    0  0.00000000000E+00  0.00000000000E+00 -0.68485604478E+03  0.16388208935E+04  0.14888606781E+04 0.  0.
        4    1    3    3  502    0 -0.18322270555E+03  0.72098793283E+03 -0.31167161740E+03  0.80655748035E+03  0.12699999809E+01 0.  1.
       -4    1    3    3    0  502  0.18322270555E+03 -0.72098793283E+03 -0.37318442738E+03  0.83226341314E+03  0.12699999809E+01 0. -1.
</event>
<event>
 5   0  0.6361716E-05  0.1486914E+04  0.7818609E-02  0.8893202E-01
        1   -1    0    0  501    0  0.00000000000E+00  0.00000000000E+00  0.10233735046E+04  0.10233735046E+04  0.50400001928E-02 0. -1.
       -1   -1    0    0    0  501  0.00000000000E+00  0.00000000000E+00 -0.54010428030E+03  0.54010428033E+03  0.50400001928E-02 0.  1.
    10030    2    1    2    0    0  0.00000000000E+00  0.00000000000E+00  0.48326922426E+03  0.15634777849E+04  0.14869141336E+04 0.  0.
        3    1    3    3  502    0  0.39466298159E+03 -0.60492551528E+03  0.56396961326E+02  0.72448214300E+03  0.10100000352E+00 0. -1.
       -3    1    3    3    0  502 -0.39466298159E+03  0.60492551528E+03  0.42687226293E+03  0.83899564190E+03  0.10100000352E+00 0.  1.
</event>
<event>
 5   0  0.6509279E-05  0.1499459E+04  0.7818609E-02  0.8884813E-01
        1   -1    0    0  501    0  0.00000000000E+00  0.00000000000E+00  0.84838979837E+03  0.84838979838E+03  0.50400001928E-02 0. -1.
       -1   -1    0    0    0  501  0.00000000000E+00  0.00000000000E+00 -0.66254255783E+03  0.66254255785E+03  0.50400001928E-02 0.  1.
    10030    2    1    2    0    0  0.00000000000E+00  0.00000000000E+00  0.18584724053E+03  0.15109323562E+04  0.14994590319E+04 0.  0.
        2    1    3    3  502    0  0.63479341877E+03  0.24519044278E+03  0.40999511883E+03  0.79446650981E+03  0.25500000920E-02 0. -1.
       -2    1    3    3    0  502 -0.63479341877E+03 -0.24519044278E+03 -0.22414787830E+03  0.71646584642E+03  0.25500000920E-02 0.  1.
</event>
<event>
 5   0  0.6364378E-05  0.1498521E+04  0.7818609E-02  0.8885437E-01
        1   -1    0    0  501    0  0.00000000000E+00  0.00000000000E+00  0.12346541919E+04  0.12346541919E+04  0.50400001928E-02 0.  1.
       -1   -1    0    0    0  501  0.00000000000E+00  0.00000000000E+00 -0.45469534196E+03  0.45469534199E+03  0.50400001928E-02 0. -1.
    10030    2    1    2    0    0  0.00000000000E+00  0.00000000000E+00  0.77995884992E+03  0.16893495339E+04  0.14985212845E+04 0.  0.
        5    1    3    3  502    0 -0.62184902205E+03 -0.39759346416E+03  0.24476341813E+03  0.77762972540E+03  0.46999998093E+01 0. -1.
       -5    1    3    3    0  502  0.62184902205E+03  0.39759346416E+03  0.53519543179E+03  0.91171980848E+03  0.46999998093E+01 0.  1.
</event>
<event>
 5   0  0.1216921E-04  0.1498834E+04  0.7818609E-02  0.8885228E-01
       -2   -1    0    0    0  501  0.00000000000E+00  0.00000000000E+00  0.61386733095E+03  0.61386733096E+03  0.25500000920E-02 0.  1.
        2   -1    0    0  501    0  0.00000000000E+00  0.00000000000E+00 -0.91489821661E+03  0.91489821661E+03  0.25500000920E-02 0. -1.
    10030    2    1    2    0    0  0.00000000000E+00  0.00000000000E+00 -0.30103088566E+03  0.15287655476E+04  0.14988343822E+04 0.  0.
        4    1    3    3  502    0 -0.43861865978E+03 -0.49356918319E+03 -0.51203338076E+03  0.83556966389E+03  0.12699999809E+01 0. -1.
       -4    1    3    3    0  502  0.43861865978E+03  0.49356918319E+03  0.21100249510E+03  0.69319588367E+03  0.12699999809E+01 0.  1.
</event>
<event>
 5   0  0.6668433E-05  0.1498675E+04  0.7818609E-02  0.8885334E-01
       -1   -1    0    0    0  501  0.00000000000E+00  0.00000000000E+00  0.79869268153E+03  0.79869268155E+03  0.50400001928E-02 0.  1.
        1   -1    0    0  501    0  0.00000000000E+00  0.00000000000E+00 -0.70303265095E+03  0.70303265097E+03  0.50400001928E-02 0. -1.
    10030    2    1    2    0    0  0.00000000000E+00  0.00000000000E+00  0.95660030578E+02  0.15017253325E+04  0.14986754595E+04 0.  0.
        1    1    3    3  502    0  0.37842840771E+03  0.11117295840E+03  0.68626046488E+03  0.79153073984E+03  0.50400001928E-02 0.  1.
       -1    1    3    3    0  502 -0.37842840771E+03 -0.11117295840E+03 -0.59060043430E+03  0.71019459267E+03  0.50400001928E-02 0. -1.
</event>
<event>
 5   0  0.6364378E-05  0.1499605E+04  0.7818609E-02  0.8884716E-01
        1   -1    0    0  501    0  0.00000000000E+00  0.00000000000E+00  0.84727290942E+03  0.84727290944E+03  0.50400001928E-02 0.  1.
       -1   -1    0    0    0  501  0.00000000000E+00  0.00000000000E+00 -0.66354520871E+03  0.66354520873E+03  0.50400001928E-02 0. -1.
    10030    2    1    2    0    0  0.00000000000E+00  0.00000000000E+00  0.18372770072E+03  0.15108181182E+04  0.14996051207E+04 0.  0.
        5    1    3    3  502    0  0.49476571124E+03 -0.72592427659E+02 -0.47098967025E+03  0.68696151934E+03  0.46999998093E+01 0. -1.
       -5    1    3    3    0  502 -0.49476571124E+03  0.72592427659E+02  0.65471737097E+03  0.82385659882E+03  0.46999998093E+01 0.  1.
</event>
<event>
 5   0  0.6668433E-05  0.1500753E+04  0.7818609E-02  0.8883952E-01
       -1   -1    0    0    0  501  0.00000000000E+00  0.00000000000E+00  0.61300468863E+03  0.61300468865E+03  0.50400001928E-02 0.  1.
        1   -1    0    0  501    0  0.00000000000E+00  0.00000000000E+00 -0.91853261037E+03  0.91853261038E+03  0.50400001928E-02 0. -1.
    10030    2    1    2    0    0  0.00000000000E+00  0.00000000000E+00 -0.30552792174E+03  0.15315372990E+04  0.15007528735E+04 0.  0.
        1    1    3    3  502    0  0.55533337649E+03  0.12742741307E+02 -0.66759945711E+03  0.86847370234E+03  0.50400001928E-02 0. -1.
       -1    1    3    3    0  502 -0.55533337649E+03 -0.12742741307E+02  0.36207153537E+03  0.66306359669E+03  0.50400001928E-02 0.  1.
</event>
<event>
 5   0  0.6509279E-05  0.1496517E+04  0.7818609E-02  0.8886772E-01
       -1   -1    0    0    0  501  0.00000000000E+00  0.00000000000E+00  0.12628722678E+04  0.12628722678E+04  0.50400001928E-02 0. -1.
        1   -1    0    0  501    0  0.00000000000E+00  0.00000000000E+00 -0.44334715765E+03  0.44334715768E+03  0.50400001928E-02 0.  1.
    10030    2    1    2    0    0  0.00000000000E+00  0.00000000000E+00  0.81952511011E+03  0.17062194255E+04  0.14965170636E+04 0.  0.
        2    1    3    3  502    0 -0.51286272688E+03  0.80290872997E+02  0.10241799474E+04  0.11482244404E+04  0.25500000920E-02 0. -1.
       -2    1    3    3    0  502  0.51286272688E+03 -0.80290872997E+02 -0.20465483728E+03  0.55799498505E+03  0.25500000920E-02 0.  1.
</event>
<event>
 5   0  0.1254487E-04  0.1500333E+04  0.7818609E-02  0.8884231E-01
       -2   -1    0    0    0  501  0.00000000000E+00  0.00000000000E+00  0.29622363651E+03  0.29622363652E+03  0.25500000920E-02 0.  1.
        2   -1    0    0  501    0  0.00000000000E+00  0.00000000000E+00 -0.18997471344E+04  0.18997471344E+04  0.25500000920E-02 0. -1.
    10030    2    1    2    0    0  0.00000000000E+00  0.00000000000E+00 -0.16035234979E+04  0.21959707709E+04  0.15003333025E+04 0.  0.
        5    1    3    3  502    0  0.37211056053E+03  0.56727699387E+03 -0.12702651120E+04  0.14400920116E+04  0.46999998093E+01 0. -1.
       -5    1    3    3    0  502 -0.37211056053E+03 -0.56727699387E+03 -0.33325838583E+03  0.75587875929E+03  0.46999998093E+01 0.  1.
</event>
<event>
 5   0  0.1216921E-04  0.1501628E+04  0.7818609E-02  0.8883371E-01
        2   -1    0    0  501    0  0.00000000000E+00  0.00000000000E+00  0.24975546565E+04  0.24975546565E+04  0.25500000920E-02 0. -1.
       -2   -1    0    0    0  501  0.00000000000E+00  0.00000000000E+00 -0.22570951988E+03  0.22570951990E+03  0.25500000920E-02 0.  1.
    10030    2    1    2    0    0  0.00000000000E+00  0.00000000000E+00  0.22718451366E+04  0.27232641764E+04  0.15016282662E+04 0.  0.
        4    1    3    3  502    0  0.42289215184E+02 -0.35356688319E+03 -0.62829747967E+02  0.36158969667E+03  0.12699999809E+01 0.  1.
       -4    1    3    3    0  502 -0.42289215184E+02  0.35356688319E+03  0.23346748846E+04  0.23616744797E+04  0.12699999809E+01 0. -1.
</event>
<event>
 5   0  0.6361716E-05  0.1502682E+04  0.7818609E-02  0.8882671E-01
       -1   -1    0    0    0  501  0.00000000000E+00  0.00000000000E+00  0.35982043019E+03  0.35982043023E+03  0.50400001928E-02 0.  1.
        1   -1    0    0  501    0  0.00000000000E+00  0.00000000000E+00 -0.15688760218E+04  0.15688760219E+04  0.50400001928E-02 0. -1.
    10030    2    1    2    0    0  0.00000000000E+00  0.00000000000E+00 -0.12090555917E+04  0.19286964521E+04  0.15026824616E+04 0.  0.
        3    1    3    3  502    0  0.40634160722E+03  0.36678557305E+03  0.56031488063E+02  0.55025875388E+03  0.10100000352E+00 0.  1.
       -3    1    3    3    0  502 -0.40634160722E+03 -0.36678557305E+03 -0.12650870797E+04  0.13784376982E+04  0.10100000352E+00 0. -1.
</event>
<event>
 5   0  0.6509279E-05  0.1502086E+04  0.7818609E-02  0.8883067E-01
        1   -1    0    0  501    0  0.00000000000E+00  0.00000000000E+00  0.18000628537E+04  0.18000628537E+04  0.50400001928E-02 0.  1.
       -1   -1    0    0    0  501  0.00000000000E+00  0.00000000000E+00 -0.31335894609E+03  0.31335894613E+03  0.50400001928E-02 0. -1.
    10030    2    1    2    0    0  0.00000000000E+00  0.00000000000E+00  0.14867039076E+04  0.21134217999E+04  0.15020862809E+04 0.  0.
        2    1    3    3  502    0  0.20123919789E+03  0.57936525477E+03  0.13532537004E+04  0.14857512884E+04  0.25500000920E-02 0.  1.
       -2    1    3    3    0  502 -0.20123919789E+03 -0.57936525477E+03  0.13345020724E+03  0.62767051151E+03  0.25500000920E-02 0. -1.
</event>
<event>
 5   0  0.1216921E-04  0.1500252E+04  0.7818609E-02  0.8884286E-01
        2   -1    0    0  501    0  0.00000000000E+00  0.00000000000E+00  0.20288627990E+04  0.20288627990E+04  0.25500000920E-02 0.  1.
       -2   -1    0    0    0  501  0.00000000000E+00  0.00000000000E+00 -0.27734190157E+03  0.27734190158E+03  0.25500000920E-02 0. -1.
    10030    2    1    2    0    0  0.00000000000E+00  0.00000000000E+00  0.17515208974E+04  0.23062047006E+04  0.15002515345E+04 0.  0.
        4    1    3    3  502    0 -0.54788603163E+03  0.36068397029E+03  0.14351346141E+04  0.15779369454E+04  0.12699999809E+01 0.  1.
       -4    1    3    3    0  502  0.54788603163E+03 -0.36068397029E+03  0.31638628330E+03  0.72826775519E+03  0.12699999809E+01 0. -1.
</event>
<event>
 5   0  0.6668433E-05  0.1502121E+04  0.7818609E-02  0.8883044E-01
       -1   -1    0    0    0  501  0.00000000000E+00  0.00000000000E+00  0.59664566173E+03  0.59664566175E+03  0.50400001928E-02 0. -1.
        1   -1    0    0  501    0  0.00000000000E+00  0.00000000000E+00 -0.94543844426E+03  0.94543844427E+03  0.50400001928E-02 0.  1.
    10030    2    1    2    0    0  0.00000000000E+00  0.00000000000E+00 -0.34879278253E+03  0.15420841060E+04  0.15021208290E+04 0.  0.
        1    1    3    3  502    0 -0.43913975460E+03  0.59335844801E+03 -0.32243074152E+02  0.73888942863E+03  0.50400001928E-02 0. -1.
       -1    1    3    3    0  502  0.43913975460E+03 -0.59335844801E+03 -0.31654970838E+03  0.80319467739E+03  0.50400001928E-02 0.  1.
</event>
<event>
 5   0  0.1219810E-04  0.1492395E+04  0.7818609E-02  0.8889526E-01
        2   -1    0    0  501    0  0.00000000000E+00  0.00000000000E+00  0.86280810382E+03  0.86280810382E+03  0.25500000920E-02 0.  1.
       -2   -1    0    0    0  501  0.00000000000E+00  0.00000000000E+00 -0.64534684635E+03  0.64534684636E+03  0.25500000920E-02 0. -1.
    10030    2    1    2    0    0  0.00000000000E+00  0.00000000000E+00  0.21746125746E+03  0.15081549502E+04  0.14923947049E+04 0.  0.
        1    1    3    3  502    0  0.58242894821E+03 -0.43696740770E+03  0.27369201568E+03  0.77786330070E+03  0.50400001928E-02 0. -1.
       -1    1    3    3    0  502 -0.58242894821E+03  0.43696740770E+03 -0.56230758220E+02  0.73029164948E+03  0.50400001928E-02 0.  1.
</event>
<event>
 5   0  0.6668433E-05  0.1498861E+04  0.7818609E-02  0.8885210E-01
        1   -1    0    0  501    0  0.00000000000E+00  0.00000000000E+00  0.40399794562E+03  0.40399794565E+03  0.50400001928E-02 0.  1.
       -1   -1    0    0    0  501  0.00000000000E+00  0.00000000000E+00 -0.13902208069E+04  0.13902208069E+04  0.50400001928E-02 0. -1.
    10030    2    1    2    0    0  0.00000000000E+00  0.00000000000E+00 -0.98622286128E+03  0.17942187526E+04  0.14988613678E+04 0.  0.
        1    1    3    3  502    0 -0.23590767871E+03  0.29394812093E+03 -0.12685112079E+04  0.13233210552E+04  0.50400001928E-02 0. -1.
       -1    1    3    3    0  502  0.23590767871E+03 -0.29394812093E+03  0.28228834662E+03  0.47089769731E+03  0.50400001928E-02 0.  1.
</event>
<event>
 5   0  0.6668433E-05  0.1496743E+04  0.7818609E-02  0.8886622E-01
       -1   -1    0    0    0  501  0.00000000000E+00  0.00000000000E+00  0.38037182080E+03  0.38037182084E+03  0.50400001928E-02 0.  1.
        1   -1    0    0  501    0  0.00000000000E+00  0.00000000000E+00 -0.14724005671E+04  0.14724005671E+04  0.50400001928E-02 0. -1.
    10030    2    1    2    0    0  0.00000000000E+00  0.00000000000E+00 -0.10920287463E+04  0.18527723880E+04  0.14967427096E+04 0.  0.
        1    1    3    3  502    0  0.27888813444E+03  0.42762274742E+01  0.31362599827E+03  0.41971197799E+03  0.50400001928E-02 0.  1.
       -1    1    3    3    0  502 -0.27888813444E+03 -0.42762274742E+01 -0.14056547446E+04  0.14330604100E+04  0.50400001928E-02 0. -1.
</event>
<event>
 5   0  0.1254487E-04  0.1501307E+04  0.7818609E-02  0.8883585E-01
       -2   -1    0    0    0  501  0.00000000000E+00  0.00000000000E+00  0.35210445629E+03  0.35210445630E+03  0.25500000920E-02 0. -1.
        2   -1    0    0  501    0  0.00000000000E+00  0.00000000000E+00 -0.16003216293E+04  0.16003216293E+04  0.25500000920E-02 0.  1.
    10030    2    1    2    0    0  0.00000000000E+00  0.00000000000E+00 -0.12482171730E+04  0.19524260856E+04  0.15013066005E+04 0.  0.
        5    1    3    3  502    0  0.34645020929E+03  0.23860430664E+01  0.24188608469E+03  0.42256882123E+03  0.46999998093E+01 0. -1.
       -5    1    3    3    0  502 -0.34645020929E+03 -0.23860430664E+01 -0.14901032577E+04  0.15298572643E+04  0.46999998093E+01 0.  1.
</event>
<event>
 5   0  0.4462875E-05  0.1503282E+04  0.7818609E-02  0.8882274E-01
        3   -1    0    0  501    0  0.00000000000E+00  0.00000000000E+00  0.19182579955E+04  0.19182579981E+04  0.10100000352E+00 0. -1.
       -3   -1    0    0    0  501  0.00000000000E+00  0.00000000000E+00 -0.29451928365E+03  0.29451930097E+03  0.10100000352E+00 0.  1.
    10030    2    1    2    0    0  0.00000000000E+00  0.00000000000E+00  0.16237387118E+04  0.22127772991E+04  0.15032817338E+04 0.  0.
        2    1    3    3  502    0  0.46881517260E+03  0.57779227155E+03  0.96856560942E+03  0.12213725537E+04  0.25500000920E-02 0. -1.
       -2    1    3    3    0  502 -0.46881517260E+03 -0.57779227155E+03  0.65517310238E+03  0.99140474541E+03  0.25500000920E-02 0.  1.
</event>
<event>
 5   0  0.1186664E-04  0.1487537E+04  0.7818609E-02  0.8892783E-01
        2   -1    0    0  501    0  0.00000000000E+00  0.00000000000E+00  0.70955914681E+03  0.70955914681E+03  0.25500000920E-02 0.  1.
       -2   -1    0    0    0  501  0.00000000000E+00  0.00000000000E+00 -0.77962683598E+03  0.77962683598E+03  0.25500000920E-02 0. -1.
    10030    2    1    2    0    0  0.00000000000E+00  0.00000000000E+00 -0.70067689171E+02  0.14891859828E+04  0.14875366921E+04 0.  0.
        3    1    3    3  502    0 -0.30304386713E+03  0.36400316862E+03 -0.60913060382E+03  0.77160481782E+03  0.10100000352E+00 0. -1.
       -3    1    3    3    0  502  0.30304386713E+03 -0.36400316862E+03  0.53906291464E+03  0.71758116497E+03  0.10100000352E+00 0.  1.
</event>
<event>
 5   0  0.1216921E-04  0.1504121E+04  0.7818609E-02  0.8881717E-01
       -2   -1    0    0    0  501  0.00000000000E+00  0.00000000000E+00  0.16890357143E+04  0.16890357143E+04  0.25500000920E-02 0. -1.
        2   -1    0    0  501    0  0.00000000000E+00  0.00000000000E+00 -0.33486255928E+03  0.33486255929E+03  0.25500000920E-02 0.  1.
    10030    2    1    2    0    0  0.00000000000E+00  0.00000000000E+00  0.13541731551E+04  0.20238982736E+04  0.15041207691E+04 0.  0.
        4    1    3    3  502    0  0.55237848260E+03 -0.16898727236E+03  0.29094129103E+02  0.57838289005E+03  0.12699999809E+01 0.  1.
       -4    1    3    3    0  502 -0.55237848260E+03  0.16898727236E+03  0.13250790260E+04  0.14455153836E+04  0.12699999809E+01 0. -1.
</event>
<event>
 5   0  0.1186664E-04  0.1492447E+04  0.7818609E-02  0.8889491E-01
        2   -1    0    0  501    0  0.00000000000E+00  0.00000000000E+00  0.15043160559E+04  0.15043160559E+04  0.25500000920E-02 0.  1.
       -2   -1    0    0    0  501  0.00000000000E+00  0.00000000000E+00 -0.37016810427E+03  0.37016810428E+03  0.25500000920E-02 0. -1.
    10030    2    1    2    0    0  0.00000000000E+00  0.00000000000E+00  0.11341479517E+04  0.18744841602E+04  0.14924474164E+04 0.  0.
        3    1    3    3  502    0 -0.70872118532E+02  0.56513651624E+03  0.11726174638E+04  0.13036233604E+04  0.10100000352E+00 0.  1.
       -3    1    3    3    0  502  0.70872118532E+02 -0.56513651624E+03 -0.38469512158E+02  0.57086079980E+03  0.10100000352E+00 0. -1.
</event>
<event>
 5   0  0.1219810E-04  0.1497775E+04  0.7818609E-02  0.8885934E-01
        2   -1    0    0  501    0  0.00000000000E+00  0.00000000000E+00  0.45834293627E+03  0.45834293628E+03  0.25500000920E-02 0. -1.
       -2   -1    0    0    0  501  0.00000000000E+00  0.00000000000E+00 -0.12236090716E+04  0.12236090716E+04  0.25500000920E-02 0.  1.
    10030    2    1    2    0    0  0.00000000000E+00  0.00000000000E+00 -0.76526613534E+03  0.16819520079E+04  0.14977751163E+04 0.  0.
        1    1    3    3  502    0  0.33347193598E+03 -0.54536025210E+03  0.55484177132E+02  0.64163839551E+03  0.50400001928E-02 0. -1.
       -1    1    3    3    0  502 -0.33347193598E+03  0.54536025210E+03 -0.82075031247E+03  0.10403136124E+04  0.50400001928E-02 0.  1.
</event>
<event>
 5   0  0.6509279E-05  0.1504585E+04  0.7818609E-02  0.8881410E-01
        1   -1    0    0  501    0  0.00000000000E+00  0.00000000000E+00  0.67321622250E+03  0.67321622252E+03  0.50400001928E-02 0. -1.
       -1   -1    0    0    0  501  0.00000000000E+00  0.00000000000E+00 -0.84065725049E+03  0.84065725051E+03  0.50400001928E-02 0.  1.
    10030    2    1    2    0    0  0.00000000000E+00  0.00000000000E+00 -0.16744102799E+03  0.15138734730E+04  0.15045851237E+04 0.  0.
        2    1    3    3  502    0  0.29282571928E+03 -0.16492455451E+03  0.59348505480E+03  0.68203483842E+03  0.25500000920E-02 0. -1.
       -2    1    3    3    0  502 -0.29282571928E+03  0.16492455451E+03 -0.76092608278E+03  0.83183863460E+03  0.25500000920E-02 0.  1.
</event>
<event>
 5   0  0.6542036E-05  0.1500016E+04  0.7818609E-02  0.8884443E-01
        1   -1    0    0  501    0  0.00000000000E+00  0.00000000000E+00  0.77662842595E+03  0.77662842596E+03  0.50400001928E-02 0. -1.
       -1   -1    0    0    0  501  0.00000000000E+00  0.00000000000E+00 -0.72429963814E+03  0.72429963816E+03  0.50400001928E-02 0.  1.
    10030    2    1    2    0    0  0.00000000000E+00  0.00000000000E+00  0.52328787802E+02  0.15009280641E+04  0.15000155838E+04 0.  0.
        4    1    3    3  502    0  0.43794511522E+02  0.22393277994E+02 -0.72268291095E+03  0.72435600420E+03  0.12699999809E+01 0.  1.
       -4    1    3    3    0  502 -0.43794511522E+02 -0.22393277994E+02  0.77501169876E+03  0.77657205992E+03  0.12699999809E+01 0. -1.
</event>
<event>
 5   0  0.1254487E-04  0.1500059E+04  0.7818609E-02  0.8884414E-01
       -2   -1    0    0    0  501  0.00000000000E+00  0.00000000000E+00  0.22879866508E+03  0.22879866509E+03  0.25500000920E-02 0.  1.
        2   -1    0    0  501    0  0.00000000000E+00  0.00000000000E+00 -0.24586873412E+04  0.24586873412E+04  0.25500000920E-02 0. -1.
    10030    2    1    2    0    0  0.00000000000E+00  0.00000000000E+00 -0.22298886761E+04  0.26874860063E+04  0.15000591742E+04 0.  0.
        5    1    3    3  502    0  0.60418463665E+03  0.24244678341E+03 -0.17821817558E+04  0.18973701323E+04  0.46999998093E+01 0.  1.
       -5    1    3    3    0  502 -0.60418463665E+03 -0.24244678341E+03 -0.44770692031E+03  0.79011587406E+03  0.46999998093E+01 0. -1.
</event>
<event>
 5   0  0.6668433E-05  0.1504606E+04  0.7818609E-02  0.8881396E-01
        1   -1    0    0  501    0  0.00000000000E+00  0.00000000000E+00  0.14256205830E+04  0.14256205830E+04  0.50400001928E-02 0.  1.
       -1   -1    0    0    0  501  0.00000000000E+00  0.00000000000E+00 -0.39699208566E+03  0.39699208569E+03  0.50400001928E-02 0. -1.
    10030    2    1    2    0    0  0.00000000000E+00  0.00000000000E+00  0.10286284974E+04  0.18226126687E+04  0.15046063786E+04 0.  0.
        1    1    3    3  502    0  0.35860630498E+03  0.85223425812E+02 -0.28011547968E+03  0.46295377335E+03  0.50400001928E-02 0. -1.
       -1    1    3    3    0  502 -0.35860630498E+03 -0.85223425812E+02  0.13087439770E+04  0.13596588954E+04  0.50400001928E-02 0.  1.
</event>
<event>
 5   0  0.6542036E-05  0.1500993E+04  0.7818609E-02  0.8883793E-01
        1   -1    0    0  501    0  0.00000000000E+00  0.00000000000E+00  0.11810348815E+04  0.11810348815E+04  0.50400001928E-02 0.  1.
       -1   -1    0    0    0  501  0.00000000000E+00  0.00000000000E+00 -0.47690812425E+03  0.47690812428E+03  0.50400001928E-02 0. -1.
    10030    2    1    2    0    0  0.00000000000E+00  0.00000000000E+00  0.70412675723E+03  0.16579430058E+04  0.15009931779E+04 0.  0.
        4    1    3    3  502    0 -0.39211137896E+03 -0.14458106717E+03 -0.33648720344E+03  0.53654475067E+03  0.12699999809E+01 0. -1.
       -4    1    3    3    0  502  0.39211137896E+03  0.14458106717E+03  0.10406139607E+04  0.11213982551E+04  0.12699999809E+01 0.  1.
</event>
<event>
 5   0  0.6364378E-05  0.1499548E+04  0.7818609E-02  0.8884754E-01
        1   -1    0    0  501    0  0.00000000000E+00  0.00000000000E+00  0.11005646128E+04  0.11005646128E+04  0.50400001928E-02 0.  1.
       -1   -1    0    0    0  501  0.00000000000E+00  0.00000000000E+00 -0.51079322187E+03  0.51079322189E+03  0.50400001928E-02 0. -1.
    10030    2    1    2    0    0  0.00000000000E+00  0.00000000000E+00  0.58977139094E+03  0.16113578347E+04  0.14995478578E+04 0.  0.
        5    1    3    3  502    0  0.10225536267E+03 -0.40797959343E+03  0.96183792458E+03  0.10497894032E+04  0.46999998093E+01 0.  1.
       -5    1    3    3    0  502 -0.10225536267E+03  0.40797959343E+03 -0.37206653364E+03  0.56156843154E+03  0.46999998093E+01 0. -1.
</event>
<event>
 5   0  0.1216921E-04  0.1497582E+04  0.7818609E-02  0.8886063E-01
       -2   -1    0    0    0  501  0.00000000000E+00  0.00000000000E+00  0.51104351627E+03  0.51104351628E+03  0.25500000920E-02 0. -1.
        2   -1    0    0  501    0  0.00000000000E+00  0.00000000000E+00 -0.10971429174E+04  0.10971429174E+04  0.25500000920E-02 0.  1.
    10030    2    1    2    0    0  0.00000000000E+00  0.00000000000E+00 -0.58609940116E+03  0.16081864337E+04  0.14975817499E+04 0.  0.
        4    1    3    3  502    0 -0.40249486713E+03 -0.21156810548E+03  0.34580226650E+03  0.57126526390E+03  0.12699999809E+01 0. -1.
       -4    1    3    3    0  502  0.40249486713E+03  0.21156810548E+03 -0.93190166766E+03  0.10369211698E+04  0.12699999809E+01 0.  1.
</event>
<event>
 5   0  0.6668433E-05  0.1499528E+04  0.7818609E-02  0.8884767E-01
        1   -1    0    0  501    0  0.00000000000E+00  0.00000000000E+00  0.10145809150E+04  0.10145809150E+04  0.50400001928E-02 0.  1.
       -1   -1    0    0    0  501  0.00000000000E+00  0.00000000000E+00 -0.55406721400E+03  0.55406721402E+03  0.50400001928E-02 0. -1.
    10030    2    1    2    0    0  0.00000000000E+00  0.00000000000E+00  0.46051370096E+03  0.15686481290E+04  0.14995279537E+04 0.  0.
        1    1    3    3  502    0  0.37260001455E+03  0.16695342771E+03 -0.42757100341E+03  0.59120316377E+03  0.50400001928E-02 0. -1.
       -1    1    3    3    0  502 -0.37260001455E+03 -0.16695342771E+03  0.88808470437E+03  0.97744496522E+03  0.50400001928E-02 0.  1.
</event>
<event>
 5   0  0.1228286E-04  0.1499624E+04  0.7818609E-02  0.8884703E-01
        2   -1    0    0  501    0  0.00000000000E+00  0.00000000000E+00  0.11898427638E+04  0.11898427638E+04  0.25500000920E-02 0. -1.
       -2   -1    0    0    0  501  0.00000000000E+00  0.00000000000E+00 -0.47251467112E+03  0.47251467113E+03  0.25500000920E-02 0.  1.
    10030    2    1    2    0    0  0.00000000000E+00  0.00000000000E+00  0.71732809267E+03  0.16623574349E+04  0.14996241692E+04 0.  0.
        2    1    3    3  502    0  0.11927939545E+03  0.14082394502E+03 -0.44694513166E+03  0.48354824826E+03  0.25500000920E-02 0.  1.
       -2    1    3    3    0  502 -0.11927939545E+03 -0.14082394502E+03  0.11642732243E+04  0.11788091867E+04  0.25500000920E-02 0. -1.
</event>
<event>
 5   0  0.1254487E-04  0.1502221E+04  0.7818609E-02  0.8882978E-01
       -2   -1    0    0    0  501  0.00000000000E+00  0.00000000000E+00  0.58703728349E+03  0.58703728350E+03  0.25500000920E-02 0. -1.
        2   -1    0    0  501    0  0.00000000000E+00  0.00000000000E+00 -0.96104075045E+03  0.96104075045E+03  0.25500000920E-02 0.  1.
    10030    2    1    2    0    0  0.00000000000E+00  0.00000000000E+00 -0.37400346695E+03  0.15480780340E+04  0.15022206915E+04 0.  0.
        5    1    3    3  502    0 -0.22269294572E+03  0.48148127826E+02  0.55055159049E+03  0.59585193973E+03  0.46999998093E+01 0. -1.
       -5    1    3    3    0  502  0.22269294572E+03 -0.48148127826E+02 -0.92455505744E+03  0.95222609423E+03  0.46999998093E+01 0.  1.
</event>
<event>
 5   0  0.6361716E-05  0.1499738E+04  0.7818609E-02  0.8884627E-01
       -1   -1    0    0    0  501  0.00000000000E+00  0.00000000000E+00  0.30929376573E+03  0.30929376577E+03  0.50400001928E-02 0.  1.
        1   -1    0    0  501    0  0.00000000000E+00  0.00000000000E+00 -0.18180234243E+04  0.18180234243E+04  0.50400001928E-02 0. -1.
    10030    2    1    2    0    0  0.00000000000E+00  0.00000000000E+00 -0.15087296586E+04  0.21273171901E+04  0.14997377253E+04 0.  0.
        3    1    3    3  502    0 -0.59455902674E+03  0.27792132811E+03 -0.12688621972E+04  0.14285489094E+04  0.10100000352E+00 0.  1.
       -3    1    3    3    0  502  0.59455902674E+03 -0.27792132811E+03 -0.23986746145E+03  0.69876828074E+03  0.10100000352E+00 0. -1.
</event>
<event>
 5   0  0.6364378E-05  0.1500471E+04  0.7818609E-02  0.8884140E-01
       -1   -1    0    0    0  501  0.00000000000E+00  0.00000000000E+00  0.34870820413E+03  0.34870820417E+03  0.50400001928E-02 0.  1.
        1   -1    0    0  501    0  0.00000000000E+00  0.00000000000E+00 -0.16141097198E+04  0.16141097198E+04  0.50400001928E-02 0. -1.
    10030    2    1    2    0    0  0.00000000000E+00  0.00000000000E+00 -0.12654015157E+04  0.19628179240E+04  0.15004709950E+04 0.  0.
        5    1    3    3  502    0 -0.20771579598E+03 -0.67217922309E+03 -0.97347031048E+03  0.12010983703E+04  0.46999998093E+01 0.  1.
       -5    1    3    3    0  502  0.20771579598E+03  0.67217922309E+03 -0.29193120521E+03  0.76171955366E+03  0.46999998093E+01 0. -1.
</event>
<event>
 5   0  0.1228286E-04  0.1502518E+04  0.7818609E-02  0.8882780E-01
        2   -1    0    0  501    0  0.00000000000E+00  0.00000000000E+00  0.89198073886E+03  0.89198073886E+03  0.25500000920E-02 0.  1.
       -2   -1    0    0    0  501  0.00000000000E+00  0.00000000000E+00 -0.63273763574E+03  0.63273763575E+03  0.25500000920E-02 0. -1.
    10030    2    1    2    0    0  0.00000000000E+00  0.00000000000E+00  0.25924310311E+03  0.15247183746E+04  0.15025175990E+04 0.  0.
        2    1    3    3  502    0 -0.40671930156E+03 -0.18987942589E+02  0.77030488538E+03  0.87129257352E+03  0.25500000920E-02 0.  1.
       -2    1    3    3    0  502  0.40671930156E+03  0.18987942589E+02 -0.51106178227E+03  0.65342580109E+03  0.25500000920E-02 0. -1.
</event>
<event>
 5   0  0.6542036E-05  0.1476285E+04  0.7818609E-02  0.8900378E-01
       -1   -1    0    0    0  501  0.00000000000E+00  0.00000000000E+00  0.83576298191E+03  0.83576298192E+03  0.50400001928E-02 0.  1.
        1   -1    0    0  501    0  0.00000000000E+00  0.00000000000E+00 -0.65192417300E+03  0.65192417302E+03  0.50400001928E-02 0. -1.
    10030    2    1    2    0    0  0.00000000000E+00  0.00000000000E+00  0.18383880891E+03  0.14876871549E+04  0.14762846485E+04 0.  0.
        4    1    3    3  502    0  0.19702900198E+03 -0.18477798244E+03 -0.60032826826E+03  0.65830006303E+03  0.12699999809E+01 0. -1.
       -4    1    3    3    0  502 -0.19702900198E+03  0.18477798244E+03  0.78416707717E+03  0.82938709191E+03  0.12699999809E+01 0.  1.
</event>
<event>
 5   0  0.1186664E-04  0.1501665E+04  0.7818609E-02  0.8883346E-01
       -2   -1    0    0    0  501  0.00000000000E+00  0.00000000000E+00  0.57941941076E+03  0.57941941076E+03  0.25500000920E-02 0. -1.
        2   -1    0    0  501    0  0.00000000000E+00  0.00000000000E+00 -0.97295602114E+03  0.97295602114E+03  0.25500000920E-02 0.  1.
    10030    2    1    2    0    0  0.00000000000E+00  0.00000000000E+00 -0.39353661038E+03  0.15523754319E+04  0.15016652150E+04 0.  0.
        3    1    3    3  502    0 -0.54688598166E+03 -0.39380039816E+03  0.14544925819E+03  0.68943348296E+03  0.10100000352E+00 0. -1.
       -3    1    3    3    0  502  0.54688598166E+03  0.39380039816E+03 -0.53898586857E+03  0.86294194894E+03  0.10100000352E+00 0.  1.
</event>
<event>
 5   0  0.1254487E-04  0.1501278E+04  0.7818609E-02  0.8883604E-01
        2   -1    0    0  501    0  0.00000000000E+00  0.00000000000E+00  0.17748681217E+04  0.17748681217E+04  0.25500000920E-02 0.  1.
       -2   -1    0    0    0  501  0.00000000000E+00  0.00000000000E+00 -0.31746518557E+03  0.31746518558E+03  0.25500000920E-02 0. -1.
    10030    2    1    2    0    0  0.00000000000E+00  0.00000000000E+00  0.14574029361E+04  0.20923333073E+04  0.15012779058E+04 0.  0.
        5    1    3    3  502    0  0.16581491025E+03 -0.10436525344E+03 -0.28117936668E+03  0.34273986758E+03  0.46999998093E+01 0. -1.
       -5    1    3    3    0  502 -0.16581491025E+03  0.10436525344E+03  0.17385823028E+04  0.17495934397E+04  0.46999998093E+01 0.  1.
</event>
<event>
 5   0  0.1219810E-04  0.1500028E+04  0.7818609E-02  0.8884435E-01
        2   -1    0    0  501    0  0.00000000000E+00  0.00000000000E+00  0.15001848874E+04  0.15001848874E+04  0.25500000920E-02 0. -1.
       -2   -1    0    0    0  501  0.00000000000E+00  0.00000000000E+00 -0.37496754890E+03  0.37496754891E+03  0.25500000920E-02 0.  1.
    10030    2    1    2    0    0  0.00000000000E+00  0.00000000000E+00  0.11252173385E+04  0.18751524363E+04  0.15000275333E+04 0.  0.
        1    1    3    3  502    0  0.21452080198E+03 -0.74057268186E+02  0.14562330732E+04  0.14738108485E+04  0.50400001928E-02 0. -1.
       -1    1    3    3    0  502 -0.21452080198E+03  0.74057268186E+02 -0.33101573474E+03  0.40134158784E+03  0.50400001928E-02 0.  1.
</event>
<event>
 5   0  0.6668433E-05  0.1499228E+04  0.7818609E-02  0.8884967E-01
        1   -1    0    0  501    0  0.00000000000E+00  0.00000000000E+00  0.74810223091E+03  0.74810223093E+03  0.50400001928E-02 0.  1.
       -1   -1    0    0    0  501  0.00000000000E+00  0.00000000000E+00 -0.75112864509E+03  0.75112864511E+03  0.50400001928E-02 0. -1.
    10030    2    1    2    0    0  0.00000000000E+00  0.00000000000E+00 -0.30264141792E+01  0.14992308760E+04  0.14992278214E+04 0.  0.
        1    1    3    3  502    0  0.31420911741E+03  0.13818527842E+03  0.66489528936E+03  0.74827019616E+03  0.50400001928E-02 0.  1.
       -1    1    3    3    0  502 -0.31420911741E+03 -0.13818527842E+03 -0.66792170353E+03  0.75096067987E+03  0.50400001928E-02 0. -1.
</event>
<event>
 5   0  0.1219810E-04  0.1499961E+04  0.7818609E-02  0.8884479E-01
       -2   -1    0    0    0  501  0.00000000000E+00  0.00000000000E+00  0.45714567827E+03  0.45714567828E+03  0.25500000920E-02 0. -1.
        2   -1    0    0  501    0  0.00000000000E+00  0.00000000000E+00 -0.12303976656E+04  0.12303976656E+04  0.25500000920E-02 0.  1.
    10030    2    1    2    0    0  0.00000000000E+00  0.00000000000E+00 -0.77325198734E+03  0.16875433439E+04  0.14999613000E+04 0.  0.
        1    1    3    3  502    0  0.61114915284E+03  0.42313990678E+03 -0.27456939065E+03  0.79242603316E+03  0.50400001928E-02 0.  1.
       -1    1    3    3    0  502 -0.61114915284E+03 -0.42313990678E+03 -0.49868259670E+03  0.89511731074E+03  0.50400001928E-02 0. -1.
</event>
<event>
 5   0  0.6668433E-05  0.1500132E+04  0.7818609E-02  0.8884365E-01
        1   -1    0    0  501    0  0.00000000000E+00  0.00000000000E+00  0.16164935858E+04  0.16164935858E+04  0.50400001928E-02 0. -1.
       -1   -1    0    0    0  501  0.00000000000E+00  0.00000000000E+00 -0.34803651526E+03  0.34803651530E+03  0.50400001928E-02 0.  1.
    10030    2    1    2    0    0  0.00000000000E+00  0.00000000000E+00  0.12684570706E+04  0.19645301011E+04  0.15001317203E+04 0.  0.
        1    1    3    3  502    0 -0.15459518309E+03  0.36405800394E+03  0.14688284697E+04  0.15211492282E+04  0.50400001928E-02 0. -1.
       -1    1    3    3    0  502  0.15459518309E+03 -0.36405800394E+03 -0.20037139917E+03  0.44338087295E+03  0.50400001928E-02 0.  1.
</event>
<event>
 5   0  0.1216921E-04  0.1500642E+04  0.7818609E-02  0.8884026E-01
        2   -1    0    0  501    0  0.00000000000E+00  0.00000000000E+00  0.50265189551E+03  0.50265189552E+03  0.25500000920E-02 0.  1.
       -2   -1    0    0    0  501  0.00000000000E+00  0.00000000000E+00 -0.11200228141E+04  0.11200228141E+04  0.25500000920E-02 0. -1.
    10030    2    1    2    0    0  0.00000000000E+00  0.00000000000E+00 -0.61737091855E+03  0.16226747096E+04  0.15006419833E+04 0.  0.
        4    1    3    3  502    0 -0.31379740415E+03  0.55077113327E+03  0.12541089424E+03  0.64617888962E+03  0.12699999809E+01 0.  1.
       -4    1    3    3    0  502  0.31379740415E+03 -0.55077113327E+03 -0.74278181279E+03  0.97649581996E+03  0.12699999809E+01 0. -1.
</event>
<event>
 5   0  0.6668433E-05  0.1492254E+04  0.7818609E-02  0.8889620E-01
        1   -1    0    0  501    0  0.00000000000E+00  0.00000000000E+00  0.50195921072E+03  0.50195921074E+03  0.50400001928E-02 0.  1.
       -1   -1    0    0    0  501  0.00000000000E+00  0.00000000000E+00 -0.11090657237E+04  0.11090657237E+04  0.50400001928E-02 0. -1.
    10030    2    1    2    0    0  0.00000000000E+00  0.00000000000E+00 -0.60710651301E+03  0.16110249345E+04  0.14922543421E+04 0.  0.
        1    1    3    3  502    0 -0.55006128945E+03  0.52646005146E+02 -0.84482245009E+03  0.10094869966E+04  0.50400001928E-02 0. -1.
       -1    1    3    3    0  502  0.55006128945E+03 -0.52646005146E+02  0.23771593707E+03  0.60153793794E+03  0.50400001928E-02 0.  1.
</event>
<event>
 5   0  0.1254487E-04  0.1502072E+04  0.7818609E-02  0.8883076E-01
        2   -1    0    0  501    0  0.00000000000E+00  0.00000000000E+00  0.20024108698E+04  0.20024108698E+04  0.25500000920E-02 0.  1.
       -2   -1    0    0    0  501  0.00000000000E+00  0.00000000000E+00 -0.28168801544E+03  0.28168801546E+03  0.25500000920E-02 0. -1.
    10030    2    1    2    0    0  0.00000000000E+00  0.00000000000E+00  0.17207228544E+04  0.22840988853E+04  0.15020720942E+04 0.  0.
        5    1    3    3  502    0  0.47823710398E+02 -0.72959015388E+03  0.59943163690E+03  0.94547833250E+03  0.46999998093E+01 0. -1.
       -5    1    3    3    0  502 -0.47823710398E+02  0.72959015388E+03  0.11212912175E+04  0.13386205528E+04  0.46999998093E+01 0.  1.
</event>
<event>
 5   0  0.1254487E-04  0.1499333E+04  0.7818609E-02  0.8884896E-01
       -2   -1    0    0    0  501  0.00000000000E+00  0.00000000000E+00  0.35176389009E+03  0.35176389010E+03  0.25500000920E-02 0.  1.
        2   -1    0    0  501    0  0.00000000000E+00  0.00000000000E+00 -0.15976629618E+04  0.15976629618E+04  0.25500000920E-02 0. -1.
    10030    2    1    2    0    0  0.00000000000E+00  0.00000000000E+00 -0.12458990717E+04  0.19494268519E+04  0.14993333699E+04 0.  0.
        5    1    3    3  502    0 -0.84879539570E+02 -0.35047195447E+03 -0.14774689174E+04  0.15208456921E+04  0.46999998093E+01 0. -1.
       -5    1    3    3    0  502  0.84879539570E+02  0.35047195447E+03  0.23156984572E+03  0.42858115982E+03  0.46999998093E+01 0.  1.
</event>
<event>
 5   0  0.1228286E-04  0.1498190E+04  0.7818609E-02  0.8885658E-01
       -2   -1    0    0    0  501  0.00000000000E+00  0.00000000000E+00  0.41822597224E+03  0.41822597225E+03  0.25500000920E-02 0. -1.
        2   -1    0    0  501    0  0.00000000000E+00  0.00000000000E+00 -0.13417219954E+04  0.13417219954E+04  0.25500000920E-02 0.  1.
    10030    2    1    2    0    0  0.00000000000E+00  0.00000000000E+00 -0.92349602313E+03  0.17599479676E+04  0.14981895554E+04 0.  0.
        2    1    3    3  502    0  0.36111988225E+03 -0.15255366039E+03 -0.12116025845E+04  0.12734445459E+04  0.25500000920E-02 0.  1.
       -2    1    3    3    0  502 -0.36111988225E+03  0.15255366039E+03  0.28810656138E+03  0.48650342174E+03  0.25500000920E-02 0. -1.
</event>
<event>
 5   0  0.1228286E-04  0.1503917E+04  0.7818609E-02  0.8881852E-01
        2   -1    0    0  501    0  0.00000000000E+00  0.00000000000E+00  0.79621867730E+03  0.79621867731E+03  0.25500000920E-02 0. -1.
       -2   -1    0    0    0  501  0.00000000000E+00  0.00000000000E+00 -0.71015857289E+03  0.71015857290E+03  0.25500000920E-02 0.  1.
    10030    2    1    2    0    0  0.00000000000E+00  0.00000000000E+00  0.86060104410E+02  0.15063772502E+04  0.15039169121E+04 0.  0.
        2    1    3    3  502    0  0.83764369987E+02  0.37159812495E+03  0.69242694273E+03  0.79028900231E+03  0.25500000920E-02 0. -1.
       -2    1    3    3    0  502 -0.83764369987E+02 -0.37159812495E+03 -0.60636683832E+03  0.71608824789E+03  0.25500000920E-02 0.  1.
</event>
<event>
 5   0  0.1219810E-04  0.1503916E+04  0.7818609E-02  0.8881853E-01
        2   -1    0    0  501    0  0.00000000000E+00  0.00000000000E+00  0.10367679346E+04  0.10367679346E+04  0.25500000920E-02 0.  1.
       -2   -1    0    0    0  501  0.00000000000E+00  0.00000000000E+00 -0.54538831853E+03  0.54538831854E+03  0.25500000920E-02 0. -1.
    10030    2    1    2    0    0  0.00000000000E+00  0.00000000000E+00  0.49137961610E+03  0.15821562532E+04  0.15039163814E+04 0.  0.
        1    1    3    3  502    0 -0.58715145140E+01  0.10725185473E+03  0.10286556389E+04  0.10342484510E+04  0.50400001928E-02 0.  1.
       -1    1    3    3    0  502  0.58715145140E+01 -0.10725185473E+03 -0.53727602276E+03  0.54790780217E+03  0.50400001928E-02 0. -1.
</event>
<event>
 5   0  0.6364378E-05  0.1501522E+04  0.7818609E-02  0.8883441E-01
       -1   -1    0    0    0  501  0.00000000000E+00  0.00000000000E+00  0.11124369902E+04  0.11124369903E+04  0.50400001928E-02 0. -1.
        1   -1    0    0  501    0  0.00000000000E+00  0.00000000000E+00 -0.50667344101E+03  0.50667344104E+03  0.50400001928E-02 0.  1.
    10030    2    1    2    0    0  0.00000000000E+00  0.00000000000E+00  0.60576354923E+03  0.16191104313E+04  0.15015222646E+04 0.  0.
        5    1    3    3  502    0 -0.20973464282E+03  0.71955622048E+03  0.25624661738E+03  0.79210743826E+03  0.46999998093E+01 0. -1.
       -5    1    3    3    0  502  0.20973464282E+03 -0.71955622048E+03  0.34951693186E+03  0.82700299303E+03  0.46999998093E+01 0.  1.
</event>
<event>
 5   0  0.6361716E-05  0.1499921E+04  0.7818609E-02  0.8884506E-01
        1   -1    0    0  501    0  0.00000000000E+00  0.00000000000E+00  0.68228526455E+03  0.68228526457E+03  0.50400001928E-02 0.  1.
       -1   -1    0    0    0  501  0.00000000000E+00  0.00000000000E+00 -0.82434823788E+03  0.82434823789E+03  0.50400001928E-02 0. -1.
    10030    2    1    2    0    0  0.00000000000E+00  0.00000000000E+00 -0.14206297333E+03  0.15066335025E+04  0.14999208720E+04 0.  0.
        3    1    3    3  502    0  0.22614001222E+03  0.67424214077E+03  0.16814941356E+03  0.73076398721E+03  0.10100000352E+00 0.  1.
       -3    1    3    3    0  502 -0.22614001222E+03 -0.67424214077E+03 -0.31021238690E+03  0.77586951525E+03  0.10100000352E+00 0. -1.
</event>
<event>
 5   0  0.1186664E-04  0.1499586E+04  0.7818609E-02  0.8884728E-01
        2   -1    0    0  501    0  0.00000000000E+00  0.00000000000E+00  0.10073911403E+04  0.10073911403E+04  0.25500000920E-02 0.  1.
       -2   -1    0    0    0  501  0.00000000000E+00  0.00000000000E+00 -0.55806502399E+03  0.55806502399E+03  0.25500000920E-02 0. -1.
    10030    2    1    2    0    0  0.00000000000E+00  0.00000000000E+00  0.44932611631E+03  0.15654561643E+04  0.14995862908E+04 0.  0.
        3    1    3    3  502    0 -0.64862154987E+03  0.29292138195E+03  0.47098719622E+03  0.85342943478E+03  0.10100000352E+00 0. -1.
       -3    1    3    3    0  502  0.64862154987E+03 -0.29292138195E+03 -0.21661079907E+02  0.71202672951E+03  0.10100000352E+00 0.  1.
</event>
<event>
 5   0  0.6668433E-05  0.1500321E+04  0.7818609E-02  0.8884239E-01
        1   -1    0    0  501    0  0.00000000000E+00  0.00000000000E+00  0.16096918452E+04  0.16096918452E+04  0.50400001928E-02 0. -1.
       -1   -1    0    0    0  501  0.00000000000E+00  0.00000000000E+00 -0.34959537919E+03  0.34959537922E+03  0.50400001928E-02 0.  1.
    10030    2    1    2    0    0  0.00000000000E+00  0.00000000000E+00  0.12600964660E+04  0.19592872244E+04  0.15003210737E+04 0.  0.
        1    1    3    3  502    0 -0.27002163477E+03  0.29233838834E+03  0.14604762113E+04  0.15137252658E+04  0.50400001928E-02 0. -1.
       -1    1    3    3    0  502  0.27002163477E+03 -0.29233838834E+03 -0.20037974535E+03  0.44556195856E+03  0.50400001928E-02 0.  1.
</event>
<event>
 5   0  0.1228286E-04  0.1499491E+04  0.7818609E-02  0.8884791E-01
        2   -1    0    0  501    0  0.00000000000E+00  0.00000000000E+00  0.15977049956E+04  0.15977049956E+04  0.25500000920E-02 0.  1.
       -2   -1    0    0    0  501  0.00000000000E+00  0.00000000000E+00 -0.35182870636E+03  0.35182870637E+03  0.25500000920E-02 0. -1.
    10030    2    1    2    0    0  0.00000000000E+00  0.00000000000E+00  0.12458762892E+04  0.19495337019E+04  0.14994912227E+04 0.  0.
        2    1    3    3  502    0  0.25720203032E+03  0.33435424904E+03 -0.18290431175E+03  0.45978216093E+03  0.25500000920E-02 0. -1.
       -2    1    3    3    0  502 -0.25720203032E+03 -0.33435424904E+03  0.14287806010E+04  0.14897515410E+04  0.25500000920E-02 0.  1.
</event>
<event>
 5   0  0.6542036E-05  0.1499708E+04  0.7818609E-02  0.8884647E-01
        1   -1    0    0  501    0  0.00000000000E+00  0.00000000000E+00  0.72515418985E+03  0.72515418986E+03  0.50400001928E-02 0.  1.
       -1   -1    0    0    0  501  0.00000000000E+00  0.00000000000E+00 -0.77539513640E+03  0.77539513642E+03  0.50400001928E-02 0. -1.
    10030    2    1    2    0    0  0.00000000000E+00  0.00000000000E+00 -0.50240946554E+02  0.15005493263E+04  0.14997080142E+04 0.  0.
        4    1    3    3  502    0  0.38682070619E+03  0.62310823945E+03  0.13112500485E+03  0.74504329848E+03  0.12699999809E+01 0. -1.
       -4    1    3    3    0  502 -0.38682070619E+03 -0.62310823945E+03 -0.18136595140E+03  0.75550602780E+03  0.12699999809E+01 0.  1.
</event>
<event>
 5   0  0.6668433E-05  0.1491719E+04  0.7818609E-02  0.8889978E-01
       -1   -1    0    0    0  501  0.00000000000E+00  0.00000000000E+00  0.46877125201E+03  0.46877125204E+03  0.50400001928E-02 0.  1.
        1   -1    0    0  501    0  0.00000000000E+00  0.00000000000E+00 -0.11867332901E+04  0.11867332901E+04  0.50400001928E-02 0. -1.
    10030    2    1    2    0    0  0.00000000000E+00  0.00000000000E+00 -0.71796203806E+03  0.16555045421E+04  0.14917190757E+04 0.  0.
        1    1    3    3  502    0  0.30153603581E+03 -0.64130015983E+03 -0.10080940984E+03  0.71578796653E+03  0.50400001928E-02 0.  1.
       -1    1    3    3    0  502 -0.30153603581E+03  0.64130015983E+03 -0.61715262822E+03  0.93971657558E+03  0.50400001928E-02 0. -1.
</event>
<event>
 5   0  0.6509279E-05  0.1533930E+04  0.7818609E-02  0.8862198E-01
        1   -1    0    0  501    0  0.00000000000E+00  0.00000000000E+00  0.81336949413E+03  0.81336949414E+03  0.50400001928E-02 0.  1.
       -1   -1    0    0    0  501  0.00000000000E+00  0.00000000000E+00 -0.72320822638E+03  0.72320822639E+03  0.50400001928E-02 0. -1.
    10030    2    1    2    0    0  0.00000000000E+00  0.00000000000E+00  0.90161267752E+02  0.15365777205E+04  0.15339302582E+04 0.  0.
        2    1    3    3  502    0  0.22110598257E+03 -0.30498801558E+02 -0.68995516574E+03  0.72515940534E+03  0.25500000920E-02 0. -1.
       -2    1    3    3    0  502 -0.22110598257E+03  0.30498801558E+02  0.78011643349E+03  0.81141831519E+03  0.25500000920E-02 0.  1.
</event>
<event>
 5   0  0.6364378E-05  0.1499426E+04  0.7818609E-02  0.8884835E-01
        1   -1    0    0  501    0  0.00000000000E+00  0.00000000000E+00  0.18161357611E+04  0.18161357611E+04  0.50400001928E-02 0. -1.
       -1   -1    0    0    0  501  0.00000000000E+00  0.00000000000E+00 -0.30948653533E+03  0.30948653537E+03  0.50400001928E-02 0.  1.
    10030    2    1    2    0    0  0.00000000000E+00  0.00000000000E+00  0.15066492257E+04  0.21256222964E+04  0.14994259761E+04 0.  0.
        5    1    3    3  502    0 -0.13312274021E+03 -0.11215951351E+02  0.17991046335E+04  0.18040640326E+04  0.46999998093E+01 0. -1.
       -5    1    3    3    0  502  0.13312274021E+03  0.11215951351E+02 -0.29245540774E+03  0.32155826384E+03  0.46999998093E+01 0.  1.
</event>
<event>
 5   0  0.1216921E-04  0.1530495E+04  0.7818609E-02  0.8864424E-01
        2   -1    0    0  501    0  0.00000000000E+00  0.00000000000E+00  0.10847572943E+04  0.10847572943E+04  0.25500000920E-02 0. -1.
       -2   -1    0    0    0  501  0.00000000000E+00  0.00000000000E+00 -0.53984737870E+03  0.53984737871E+03  0.25500000920E-02 0.  1.
    10030    2    1    2    0    0  0.00000000000E+00  0.00000000000E+00  0.54490991560E+03  0.16246046730E+04  0.15304945369E+04 0.  0.
        4    1    3    3  502    0 -0.59199929333E+03  0.20879178622E+03 -0.19211472610E+03  0.65648065789E+03  0.12699999809E+01 0.  1.
       -4    1    3    3    0  502  0.59199929333E+03 -0.20879178622E+03  0.73702464170E+03  0.96812401513E+03  0.12699999809E+01 0. -1.
</event>
<event>
 5   0  0.1216921E-04  0.1499757E+04  0.7818609E-02  0.8884614E-01
       -2   -1    0    0    0  501  0.00000000000E+00  0.00000000000E+00  0.72289379826E+03  0.72289379826E+03  0.25500000920E-02 0.  1.
        2   -1    0    0  501    0  0.00000000000E+00  0.00000000000E+00 -0.77787070549E+03  0.77787070549E+03  0.25500000920E-02 0. -1.
    10030    2    1    2    0    0  0.00000000000E+00  0.00000000000E+00 -0.54976907228E+02  0.15007645038E+04  0.14997571921E+04 0.  0.
        4    1    3    3  502    0 -0.19829368190E+03 -0.26579919111E+03 -0.70050743022E+03  0.77503668750E+03  0.12699999809E+01 0. -1.
       -4    1    3    3    0  502  0.19829368190E+03  0.26579919111E+03  0.64553052299E+03  0.72572781626E+03  0.12699999809E+01 0.  1.
</event>
<event>
 5   0  0.6509279E-05  0.1499774E+04  0.7818609E-02  0.8884603E-01
        1   -1    0    0  501    0  0.00000000000E+00  0.00000000000E+00  0.23163272024E+04  0.23163272024E+04  0.50400001928E-02 0. -1.
       -1   -1    0    0    0  501  0.00000000000E+00  0.00000000000E+00 -0.24276811450E+03  0.24276811455E+03  0.50400001928E-02 0.  1.
    10030    2    1    2    0    0  0.00000000000E+00  0.00000000000E+00  0.20735590879E+04  0.25590953170E+04  0.14997738330E+04 0.  0.
        2    1    3    3  502    0  0.21063860998E+03  0.60004976729E+03  0.35874072163E+03  0.73015289672E+03  0.25500000920E-02 0.  1.
       -2    1    3    3    0  502 -0.21063860998E+03 -0.60004976729E+03  0.17148183663E+04  0.18289424202E+04  0.25500000920E-02 0. -1.
</event>
<event>
 5   0  0.1216921E-04  0.1498156E+04  0.7818609E-02  0.8885680E-01
        2   -1    0    0  501    0  0.00000000000E+00  0.00000000000E+00  0.49569542664E+03  0.49569542664E+03  0.25500000920E-02 0. -1.
       -2   -1    0    0    0  501  0.00000000000E+00  0.00000000000E+00 -0.11319813705E+04  0.11319813705E+04  0.25500000920E-02 0.  1.
    10030    2    1    2    0    0  0.00000000000E+00  0.00000000000E+00 -0.63628594386E+03  0.16276767971E+04  0.14981561847E+04 0.  0.
        4    1    3    3  502    0  0.49619063737E+01  0.65309870915E+03 -0.71667122454E+03  0.96962972386E+03  0.12699999809E+01 0.  1.
       -4    1    3    3    0  502 -0.49619063737E+01 -0.65309870915E+03  0.80385280672E+02  0.65804707329E+03  0.12699999809E+01 0. -1.
</event>
<event>
 5   0  0.1219810E-04  0.1500811E+04  0.7818609E-02  0.8883914E-01
        2   -1    0    0  501    0  0.00000000000E+00  0.00000000000E+00  0.61993852068E+03  0.61993852068E+03  0.25500000920E-02 0.  1.
       -2   -1    0    0    0  501  0.00000000000E+00  0.00000000000E+00 -0.90832916765E+03  0.90832916766E+03  0.25500000920E-02 0. -1.
    10030    2    1    2    0    0  0.00000000000E+00  0.00000000000E+00 -0.28839064698E+03  0.15282676883E+04  0.15008107682E+04 0.  0.
        1    1    3    3  502    0 -0.12130149873E+03 -0.64590480889E+03 -0.51303899739E+03  0.83373622244E+03  0.50400001928E-02 0. -1.
       -1    1    3    3    0  502  0.12130149873E+03  0.64590480889E+03  0.22464835041E+03  0.69453146589E+03  0.50400001928E-02 0.  1.
</event>
<event>
 5   0  0.1216921E-04  0.1501308E+04  0.7818609E-02  0.8883584E-01
        2   -1    0    0  501    0  0.00000000000E+00  0.00000000000E+00  0.80543914179E+03  0.80543914180E+03  0.25500000920E-02 0. -1.
       -2   -1    0    0    0  501  0.00000000000E+00  0.00000000000E+00 -0.69959508212E+03  0.69959508213E+03  0.25500000920E-02 0.  1.
    10030    2    1    2    0    0  0.00000000000E+00  0.00000000000E+00  0.10584405967E+03  0.15050342239E+04  0.15013077800E+04 0.  0.
        4    1    3    3  502    0  0.19448327850E+03 -0.62611910834E+03 -0.31354074848E+03  0.72674500156E+03  0.12699999809E+01 0.  1.
       -4    1    3    3    0  502 -0.19448327850E+03  0.62611910834E+03  0.41938480815E+03  0.77828922236E+03  0.12699999809E+01 0. -1.
</event>
<event>
 5   0  0.6364378E-05  0.1498978E+04  0.7818609E-02  0.8885133E-01
       -1   -1    0    0    0  501  0.00000000000E+00  0.00000000000E+00  0.48334308858E+03  0.48334308861E+03  0.50400001928E-02 0. -1.
        1   -1    0    0  501    0  0.00000000000E+00  0.00000000000E+00 -0.11621839782E+04  0.11621839782E+04  0.50400001928E-02 0.  1.
    10030    2    1    2    0    0  0.00000000000E+00  0.00000000000E+00 -0.67884088962E+03  0.16455270668E+04  0.14989777764E+04 0.  0.
        5    1    3    3  502    0 -0.87279853013E+02 -0.39689323688E+03  0.35188421641E+03  0.53757474455E+03  0.46999998093E+01 0. -1.
       -5    1    3    3    0  502  0.87279853013E+02  0.39689323688E+03 -0.10307251060E+04  0.11079523223E+04  0.46999998093E+01 0.  1.
</event>
<event>
 5   0  0.1254487E-04  0.1500196E+04  0.7818609E-02  0.8884322E-01
        2   -1    0    0  501    0  0.00000000000E+00  0.00000000000E+00  0.11078559997E+04  0.11078559997E+04  0.25500000920E-02 0.  1.
       -2   -1    0    0    0  501  0.00000000000E+00  0.00000000000E+00 -0.50787028804E+03  0.50787028805E+03  0.25500000920E-02 0. -1.
    10030    2    1    2    0    0  0.00000000000E+00  0.00000000000E+00  0.59998571161E+03  0.16157262877E+04  0.15001961814E+04 0.  0.
        5    1    3    3  502    0  0.17293259620E+03 -0.69150677441E+03  0.55151044329E+03  0.90126198242E+03  0.46999998093E+01 0.  1.
       -5    1    3    3    0  502 -0.17293259620E+03  0.69150677441E+03  0.48475268318E+02  0.71446430528E+03  0.46999998093E+01 0. -1.
</event>
<event>
 5   0  0.6364378E-05  0.1498385E+04  0.7818609E-02  0.8885528E-01
       -1   -1    0    0    0  501  0.00000000000E+00  0.00000000000E+00  0.49843824906E+03  0.49843824909E+03  0.50400001928E-02 0. -1.
        1   -1    0    0  501    0  0.00000000000E+00  0.00000000000E+00 -0.11260962866E+04  0.11260962866E+04  0.50400001928E-02 0.  1.
    10030    2    1    2    0    0  0.00000000000E+00  0.00000000000E+00 -0.62765803754E+03  0.16245345357E+04  0.14983850792E+04 0.  0.
        5    1    3    3  502    0 -0.66382521230E+03  0.34119017550E+03 -0.38403168343E+03  0.83939089358E+03  0.46999998093E+01 0.  1.
       -5    1    3    3    0  502  0.66382521230E+03 -0.34119017550E+03 -0.24362635411E+03  0.78514364212E+03  0.46999998093E+01 0. -1.
</event>
<event>
 5   0  0.6361716E-05  0.1499117E+04  0.7818609E-02  0.8885040E-01
        1   -1    0    0  501    0  0.00000000000E+00  0.00000000000E+00  0.76211590153E+03  0.76211590154E+03  0.50400001928E-02 0. -1.
       -1   -1    0    0    0  501  0.00000000000E+00  0.00000000000E+00 -0.73720801649E+03  0.73720801651E+03  0.50400001928E-02 0.  1.
    10030    2    1    2    0    0  0.00000000000E+00  0.00000000000E+00  0.24907885037E+02  0.14993239181E+04  0.14991170096E+04 0.  0.
        3    1    3    3  502    0  0.10351671004E+03 -0.45975643075E+03  0.59541195749E+03  0.75934649153E+03  0.10100000352E+00 0. -1.
       -3    1    3    3    0  502 -0.10351671004E+03  0.45975643075E+03 -0.57050407246E+03  0.73997742652E+03  0.10100000352E+00 0.  1.
</event>
<event>
 5   0  0.1254487E-04  0.1501260E+04  0.7818609E-02  0.8883616E-01
       -2   -1    0    0    0  501  0.00000000000E+00  0.00000000000E+00  0.91788656421E+03  0.91788656422E+03  0.25500000920E-02 0. -1.
        2   -1    0    0  501    0  0.00000000000E+00  0.00000000000E+00 -0.61385048886E+03  0.61385048886E+03  0.25500000920E-02 0.  1.
    10030    2    1    2    0    0  0.00000000000E+00  0.00000000000E+00  0.30403607536E+03  0.15317370531E+04  0.15012596260E+04 0.  0.
        5    1    3    3  502    0  0.18251666767E+03 -0.31849544376E+03 -0.51600376892E+03  0.63327218572E+03  0.46999998093E+01 0.  1.
       -5    1    3    3    0  502 -0.18251666767E+03  0.31849544376E+03  0.82003984428E+03  0.89846486736E+03  0.46999998093E+01 0. -1.
</event>
<event>
 5   0  0.6668433E-05  0.1500883E+04  0.7818609E-02  0.8883866E-01
        1   -1    0    0  501    0  0.00000000000E+00  0.00000000000E+00  0.56035958414E+03  0.56035958416E+03  0.50400001928E-02 0.  1.
       -1   -1    0    0    0  501  0.00000000000E+00  0.00000000000E+00 -0.10050012457E+04  0.10050012457E+04  0.50400001928E-02 0. -1.
    10030    2    1    2    0    0  0.00000000000E+00  0.00000000000E+00 -0.44464166151E+03  0.15653608298E+04  0.15008825139E+04 0.  0.
        1    1    3    3  502    0  0.68861511741E+03  0.95501075427E+02  0.72397753187E+02  0.69896542834E+03  0.50400001928E-02 0.  1.
       -1    1    3    3    0  502 -0.68861511741E+03 -0.95501075427E+02 -0.51703941470E+03  0.86639540148E+03  0.50400001928E-02 0. -1.
</event>
<event>
 5   0  0.6542036E-05  0.1498356E+04  0.7818609E-02  0.8885547E-01
       -1   -1    0    0    0  501  0.00000000000E+00  0.00000000000E+00  0.20481362602E+04  0.20481362603E+04  0.50400001928E-02 0.  1.
        1   -1    0    0  501    0  0.00000000000E+00  0.00000000000E+00 -0.27403811550E+03  0.27403811555E+03  0.50400001928E-02 0. -1.
    10030    2    1    2    0    0  0.00000000000E+00  0.00000000000E+00  0.17740981447E+04  0.23221743758E+04  0.14983556335E+04 0.  0.
        4    1    3    3  502    0  0.56821705889E+03  0.41669606870E+03  0.49265368262E+03  0.85977642651E+03  0.12699999809E+01 0. -1.
       -4    1    3    3    0  502 -0.56821705889E+03 -0.41669606870E+03  0.12814444621E+04  0.14623979493E+04  0.12699999809E+01 0.  1.
</event>
<event>
 5   0  0.6364378E-05  0.1499279E+04  0.7818609E-02  0.8884933E-01
       -1   -1    0    0    0  501  0.00000000000E+00  0.00000000000E+00  0.57232806768E+03  0.57232806771E+03  0.50400001928E-02 0.  1.
        1   -1    0    0  501    0  0.00000000000E+00  0.00000000000E+00 -0.98188269656E+03  0.98188269657E+03  0.50400001928E-02 0. -1.
    10030    2    1    2    0    0  0.00000000000E+00  0.00000000000E+00 -0.40955462887E+03  0.15542107643E+04  0.14992785284E+04 0.  0.
        5    1    3    3  502    0 -0.41545304152E+02  0.15706205531E+03  0.55384311778E+03  0.57719909098E+03  0.46999998093E+01 0.  1.
       -5    1    3    3    0  502  0.41545304152E+02 -0.15706205531E+03 -0.96339774665E+03  0.97701167330E+03  0.46999998093E+01 0. -1.
</event>
<event>
 5   0  0.6668433E-05  0.1503571E+04  0.7818609E-02  0.8882082E-01
        1   -1    0    0  501    0  0.00000000000E+00  0.00000000000E+00  0.10214496941E+04  0.10214496941E+04  0.50400001928E-02 0. -1.
       -1   -1    0    0    0  501  0.00000000000E+00  0.00000000000E+00 -0.55331327161E+03  0.55331327164E+03  0.50400001928E-02 0.  1.
    10030    2    1    2    0    0  0.00000000000E+00  0.00000000000E+00  0.46813642251E+03  0.15747629658E+04  0.15035713113E+04 0.  0.
        1    1    3    3  502    0 -0.44776745285E+03 -0.57707731997E+03  0.47688023286E+02  0.73197545905E+03  0.50400001928E-02 0.  1.
       -1    1    3    3    0  502  0.44776745285E+03  0.57707731997E+03  0.42044839922E+03  0.84278750673E+03  0.50400001928E-02 0. -1.
</event>
<event>
 5   0  0.6668433E-05  0.1506560E+04  0.7818609E-02  0.8880102E-01
       -1   -1    0    0    0  501  0.00000000000E+00  0.00000000000E+00  0.40913882549E+03  0.40913882553E+03  0.50400001928E-02 0. -1.
        1   -1    0    0  501    0  0.00000000000E+00  0.00000000000E+00 -0.13868901348E+04  0.13868901348E+04  0.50400001928E-02 0.  1.
    10030    2    1    2    0    0  0.00000000000E+00  0.00000000000E+00 -0.97775130931E+03  0.17960289603E+04  0.15065597909E+04 0.  0.
        1    1    3    3  502    0  0.51984843475E+03 -0.16476704701E+03 -0.11083752593E+04  0.12352676999E+04  0.50400001928E-02 0.  1.
       -1    1    3    3    0  502 -0.51984843475E+03  0.16476704701E+03  0.13062395000E+03  0.56076126046E+03  0.50400001928E-02 0. -1.
</event>
<event>
 5   0  0.1216921E-04  0.1508579E+04  0.7818609E-02  0.8878768E-01
        2   -1    0    0  501    0  0.00000000000E+00  0.00000000000E+00  0.81351973525E+03  0.81351973525E+03  0.25500000920E-02 0. -1.
       -2   -1    0    0    0  501  0.00000000000E+00  0.00000000000E+00 -0.69937198364E+03  0.69937198364E+03  0.25500000920E-02 0.  1.
    10030    2    1    2    0    0  0.00000000000E+00  0.00000000000E+00  0.11414775161E+03  0.15128917189E+04  0.15085793462E+04 0.  0.
        4    1    3    3  502    0 -0.45517461278E+03 -0.24391006152E+03  0.60844114813E+03  0.79804654617E+03  0.12699999809E+01 0. -1.
       -4    1    3    3    0  502  0.45517461278E+03  0.24391006152E+03 -0.49429339651E+03  0.71484517272E+03  0.12699999809E+01 0.  1.
</event>
<event>
 5   0  0.6542036E-05  0.1501246E+04  0.7818609E-02  0.8883625E-01
        1   -1    0    0  501    0  0.00000000000E+00  0.00000000000E+00  0.23460623226E+04  0.23460623226E+04  0.50400001928E-02 0.  1.
       -1   -1    0    0    0  501  0.00000000000E+00  0.00000000000E+00 -0.24016189358E+03  0.24016189364E+03  0.50400001928E-02 0. -1.
    10030    2    1    2    0    0  0.00000000000E+00  0.00000000000E+00  0.21059004290E+04  0.25862242162E+04  0.15012458425E+04 0.  0.
        4    1    3    3  502    0 -0.21075980712E+03  0.69559820974E+03  0.72993889893E+03  0.10300917312E+04  0.12699999809E+01 0. -1.
       -4    1    3    3    0  502  0.21075980712E+03 -0.69559820974E+03  0.13759615300E+04  0.15561324850E+04  0.12699999809E+01 0.  1.
</event>
<event>
 5   0  0.6668433E-05  0.1496301E+04  0.7818609E-02  0.8886916E-01
        1   -1    0    0  501    0  0.00000000000E+00  0.00000000000E+00  0.18075417614E+04  0.18075417614E+04  0.50400001928E-02 0.  1.
       -1   -1    0    0    0  501  0.00000000000E+00  0.00000000000E+00 -0.30966316912E+03  0.30966316916E+03  0.50400001928E-02 0. -1.
    10030    2    1    2    0    0  0.00000000000E+00  0.00000000000E+00  0.14978785922E+04  0.21172049305E+04  0.14963009192E+04 0.  0.
        1    1    3    3  502    0 -0.25463069178E+03 -0.70285287694E+03  0.79115525052E+03  0.10884693777E+04  0.50400001928E-02 0.  1.
       -1    1    3    3    0  502  0.25463069178E+03  0.70285287694E+03  0.70672334172E+03  0.10287355528E+04  0.50400001928E-02 0. -1.
</event>
<event>
 5   0  0.6361716E-05  0.1502109E+04  0.7818609E-02  0.8883052E-01
       -1   -1    0    0    0  501  0.00000000000E+00  0.00000000000E+00  0.55610959573E+03  0.55610959575E+03  0.50400001928E-02 0. -1.
        1   -1    0    0  501    0  0.00000000000E+00  0.00000000000E+00 -0.10143369777E+04  0.10143369777E+04  0.50400001928E-02 0.  1.
    10030    2    1    2    0    0  0.00000000000E+00  0.00000000000E+00 -0.45822738195E+03  0.15704465735E+04  0.15021085535E+04 0.  0.
        3    1    3    3  502    0 -0.24005894190E+03 -0.42127443767E+03  0.37055028639E+03  0.61025238415E+03  0.10100000352E+00 0. -1.
       -3    1    3    3    0  502  0.24005894190E+03  0.42127443767E+03 -0.82877766834E+03  0.96019418930E+03  0.10100000352E+00 0.  1.
</event>
<event>
 5   0  0.6364378E-05  0.1503181E+04  0.7818609E-02  0.8882340E-01
       -1   -1    0    0    0  501  0.00000000000E+00  0.00000000000E+00  0.82197875216E+03  0.82197875218E+03  0.50400001928E-02 0. -1.
        1   -1    0    0  501    0  0.00000000000E+00  0.00000000000E+00 -0.68723004095E+03  0.68723004097E+03  0.50400001928E-02 0.  1.
    10030    2    1    2    0    0  0.00000000000E+00  0.00000000000E+00  0.13474871121E+03  0.15092087931E+04  0.15031812819E+04 0.  0.
        5    1    3    3  502    0 -0.23727766402E+03  0.44251123944E+03  0.62885693965E+03  0.80473599858E+03  0.46999998093E+01 0. -1.
       -5    1    3    3    0  502  0.23727766402E+03 -0.44251123944E+03 -0.49410822844E+03  0.70447279456E+03  0.46999998093E+01 0.  1.
</event>
<event>
 5   0  0.1216921E-04  0.1499914E+04  0.7818609E-02  0.8884510E-01
        2   -1    0    0  501    0  0.00000000000E+00  0.00000000000E+00  0.17078047054E+04  0.17078047054E+04  0.25500000920E-02 0.  1.
       -2   -1    0    0    0  501  0.00000000000E+00  0.00000000000E+00 -0.32933261727E+03  0.32933261728E+03  0.25500000920E-02 0. -1.
    10030    2    1    2    0    0  0.00000000000E+00  0.00000000000E+00  0.13784720881E+04  0.20371373226E+04  0.14999143888E+04 0.  0.
        4    1    3    3  502    0 -0.12748468724E+03  0.35820844365E+03  0.15671939120E+04  0.16126574358E+04  0.12699999809E+01 0.  1.
       -4    1    3    3    0  502  0.12748468724E+03 -0.35820844365E+03 -0.18872182393E+03  0.42447988681E+03  0.12699999809E+01 0. -1.
</event>
<event>
 5   0  0.6509279E-05  0.1499255E+04  0.7818609E-02  0.8884948E-01
       -1   -1    0    0    0  501  0.00000000000E+00  0.00000000000E+00  0.48795772254E+03  0.48795772256E+03  0.50400001928E-02 0. -1.
        1   -1    0    0  501    0  0.00000000000E+00  0.00000000000E+00 -0.11516190758E+04  0.11516190758E+04  0.50400001928E-02 0.  1.
    10030    2    1    2    0    0  0.00000000000E+00  0.00000000000E+00 -0.66366135322E+03  0.16395767983E+04  0.14992550436E+04 0.  0.
        2    1    3    3  502    0  0.13952521721E+03 -0.49993114626E+03  0.25966433877E+03  0.58036540737E+03  0.25500000920E-02 0. -1.
       -2    1    3    3    0  502 -0.13952521721E+03  0.49993114626E+03 -0.92332569199E+03  0.10592113910E+04  0.25500000920E-02 0.  1.
</event>
<event>
 5   0  0.6542036E-05  0.1496849E+04  0.7818609E-02  0.8886551E-01
        1   -1    0    0  501    0  0.00000000000E+00  0.00000000000E+00  0.12001848841E+04  0.12001848841E+04  0.50400001928E-02 0.  1.
       -1   -1    0    0    0  501  0.00000000000E+00  0.00000000000E+00 -0.46671106024E+03  0.46671106027E+03  0.50400001928E-02 0. -1.
    10030    2    1    2    0    0  0.00000000000E+00  0.00000000000E+00  0.73347382388E+03  0.16668959444E+04  0.14968494377E+04 0.  0.
        4    1    3    3  502    0  0.42622936878E+03 -0.48587043409E+03  0.78695995767E+03  0.10183560975E+04  0.12699999809E+01 0.  1.
       -4    1    3    3    0  502 -0.42622936878E+03  0.48587043409E+03 -0.53486133794E+02  0.64853984684E+03  0.12699999809E+01 0. -1.
</event>
<event>
 5   0  0.1216921E-04  0.1496632E+04  0.7818609E-02  0.8886696E-01
        2   -1    0    0  501    0  0.00000000000E+00  0.00000000000E+00  0.14748830371E+04  0.14748830371E+04  0.25500000920E-02 0.  1.
       -2   -1    0    0    0  501  0.00000000000E+00  0.00000000000E+00 -0.37967537649E+03  0.37967537650E+03  0.25500000920E-02 0. -1.
    10030    2    1    2    0    0  0.00000000000E+00  0.00000000000E+00  0.10952076606E+04  0.18545584136E+04  0.14966319152E+04 0.  0.
        4    1    3    3  502    0 -0.49750882214E+03  0.23786374498E+03  0.11744262321E+04  0.12974485643E+04  0.12699999809E+01 0.  1.
       -4    1    3    3    0  502  0.49750882214E+03 -0.23786374498E+03 -0.79218571508E+02  0.55710984936E+03  0.12699999809E+01 0. -1.
</event>
<event>
 5   0  0.1254487E-04  0.1499287E+04  0.7818609E-02  0.8884927E-01
        2   -1    0    0  501    0  0.00000000000E+00  0.00000000000E+00  0.67068950252E+03  0.67068950253E+03  0.25500000920E-02 0. -1.
       -2   -1    0    0    0  501  0.00000000000E+00  0.00000000000E+00 -0.83789232738E+03  0.83789232738E+03  0.25500000920E-02 0.  1.
    10030    2    1    2    0    0  0.00000000000E+00  0.00000000000E+00 -0.16720282485E+03  0.15085818299E+04  0.14992872816E+04 0.  0.
        5    1    3    3  502    0  0.63940856330E+03 -0.32313896180E+03 -0.30560783560E+03  0.77889687292E+03  0.46999998093E+01 0.  1.
       -5    1    3    3    0  502 -0.63940856330E+03  0.32313896180E+03  0.13840501075E+03  0.72968495699E+03  0.46999998093E+01 0. -1.
</event>
<event>
 5   0  0.6542036E-05  0.1502207E+04  0.7818609E-02  0.8882987E-01
        1   -1    0    0  501    0  0.00000000000E+00  0.00000000000E+00  0.13200269222E+04  0.13200269222E+04  0.50400001928E-02 0. -1.
       -1   -1    0    0    0  501  0.00000000000E+00  0.00000000000E+00 -0.42738231880E+03  0.42738231883E+03  0.50400001928E-02 0.  1.
    10030    2    1    2    0    0  0.00000000000E+00  0.00000000000E+00  0.89264460341E+03  0.17474092410E+04  0.15022065995E+04 0.  0.
        4    1    3    3  502    0  0.18643202548E+03  0.24428684259E+03 -0.35091062039E+03  0.46644703664E+03  0.12699999809E+01 0.  1.
       -4    1    3    3    0  502 -0.18643202548E+03 -0.24428684259E+03  0.12435552238E+04  0.12809622044E+04  0.12699999809E+01 0. -1.
</event>
<event>
 5   0  0.1216921E-04  0.1485125E+04  0.7818609E-02  0.8894405E-01
        2   -1    0    0  501    0  0.00000000000E+00  0.00000000000E+00  0.18357565620E+04  0.18357565620E+04  0.25500000920E-02 0.  1.
       -2   -1    0    0    0  501  0.00000000000E+00  0.00000000000E+00 -0.30036615742E+03  0.30036615743E+03  0.25500000920E-02 0. -1.
    10030    2    1    2    0    0  0.00000000000E+00  0.00000000000E+00  0.15353904046E+04  0.21361227195E+04  0.14851251052E+04 0.  0.
        4    1    3    3  502    0 -0.85182131803E+02 -0.72240127733E+03  0.55301075554E+03  0.91375166742E+03  0.12699999809E+01 0. -1.
       -4    1    3    3    0  502  0.85182131803E+02  0.72240127733E+03  0.98237964906E+03  0.12223710520E+04  0.12699999809E+01 0.  1.
</event>
<event>
 5   0  0.1186664E-04  0.1534099E+04  0.7818609E-02  0.8862089E-01
       -2   -1    0    0    0  501  0.00000000000E+00  0.00000000000E+00  0.86411423835E+03  0.86411423835E+03  0.25500000920E-02 0. -1.
        2   -1    0    0  501    0  0.00000000000E+00  0.00000000000E+00 -0.68088831933E+03  0.68088831933E+03  0.25500000920E-02 0.  1.
    10030    2    1    2    0    0  0.00000000000E+00  0.00000000000E+00  0.18322591902E+03  0.15450025577E+04  0.15340994641E+04 0.  0.
        3    1    3    3  502    0 -0.19161359524E+03 -0.46816941300E+03 -0.48908446434E+03  0.70363484323E+03  0.10100000352E+00 0.  1.
       -3    1    3    3    0  502  0.19161359524E+03  0.46816941300E+03  0.67231038336E+03  0.84136771445E+03  0.10100000352E+00 0. -1.
</event>
<event>
 5   0  0.6364378E-05  0.1501609E+04  0.7818609E-02  0.8883383E-01
        1   -1    0    0  501    0  0.00000000000E+00  0.00000000000E+00  0.88978948224E+03  0.88978948226E+03  0.50400001928E-02 0. -1.
       -1   -1    0    0    0  501  0.00000000000E+00  0.00000000000E+00 -0.63352922508E+03  0.63352922510E+03  0.50400001928E-02 0.  1.
    10030    2    1    2    0    0  0.00000000000E+00  0.00000000000E+00  0.25626025716E+03  0.15233187074E+04  0.15016093249E+04 0.  0.
        5    1    3    3  502    0  0.82513685933E+02 -0.11720108274E+03 -0.61950567706E+03  0.63588833616E+03  0.46999998093E+01 0.  1.
       -5    1    3    3    0  502 -0.82513685933E+02  0.11720108274E+03  0.87576593422E+03  0.88743037119E+03  0.46999998093E+01 0. -1.
</event>
<event>
 5   0  0.1228286E-04  0.1504046E+04  0.7818609E-02  0.8881767E-01
        2   -1    0    0  501    0  0.00000000000E+00  0.00000000000E+00  0.12658638576E+04  0.12658638576E+04  0.25500000920E-02 0.  1.
       -2   -1    0    0    0  501  0.00000000000E+00  0.00000000000E+00 -0.44676125935E+03  0.44676125935E+03  0.25500000920E-02 0. -1.
    10030    2    1    2    0    0  0.00000000000E+00  0.00000000000E+00  0.81910259827E+03  0.17126251170E+04  0.15040464503E+04 0.  0.
        2    1    3    3  502    0 -0.11761416284E+03  0.67233268827E+03  0.76904666993E+03  0.10282495395E+04  0.25500000920E-02 0. -1.
       -2    1    3    3    0  502  0.11761416284E+03 -0.67233268827E+03  0.50055928334E+02  0.68437557743E+03  0.25500000920E-02 0.  1.
</event>
<event>
 5   0  0.4462875E-05  0.1497518E+04  0.7818609E-02  0.8886105E-01
        3   -1    0    0  501    0  0.00000000000E+00  0.00000000000E+00  0.88272341864E+03  0.88272342442E+03  0.10100000352E+00 0.  1.
       -3   -1    0    0    0  501  0.00000000000E+00  0.00000000000E+00 -0.63512529004E+03  0.63512529807E+03  0.10100000352E+00 0. -1.
    10030    2    1    2    0    0  0.00000000000E+00  0.00000000000E+00  0.24759812860E+03  0.15178487225E+04  0.14975179168E+04 0.  0.
        4    1    3    3  502    0 -0.28010500376E+03 -0.37364427646E+03  0.71703959299E+03  0.85569635343E+03  0.12699999809E+01 0.  1.
       -4    1    3    3    0  502  0.28010500376E+03  0.37364427646E+03 -0.46944146439E+03  0.66215236905E+03  0.12699999809E+01 0. -1.
</event>
<event>
 5   0  0.1228286E-04  0.1472019E+04  0.7818609E-02  0.8903276E-01
       -2   -1    0    0    0  501  0.00000000000E+00  0.00000000000E+00  0.97704130736E+03  0.97704130736E+03  0.25500000920E-02 0. -1.
        2   -1    0    0  501    0  0.00000000000E+00  0.00000000000E+00 -0.55443895467E+03  0.55443895468E+03  0.25500000920E-02 0.  1.
    10030    2    1    2    0    0  0.00000000000E+00  0.00000000000E+00  0.42260235269E+03  0.15314802620E+04  0.14720186971E+04 0.  0.
        2    1    3    3  502    0  0.61700096379E+03 -0.18415867295E+03 -0.15961831871E+03  0.66338722766E+03  0.25500000920E-02 0.  1.
       -2    1    3    3    0  502 -0.61700096379E+03  0.18415867295E+03  0.58222067140E+03  0.86809303439E+03  0.25500000920E-02 0. -1.
</event>
<event>
 5   0  0.6361716E-05  0.1501444E+04  0.7818609E-02  0.8883494E-01
        1   -1    0    0  501    0  0.00000000000E+00  0.00000000000E+00  0.86717569750E+03  0.86717569752E+03  0.50400001928E-02 0.  1.
       -1   -1    0    0    0  501  0.00000000000E+00  0.00000000000E+00 -0.64990661113E+03  0.64990661115E+03  0.50400001928E-02 0. -1.
    10030    2    1    2    0    0  0.00000000000E+00  0.00000000000E+00  0.21726908637E+03  0.15170823087E+04  0.15014435971E+04 0.  0.
        3    1    3    3  502    0 -0.58676693367E+03  0.23677451502E+03  0.51685452855E+03  0.81700441816E+03  0.10100000352E+00 0.  1.
       -3    1    3    3    0  502  0.58676693367E+03 -0.23677451502E+03 -0.29958544218E+03  0.70007789051E+03  0.10100000352E+00 0. -1.
</event>
<event>
 5   0  0.1186664E-04  0.1499470E+04  0.7818609E-02  0.8884805E-01
        2   -1    0    0  501    0  0.00000000000E+00  0.00000000000E+00  0.15256392952E+04  0.15256392952E+04  0.25500000920E-02 0.  1.
       -2   -1    0    0    0  501  0.00000000000E+00  0.00000000000E+00 -0.36843744843E+03  0.36843744844E+03  0.25500000920E-02 0. -1.
    10030    2    1    2    0    0  0.00000000000E+00  0.00000000000E+00  0.11572018467E+04  0.18940767436E+04  0.14994701053E+04 0.  0.
        3    1    3    3  502    0 -0.53655898441E+03 -0.26308688826E+03  0.11505121521E+04  0.12964522656E+04  0.10100000352E+00 0.  1.
       -3    1    3    3    0  502  0.53655898441E+03  0.26308688826E+03  0.66896946163E+01  0.59762447803E+03  0.10100000352E+00 0. -1.
</event>
<event>
 5   0  0.6542036E-05  0.1500586E+04  0.7818609E-02  0.8884064E-01
       -1   -1    0    0    0  501  0.00000000000E+00  0.00000000000E+00  0.14209573405E+04  0.14209573405E+04  0.50400001928E-02 0.  1.
        1   -1    0    0  501    0  0.00000000000E+00  0.00000000000E+00 -0.39616900020E+03  0.39616900023E+03  0.50400001928E-02 0. -1.
    10030    2    1    2    0    0  0.00000000000E+00  0.00000000000E+00  0.10247883403E+04  0.18171263408E+04  0.15005855510E+04 0.  0.
        4    1    3    3  502    0  0.11097710875E+03  0.49249512786E+03  0.11845179416E+04  0.12876147469E+04  0.12699999809E+01 0.  1.
       -4    1    3    3    0  502 -0.11097710875E+03 -0.49249512786E+03 -0.15972960124E+03  0.52951159387E+03  0.12699999809E+01 0. -1.
</event>
<event>
 5   0  0.6361716E-05  0.1499305E+04  0.7818609E-02  0.8884915E-01
        1   -1    0    0  501    0  0.00000000000E+00  0.00000000000E+00  0.74575683074E+03  0.74575683076E+03  0.50400001928E-02 0.  1.
       -1   -1    0    0    0  501  0.00000000000E+00  0.00000000000E+00 -0.75356840648E+03  0.75356840650E+03  0.50400001928E-02 0. -1.
    10030    2    1    2    0    0  0.00000000000E+00  0.00000000000E+00 -0.78115757395E+01  0.14993252373E+04  0.14993048877E+04 0.  0.
        3    1    3    3  502    0 -0.55712390507E+03  0.49817913168E+03  0.54484075045E+02  0.74935840389E+03  0.10100000352E+00 0. -1.
       -3    1    3    3    0  502  0.55712390507E+03 -0.49817913168E+03 -0.62295650785E+02  0.74996683337E+03  0.10100000352E+00 0.  1.
</event>
<event>
 5   0  0.1228286E-04  0.1496813E+04  0.7818609E-02  0.8886575E-01
        2   -1    0    0  501    0  0.00000000000E+00  0.00000000000E+00  0.13313945120E+04  0.13313945120E+04  0.25500000920E-02 0. -1.
       -2   -1    0    0    0  501  0.00000000000E+00  0.00000000000E+00 -0.42069583290E+03  0.42069583290E+03  0.25500000920E-02 0.  1.
    10030    2    1    2    0    0  0.00000000000E+00  0.00000000000E+00  0.91069867913E+03  0.17520903449E+04  0.14968127781E+04 0.  0.
        2    1    3    3  502    0  0.39565543254E+03 -0.59342695776E+03  0.72076525156E+03  0.10140026249E+04  0.25500000920E-02 0. -1.
       -2    1    3    3    0  502 -0.39565543254E+03  0.59342695776E+03  0.18993342757E+03  0.73808772000E+03  0.25500000920E-02 0.  1.
</event>
<event>
 5   0  0.6364378E-05  0.1500266E+04  0.7818609E-02  0.8884276E-01
       -1   -1    0    0    0  501  0.00000000000E+00  0.00000000000E+00  0.82327020451E+03  0.82327020453E+03  0.50400001928E-02 0. -1.
        1   -1    0    0  501    0  0.00000000000E+00  0.00000000000E+00 -0.68349353959E+03  0.68349353961E+03  0.50400001928E-02 0.  1.
    10030    2    1    2    0    0  0.00000000000E+00  0.00000000000E+00  0.13977666492E+03  0.15067637441E+04  0.15002664645E+04 0.  0.
        5    1    3    3  502    0  0.31553913279E+03  0.66225069386E+03 -0.87432474975E+02  0.73878782714E+03  0.46999998093E+01 0.  1.
       -5    1    3    3    0  502 -0.31553913279E+03 -0.66225069386E+03  0.22720913989E+03  0.76797591700E+03  0.46999998093E+01 0. -1.
</event>
<event>
 5   0  0.1216921E-04  0.1498166E+04  0.7818609E-02  0.8885673E-01
       -2   -1    0    0    0  501  0.00000000000E+00  0.00000000000E+00  0.60173304924E+03  0.60173304924E+03  0.25500000920E-02 0. -1.
        2   -1    0    0  501    0  0.00000000000E+00  0.00000000000E+00 -0.93251551999E+03  0.93251552000E+03  0.25500000920E-02 0.  1.
    10030    2    1    2    0    0  0.00000000000E+00  0.00000000000E+00 -0.33078247076E+03  0.15342485692E+04  0.14981660887E+04 0.  0.
        4    1    3    3  502    0  0.59949329565E+03  0.22683342944E+03 -0.56238503622E+03  0.85271575457E+03  0.12699999809E+01 0.  1.
       -4    1    3    3    0  502 -0.59949329565E+03 -0.22683342944E+03  0.23160256546E+03  0.68153281466E+03  0.12699999809E+01 0. -1.
</event>
<event>
 5   0  0.1186664E-04  0.1492854E+04  0.7818609E-02  0.8889219E-01
        2   -1    0    0  501    0  0.00000000000E+00  0.00000000000E+00  0.10764574067E+04  0.10764574067E+04  0.25500000920E-02 0.  1.
       -2   -1    0    0    0  501  0.00000000000E+00  0.00000000000E+00 -0.51758015981E+03  0.51758015982E+03  0.25500000920E-02 0. -1.
    10030    2    1    2    0    0  0.00000000000E+00  0.00000000000E+00  0.55887724684E+03  0.15940375665E+04  0.14928536386E+04 0.  0.
        3    1    3    3  502    0 -0.50718158141E+03  0.11038189727E+03 -0.29332861711E+03  0.59620383057E+03  0.10100000352E+00 0. -1.
       -3    1    3    3    0  502  0.50718158141E+03 -0.11038189727E+03  0.85220586395E+03  0.99783373591E+03  0.10100000352E+00 0.  1.
</event>
<event>
 5   0  0.4462875E-05  0.1498445E+04  0.7818609E-02  0.8885487E-01
        4   -1    0    0  501    0  0.00000000000E+00  0.00000000000E+00  0.34465087121E+03  0.34465321111E+03  0.12699999809E+01 0. -1.
       -4   -1    0    0    0  501  0.00000000000E+00  0.00000000000E+00 -0.16286969763E+04  0.16286974715E+04  0.12699999809E+01 0.  1.
    10030    2    1    2    0    0  0.00000000000E+00  0.00000000000E+00 -0.12840461051E+04  0.19733506826E+04  0.14984453665E+04 0.  0.
        4    1    3    3  502    0  0.21793408939E+03  0.48669904427E+03  0.51040858691E+02  0.53570328463E+03  0.12699999809E+01 0. -1.
       -4    1    3    3    0  502 -0.21793408939E+03 -0.48669904427E+03 -0.13350869638E+04  0.14376473979E+04  0.12699999809E+01 0.  1.
</event>
<event>
 5   0  0.6542036E-05  0.1506977E+04  0.7818609E-02  0.8879826E-01
       -1   -1    0    0    0  501  0.00000000000E+00  0.00000000000E+00  0.67547816094E+03  0.67547816096E+03  0.50400001928E-02 0. -1.
        1   -1    0    0  501    0  0.00000000000E+00  0.00000000000E+00 -0.84050846893E+03  0.84050846895E+03  0.50400001928E-02 0.  1.
    10030    2    1    2    0    0  0.00000000000E+00  0.00000000000E+00 -0.16503030799E+03  0.15159866299E+04  0.15069772591E+04 0.  0.
        4    1    3    3  502    0  0.73733207275E+03 -0.11620574576E+03 -0.18599479791E+03  0.76925810922E+03  0.12699999809E+01 0. -1.
       -4    1    3    3    0  502 -0.73733207275E+03  0.11620574576E+03  0.20964489919E+02  0.74672852068E+03  0.12699999809E+01 0.  1.
</event>
<event>
 5   0  0.6361716E-05  0.1481568E+04  0.7818609E-02  0.8896803E-01
       -1   -1    0    0    0  501  0.00000000000E+00  0.00000000000E+00  0.57858776035E+03  0.57858776037E+03  0.50400001928E-02 0. -1.
        1   -1    0    0  501    0  0.00000000000E+00  0.00000000000E+00 -0.94844949399E+03  0.94844949401E+03  0.50400001928E-02 0.  1.
    10030    2    1    2    0    0  0.00000000000E+00  0.00000000000E+00 -0.36986173365E+03  0.15270372544E+04  0.14815684507E+04 0.  0.
        3    1    3    3  502    0 -0.67171182054E+03 -0.41796121096E+02  0.13411306860E+03  0.68624340504E+03  0.10100000352E+00 0. -1.
       -3    1    3    3    0  502  0.67171182054E+03  0.41796121096E+02 -0.50397480224E+03  0.84079384934E+03  0.10100000352E+00 0.  1.
</event>
<event>
 5   0  0.6364378E-05  0.1500509E+04  0.7818609E-02  0.8884114E-01
       -1   -1    0    0    0  501  0.00000000000E+00  0.00000000000E+00  0.63681492368E+03  0.63681492370E+03  0.50400001928E-02 0.  1.
        1   -1    0    0  501    0  0.00000000000E+00  0.00000000000E+00 -0.88390191130E+03  0.88390191131E+03  0.50400001928E-02 0. -1.
    10030    2    1    2    0    0  0.00000000000E+00  0.00000000000E+00 -0.24708698761E+03  0.15207168350E+04  0.15005091512E+04 0.  0.
        5    1    3    3  502    0 -0.63653479391E+03  0.37469450892E+03 -0.25679543139E+03  0.78200927261E+03  0.46999998093E+01 0. -1.
       -5    1    3    3    0  502  0.63653479391E+03 -0.37469450892E+03  0.97084437728E+01  0.73870756240E+03  0.46999998093E+01 0.  1.
</event>
<event>
 5   0  0.1216921E-04  0.1500987E+04  0.7818609E-02  0.8883797E-01
        2   -1    0    0  501    0  0.00000000000E+00  0.00000000000E+00  0.72458628255E+03  0.72458628255E+03  0.25500000920E-02 0.  1.
       -2   -1    0    0    0  501  0.00000000000E+00  0.00000000000E+00 -0.77732666948E+03  0.77732666948E+03  0.25500000920E-02 0. -1.
    10030    2    1    2    0    0  0.00000000000E+00  0.00000000000E+00 -0.52740386930E+02  0.15019129520E+04  0.15009866645E+04 0.  0.
        4    1    3    3  502    0  0.41817360561E+03 -0.18765015247E+03 -0.62100697245E+03  0.77183742905E+03  0.12699999809E+01 0. -1.
       -4    1    3    3    0  502 -0.41817360561E+03  0.18765015247E+03  0.56826658552E+03  0.73007552299E+03  0.12699999809E+01 0.  1.
</event>
<event>
 5   0  0.1219810E-04  0.1464906E+04  0.7818609E-02  0.8908131E-01
       -2   -1    0    0    0  501  0.00000000000E+00  0.00000000000E+00  0.10964069598E+04  0.10964069598E+04  0.25500000920E-02 0.  1.
        2   -1    0    0  501    0  0.00000000000E+00  0.00000000000E+00 -0.48931437964E+03  0.48931437965E+03  0.25500000920E-02 0. -1.
    10030    2    1    2    0    0  0.00000000000E+00  0.00000000000E+00  0.60709258017E+03  0.15857213395E+04  0.14649064016E+04 0.  0.
        1    1    3    3  502    0 -0.79176485728E+02 -0.34457104954E+02 -0.48378543764E+03  0.49143113218E+03  0.50400001928E-02 0. -1.
       -1    1    3    3    0  502  0.79176485728E+02  0.34457104954E+02  0.10908780178E+04  0.10942902073E+04  0.50400001928E-02 0.  1.
</event>
<event>
 5   0  0.1254487E-04  0.1498672E+04  0.7818609E-02  0.8885337E-01
        2   -1    0    0  501    0  0.00000000000E+00  0.00000000000E+00  0.95654400948E+03  0.95654400948E+03  0.25500000920E-02 0.  1.
       -2   -1    0    0    0  501  0.00000000000E+00  0.00000000000E+00 -0.58701354830E+03  0.58701354830E+03  0.25500000920E-02 0. -1.
    10030    2    1    2    0    0  0.00000000000E+00  0.00000000000E+00  0.36953046118E+03  0.15435575578E+04  0.14986718028E+04 0.  0.
        5    1    3    3  502    0 -0.62080811801E+03 -0.41827017193E+03  0.21938055823E+03  0.78006575071E+03  0.46999998093E+01 0. -1.
       -5    1    3    3    0  502  0.62080811801E+03  0.41827017193E+03  0.15014990296E+03  0.76349180707E+03  0.46999998093E+01 0.  1.
</event>
<event>
 5   0  0.1216921E-04  0.1496080E+04  0.7818609E-02  0.8887064E-01
       -2   -1    0    0    0  501  0.00000000000E+00  0.00000000000E+00  0.10278884732E+04  0.10278884732E+04  0.25500000920E-02 0. -1.
        2   -1    0    0  501    0  0.00000000000E+00  0.00000000000E+00 -0.54438162822E+03  0.54438162822E+03  0.25500000920E-02 0.  1.
    10030    2    1    2    0    0  0.00000000000E+00  0.00000000000E+00  0.48350684497E+03  0.15722701014E+04  0.14960796779E+04 0.  0.
        4    1    3    3  502    0  0.27498793703E+02  0.24179442719E+03  0.98512438156E+03  0.10147375960E+04  0.12699999809E+01 0. -1.
       -4    1    3    3    0  502 -0.27498793703E+02 -0.24179442719E+03 -0.50161753660E+03  0.55753250541E+03  0.12699999809E+01 0.  1.
</event>
<event>
 5   0  0.1228286E-04  0.1498471E+04  0.7818609E-02  0.8885470E-01
        2   -1    0    0  501    0  0.00000000000E+00  0.00000000000E+00  0.14409966577E+04  0.14409966577E+04  0.25500000920E-02 0.  1.
       -2   -1    0    0    0  501  0.00000000000E+00  0.00000000000E+00 -0.38955965902E+03  0.38955965903E+03  0.25500000920E-02 0. -1.
    10030    2    1    2    0    0  0.00000000000E+00  0.00000000000E+00  0.10514369987E+04  0.18305563167E+04  0.14984714433E+04 0.  0.
        2    1    3    3  502    0 -0.44396215975E+03 -0.48592869161E+03  0.88446480012E+02  0.66411736347E+03  0.25500000920E-02 0. -1.
       -2    1    3    3    0  502  0.44396215975E+03  0.48592869161E+03  0.96299051865E+03  0.11664389532E+04  0.25500000920E-02 0.  1.
</event>
<event>
 5   0  0.1254487E-04  0.1508206E+04  0.7818609E-02  0.8879014E-01
        2   -1    0    0  501    0  0.00000000000E+00  0.00000000000E+00  0.14367669952E+04  0.14367669952E+04  0.25500000920E-02 0. -1.
       -2   -1    0    0    0  501  0.00000000000E+00  0.00000000000E+00 -0.39579944734E+03  0.39579944735E+03  0.25500000920E-02 0.  1.
    10030    2    1    2    0    0  0.00000000000E+00  0.00000000000E+00  0.10409675478E+04  0.18325664425E+04  0.15082063289E+04 0.  0.
        5    1    3    3  502    0  0.60320730022E+03 -0.14259285918E+03  0.10423358209E+04  0.12127150630E+04  0.46999998093E+01 0. -1.
       -5    1    3    3    0  502 -0.60320730022E+03  0.14259285918E+03 -0.13682730625E+01  0.61985137952E+03  0.46999998093E+01 0.  1.
</event>
<event>
 5   0  0.1254487E-04  0.1500526E+04  0.7818609E-02  0.8884103E-01
        2   -1    0    0  501    0  0.00000000000E+00  0.00000000000E+00  0.12352937164E+04  0.12352937164E+04  0.25500000920E-02 0.  1.
       -2   -1    0    0    0  501  0.00000000000E+00  0.00000000000E+00 -0.45567661342E+03  0.45567661343E+03  0.25500000920E-02 0. -1.
    10030    2    1    2    0    0  0.00000000000E+00  0.00000000000E+00  0.77961710300E+03  0.16909703298E+04  0.15005258509E+04 0.  0.
        5    1    3    3  502    0 -0.71946015851E+03  0.76426228226E+01  0.62937095610E+03  0.95593473614E+03  0.46999998093E+01 0.  1.
       -5    1    3    3    0  502  0.71946015851E+03 -0.76426228226E+01  0.15024614690E+03  0.73503559371E+03  0.46999998093E+01 0. -1.
</event>
<event>
 5   0  0.6509279E-05  0.1500431E+04  0.7818609E-02  0.8884166E-01
        1   -1    0    0  501    0  0.00000000000E+00  0.00000000000E+00  0.92917350862E+03  0.92917350864E+03  0.50400001928E-02 0.  1.
       -1   -1    0    0    0  501  0.00000000000E+00  0.00000000000E+00 -0.60572476462E+03  0.60572476464E+03  0.50400001928E-02 0. -1.
    10030    2    1    2    0    0  0.00000000000E+00  0.00000000000E+00  0.32344874401E+03  0.15348982733E+04  0.15004311445E+04 0.  0.
        2    1    3    3  502    0 -0.68897899741E+03  0.10046597368E+03 -0.12404547950E+03  0.70722892455E+03  0.25500000920E-02 0. -1.
       -2    1    3    3    0  502  0.68897899741E+03 -0.10046597368E+03  0.44749422350E+03  0.82766934872E+03  0.25500000920E-02 0.  1.
</event>
<event>
 5   0  0.6509279E-05  0.1501902E+04  0.7818609E-02  0.8883189E-01
        1   -1    0    0  501    0  0.00000000000E+00  0.00000000000E+00  0.85540461838E+03  0.85540461840E+03  0.50400001928E-02 0.  1.
       -1   -1    0    0    0  501  0.00000000000E+00  0.00000000000E+00 -0.65925237625E+03  0.65925237627E+03  0.50400001928E-02 0. -1.
    10030    2    1    2    0    0  0.00000000000E+00  0.00000000000E+00  0.19615224213E+03  0.15146569947E+04  0.15019021637E+04 0.  0.
        2    1    3    3  502    0 -0.14406489176E+03  0.36590794612E+03 -0.54711019309E+03  0.67377509709E+03  0.25500000920E-02 0. -1.
       -2    1    3    3    0  502  0.14406489176E+03 -0.36590794612E+03  0.74326243522E+03  0.84088189758E+03  0.25500000920E-02 0.  1.
</event>
<event>
 5   0  0.6509279E-05  0.1499086E+04  0.7818609E-02  0.8885061E-01
       -1   -1    0    0    0  501  0.00000000000E+00  0.00000000000E+00  0.36951519720E+03  0.36951519723E+03  0.50400001928E-02 0. -1.
        1   -1    0    0  501    0  0.00000000000E+00  0.00000000000E+00 -0.15204110952E+04  0.15204110952E+04  0.50400001928E-02 0.  1.
    10030    2    1    2    0    0  0.00000000000E+00  0.00000000000E+00 -0.11508958980E+04  0.18899262925E+04  0.14990863961E+04 0.  0.
        2    1    3    3  502    0  0.56029408579E+02  0.65095282396E+03 -0.10385560013E+04  0.12269789899E+04  0.25500000920E-02 0.  1.
       -2    1    3    3    0  502 -0.56029408579E+02 -0.65095282396E+03 -0.11233989670E+03  0.66294730261E+03  0.25500000920E-02 0. -1.
</event>
<event>
 5   0  0.6364378E-05  0.1500624E+04  0.7818609E-02  0.8884038E-01
        1   -1    0    0  501    0  0.00000000000E+00  0.00000000000E+00  0.48469581838E+03  0.48469581841E+03  0.50400001928E-02 0. -1.
       -1   -1    0    0    0  501  0.00000000000E+00  0.00000000000E+00 -0.11614877323E+04  0.11614877323E+04  0.50400001928E-02 0.  1.
    10030    2    1    2    0    0  0.00000000000E+00  0.00000000000E+00 -0.67679191394E+03  0.16461835507E+04  0.15006241994E+04 0.  0.
        5    1    3    3  502    0  0.63839984070E+03 -0.35689191608E+03 -0.15476746303E+03  0.74759698634E+03  0.46999998093E+01 0. -1.
       -5    1    3    3    0  502 -0.63839984070E+03  0.35689191608E+03 -0.52202445091E+03  0.89858656440E+03  0.46999998093E+01 0.  1.
</event>
<event>
 5   0  0.1186664E-04  0.1501039E+04  0.7818609E-02  0.8883762E-01
        2   -1    0    0  501    0  0.00000000000E+00  0.00000000000E+00  0.17544592784E+04  0.17544592784E+04  0.25500000920E-02 0. -1.
       -2   -1    0    0    0  501  0.00000000000E+00  0.00000000000E+00 -0.32105608487E+03  0.32105608488E+03  0.25500000920E-02 0.  1.
    10030    2    1    2    0    0  0.00000000000E+00  0.00000000000E+00  0.14334031935E+04  0.20755153632E+04  0.15010394092E+04 0.  0.
        3    1    3    3  502    0  0.62591828710E+02  0.74387252758E+03  0.60945624546E+03  0.96369134044E+03  0.10100000352E+00 0. -1.
       -3    1    3    3    0  502 -0.62591828710E+02 -0.74387252758E+03  0.82394694804E+03  0.11118240228E+04  0.10100000352E+00 0.  1.
</event>
<event>
 5   0  0.6361716E-05  0.1499927E+04  0.7818609E-02  0.8884502E-01
        1   -1    0    0  501    0  0.00000000000E+00  0.00000000000E+00  0.13421038639E+04  0.13421038639E+04  0.50400001928E-02 0. -1.
       -1   -1    0    0    0  501  0.00000000000E+00  0.00000000000E+00 -0.41907713764E+03  0.41907713767E+03  0.50400001928E-02 0.  1.
    10030    2    1    2    0    0  0.00000000000E+00  0.00000000000E+00  0.92302672622E+03  0.17611810015E+04  0.14999267258E+04 0.  0.
        3    1    3    3  502    0  0.38066154109E+03  0.17369725975E+03 -0.26928497400E+03  0.49758251008E+03  0.10100000352E+00 0.  1.
       -3    1    3    3    0  502 -0.38066154109E+03 -0.17369725975E+03  0.11923117002E+04  0.12635984915E+04  0.10100000352E+00 0. -1.
</event>
<event>
 5   0  0.6509279E-05  0.1492613E+04  0.7818609E-02  0.8889380E-01
       -1   -1    0    0    0  501  0.00000000000E+00  0.00000000000E+00  0.10346162064E+04  0.10346162064E+04  0.50400001928E-02 0. -1.
        1   -1    0    0  501    0  0.00000000000E+00  0.00000000000E+00 -0.53833809987E+03  0.53833809990E+03  0.50400001928E-02 0.  1.
    10030    2    1    2    0    0  0.00000000000E+00  0.00000000000E+00  0.49627810653E+03  0.15729543063E+04  0.14926129072E+04 0.  0.
        2    1    3    3  502    0  0.19570701142E+03  0.71774257865E+03  0.31064150103E+03  0.80619711343E+03  0.25500000920E-02 0. -1.
       -2    1    3    3    0  502 -0.19570701142E+03 -0.71774257865E+03  0.18563660550E+03  0.76675719288E+03  0.25500000920E-02 0.  1.
</event>
<event>
 5   0  0.6364378E-05  0.1477112E+04  0.7818609E-02  0.8899817E-01
        1   -1    0    0  501    0  0.00000000000E+00  0.00000000000E+00  0.18234633300E+04  0.18234633300E+04  0.50400001928E-02 0. -1.
       -1   -1    0    0    0  501  0.00000000000E+00  0.00000000000E+00 -0.29913696817E+03  0.29913696822E+03  0.50400001928E-02 0.  1.
    10030    2    1    2    0    0  0.00000000000E+00  0.00000000000E+00  0.15243263618E+04  0.21226002982E+04  0.14771124428E+04 0.  0.
        5    1    3    3  502    0  0.10431681560E+03  0.27511662299E+03  0.17355836316E+04  0.17603533130E+04  0.46999998093E+01 0. -1.
       -5    1    3    3    0  502 -0.10431681560E+03 -0.27511662299E+03 -0.21125726979E+03  0.36224698522E+03  0.46999998093E+01 0.  1.
</event>
<event>
 5   0  0.1228286E-04  0.1500352E+04  0.7818609E-02  0.8884219E-01
        2   -1    0    0  501    0  0.00000000000E+00  0.00000000000E+00  0.98324477375E+03  0.98324477376E+03  0.25500000920E-02 0.  1.
       -2   -1    0    0    0  501  0.00000000000E+00  0.00000000000E+00 -0.57235357826E+03  0.57235357826E+03  0.25500000920E-02 0. -1.
    10030    2    1    2    0    0  0.00000000000E+00  0.00000000000E+00  0.41089119550E+03  0.15555983520E+04  0.15003515116E+04 0.  0.
        2    1    3    3  502    0  0.72696440998E+03 -0.95972940118E+02  0.41261847112E+02  0.73443216068E+03  0.25500000920E-02 0. -1.
       -2    1    3    3    0  502 -0.72696440998E+03  0.95972940118E+02  0.36962934839E+03  0.82116619134E+03  0.25500000920E-02 0.  1.
</event>
<event>
 5   0  0.1216921E-04  0.1499236E+04  0.7818609E-02  0.8884961E-01
       -2   -1    0    0    0  501  0.00000000000E+00  0.00000000000E+00  0.93891612556E+03  0.93891612557E+03  0.25500000920E-02 0. -1.
        2   -1    0    0  501    0  0.00000000000E+00  0.00000000000E+00 -0.59848532300E+03  0.59848532301E+03  0.25500000920E-02 0.  1.
    10030    2    1    2    0    0  0.00000000000E+00  0.00000000000E+00  0.34043080256E+03  0.15374014486E+04  0.14992364999E+04 0.  0.
        4    1    3    3  502    0  0.32616053693E+03 -0.27828687344E+03 -0.46033733222E+03  0.62907579203E+03  0.12699999809E+01 0.  1.
       -4    1    3    3    0  502 -0.32616053693E+03  0.27828687344E+03  0.80076813477E+03  0.90832565655E+03  0.12699999809E+01 0. -1.
</event>
<event>
 5   0  0.6361716E-05  0.1498877E+04  0.7818609E-02  0.8885200E-01
       -1   -1    0    0    0  501  0.00000000000E+00  0.00000000000E+00  0.36537454594E+03  0.36537454598E+03  0.50400001928E-02 0. -1.
        1   -1    0    0  501    0  0.00000000000E+00  0.00000000000E+00 -0.15372117025E+04  0.15372117025E+04  0.50400001928E-02 0.  1.
    10030    2    1    2    0    0  0.00000000000E+00  0.00000000000E+00 -0.11718371565E+04  0.19025862485E+04  0.14988769500E+04 0.  0.
        3    1    3    3  502    0 -0.42644569558E+03  0.61435884911E+03 -0.64765204303E+03  0.98931587766E+03  0.10100000352E+00 0.  1.
       -3    1    3    3    0  502  0.42644569558E+03 -0.61435884911E+03 -0.52418511349E+03  0.91327037079E+03  0.10100000352E+00 0. -1.
</event>
<event>
 5   0  0.1228286E-04  0.1500740E+04  0.7818609E-02  0.8883961E-01
        2   -1    0    0  501    0  0.00000000000E+00  0.00000000000E+00  0.84195847615E+03  0.84195847615E+03  0.25500000920E-02 0. -1.
       -2   -1    0    0    0  501  0.00000000000E+00  0.00000000000E+00 -0.66874479535E+03  0.66874479536E+03  0.25500000920E-02 0.  1.
    10030    2    1    2    0    0  0.00000000000E+00  0.00000000000E+00  0.17321368079E+03  0.15107032715E+04  0.15007402824E+04 0.  0.
        2    1    3    3  502    0 -0.22872774687E+03  0.26160845570E+03  0.75607833650E+03  0.83211166151E+03  0.25500000920E-02 0. -1.
       -2    1    3    3    0  502  0.22872774687E+03 -0.26160845570E+03 -0.58286465571E+03  0.67859161000E+03  0.25500000920E-02 0.  1.
</event>
<event>
 5   0  0.6364378E-05  0.1502645E+04  0.7818609E-02  0.8882696E-01
       -1   -1    0    0    0  501  0.00000000000E+00  0.00000000000E+00  0.79931160918E+03  0.79931160920E+03  0.50400001928E-02 0. -1.
        1   -1    0    0  501    0  0.00000000000E+00  0.00000000000E+00 -0.70621434774E+03  0.70621434776E+03  0.50400001928E-02 0.  1.
    10030    2    1    2    0    0  0.00000000000E+00  0.00000000000E+00  0.93097261445E+02  0.15055259570E+04  0.15026447707E+04 0.  0.
        5    1    3    3  502    0  0.16215124730E+03  0.31333872420E+03  0.71113718777E+03  0.79385916441E+03  0.46999998093E+01 0. -1.
       -5    1    3    3    0  502 -0.16215124730E+03 -0.31333872420E+03 -0.61803992633E+03  0.71166679255E+03  0.46999998093E+01 0.  1.
</event>
<event>
 5   0  0.6542036E-05  0.1500906E+04  0.7818609E-02  0.8883851E-01
        1   -1    0    0  501    0  0.00000000000E+00  0.00000000000E+00  0.10957731074E+04  0.10957731074E+04  0.50400001928E-02 0.  1.
       -1   -1    0    0    0  501  0.00000000000E+00  0.00000000000E+00 -0.51395628271E+03  0.51395628274E+03  0.50400001928E-02 0. -1.
    10030    2    1    2    0    0  0.00000000000E+00  0.00000000000E+00  0.58181682466E+03  0.16097293901E+04  0.15009056906E+04 0.  0.
        4    1    3    3  502    0 -0.97415491620E+02  0.43261393001E+03  0.94022450965E+03  0.10395519861E+04  0.12699999809E+01 0.  1.
       -4    1    3    3    0  502  0.97415491620E+02 -0.43261393001E+03 -0.35840768499E+03  0.57017740398E+03  0.12699999809E+01 0. -1.
</event>
<event>
 5   0  0.6509279E-05  0.1469434E+04  0.7818609E-02  0.8905038E-01
        1   -1    0    0  501    0  0.00000000000E+00  0.00000000000E+00  0.11056359492E+04  0.11056359493E+04  0.50400001928E-02 0.  1.
       -1   -1    0    0    0  501  0.00000000000E+00  0.00000000000E+00 -0.48823371974E+03  0.48823371977E+03  0.50400001928E-02 0. -1.
    10030    2    1    2    0    0  0.00000000000E+00  0.00000000000E+00  0.61740222950E+03  0.15938696690E+04  0.14694335673E+04 0.  0.
        2    1    3    3  502    0  0.33167596042E+03 -0.28678439455E+02  0.10191290561E+04  0.10721265916E+04  0.25500000920E-02 0.  1.
       -2    1    3    3    0  502 -0.33167596042E+03  0.28678439455E+02 -0.40172682655E+03  0.52174307738E+03  0.25500000920E-02 0. -1.
</event>
<event>
 5   0  0.6364378E-05  0.1499902E+04  0.7818609E-02  0.8884518E-01
        1   -1    0    0  501    0  0.00000000000E+00  0.00000000000E+00  0.17359026803E+04  0.17359026803E+04  0.50400001928E-02 0.  1.
       -1   -1    0    0    0  501  0.00000000000E+00  0.00000000000E+00 -0.32399662249E+03  0.32399662253E+03  0.50400001928E-02 0. -1.
    10030    2    1    2    0    0  0.00000000000E+00  0.00000000000E+00  0.14119060578E+04  0.20598993029E+04  0.14999021374E+04 0.  0.
        5    1    3    3  502    0 -0.22181861912E+03 -0.50591781841E+03  0.14025141321E+04  0.15073899029E+04  0.46999998093E+01 0.  1.
       -5    1    3    3    0  502  0.22181861912E+03  0.50591781841E+03  0.93919257765E+01  0.55250939996E+03  0.46999998093E+01 0. -1.
</event>
<event>
 5   0  0.6668433E-05  0.1499684E+04  0.7818609E-02  0.8884663E-01
       -1   -1    0    0    0  501  0.00000000000E+00  0.00000000000E+00  0.69419250637E+03  0.69419250639E+03  0.50400001928E-02 0.  1.
        1   -1    0    0  501    0  0.00000000000E+00  0.00000000000E+00 -0.80995206130E+03  0.80995206132E+03  0.50400001928E-02 0. -1.
    10030    2    1    2    0    0  0.00000000000E+00  0.00000000000E+00 -0.11575955494E+03  0.15041445677E+04  0.14996835019E+04 0.  0.
        1    1    3    3  502    0 -0.42575879133E+03 -0.19951328213E+03 -0.64372908250E+03  0.79715947578E+03  0.50400001928E-02 0. -1.
       -1    1    3    3    0  502  0.42575879133E+03  0.19951328213E+03  0.52796952756E+03  0.70698509193E+03  0.50400001928E-02 0.  1.
</event>
<event>
 5   0  0.1186664E-04  0.1499228E+04  0.7818609E-02  0.8884967E-01
        2   -1    0    0  501    0  0.00000000000E+00  0.00000000000E+00  0.99480296632E+03  0.99480296632E+03  0.25500000920E-02 0. -1.
       -2   -1    0    0    0  501  0.00000000000E+00  0.00000000000E+00 -0.56485665498E+03  0.56485665499E+03  0.25500000920E-02 0.  1.
    10030    2    1    2    0    0  0.00000000000E+00  0.00000000000E+00  0.42994631133E+03  0.15596596213E+04  0.14992279025E+04 0.  0.
        3    1    3    3  502    0  0.35777871236E+03  0.29952312550E+03 -0.39536210462E+03  0.61158066818E+03  0.10100000352E+00 0.  1.
       -3    1    3    3    0  502 -0.35777871236E+03 -0.29952312550E+03  0.82530841595E+03  0.94807895313E+03  0.10100000352E+00 0. -1.
</event>
<event>
 5   0  0.1186664E-04  0.1499251E+04  0.7818609E-02  0.8884951E-01
       -2   -1    0    0    0  501  0.00000000000E+00  0.00000000000E+00  0.11038805058E+04  0.11038805058E+04  0.25500000920E-02 0. -1.
        2   -1    0    0  501    0  0.00000000000E+00  0.00000000000E+00 -0.50905737937E+03  0.50905737937E+03  0.25500000920E-02 0.  1.
    10030    2    1    2    0    0  0.00000000000E+00  0.00000000000E+00  0.59482312646E+03  0.16129378852E+04  0.14992511697E+04 0.  0.
        3    1    3    3  502    0 -0.37836824377E+03  0.24783375202E+02  0.99310099485E+03  0.10630269704E+04  0.10100000352E+00 0. -1.
       -3    1    3    3    0  502  0.37836824377E+03 -0.24783375202E+02 -0.39827786840E+03  0.54991091482E+03  0.10100000352E+00 0.  1.
</event>
<event>
 5   0  0.6364378E-05  0.1478776E+04  0.7818609E-02  0.8898690E-01
        1   -1    0    0  501    0  0.00000000000E+00  0.00000000000E+00  0.94393957529E+03  0.94393957530E+03  0.50400001928E-02 0. -1.
       -1   -1    0    0    0  501  0.00000000000E+00  0.00000000000E+00 -0.57916303700E+03  0.57916303702E+03  0.50400001928E-02 0.  1.
    10030    2    1    2    0    0  0.00000000000E+00  0.00000000000E+00  0.36477653829E+03  0.15231026123E+04  0.14787764012E+04 0.  0.
        5    1    3    3  502    0 -0.36714061078E+03 -0.10257167207E+03  0.83490778262E+03  0.91782692894E+03  0.46999998093E+01 0. -1.
       -5    1    3    3    0  502  0.36714061078E+03  0.10257167207E+03 -0.47013124434E+03  0.60527568338E+03  0.46999998093E+01 0.  1.
</event>
<event>
 5   0  0.6361716E-05  0.1499094E+04  0.7818609E-02  0.8885056E-01
       -1   -1    0    0    0  501  0.00000000000E+00  0.00000000000E+00  0.32673003804E+03  0.32673003807E+03  0.50400001928E-02 0. -1.
        1   -1    0    0  501    0  0.00000000000E+00  0.00000000000E+00 -0.17195247446E+04  0.17195247447E+04  0.50400001928E-02 0.  1.
    10030    2    1    2    0    0  0.00000000000E+00  0.00000000000E+00 -0.13927947066E+04  0.20462547827E+04  0.14990935732E+04 0.  0.
        3    1    3    3  502    0  0.24113599600E+03  0.24550772087E+03 -0.16053237051E+04  0.16417931715E+04  0.10100000352E+00 0.  1.
       -3    1    3    3    0  502 -0.24113599600E+03 -0.24550772087E+03  0.21252899849E+03  0.40446161125E+03  0.10100000352E+00 0. -1.
</event>
<event>
 5   0  0.6361716E-05  0.1495881E+04  0.7818609E-02  0.8887197E-01
        1   -1    0    0  501    0  0.00000000000E+00  0.00000000000E+00  0.53617144932E+03  0.53617144935E+03  0.50400001928E-02 0. -1.
       -1   -1    0    0    0  501  0.00000000000E+00  0.00000000000E+00 -0.10433504859E+04  0.10433504859E+04  0.50400001928E-02 0.  1.
    10030    2    1    2    0    0  0.00000000000E+00  0.00000000000E+00 -0.50717903656E+03  0.15795219352E+04  0.14958806666E+04 0.  0.
        3    1    3    3  502    0 -0.70961562555E+03 -0.23580632985E+03 -0.23670245355E+03  0.78433858948E+03  0.10100000352E+00 0. -1.
       -3    1    3    3    0  502  0.70961562555E+03  0.23580632985E+03 -0.27047658302E+03  0.79518334577E+03  0.10100000352E+00 0.  1.
</event>
<event>
 5   0  0.1228286E-04  0.1499145E+04  0.7818609E-02  0.8885022E-01
       -2   -1    0    0    0  501  0.00000000000E+00  0.00000000000E+00  0.60591213381E+03  0.60591213381E+03  0.25500000920E-02 0. -1.
        2   -1    0    0  501    0  0.00000000000E+00  0.00000000000E+00 -0.92729412358E+03  0.92729412358E+03  0.25500000920E-02 0.  1.
    10030    2    1    2    0    0  0.00000000000E+00  0.00000000000E+00 -0.32138198977E+03  0.15332062574E+04  0.14991447710E+04 0.  0.
        2    1    3    3  502    0  0.55445056844E+03 -0.42991430156E+03 -0.43053621411E+03  0.82316655131E+03  0.25500000920E-02 0. -1.
       -2    1    3    3    0  502 -0.55445056844E+03  0.42991430156E+03  0.10915422433E+03  0.71003970609E+03  0.25500000920E-02 0.  1.
</event>
<event>
 5   0  0.1228286E-04  0.1501748E+04  0.7818609E-02  0.8883292E-01
        2   -1    0    0  501    0  0.00000000000E+00  0.00000000000E+00  0.10892384279E+04  0.10892384279E+04  0.25500000920E-02 0. -1.
       -2   -1    0    0    0  501  0.00000000000E+00  0.00000000000E+00 -0.51761994942E+03  0.51761994943E+03  0.25500000920E-02 0.  1.
    10030    2    1    2    0    0  0.00000000000E+00  0.00000000000E+00  0.57161847845E+03  0.16068583773E+04  0.15017477018E+04 0.  0.
        2    1    3    3  502    0  0.18927514254E+02 -0.71007706051E+03  0.25372476214E+02  0.71078227695E+03  0.25500000920E-02 0.  1.
       -2    1    3    3    0  502 -0.18927514254E+02  0.71007706051E+03  0.54624600224E+03  0.89607610036E+03  0.25500000920E-02 0. -1.
</event>
<event>
 5   0  0.6542036E-05  0.1499298E+04  0.7818609E-02  0.8884920E-01
        1   -1    0    0  501    0  0.00000000000E+00  0.00000000000E+00  0.23082240546E+04  0.23082240546E+04  0.50400001928E-02 0. -1.
       -1   -1    0    0    0  501  0.00000000000E+00  0.00000000000E+00 -0.24346569783E+03  0.24346569789E+03  0.50400001928E-02 0.  1.
    10030    2    1    2    0    0  0.00000000000E+00  0.00000000000E+00  0.20647583568E+04  0.25516897525E+04  0.14992976760E+04 0.  0.
        4    1    3    3  502    0 -0.21277101252E+03 -0.22619139743E+03 -0.12884865585E+03  0.33621070931E+03  0.12699999809E+01 0.  1.
       -4    1    3    3    0  502  0.21277101252E+03  0.22619139743E+03  0.21936070126E+04  0.22154790432E+04  0.12699999809E+01 0. -1.
</event>
<event>
 5   0  0.1219810E-04  0.1529090E+04  0.7818609E-02  0.8865335E-01
       -2   -1    0    0    0  501  0.00000000000E+00  0.00000000000E+00  0.11436222270E+04  0.11436222271E+04  0.25500000920E-02 0.  1.
        2   -1    0    0  501    0  0.00000000000E+00  0.00000000000E+00 -0.51112096934E+03  0.51112096935E+03  0.25500000920E-02 0. -1.
    10030    2    1    2    0    0  0.00000000000E+00  0.00000000000E+00  0.63250125771E+03  0.16547431964E+04  0.15290903194E+04 0.  0.
        1    1    3    3  502    0 -0.16606562544E+03 -0.71457048412E+03  0.83292443183E+02  0.73832675683E+03  0.50400001928E-02 0. -1.
       -1    1    3    3    0  502  0.16606562544E+03  0.71457048412E+03  0.54920881452E+03  0.91641643957E+03  0.50400001928E-02 0.  1.
</event>
<event>
 5   0  0.4462875E-05  0.1495106E+04  0.7818609E-02  0.8887714E-01
       -4   -1    0    0    0  501  0.00000000000E+00  0.00000000000E+00  0.57609125617E+03  0.57609265604E+03  0.12699999809E+01 0. -1.
        4   -1    0    0  501    0  0.00000000000E+00  0.00000000000E+00 -0.97004437850E+03  0.97004520985E+03  0.12699999809E+01 0.  1.
    10030    2    1    2    0    0  0.00000000000E+00  0.00000000000E+00 -0.39395312233E+03  0.15461378659E+04  0.14951064302E+04 0.  0.
        4    1    3    3  502    0  0.64782912292E+03  0.11601915028E+03 -0.56360699288E+03  0.86648570159E+03  0.12699999809E+01 0.  1.
       -4    1    3    3    0  502 -0.64782912292E+03 -0.11601915028E+03  0.16965387056E+03  0.67965216430E+03  0.12699999809E+01 0. -1.
</event>
<event>
 5   0  0.4462875E-05  0.1500435E+04  0.7818609E-02  0.8884163E-01
        4   -1    0    0  501    0  0.00000000000E+00  0.00000000000E+00  0.85414785905E+03  0.85414880321E+03  0.12699999809E+01 0.  1.
       -4   -1    0    0    0  501  0.00000000000E+00  0.00000000000E+00 -0.65893155867E+03  0.65893278255E+03  0.12699999809E+01 0. -1.
    10030    2    1    2    0    0  0.00000000000E+00  0.00000000000E+00  0.19521630038E+03  0.15130815858E+04  0.15004354305E+04 0.  0.
        4    1    3    3  502    0 -0.62274522956E+03  0.26646879460E+03 -0.22761235742E+03  0.71458116235E+03  0.12699999809E+01 0. -1.
       -4    1    3    3    0  502  0.62274522956E+03 -0.26646879460E+03  0.42282865780E+03  0.79850042341E+03  0.12699999809E+01 0.  1.
</event>
<event>
 5   0  0.1228286E-04  0.1501707E+04  0.7818609E-02  0.8883319E-01
        2   -1    0    0  501    0  0.00000000000E+00  0.00000000000E+00  0.23826268532E+04  0.23826268532E+04  0.25500000920E-02 0. -1.
       -2   -1    0    0    0  501  0.00000000000E+00  0.00000000000E+00 -0.23662155765E+03  0.23662155767E+03  0.25500000920E-02 0.  1.
    10030    2    1    2    0    0  0.00000000000E+00  0.00000000000E+00  0.21460052956E+04  0.26192484109E+04  0.15017068653E+04 0.  0.
        2    1    3    3  502    0  0.43583894641E+03 -0.49571620677E+03  0.16972408993E+04  0.18210757302E+04  0.25500000920E-02 0. -1.
       -2    1    3    3    0  502 -0.43583894641E+03  0.49571620677E+03  0.44876439630E+03  0.79817268072E+03  0.25500000920E-02 0.  1.
</event>
<event>
 5   0  0.4462875E-05  0.1502201E+04  0.7818609E-02  0.8882990E-01
       -3   -1    0    0    0  501  0.00000000000E+00  0.00000000000E+00  0.21566741481E+04  0.21566741505E+04  0.10100000352E+00 0.  1.
        3   -1    0    0  501    0  0.00000000000E+00  0.00000000000E+00 -0.26158431701E+03  0.26158433651E+03  0.10100000352E+00 0. -1.
    10030    2    1    2    0    0  0.00000000000E+00  0.00000000000E+00  0.18950898311E+04  0.24182584870E+04  0.15022012655E+04 0.  0.
        2    1    3    3  502    0 -0.67974091729E+03 -0.23429697954E+03  0.12973198671E+04  0.14832335039E+04  0.25500000920E-02 0.  1.
       -2    1    3    3    0  502  0.67974091729E+03  0.23429697954E+03  0.59776996398E+03  0.93502498315E+03  0.25500000920E-02 0. -1.
</event>
<event>
 5   0  0.1186664E-04  0.1499184E+04  0.7818609E-02  0.8884995E-01
        2   -1    0    0  501    0  0.00000000000E+00  0.00000000000E+00  0.88377734888E+03  0.88377734888E+03  0.25500000920E-02 0. -1.
       -2   -1    0    0    0  501  0.00000000000E+00  0.00000000000E+00 -0.63578062413E+03  0.63578062414E+03  0.25500000920E-02 0.  1.
    10030    2    1    2    0    0  0.00000000000E+00  0.00000000000E+00  0.24799672475E+03  0.15195579730E+04  0.14991844643E+04 0.  0.
        3    1    3    3  502    0  0.11017364991E+03 -0.24044060596E+03  0.83491330851E+03  0.87580258110E+03  0.10100000352E+00 0. -1.
       -3    1    3    3    0  502 -0.11017364991E+03  0.24044060596E+03 -0.58691658377E+03  0.64375539192E+03  0.10100000352E+00 0.  1.
</event>
<event>
 5   0  0.6361716E-05  0.1500832E+04  0.7818609E-02  0.8883900E-01
        1   -1    0    0  501    0  0.00000000000E+00  0.00000000000E+00  0.10298321888E+04  0.10298321888E+04  0.50400001928E-02 0. -1.
       -1   -1    0    0    0  501  0.00000000000E+00  0.00000000000E+00 -0.54681148743E+03  0.54681148745E+03  0.50400001928E-02 0.  1.
    10030    2    1    2    0    0  0.00000000000E+00  0.00000000000E+00  0.48302070140E+03  0.15766436763E+04  0.15008318640E+04 0.  0.
        3    1    3    3  502    0 -0.16741697520E+03 -0.33508120966E+03  0.92459939678E+03  0.99759306101E+03  0.10100000352E+00 0. -1.
       -3    1    3    3    0  502  0.16741697520E+03  0.33508120966E+03 -0.44157869537E+03  0.57905061528E+03  0.10100000352E+00 0.  1.
</event>
<event>
 5   0  0.1216921E-04  0.1501711E+04  0.7818609E-02  0.8883316E-01
        2   -1    0    0  501    0  0.00000000000E+00  0.00000000000E+00  0.63690794342E+03  0.63690794343E+03  0.25500000920E-02 0. -1.
       -2   -1    0    0    0  501  0.00000000000E+00  0.00000000000E+00 -0.88518969266E+03  0.88518969267E+03  0.25500000920E-02 0.  1.
    10030    2    1    2    0    0  0.00000000000E+00  0.00000000000E+00 -0.24828174924E+03  0.15220976361E+04  0.15017114859E+04 0.  0.
        4    1    3    3  502    0  0.34483507215E+03 -0.59241279099E+03 -0.43476257682E+03  0.81171685520E+03  0.12699999809E+01 0.  1.
       -4    1    3    3    0  502 -0.34483507215E+03  0.59241279099E+03  0.18648082759E+03  0.71038078089E+03  0.12699999809E+01 0. -1.
</event>
<event>
 5   0  0.6509279E-05  0.1498686E+04  0.7818609E-02  0.8885327E-01
        1   -1    0    0  501    0  0.00000000000E+00  0.00000000000E+00  0.96014290383E+03  0.96014290384E+03  0.50400001928E-02 0. -1.
       -1   -1    0    0    0  501  0.00000000000E+00  0.00000000000E+00 -0.58482425067E+03  0.58482425069E+03  0.50400001928E-02 0.  1.
    10030    2    1    2    0    0  0.00000000000E+00  0.00000000000E+00  0.37531865316E+03  0.15449671545E+04  0.14986858968E+04 0.  0.
        2    1    3    3  502    0  0.34156358700E+03  0.35044127169E+03 -0.39735108722E+03  0.63036707987E+03  0.25500000920E-02 0.  1.
       -2    1    3    3    0  502 -0.34156358700E+03 -0.35044127169E+03  0.77266974038E+03  0.91460007466E+03  0.25500000920E-02 0. -1.
</event>
<event>
 5   0  0.6668433E-05  0.1500776E+04  0.7818609E-02  0.8883937E-01
        1   -1    0    0  501    0  0.00000000000E+00  0.00000000000E+00  0.71581997479E+03  0.71581997480E+03  0.50400001928E-02 0. -1.
       -1   -1    0    0    0  501  0.00000000000E+00  0.00000000000E+00 -0.78662561006E+03  0.78662561007E+03  0.50400001928E-02 0.  1.
    10030    2    1    2    0    0  0.00000000000E+00  0.00000000000E+00 -0.70805635271E+02  0.15024455849E+04  0.15007762317E+04 0.  0.
        1    1    3    3  502    0  0.27042286124E+03  0.54491996455E+03 -0.47522740225E+03  0.77195037115E+03  0.50400001928E-02 0.  1.
       -1    1    3    3    0  502 -0.27042286124E+03 -0.54491996455E+03  0.40442176698E+03  0.73049521373E+03  0.50400001928E-02 0. -1.
</event>
<event>
 5   0  0.1254487E-04  0.1503329E+04  0.7818609E-02  0.8882242E-01
        2   -1    0    0  501    0  0.00000000000E+00  0.00000000000E+00  0.31563397065E+03  0.31563397066E+03  0.25500000920E-02 0.  1.
       -2   -1    0    0    0  501  0.00000000000E+00  0.00000000000E+00 -0.17900474425E+04  0.17900474425E+04  0.25500000920E-02 0. -1.
    10030    2    1    2    0    0  0.00000000000E+00  0.00000000000E+00 -0.14744134718E+04  0.21056814132E+04  0.15033293477E+04 0.  0.
        5    1    3    3  502    0 -0.32608796782E+03  0.68151984030E+01 -0.16857443344E+04  0.17170136461E+04  0.46999998093E+01 0. -1.
       -5    1    3    3    0  502  0.32608796782E+03 -0.68151984030E+01  0.21133086260E+03  0.38866776709E+03  0.46999998093E+01 0.  1.
</event>
<event>
 5   0  0.6364378E-05  0.1497767E+04  0.7818609E-02  0.8885939E-01
        1   -1    0    0  501    0  0.00000000000E+00  0.00000000000E+00  0.15937037539E+04  0.15937037539E+04  0.50400001928E-02 0.  1.
       -1   -1    0    0    0  501  0.00000000000E+00  0.00000000000E+00 -0.35190137103E+03  0.35190137107E+03  0.50400001928E-02 0. -1.
    10030    2    1    2    0    0  0.00000000000E+00  0.00000000000E+00  0.12418023829E+04  0.19456051250E+04  0.14977670527E+04 0.  0.
        5    1    3    3  502    0  0.56807097606E+03  0.36496105601E+03  0.20016983625E+03  0.70426646916E+03  0.46999998093E+01 0. -1.
       -5    1    3    3    0  502 -0.56807097606E+03 -0.36496105601E+03  0.10416325467E+04  0.12413386558E+04  0.46999998093E+01 0.  1.
</event>
<event>
 5   0  0.1186664E-04  0.1501064E+04  0.7818609E-02  0.8883746E-01
       -2   -1    0    0    0  501  0.00000000000E+00  0.00000000000E+00  0.26007141483E+03  0.26007141484E+03  0.25500000920E-02 0. -1.
        2   -1    0    0  501    0  0.00000000000E+00  0.00000000000E+00 -0.21659376259E+04  0.21659376259E+04  0.25500000920E-02 0.  1.
    10030    2    1    2    0    0  0.00000000000E+00  0.00000000000E+00 -0.19058662110E+04  0.24260090407E+04  0.15010642395E+04 0.  0.
        3    1    3    3  502    0  0.67034417919E+03  0.97768998668E+02 -0.43077940005E+03  0.80280196648E+03  0.10100000352E+00 0. -1.
       -3    1    3    3    0  502 -0.67034417919E+03 -0.97768998668E+02 -0.14750868110E+04  0.16232070742E+04  0.10100000352E+00 0.  1.
</event>
<event>
 5   0  0.1219810E-04  0.1504548E+04  0.7818609E-02  0.8881434E-01
        2   -1    0    0  501    0  0.00000000000E+00  0.00000000000E+00  0.94916529393E+03  0.94916529393E+03  0.25500000920E-02 0.  1.
       -2   -1    0    0    0  501  0.00000000000E+00  0.00000000000E+00 -0.59622488016E+03  0.59622488016E+03  0.25500000920E-02 0. -1.
    10030    2    1    2    0    0  0.00000000000E+00  0.00000000000E+00  0.35294041377E+03  0.15453901741E+04  0.15045477242E+04 0.  0.
        1    1    3    3  502    0 -0.17350052690E+03  0.50823158733E+02 -0.57357887692E+03  0.60139683602E+03  0.50400001928E-02 0. -1.
       -1    1    3    3    0  502  0.17350052690E+03 -0.50823158733E+02  0.92651929069E+03  0.94399333808E+03  0.50400001928E-02 0.  1.
</event>
<event>
 5   0  0.6509279E-05  0.1495549E+04  0.7818609E-02  0.8887418E-01
       -1   -1    0    0    0  501  0.00000000000E+00  0.00000000000E+00  0.18782260229E+03  0.18782260236E+03  0.50400001928E-02 0.  1.
        1   -1    0    0  501    0  0.00000000000E+00  0.00000000000E+00 -0.29771005054E+04  0.29771005054E+04  0.50400001928E-02 0. -1.
    10030    2    1    2    0    0  0.00000000000E+00  0.00000000000E+00 -0.27892779031E+04  0.31649231078E+04  0.14955490822E+04 0.  0.
        2    1    3    3  502    0 -0.42848534369E+03  0.46203495264E+03 -0.54263492984E+03  0.83158201899E+03  0.25500000920E-02 0.  1.
       -2    1    3    3    0  502  0.42848534369E+03 -0.46203495264E+03 -0.22466429733E+04  0.23333410888E+04  0.25500000920E-02 0. -1.
</event>
<event>
 5   0  0.6509279E-05  0.1500029E+04  0.7818609E-02  0.8884434E-01
       -1   -1    0    0    0  501  0.00000000000E+00  0.00000000000E+00  0.26555083241E+03  0.26555083246E+03  0.50400001928E-02 0.  1.
        1   -1    0    0  501    0  0.00000000000E+00  0.00000000000E+00 -0.21183196949E+04  0.21183196949E+04  0.50400001928E-02 0. -1.
    10030    2    1    2    0    0  0.00000000000E+00  0.00000000000E+00 -0.18527688625E+04  0.23838705274E+04  0.15000287442E+04 0.  0.
        2    1    3    3  502    0 -0.21790056649E+03  0.66418863409E+03 -0.49437947578E+03  0.85617653822E+03  0.25500000920E-02 0. -1.
       -2    1    3    3    0  502  0.21790056649E+03 -0.66418863409E+03 -0.13583893867E+04  0.15276939892E+04  0.25500000920E-02 0.  1.
</event>
<event>
 5   0  0.1186664E-04  0.1500294E+04  0.7818609E-02  0.8884257E-01
       -2   -1    0    0    0  501  0.00000000000E+00  0.00000000000E+00  0.46073733789E+03  0.46073733789E+03  0.25500000920E-02 0.  1.
        2   -1    0    0  501    0  0.00000000000E+00  0.00000000000E+00 -0.12213483600E+04  0.12213483600E+04  0.25500000920E-02 0. -1.
    10030    2    1    2    0    0  0.00000000000E+00  0.00000000000E+00 -0.76061102215E+03  0.16820856979E+04  0.15002943605E+04 0.  0.
        3    1    3    3  502    0 -0.51738252203E+03 -0.40089090889E+03 -0.79121499501E+03  0.10268492457E+04  0.10100000352E+00 0. -1.
       -3    1    3    3    0  502  0.51738252203E+03  0.40089090889E+03  0.30603972867E+02  0.65523645219E+03  0.10100000352E+00 0.  1.
</event>
<event>
 5   0  0.1254487E-04  0.1500072E+04  0.7818609E-02  0.8884405E-01
       -2   -1    0    0    0  501  0.00000000000E+00  0.00000000000E+00  0.11482939885E+04  0.11482939885E+04  0.25500000920E-02 0.  1.
        2   -1    0    0  501    0  0.00000000000E+00  0.00000000000E+00 -0.48990398999E+03  0.48990399000E+03  0.25500000920E-02 0. -1.
    10030    2    1    2    0    0  0.00000000000E+00  0.00000000000E+00  0.65838999855E+03  0.16381979785E+04  0.15000717405E+04 0.  0.
        5    1    3    3  502    0  0.88816402931E+02  0.62850643741E+03  0.76551198431E+03  0.99445431439E+03  0.46999998093E+01 0.  1.
       -5    1    3    3    0  502 -0.88816402931E+02 -0.62850643741E+03 -0.10712198576E+03  0.64374366415E+03  0.46999998093E+01 0. -1.
</event>
<event>
 5   0  0.6542036E-05  0.1499362E+04  0.7818609E-02  0.8884877E-01
       -1   -1    0    0    0  501  0.00000000000E+00  0.00000000000E+00  0.40696048433E+03  0.40696048436E+03  0.50400001928E-02 0.  1.
        1   -1    0    0  501    0  0.00000000000E+00  0.00000000000E+00 -0.13810234110E+04  0.13810234110E+04  0.50400001928E-02 0. -1.
    10030    2    1    2    0    0  0.00000000000E+00  0.00000000000E+00 -0.97406292665E+03  0.17879838953E+04  0.14993624728E+04 0.  0.
        4    1    3    3  502    0 -0.71790598975E+03 -0.14831307290E+03 -0.67419852411E+03  0.99595734875E+03  0.12699999809E+01 0. -1.
       -4    1    3    3    0  502  0.71790598975E+03  0.14831307290E+03 -0.29986440254E+03  0.79202654660E+03  0.12699999809E+01 0.  1.
</event>
<event>
 5   0  0.6542036E-05  0.1489089E+04  0.7818609E-02  0.8891741E-01
       -1   -1    0    0    0  501  0.00000000000E+00  0.00000000000E+00  0.40497615042E+03  0.40497615045E+03  0.50400001928E-02 0. -1.
        1   -1    0    0  501    0  0.00000000000E+00  0.00000000000E+00 -0.13688372604E+04  0.13688372604E+04  0.50400001928E-02 0.  1.
    10030    2    1    2    0    0  0.00000000000E+00  0.00000000000E+00 -0.96386110996E+03  0.17738134108E+04  0.14890889084E+04 0.  0.
        4    1    3    3  502    0 -0.70045024874E+03  0.24670317604E+03 -0.41831715364E+03  0.85234022664E+03  0.12699999809E+01 0.  1.
       -4    1    3    3    0  502  0.70045024874E+03 -0.24670317604E+03 -0.54554395632E+03  0.92147318420E+03  0.12699999809E+01 0. -1.
</event>
<event>
 5   0  0.6668433E-05  0.1499564E+04  0.7818609E-02  0.8884743E-01
        1   -1    0    0  501    0  0.00000000000E+00  0.00000000000E+00  0.10106525759E+04  0.10106525759E+04  0.50400001928E-02 0.  1.
       -1   -1    0    0    0  501  0.00000000000E+00  0.00000000000E+00 -0.55624724557E+03  0.55624724559E+03  0.50400001928E-02 0. -1.
    10030    2    1    2    0    0  0.00000000000E+00  0.00000000000E+00  0.45440533029E+03  0.15668998215E+04  0.14995635519E+04 0.  0.
        1    1    3    3  502    0 -0.74121257500E+03  0.11176027456E+03  0.20952335900E+03  0.77832286251E+03  0.50400001928E-02 0.  1.
       -1    1    3    3    0  502  0.74121257500E+03 -0.11176027456E+03  0.24488197129E+03  0.78857695896E+03  0.50400001928E-02 0. -1.
</event>
<event>
 5   0  0.6668433E-05  0.1499206E+04  0.7818609E-02  0.8884981E-01
        1   -1    0    0  501    0  0.00000000000E+00  0.00000000000E+00  0.87501464614E+03  0.87501464616E+03  0.50400001928E-02 0. -1.
       -1   -1    0    0    0  501  0.00000000000E+00  0.00000000000E+00 -0.64216632418E+03  0.64216632420E+03  0.50400001928E-02 0.  1.
    10030    2    1    2    0    0  0.00000000000E+00  0.00000000000E+00  0.23284832196E+03  0.15171809704E+04  0.14992063753E+04 0.  0.
        1    1    3    3  502    0  0.43909083574E+03 -0.34526830988E+03  0.62231155284E+03  0.83623121005E+03  0.50400001928E-02 0. -1.
       -1    1    3    3    0  502 -0.43909083574E+03  0.34526830988E+03 -0.38946323088E+03  0.68094976031E+03  0.50400001928E-02 0.  1.
</event>
<event>
 5   0  0.6509279E-05  0.1498678E+04  0.7818609E-02  0.8885332E-01
        1   -1    0    0  501    0  0.00000000000E+00  0.00000000000E+00  0.16854858538E+04  0.16854858538E+04  0.50400001928E-02 0. -1.
       -1   -1    0    0    0  501  0.00000000000E+00  0.00000000000E+00 -0.33314377454E+03  0.33314377457E+03  0.50400001928E-02 0.  1.
    10030    2    1    2    0    0  0.00000000000E+00  0.00000000000E+00  0.13523420793E+04  0.20186296284E+04  0.14986782434E+04 0.  0.
        2    1    3    3  502    0 -0.46552557998E+03 -0.24756550835E+03  0.13933534896E+04  0.14897773973E+04  0.25500000920E-02 0. -1.
       -2    1    3    3    0  502  0.46552557998E+03  0.24756550835E+03 -0.41011410328E+02  0.52885223109E+03  0.25500000920E-02 0.  1.
</event>
<event>
 5   0  0.6364378E-05  0.1502429E+04  0.7818609E-02  0.8882840E-01
       -1   -1    0    0    0  501  0.00000000000E+00  0.00000000000E+00  0.10008946633E+04  0.10008946633E+04  0.50400001928E-02 0. -1.
        1   -1    0    0  501    0  0.00000000000E+00  0.00000000000E+00 -0.56381846376E+03  0.56381846378E+03  0.50400001928E-02 0.  1.
    10030    2    1    2    0    0  0.00000000000E+00  0.00000000000E+00  0.43707619949E+03  0.15647131270E+04  0.15024285560E+04 0.  0.
        5    1    3    3  502    0  0.14469118244E+03 -0.68425754182E+03  0.50405069191E+03  0.86210968666E+03  0.46999998093E+01 0. -1.
       -5    1    3    3    0  502 -0.14469118244E+03  0.68425754182E+03 -0.66974492421E+02  0.70260344039E+03  0.46999998093E+01 0.  1.
</event>
<event>
 5   0  0.6509279E-05  0.1499878E+04  0.7818609E-02  0.8884534E-01
        1   -1    0    0  501    0  0.00000000000E+00  0.00000000000E+00  0.56890567126E+03  0.56890567128E+03  0.50400001928E-02 0. -1.
       -1   -1    0    0    0  501  0.00000000000E+00  0.00000000000E+00 -0.98858013454E+03  0.98858013455E+03  0.50400001928E-02 0.  1.
    10030    2    1    2    0    0  0.00000000000E+00  0.00000000000E+00 -0.41967446328E+03  0.15574858058E+04  0.14998784552E+04 0.  0.
        2    1    3    3  502    0 -0.33061502755E+03 -0.44457880593E+03  0.31499788157E+03  0.63732274126E+03  0.25500000920E-02 0. -1.
       -2    1    3    3    0  502  0.33061502755E+03  0.44457880593E+03 -0.73467234485E+03  0.92016306458E+03  0.25500000920E-02 0.  1.
</event>
<event>
 5   0  0.1219810E-04  0.1493810E+04  0.7818609E-02  0.8888580E-01
       -2   -1    0    0    0  501  0.00000000000E+00  0.00000000000E+00  0.40176260775E+03  0.40176260776E+03  0.25500000920E-02 0. -1.
        2   -1    0    0  501    0  0.00000000000E+00  0.00000000000E+00 -0.13885494441E+04  0.13885494441E+04  0.25500000920E-02 0.  1.
    10030    2    1    2    0    0  0.00000000000E+00  0.00000000000E+00 -0.98678683638E+03  0.17903120519E+04  0.14938102231E+04 0.  0.
        1    1    3    3  502    0  0.50961633057E+03 -0.51964755146E+03 -0.29240153476E+03  0.78437302330E+03  0.50400001928E-02 0. -1.
       -1    1    3    3    0  502 -0.50961633057E+03  0.51964755146E+03 -0.69438530162E+03  0.10059390286E+04  0.50400001928E-02 0.  1.
</event>
<event>
 5   0  0.1219810E-04  0.1499614E+04  0.7818609E-02  0.8884710E-01
        2   -1    0    0  501    0  0.00000000000E+00  0.00000000000E+00  0.21461045099E+04  0.21461045099E+04  0.25500000920E-02 0.  1.
       -2   -1    0    0    0  501  0.00000000000E+00  0.00000000000E+00 -0.26196793226E+03  0.26196793227E+03  0.25500000920E-02 0. -1.
    10030    2    1    2    0    0  0.00000000000E+00  0.00000000000E+00  0.18841365776E+04  0.24080724422E+04  0.14996140315E+04 0.  0.
        1    1    3    3  502    0  0.37146558423E+03  0.19344285247E+03 -0.56632485427E+02  0.42262756165E+03  0.50400001928E-02 0. -1.
       -1    1    3    3    0  502 -0.37146558423E+03 -0.19344285247E+03  0.19407690631E+04  0.19854448805E+04  0.50400001928E-02 0.  1.
</event>
<event>
 5   0  0.1228286E-04  0.1500056E+04  0.7818609E-02  0.8884416E-01
       -2   -1    0    0    0  501  0.00000000000E+00  0.00000000000E+00  0.38482978460E+03  0.38482978461E+03  0.25500000920E-02 0.  1.
        2   -1    0    0  501    0  0.00000000000E+00  0.00000000000E+00 -0.14617948612E+04  0.14617948612E+04  0.25500000920E-02 0. -1.
    10030    2    1    2    0    0  0.00000000000E+00  0.00000000000E+00 -0.10769650766E+04  0.18466246458E+04  0.15000562677E+04 0.  0.
        2    1    3    3  502    0  0.43286210891E+03  0.43244443608E+03 -0.10724807645E+04  0.12347440164E+04  0.25500000920E-02 0. -1.
       -2    1    3    3    0  502 -0.43286210891E+03 -0.43244443608E+03 -0.44843120517E+01  0.61188062944E+03  0.25500000920E-02 0.  1.
</event>
<event>
 5   0  0.6542036E-05  0.1509904E+04  0.7818609E-02  0.8877893E-01
        1   -1    0    0  501    0  0.00000000000E+00  0.00000000000E+00  0.10112877691E+04  0.10112877691E+04  0.50400001928E-02 0.  1.
       -1   -1    0    0    0  501  0.00000000000E+00  0.00000000000E+00 -0.56359091218E+03  0.56359091220E+03  0.50400001928E-02 0. -1.
    10030    2    1    2    0    0  0.00000000000E+00  0.00000000000E+00  0.44769685689E+03  0.15748786813E+04  0.15099040980E+04 0.  0.
        4    1    3    3  502    0 -0.20921267919E+03  0.57157649625E+03 -0.24200456076E+03  0.65500950873E+03  0.12699999809E+01 0. -1.
       -4    1    3    3    0  502  0.20921267919E+03 -0.57157649625E+03  0.68970141764E+03  0.91986917255E+03  0.12699999809E+01 0.  1.
</event>
<event>
 5   0  0.6542036E-05  0.1475642E+04  0.7818609E-02  0.8900814E-01
        1   -1    0    0  501    0  0.00000000000E+00  0.00000000000E+00  0.81674038141E+03  0.81674038143E+03  0.50400001928E-02 0. -1.
       -1   -1    0    0    0  501  0.00000000000E+00  0.00000000000E+00 -0.66652749604E+03  0.66652749606E+03  0.50400001928E-02 0.  1.
    10030    2    1    2    0    0  0.00000000000E+00  0.00000000000E+00  0.15021288537E+03  0.14832678775E+04  0.14756421265E+04 0.  0.
        4    1    3    3  502    0  0.69301140205E+03  0.16088969015E+03 -0.12142380763E+03  0.72173100926E+03  0.12699999809E+01 0.  1.
       -4    1    3    3    0  502 -0.69301140205E+03 -0.16088969015E+03  0.27163669301E+03  0.76153686822E+03  0.12699999809E+01 0. -1.
</event>
<event>
 5   0  0.6668433E-05  0.1497922E+04  0.7818609E-02  0.8885836E-01
        1   -1    0    0  501    0  0.00000000000E+00  0.00000000000E+00  0.14198095884E+04  0.14198095884E+04  0.50400001928E-02 0. -1.
       -1   -1    0    0    0  501  0.00000000000E+00  0.00000000000E+00 -0.39508275148E+03  0.39508275152E+03  0.50400001928E-02 0.  1.
    10030    2    1    2    0    0  0.00000000000E+00  0.00000000000E+00  0.10247268369E+04  0.18148923399E+04  0.14979215985E+04 0.  0.
        1    1    3    3  502    0 -0.58893185805E+03  0.44639658794E+03  0.36480763044E+03  0.82413303198E+03  0.50400001928E-02 0. -1.
       -1    1    3    3    0  502  0.58893185805E+03 -0.44639658794E+03  0.65991920645E+03  0.99075930791E+03  0.50400001928E-02 0.  1.
</event>
<event>
 5   0  0.6509279E-05  0.1496442E+04  0.7818609E-02  0.8886822E-01
       -1   -1    0    0    0  501  0.00000000000E+00  0.00000000000E+00  0.89797177271E+03  0.89797177273E+03  0.50400001928E-02 0. -1.
        1   -1    0    0  501    0  0.00000000000E+00  0.00000000000E+00 -0.62344356862E+03  0.62344356865E+03  0.50400001928E-02 0.  1.
    10030    2    1    2    0    0  0.00000000000E+00  0.00000000000E+00  0.27452820409E+03  0.15214153414E+04  0.14964420824E+04 0.  0.
        2    1    3    3  502    0  0.59804606533E+03  0.44441681843E+03  0.67791305738E+02  0.74817181576E+03  0.25500000920E-02 0.  1.
       -2    1    3    3    0  502 -0.59804606533E+03 -0.44441681843E+03  0.20673689835E+03  0.77324352561E+03  0.25500000920E-02 0. -1.
</event>
<event>
 5   0  0.6509279E-05  0.1503577E+04  0.7818609E-02  0.8882078E-01
        1   -1    0    0  501    0  0.00000000000E+00  0.00000000000E+00  0.10601412106E+04  0.10601412106E+04  0.50400001928E-02 0. -1.
       -1   -1    0    0    0  501  0.00000000000E+00  0.00000000000E+00 -0.53312295469E+03  0.53312295472E+03  0.50400001928E-02 0.  1.
    10030    2    1    2    0    0  0.00000000000E+00  0.00000000000E+00  0.52701825587E+03  0.15932641653E+04  0.15035765556E+04 0.  0.
        2    1    3    3  502    0  0.68456964465E+03  0.39468005214E+02 -0.63083538149E+02  0.68860210180E+03  0.25500000920E-02 0.  1.
       -2    1    3    3    0  502 -0.68456964465E+03 -0.39468005214E+02  0.59010179402E+03  0.90466206350E+03  0.25500000920E-02 0. -1.
</event>
<event>
 5   0  0.1186664E-04  0.1502552E+04  0.7818609E-02  0.8882758E-01
        2   -1    0    0  501    0  0.00000000000E+00  0.00000000000E+00  0.13613196077E+04  0.13613196077E+04  0.25500000920E-02 0. -1.
       -2   -1    0    0    0  501  0.00000000000E+00  0.00000000000E+00 -0.41460924970E+03  0.41460924971E+03  0.25500000920E-02 0.  1.
    10030    2    1    2    0    0  0.00000000000E+00  0.00000000000E+00  0.94671035804E+03  0.17759288575E+04  0.15025520972E+04 0.  0.
        3    1    3    3  502    0 -0.42725903888E+02 -0.42086172079E+03  0.12071739868E+04  0.12791478161E+04  0.10100000352E+00 0. -1.
       -3    1    3    3    0  502  0.42725903888E+02  0.42086172079E+03 -0.26046362878E+03  0.49678104131E+03  0.10100000352E+00 0.  1.
</event>
<event>
 5   0  0.1219810E-04  0.1500478E+04  0.7818609E-02  0.8884135E-01
        2   -1    0    0  501    0  0.00000000000E+00  0.00000000000E+00  0.13944799606E+04  0.13944799606E+04  0.25500000920E-02 0. -1.
       -2   -1    0    0    0  501  0.00000000000E+00  0.00000000000E+00 -0.40363309325E+03  0.40363309326E+03  0.25500000920E-02 0.  1.
    10030    2    1    2    0    0  0.00000000000E+00  0.00000000000E+00  0.99084686738E+03  0.17981130539E+04  0.15004776040E+04 0.  0.
        1    1    3    3  502    0  0.49160705100E+03 -0.38925928302E+03  0.18240375795E+01  0.62705949411E+03  0.50400001928E-02 0.  1.
       -1    1    3    3    0  502 -0.49160705100E+03  0.38925928302E+03  0.98902282980E+03  0.11710535598E+04  0.50400001928E-02 0. -1.
</event>
<event>
 5   0  0.1186664E-04  0.1501777E+04  0.7818609E-02  0.8883272E-01
       -2   -1    0    0    0  501  0.00000000000E+00  0.00000000000E+00  0.44926892837E+03  0.44926892837E+03  0.25500000920E-02 0.  1.
        2   -1    0    0  501    0  0.00000000000E+00  0.00000000000E+00 -0.12550029850E+04  0.12550029850E+04  0.25500000920E-02 0. -1.
    10030    2    1    2    0    0  0.00000000000E+00  0.00000000000E+00 -0.80573405668E+03  0.17042719134E+04  0.15017774085E+04 0.  0.
        3    1    3    3  502    0  0.66860561384E+03 -0.62129463585E+02 -0.21487140820E+02  0.67182977347E+03  0.10100000352E+00 0.  1.
       -3    1    3    3    0  502 -0.66860561384E+03  0.62129463585E+02 -0.78424691586E+03  0.10324421399E+04  0.10100000352E+00 0. -1.
</event>
<event>
 5   0  0.6668433E-05  0.1499492E+04  0.7818609E-02  0.8884791E-01
        1   -1    0    0  501    0  0.00000000000E+00  0.00000000000E+00  0.11765651783E+04  0.11765651783E+04  0.50400001928E-02 0.  1.
       -1   -1    0    0    0  501  0.00000000000E+00  0.00000000000E+00 -0.47776294589E+03  0.47776294592E+03  0.50400001928E-02 0. -1.
    10030    2    1    2    0    0  0.00000000000E+00  0.00000000000E+00  0.69880223238E+03  0.16543281242E+04  0.14994922416E+04 0.  0.
        1    1    3    3  502    0 -0.53113543836E+03  0.50582441160E+03  0.52087202396E+03  0.89959482803E+03  0.50400001928E-02 0.  1.
       -1    1    3    3    0  502  0.53113543836E+03 -0.50582441160E+03  0.17793020842E+03  0.75473329617E+03  0.50400001928E-02 0. -1.
</event>
<event>
 5   0  0.1228286E-04  0.1496412E+04  0.7818609E-02  0.8886842E-01
        2   -1    0    0  501    0  0.00000000000E+00  0.00000000000E+00  0.77375531971E+03  0.77375531972E+03  0.25500000920E-02 0.  1.
       -2   -1    0    0    0  501  0.00000000000E+00  0.00000000000E+00 -0.72350062091E+03  0.72350062092E+03  0.25500000920E-02 0. -1.
    10030    2    1    2    0    0  0.00000000000E+00  0.00000000000E+00  0.50254698801E+02  0.14972559406E+04  0.14964123152E+04 0.  0.
        2    1    3    3  502    0 -0.28673474305E+03  0.64345850140E+03 -0.22711951538E+03  0.74016142170E+03  0.25500000920E-02 0. -1.
       -2    1    3    3    0  502  0.28673474305E+03 -0.64345850140E+03  0.27737421418E+03  0.75709451893E+03  0.25500000920E-02 0.  1.
</event>
<event>
 5   0  0.1228286E-04  0.1511588E+04  0.7818609E-02  0.8876784E-01
        2   -1    0    0  501    0  0.00000000000E+00  0.00000000000E+00  0.37516316620E+03  0.37516316621E+03  0.25500000920E-02 0. -1.
       -2   -1    0    0    0  501  0.00000000000E+00  0.00000000000E+00 -0.15226023312E+04  0.15226023312E+04  0.25500000920E-02 0.  1.
    10030    2    1    2    0    0  0.00000000000E+00  0.00000000000E+00 -0.11474391650E+04  0.18977654974E+04  0.15115876573E+04 0.  0.
        2    1    3    3  502    0 -0.23198727949E+03  0.10284152633E+03 -0.14675194690E+04  0.14892977773E+04  0.25500000920E-02 0.  1.
       -2    1    3    3    0  502  0.23198727949E+03 -0.10284152633E+03  0.32008030402E+03  0.40846772015E+03  0.25500000920E-02 0. -1.
</event>
<event>
 5   0  0.6668433E-05  0.1501184E+04  0.7818609E-02  0.8883666E-01
       -1   -1    0    0    0  501  0.00000000000E+00  0.00000000000E+00  0.32759224031E+03  0.32759224035E+03  0.50400001928E-02 0.  1.
        1   -1    0    0  501    0  0.00000000000E+00  0.00000000000E+00 -0.17197851646E+04  0.17197851646E+04  0.50400001928E-02 0. -1.
    10030    2    1    2    0    0  0.00000000000E+00  0.00000000000E+00 -0.13921929243E+04  0.20473774049E+04  0.15011838994E+04 0.  0.
        1    1    3    3  502    0  0.40450300103E+03  0.39642060876E+03 -0.13678717042E+04  0.14804880871E+04  0.50400001928E-02 0. -1.
       -1    1    3    3    0  502 -0.40450300103E+03 -0.39642060876E+03 -0.24321220061E+02  0.56688931783E+03  0.50400001928E-02 0.  1.
</event>
<event>
 5   0  0.6542036E-05  0.1496791E+04  0.7818609E-02  0.8886590E-01
        1   -1    0    0  501    0  0.00000000000E+00  0.00000000000E+00  0.15710186887E+04  0.15710186887E+04  0.50400001928E-02 0. -1.
       -1   -1    0    0    0  501  0.00000000000E+00  0.00000000000E+00 -0.35651754787E+03  0.35651754790E+03  0.50400001928E-02 0.  1.
    10030    2    1    2    0    0  0.00000000000E+00  0.00000000000E+00  0.12145011408E+04  0.19275362366E+04  0.14967908746E+04 0.  0.
        4    1    3    3  502    0  0.32993633417E+03 -0.84959164648E+02  0.14653581708E+04  0.15044441584E+04  0.12699999809E+01 0. -1.
       -4    1    3    3    0  502 -0.32993633417E+03  0.84959164648E+02 -0.25085702993E+03  0.42309207819E+03  0.12699999809E+01 0.  1.
</event>
<event>
 5   0  0.6364378E-05  0.1506996E+04  0.7818609E-02  0.8879814E-01
       -1   -1    0    0    0  501  0.00000000000E+00  0.00000000000E+00  0.37633445890E+03  0.37633445894E+03  0.50400001928E-02 0.  1.
        1   -1    0    0  501    0  0.00000000000E+00  0.00000000000E+00 -0.15086555163E+04  0.15086555163E+04  0.50400001928E-02 0. -1.
    10030    2    1    2    0    0  0.00000000000E+00  0.00000000000E+00 -0.11323210574E+04  0.18849899752E+04  0.15069957630E+04 0.  0.
        5    1    3    3  502    0 -0.92907625256E+02 -0.67413549349E+03 -0.16152937274E+03  0.69943142528E+03  0.46999998093E+01 0.  1.
       -5    1    3    3    0  502  0.92907625256E+02  0.67413549349E+03 -0.97079168466E+03  0.11855585500E+04  0.46999998093E+01 0. -1.
</event>
<event>
 5   0  0.1216921E-04  0.1498870E+04  0.7818609E-02  0.8885205E-01
        2   -1    0    0  501    0  0.00000000000E+00  0.00000000000E+00  0.74285163710E+03  0.74285163711E+03  0.25500000920E-02 0.  1.
       -2   -1    0    0    0  501  0.00000000000E+00  0.00000000000E+00 -0.75607632357E+03  0.75607632357E+03  0.25500000920E-02 0. -1.
    10030    2    1    2    0    0  0.00000000000E+00  0.00000000000E+00 -0.13224686462E+02  0.14989279607E+04  0.14988696204E+04 0.  0.
        4    1    3    3  502    0 -0.25348773224E+03  0.18838521092E+03  0.67305070699E+03  0.74346747419E+03  0.12699999809E+01 0.  1.
       -4    1    3    3    0  502  0.25348773224E+03 -0.18838521092E+03 -0.68627539345E+03  0.75546048649E+03  0.12699999809E+01 0. -1.
</event>
<event>
 5   0  0.6364378E-05  0.1498103E+04  0.7818609E-02  0.8885716E-01
        1   -1    0    0  501    0  0.00000000000E+00  0.00000000000E+00  0.99307276365E+03  0.99307276366E+03  0.50400001928E-02 0. -1.
       -1   -1    0    0    0  501  0.00000000000E+00  0.00000000000E+00 -0.56499165680E+03  0.56499165683E+03  0.50400001928E-02 0.  1.
    10030    2    1    2    0    0  0.00000000000E+00  0.00000000000E+00  0.42808110684E+03  0.15580644205E+04  0.14981025680E+04 0.  0.
        5    1    3    3  502    0 -0.63879630087E+03  0.10768124967E+03  0.60512290158E+03  0.88648281515E+03  0.46999998093E+01 0. -1.
       -5    1    3    3    0  502  0.63879630087E+03 -0.10768124967E+03 -0.17704179474E+03  0.67158160533E+03  0.46999998093E+01 0.  1.
</event>
<event>
 5   0  0.1186664E-04  0.1500849E+04  0.7818609E-02  0.8883888E-01
        2   -1    0    0  501    0  0.00000000000E+00  0.00000000000E+00  0.10802295712E+04  0.10802295712E+04  0.25500000920E-02 0. -1.
       -2   -1    0    0    0  501  0.00000000000E+00  0.00000000000E+00 -0.52131235014E+03  0.52131235015E+03  0.25500000920E-02 0.  1.
    10030    2    1    2    0    0  0.00000000000E+00  0.00000000000E+00  0.55891722103E+03  0.16015419213E+04  0.15008491149E+04 0.  0.
        3    1    3    3  502    0  0.37518914799E+03 -0.39438992235E+03  0.83066712699E+03  0.99313553641E+03  0.10100000352E+00 0. -1.
       -3    1    3    3    0  502 -0.37518914799E+03  0.39438992235E+03 -0.27174990596E+03  0.60840638492E+03  0.10100000352E+00 0.  1.
</event>
<event>
 5   0  0.6364378E-05  0.1496262E+04  0.7818609E-02  0.8886942E-01
        1   -1    0    0  501    0  0.00000000000E+00  0.00000000000E+00  0.74908644251E+03  0.74908644253E+03  0.50400001928E-02 0. -1.
       -1   -1    0    0    0  501  0.00000000000E+00  0.00000000000E+00 -0.74717723684E+03  0.74717723685E+03  0.50400001928E-02 0.  1.
    10030    2    1    2    0    0  0.00000000000E+00  0.00000000000E+00  0.19092056725E+01  0.14962636794E+04  0.14962624613E+04 0.  0.
        5    1    3    3  502    0 -0.10408832778E+02  0.54541875637E+03  0.51290060723E+03  0.74878507363E+03  0.46999998093E+01 0. -1.
       -5    1    3    3    0  502  0.10408832778E+02 -0.54541875637E+03 -0.51099140155E+03  0.74747860575E+03  0.46999998093E+01 0.  1.
</event>
<event>
 5   0  0.6361716E-05  0.1467271E+04  0.7818609E-02  0.8906514E-01
        1   -1    0    0  501    0  0.00000000000E+00  0.00000000000E+00  0.17953613006E+04  0.17953613006E+04  0.50400001928E-02 0.  1.
       -1   -1    0    0    0  501  0.00000000000E+00  0.00000000000E+00 -0.29978440715E+03  0.29978440719E+03  0.50400001928E-02 0. -1.
    10030    2    1    2    0    0  0.00000000000E+00  0.00000000000E+00  0.14955768934E+04  0.20951457078E+04  0.14672713766E+04 0.  0.
        3    1    3    3  502    0  0.51830830477E+03  0.85050346866E+02  0.14791625241E+04  0.15696492739E+04  0.10100000352E+00 0.  1.
       -3    1    3    3    0  502 -0.51830830477E+03 -0.85050346866E+02  0.16414369381E+02  0.52549643388E+03  0.10100000352E+00 0. -1.
</event>
<event>
 5   0  0.6361716E-05  0.1495158E+04  0.7818609E-02  0.8887679E-01
       -1   -1    0    0    0  501  0.00000000000E+00  0.00000000000E+00  0.22032099381E+04  0.22032099381E+04  0.50400001928E-02 0.  1.
        1   -1    0    0  501    0  0.00000000000E+00  0.00000000000E+00 -0.25366371660E+03  0.25366371665E+03  0.50400001928E-02 0. -1.
    10030    2    1    2    0    0  0.00000000000E+00  0.00000000000E+00  0.19495462215E+04  0.24568736548E+04  0.14951580805E+04 0.  0.
        3    1    3    3  502    0  0.35736011483E+03 -0.52281931896E+03  0.16275847692E+04  0.17464473891E+04  0.10100000352E+00 0.  1.
       -3    1    3    3    0  502 -0.35736011483E+03  0.52281931896E+03  0.32196145237E+03  0.71042626567E+03  0.10100000352E+00 0. -1.
</event>
<event>
 5   0  0.6364378E-05  0.1502325E+04  0.7818609E-02  0.8882908E-01
       -1   -1    0    0    0  501  0.00000000000E+00  0.00000000000E+00  0.79209341725E+03  0.79209341727E+03  0.50400001928E-02 0. -1.
        1   -1    0    0  501    0  0.00000000000E+00  0.00000000000E+00 -0.71234707303E+03  0.71234707305E+03  0.50400001928E-02 0.  1.
    10030    2    1    2    0    0  0.00000000000E+00  0.00000000000E+00  0.79746344219E+02  0.15044404903E+04  0.15023254339E+04 0.  0.
        5    1    3    3  502    0  0.99670025579E+02  0.52957249011E+03 -0.48416289925E+03  0.72444250240E+03  0.46999998093E+01 0.  1.
       -5    1    3    3    0  502 -0.99670025579E+02 -0.52957249011E+03  0.56390924347E+03  0.77999798791E+03  0.46999998093E+01 0. -1.
</event>
<event>
 5   0  0.1216921E-04  0.1487860E+04  0.7818609E-02  0.8892567E-01
        2   -1    0    0  501    0  0.00000000000E+00  0.00000000000E+00  0.16253305217E+04  0.16253305217E+04  0.25500000920E-02 0. -1.
       -2   -1    0    0    0  501  0.00000000000E+00  0.00000000000E+00 -0.34050395767E+03  0.34050395768E+03  0.25500000920E-02 0.  1.
    10030    2    1    2    0    0  0.00000000000E+00  0.00000000000E+00  0.12848265641E+04  0.19658344794E+04  0.14878595030E+04 0.  0.
        4    1    3    3  502    0 -0.48284027399E+03  0.31052388461E+03  0.12675615355E+04  0.13915005111E+04  0.12699999809E+01 0. -1.
       -4    1    3    3    0  502  0.48284027399E+03 -0.31052388461E+03  0.17265028559E+02  0.57433396836E+03  0.12699999809E+01 0.  1.
</event>
<event>
 5   0  0.1186664E-04  0.1500461E+04  0.7818609E-02  0.8884146E-01
        2   -1    0    0  501    0  0.00000000000E+00  0.00000000000E+00  0.15107319123E+04  0.15107319123E+04  0.25500000920E-02 0. -1.
       -2   -1    0    0    0  501  0.00000000000E+00  0.00000000000E+00 -0.37256492550E+03  0.37256492551E+03  0.25500000920E-02 0.  1.
    10030    2    1    2    0    0  0.00000000000E+00  0.00000000000E+00  0.11381669868E+04  0.18832968379E+04  0.15004608924E+04 0.  0.
        3    1    3    3  502    0 -0.16038904060E+02  0.72362905869E+03  0.32137279273E+03  0.79194491168E+03  0.10100000352E+00 0.  1.
       -3    1    3    3    0  502  0.16038904060E+02 -0.72362905869E+03  0.81679419410E+03  0.10913519262E+04  0.10100000352E+00 0. -1.
</event>
<event>
 5   0  0.1228286E-04  0.1499264E+04  0.7818609E-02  0.8884943E-01
       -2   -1    0    0    0  501  0.00000000000E+00  0.00000000000E+00  0.72988717695E+03  0.72988717696E+03  0.25500000920E-02 0.  1.
        2   -1    0    0  501    0  0.00000000000E+00  0.00000000000E+00 -0.76991088224E+03  0.76991088225E+03  0.25500000920E-02 0. -1.
    10030    2    1    2    0    0  0.00000000000E+00  0.00000000000E+00 -0.40023705289E+02  0.14997980592E+04  0.14992639265E+04 0.  0.
        2    1    3    3  502    0 -0.27544767849E+03  0.69682114546E+03 -0.42756443255E+02  0.75050599318E+03  0.25500000920E-02 0. -1.
       -2    1    3    3    0  502  0.27544767849E+03 -0.69682114546E+03  0.27327379655E+01  0.74929206603E+03  0.25500000920E-02 0.  1.
</event>
<event>
 5   0  0.1219810E-04  0.1501690E+04  0.7818609E-02  0.8883330E-01
        2   -1    0    0  501    0  0.00000000000E+00  0.00000000000E+00  0.86142302985E+03  0.86142302985E+03  0.25500000920E-02 0. -1.
       -2   -1    0    0    0  501  0.00000000000E+00  0.00000000000E+00 -0.65446157444E+03  0.65446157444E+03  0.25500000920E-02 0.  1.
    10030    2    1    2    0    0  0.00000000000E+00  0.00000000000E+00  0.20696145541E+03  0.15158846043E+04  0.15016900777E+04 0.  0.
        1    1    3    3  502    0 -0.53645071869E+03 -0.26536894100E+03 -0.35420126201E+03  0.69545566534E+03  0.50400001928E-02 0.  1.
       -1    1    3    3    0  502  0.53645071869E+03  0.26536894100E+03  0.56116271742E+03  0.82042893895E+03  0.50400001928E-02 0. -1.
</event>
<event>
 5   0  0.1254487E-04  0.1499652E+04  0.7818609E-02  0.8884685E-01
       -2   -1    0    0    0  501  0.00000000000E+00  0.00000000000E+00  0.57470335472E+03  0.57470335473E+03  0.25500000920E-02 0.  1.
        2   -1    0    0  501    0  0.00000000000E+00  0.00000000000E+00 -0.97831116830E+03  0.97831116830E+03  0.25500000920E-02 0. -1.
    10030    2    1    2    0    0  0.00000000000E+00  0.00000000000E+00 -0.40360781358E+03  0.15530145230E+04  0.14996515734E+04 0.  0.
        5    1    3    3  502    0 -0.14026453467E+03  0.30022909459E+03 -0.89834835320E+03  0.95752989647E+03  0.46999998093E+01 0. -1.
       -5    1    3    3    0  502  0.14026453467E+03 -0.30022909459E+03  0.49474053962E+03  0.59548462656E+03  0.46999998093E+01 0.  1.
</event>
<event>
 5   0  0.1186664E-04  0.1500322E+04  0.7818609E-02  0.8884239E-01
        2   -1    0    0  501    0  0.00000000000E+00  0.00000000000E+00  0.46486987404E+03  0.46486987405E+03  0.25500000920E-02 0. -1.
       -2   -1    0    0    0  501  0.00000000000E+00  0.00000000000E+00 -0.12105361837E+04  0.12105361837E+04  0.25500000920E-02 0.  1.
    10030    2    1    2    0    0  0.00000000000E+00  0.00000000000E+00 -0.74566630970E+03  0.16754060578E+04  0.15003223697E+04 0.  0.
        3    1    3    3  502    0  0.67005931353E+03  0.10377966822E+03 -0.14458380763E+02  0.67820259374E+03  0.10100000352E+00 0. -1.
       -3    1    3    3    0  502 -0.67005931353E+03 -0.10377966822E+03 -0.73120792894E+03  0.99720346406E+03  0.10100000352E+00 0.  1.
</event>
<event>
 5   0  0.6361716E-05  0.1501733E+04  0.7818609E-02  0.8883301E-01
       -1   -1    0    0    0  501  0.00000000000E+00  0.00000000000E+00  0.50860642126E+03  0.50860642129E+03  0.50400001928E-02 0.  1.
        1   -1    0    0  501    0  0.00000000000E+00  0.00000000000E+00 -0.11085202167E+04  0.11085202167E+04  0.50400001928E-02 0. -1.
    10030    2    1    2    0    0  0.00000000000E+00  0.00000000000E+00 -0.59991379540E+03  0.16171266380E+04  0.15017329993E+04 0.  0.
        3    1    3    3  502    0 -0.60175582507E+03  0.21263187069E+02 -0.78302306354E+03  0.98776886181E+03  0.10100000352E+00 0. -1.
       -3    1    3    3    0  502  0.60175582507E+03 -0.21263187069E+02  0.18310926814E+03  0.62935777615E+03  0.10100000352E+00 0.  1.
</event>
<event>
 5   0  0.6361716E-05  0.1501819E+04  0.7818609E-02  0.8883244E-01
        1   -1    0    0  501    0  0.00000000000E+00  0.00000000000E+00  0.86134999926E+03  0.86134999928E+03  0.50400001928E-02 0.  1.
       -1   -1    0    0    0  501  0.00000000000E+00  0.00000000000E+00 -0.65462908679E+03  0.65462908681E+03  0.50400001928E-02 0. -1.
    10030    2    1    2    0    0  0.00000000000E+00  0.00000000000E+00  0.20672091247E+03  0.15159790861E+04  0.15018185822E+04 0.  0.
        3    1    3    3  502    0 -0.59033243873E+03  0.45442627030E+03  0.19842449122E+03  0.77095260054E+03  0.10100000352E+00 0. -1.
       -3    1    3    3    0  502  0.59033243873E+03 -0.45442627030E+03  0.82964212479E+01  0.74502648555E+03  0.10100000352E+00 0.  1.
</event>
<event>
 5   0  0.6364378E-05  0.1502087E+04  0.7818609E-02  0.8883067E-01
       -1   -1    0    0    0  501  0.00000000000E+00  0.00000000000E+00  0.60115081246E+03  0.60115081248E+03  0.50400001928E-02 0.  1.
        1   -1    0    0  501    0  0.00000000000E+00  0.00000000000E+00 -0.93831031493E+03  0.93831031495E+03  0.50400001928E-02 0. -1.
    10030    2    1    2    0    0  0.00000000000E+00  0.00000000000E+00 -0.33715950248E+03  0.15394611274E+04  0.15020865597E+04 0.  0.
        5    1    3    3  502    0  0.64582389655E+03  0.12043919070E+03  0.20441218565E+03  0.68804108573E+03  0.46999998093E+01 0.  1.
       -5    1    3    3    0  502 -0.64582389655E+03 -0.12043919070E+03 -0.54157168812E+03  0.85142004169E+03  0.46999998093E+01 0. -1.
</event>
<event>
 5   0  0.6361716E-05  0.1500016E+04  0.7818609E-02  0.8884443E-01
        1   -1    0    0  501    0  0.00000000000E+00  0.00000000000E+00  0.77327398024E+03  0.77327398026E+03  0.50400001928E-02 0.  1.
       -1   -1    0    0    0  501  0.00000000000E+00  0.00000000000E+00 -0.72744164711E+03  0.72744164712E+03  0.50400001928E-02 0. -1.
    10030    2    1    2    0    0  0.00000000000E+00  0.00000000000E+00  0.45832333134E+02  0.15007156274E+04  0.15000155971E+04 0.  0.
        3    1    3    3  502    0  0.72940049685E+03  0.11942862531E+03 -0.10451441141E+03  0.74646604326E+03  0.10100000352E+00 0.  1.
       -3    1    3    3    0  502 -0.72940049685E+03 -0.11942862531E+03  0.15034674454E+03  0.75424958412E+03  0.10100000352E+00 0. -1.
</event>
<event>
 5   0  0.1228286E-04  0.1502006E+04  0.7818609E-02  0.8883120E-01
        2   -1    0    0  501    0  0.00000000000E+00  0.00000000000E+00  0.21459749078E+04  0.21459749078E+04  0.25500000920E-02 0. -1.
       -2   -1    0    0    0  501  0.00000000000E+00  0.00000000000E+00 -0.26282016160E+03  0.26282016161E+03  0.25500000920E-02 0.  1.
    10030    2    1    2    0    0  0.00000000000E+00  0.00000000000E+00  0.18831547462E+04  0.24087950694E+04  0.15020059548E+04 0.  0.
        2    1    3    3  502    0  0.58739381443E+03 -0.15937649001E+03  0.23599013599E+03  0.65278151252E+03  0.25500000920E-02 0.  1.
       -2    1    3    3    0  502 -0.58739381443E+03  0.15937649001E+03  0.16471646102E+04  0.17560135568E+04  0.25500000920E-02 0. -1.
</event>
<event>
 5   0  0.1186664E-04  0.1506694E+04  0.7818609E-02  0.8880014E-01
       -2   -1    0    0    0  501  0.00000000000E+00  0.00000000000E+00  0.12847251402E+04  0.12847251402E+04  0.25500000920E-02 0.  1.
        2   -1    0    0  501    0  0.00000000000E+00  0.00000000000E+00 -0.44175323446E+03  0.44175323446E+03  0.25500000920E-02 0. -1.
    10030    2    1    2    0    0  0.00000000000E+00  0.00000000000E+00  0.84297190572E+03  0.17264783746E+04  0.15066937128E+04 0.  0.
        3    1    3    3  502    0 -0.25166101925E+03  0.62734238992E+03  0.80263226893E+03  0.10493380352E+04  0.10100000352E+00 0.  1.
       -3    1    3    3    0  502  0.25166101925E+03 -0.62734238992E+03  0.40339636784E+02  0.67714033944E+03  0.10100000352E+00 0. -1.
</event>
<event>
 5   0  0.6361716E-05  0.1487024E+04  0.7818609E-02  0.8893128E-01
       -1   -1    0    0    0  501  0.00000000000E+00  0.00000000000E+00  0.33189505806E+03  0.33189505809E+03  0.50400001928E-02 0. -1.
        1   -1    0    0  501    0  0.00000000000E+00  0.00000000000E+00 -0.16656165054E+04  0.16656165054E+04  0.50400001928E-02 0.  1.
    10030    2    1    2    0    0  0.00000000000E+00  0.00000000000E+00 -0.13337214473E+04  0.19975115635E+04  0.14870237211E+04 0.  0.
        3    1    3    3  502    0  0.60170181948E+03 -0.42697372349E+03 -0.79040178197E+03  0.10812430935E+04  0.10100000352E+00 0.  1.
       -3    1    3    3    0  502 -0.60170181948E+03  0.42697372349E+03 -0.54331966537E+03  0.91626846998E+03  0.10100000352E+00 0. -1.
</event>
<event>
 5   0  0.6509279E-05  0.1478133E+04  0.7818609E-02  0.8899126E-01
        1   -1    0    0  501    0  0.00000000000E+00  0.00000000000E+00  0.19660760390E+04  0.19660760390E+04  0.50400001928E-02 0. -1.
       -1   -1    0    0    0  501  0.00000000000E+00  0.00000000000E+00 -0.27782202291E+03  0.27782202296E+03  0.50400001928E-02 0.  1.
    10030    2    1    2    0    0  0.00000000000E+00  0.00000000000E+00  0.16882540161E+04  0.22438980619E+04  0.14781329066E+04 0.  0.
        2    1    3    3  502    0 -0.64518894513E+03  0.79679140554E+02  0.13778326925E+04  0.15234961335E+04  0.25500000920E-02 0. -1.
       -2    1    3    3    0  502  0.64518894513E+03 -0.79679140554E+02  0.31042132360E+03  0.72040192844E+03  0.25500000920E-02 0.  1.
</event>
<event>
 5   0  0.1228286E-04  0.1507179E+04  0.7818609E-02  0.8879693E-01
        2   -1    0    0  501    0  0.00000000000E+00  0.00000000000E+00  0.59408699823E+03  0.59408699824E+03  0.25500000920E-02 0.  1.
       -2   -1    0    0    0  501  0.00000000000E+00  0.00000000000E+00 -0.95591595062E+03  0.95591595063E+03  0.25500000920E-02 0. -1.
    10030    2    1    2    0    0  0.00000000000E+00  0.00000000000E+00 -0.36182895239E+03  0.15500029489E+04  0.15071791369E+04 0.  0.
        2    1    3    3  502    0 -0.60809857058E+03  0.44087662208E+03 -0.24381748015E+03  0.78968540006E+03  0.25500000920E-02 0. -1.
       -2    1    3    3    0  502  0.60809857058E+03 -0.44087662208E+03 -0.11801147224E+03  0.76031754881E+03  0.25500000920E-02 0.  1.
</event>
<event>
 5   0  0.6542036E-05  0.1500100E+04  0.7818609E-02  0.8884386E-01
        1   -1    0    0  501    0  0.00000000000E+00  0.00000000000E+00  0.10104194444E+04  0.10104194444E+04  0.50400001928E-02 0.  1.
       -1   -1    0    0    0  501  0.00000000000E+00  0.00000000000E+00 -0.55677380477E+03  0.55677380480E+03  0.50400001928E-02 0. -1.
    10030    2    1    2    0    0  0.00000000000E+00  0.00000000000E+00  0.45364563962E+03  0.15671932492E+04  0.15001001013E+04 0.  0.
        4    1    3    3  502    0 -0.65855693482E+03  0.35560793328E+03  0.17543731566E+03  0.76872238372E+03  0.12699999809E+01 0.  1.
       -4    1    3    3    0  502  0.65855693482E+03 -0.35560793328E+03  0.27820832397E+03  0.79847086549E+03  0.12699999809E+01 0. -1.
</event>
<event>
 5   0  0.1219810E-04  0.1501457E+04  0.7818609E-02  0.8883484E-01
        2   -1    0    0  501    0  0.00000000000E+00  0.00000000000E+00  0.84818186629E+03  0.84818186630E+03  0.25500000920E-02 0. -1.
       -2   -1    0    0    0  501  0.00000000000E+00  0.00000000000E+00 -0.66447245845E+03  0.66447245846E+03  0.25500000920E-02 0.  1.
    10030    2    1    2    0    0  0.00000000000E+00  0.00000000000E+00  0.18370940784E+03  0.15126543248E+04  0.15014572787E+04 0.  0.
        1    1    3    3  502    0  0.12116563176E+03  0.33077781279E+03  0.75974536655E+03  0.83744139722E+03  0.50400001928E-02 0. -1.
       -1    1    3    3    0  502 -0.12116563176E+03 -0.33077781279E+03 -0.57603595871E+03  0.67521292754E+03  0.50400001928E-02 0.  1.
</event>
<event>
 5   0  0.6542036E-05  0.1499440E+04  0.7818609E-02  0.8884826E-01
       -1   -1    0    0    0  501  0.00000000000E+00  0.00000000000E+00  0.69168934827E+03  0.69168934829E+03  0.50400001928E-02 0.  1.
        1   -1    0    0  501    0  0.00000000000E+00  0.00000000000E+00 -0.81261872841E+03  0.81261872843E+03  0.50400001928E-02 0. -1.
    10030    2    1    2    0    0  0.00000000000E+00  0.00000000000E+00 -0.12092938014E+03  0.15043080767E+04  0.14994395202E+04 0.  0.
        4    1    3    3  502    0  0.54100339043E+03 -0.35287721352E+03 -0.44231990594E+03  0.78285088515E+03  0.12699999809E+01 0. -1.
       -4    1    3    3    0  502 -0.54100339043E+03  0.35287721352E+03  0.32139052580E+03  0.72145719156E+03  0.12699999809E+01 0.  1.
</event>
<event>
 5   0  0.6361716E-05  0.1504780E+04  0.7818609E-02  0.8881280E-01
        1   -1    0    0  501    0  0.00000000000E+00  0.00000000000E+00  0.11308821322E+04  0.11308821322E+04  0.50400001928E-02 0.  1.
       -1   -1    0    0    0  501  0.00000000000E+00  0.00000000000E+00 -0.50057465668E+03  0.50057465671E+03  0.50400001928E-02 0. -1.
    10030    2    1    2    0    0  0.00000000000E+00  0.00000000000E+00  0.63030747553E+03  0.16314567889E+04  0.15047802964E+04 0.  0.
        3    1    3    3  502    0 -0.49682978597E+03  0.57139955035E+01 -0.29740320178E+03  0.57906921918E+03  0.10100000352E+00 0. -1.
       -3    1    3    3    0  502  0.49682978597E+03 -0.57139955035E+01  0.92771067731E+03  0.10523875698E+04  0.10100000352E+00 0.  1.
</event>
<event>
 5   0  0.6509279E-05  0.1506437E+04  0.7818609E-02  0.8880184E-01
        1   -1    0    0  501    0  0.00000000000E+00  0.00000000000E+00  0.96764713640E+03  0.96764713642E+03  0.50400001928E-02 0. -1.
       -1   -1    0    0    0  501  0.00000000000E+00  0.00000000000E+00 -0.58630649884E+03  0.58630649887E+03  0.50400001928E-02 0.  1.
    10030    2    1    2    0    0  0.00000000000E+00  0.00000000000E+00  0.38134063756E+03  0.15539536353E+04  0.15064365963E+04 0.  0.
        2    1    3    3  502    0 -0.48641837054E+03 -0.57491831209E+03  0.20540036909E+03  0.78059157592E+03  0.25500000920E-02 0. -1.
       -2    1    3    3    0  502  0.48641837054E+03  0.57491831209E+03  0.17594026847E+03  0.77336205936E+03  0.25500000920E-02 0.  1.
</event>
<event>
 5   0  0.1219810E-04  0.1499920E+04  0.7818609E-02  0.8884506E-01
        2   -1    0    0  501    0  0.00000000000E+00  0.00000000000E+00  0.99989739351E+03  0.99989739351E+03  0.25500000920E-02 0.  1.
       -2   -1    0    0    0  501  0.00000000000E+00  0.00000000000E+00 -0.56249772895E+03  0.56249772895E+03  0.25500000920E-02 0. -1.
    10030    2    1    2    0    0  0.00000000000E+00  0.00000000000E+00  0.43739966456E+03  0.15623951225E+04  0.14999200152E+04 0.  0.
        1    1    3    3  502    0 -0.19506633182E+03 -0.72385646245E+03  0.24007175953E+03  0.78718073007E+03  0.50400001928E-02 0. -1.
       -1    1    3    3    0  502  0.19506633182E+03  0.72385646245E+03  0.19732790503E+03  0.77521439239E+03  0.50400001928E-02 0.  1.
</event>
<event>
 5   0  0.1254487E-04  0.1516241E+04  0.7818609E-02  0.8873724E-01
        2   -1    0    0  501    0  0.00000000000E+00  0.00000000000E+00  0.12262986126E+04  0.12262986126E+04  0.25500000920E-02 0.  1.
       -2   -1    0    0    0  501  0.00000000000E+00  0.00000000000E+00 -0.46868383507E+03  0.46868383508E+03  0.25500000920E-02 0. -1.
    10030    2    1    2    0    0  0.00000000000E+00  0.00000000000E+00  0.75761477750E+03  0.16949824477E+04  0.15162405306E+04 0.  0.
        5    1    3    3  502    0 -0.62074136630E+03  0.41252542742E+03  0.22379912972E+03  0.77820640743E+03  0.46999998093E+01 0. -1.
       -5    1    3    3    0  502  0.62074136630E+03 -0.41252542742E+03  0.53381564778E+03  0.91677604022E+03  0.46999998093E+01 0.  1.
</event>
<event>
 5   0  0.6364378E-05  0.1499808E+04  0.7818609E-02  0.8884581E-01
        1   -1    0    0  501    0  0.00000000000E+00  0.00000000000E+00  0.23092069937E+04  0.23092069937E+04  0.50400001928E-02 0. -1.
       -1   -1    0    0    0  501  0.00000000000E+00  0.00000000000E+00 -0.24352775861E+03  0.24352775866E+03  0.50400001928E-02 0.  1.
    10030    2    1    2    0    0  0.00000000000E+00  0.00000000000E+00  0.20656792351E+04  0.25527347524E+04  0.14998079923E+04 0.  0.
        5    1    3    3  502    0  0.24430814844E+03  0.69987392770E+03  0.12255834774E+04  0.14323361813E+04  0.46999998093E+01 0.  1.
       -5    1    3    3    0  502 -0.24430814844E+03 -0.69987392770E+03  0.84009575771E+03  0.11203985711E+04  0.46999998093E+01 0. -1.
</event>
<event>
 5   0  0.1216921E-04  0.1505121E+04  0.7818609E-02  0.8881055E-01
        2   -1    0    0  501    0  0.00000000000E+00  0.00000000000E+00  0.81472056715E+03  0.81472056715E+03  0.25500000920E-02 0.  1.
       -2   -1    0    0    0  501  0.00000000000E+00  0.00000000000E+00 -0.69514281467E+03  0.69514281467E+03  0.25500000920E-02 0. -1.
    10030    2    1    2    0    0  0.00000000000E+00  0.00000000000E+00  0.11957775248E+03  0.15098633818E+04  0.15051207901E+04 0.  0.
        4    1    3    3  502    0  0.37581715449E+03  0.32895653311E+03  0.62449658704E+03  0.79965525973E+03  0.12699999809E+01 0.  1.
       -4    1    3    3    0  502 -0.37581715449E+03 -0.32895653311E+03 -0.50491883457E+03  0.71020812209E+03  0.12699999809E+01 0. -1.
</event>
<event>
 5   0  0.6668433E-05  0.1497898E+04  0.7818609E-02  0.8885852E-01
        1   -1    0    0  501    0  0.00000000000E+00  0.00000000000E+00  0.52859536750E+03  0.52859536753E+03  0.50400001928E-02 0. -1.
       -1   -1    0    0    0  501  0.00000000000E+00  0.00000000000E+00 -0.10611603948E+04  0.10611603948E+04  0.50400001928E-02 0.  1.
    10030    2    1    2    0    0  0.00000000000E+00  0.00000000000E+00 -0.53256502733E+03  0.15897557624E+04  0.14978978188E+04 0.  0.
        1    1    3    3  502    0 -0.73444491824E+03  0.14659973742E+03 -0.27144364479E+03  0.79660684988E+03  0.50400001928E-02 0. -1.
       -1    1    3    3    0  502  0.73444491824E+03 -0.14659973742E+03 -0.26112138254E+03  0.79314891249E+03  0.50400001928E-02 0.  1.
</event>
<event>
 5   0  0.6364378E-05  0.1497686E+04  0.7818609E-02  0.8885993E-01
        1   -1    0    0  501    0  0.00000000000E+00  0.00000000000E+00  0.78136530514E+03  0.78136530515E+03  0.50400001928E-02 0.  1.
       -1   -1    0    0    0  501  0.00000000000E+00  0.00000000000E+00 -0.71767452091E+03  0.71767452093E+03  0.50400001928E-02 0. -1.
    10030    2    1    2    0    0  0.00000000000E+00  0.00000000000E+00  0.63690784225E+02  0.14990398261E+04  0.14976861768E+04 0.  0.
        5    1    3    3  502    0  0.63157212752E+03  0.11664593078E+03 -0.35354060807E+03  0.73314574062E+03  0.46999998093E+01 0. -1.
       -5    1    3    3    0  502 -0.63157212752E+03 -0.11664593078E+03  0.41723139230E+03  0.76589408546E+03  0.46999998093E+01 0.  1.
</event>
<event>
 5   0  0.6509279E-05  0.1500509E+04  0.7818609E-02  0.8884115E-01
        1   -1    0    0  501    0  0.00000000000E+00  0.00000000000E+00  0.18740189361E+04  0.18740189361E+04  0.50400001928E-02 0. -1.
       -1   -1    0    0    0  501  0.00000000000E+00  0.00000000000E+00 -0.30036072013E+03  0.30036072017E+03  0.50400001928E-02 0.  1.
    10030    2    1    2    0    0  0.00000000000E+00  0.00000000000E+00  0.15736582160E+04  0.21743796563E+04  0.15005088167E+04 0.  0.
        2    1    3    3  502    0 -0.20537997451E+03  0.51150350552E+03  0.49262717884E+02  0.55339279492E+03  0.25500000920E-02 0.  1.
       -2    1    3    3    0  502  0.20537997451E+03 -0.51150350552E+03  0.15243954981E+04  0.16209868614E+04  0.25500000920E-02 0. -1.
</event>
<event>
 5   0  0.6509279E-05  0.1499372E+04  0.7818609E-02  0.8884871E-01
        1   -1    0    0  501    0  0.00000000000E+00  0.00000000000E+00  0.71629862836E+03  0.71629862838E+03  0.50400001928E-02 0.  1.
       -1   -1    0    0    0  501  0.00000000000E+00  0.00000000000E+00 -0.78462971758E+03  0.78462971760E+03  0.50400001928E-02 0. -1.
    10030    2    1    2    0    0  0.00000000000E+00  0.00000000000E+00 -0.68331089222E+02  0.15009283460E+04  0.14993721226E+04 0.  0.
        2    1    3    3  502    0  0.49839082713E+03  0.39277770012E+03 -0.43378089932E+03  0.76865701513E+03  0.25500000920E-02 0. -1.
       -2    1    3    3    0  502 -0.49839082713E+03 -0.39277770012E+03  0.36544981010E+03  0.73227133085E+03  0.25500000920E-02 0.  1.
</event>
<event>
 5   0  0.4462875E-05  0.1503984E+04  0.7818609E-02  0.8881808E-01
        3   -1    0    0  501    0  0.00000000000E+00  0.00000000000E+00  0.10879574304E+04  0.10879574351E+04  0.10100000352E+00 0. -1.
       -3   -1    0    0    0  501  0.00000000000E+00  0.00000000000E+00 -0.51977379130E+03  0.51977380112E+03  0.10100000352E+00 0.  1.
    10030    2    1    2    0    0  0.00000000000E+00  0.00000000000E+00  0.56818363914E+03  0.16077312363E+04  0.15039837367E+04 0.  0.
        2    1    3    3  502    0  0.48798825875E+03  0.30670094664E+03 -0.23223165396E+03  0.62139323496E+03  0.25500000920E-02 0.  1.
       -2    1    3    3    0  502 -0.48798825875E+03 -0.30670094664E+03  0.80041529311E+03  0.98633800129E+03  0.25500000920E-02 0. -1.
</event>
<event>
 5   0  0.6364378E-05  0.1500382E+04  0.7818609E-02  0.8884199E-01
        1   -1    0    0  501    0  0.00000000000E+00  0.00000000000E+00  0.10143155750E+04  0.10143155750E+04  0.50400001928E-02 0.  1.
       -1   -1    0    0    0  501  0.00000000000E+00  0.00000000000E+00 -0.55484395718E+03  0.55484395721E+03  0.50400001928E-02 0. -1.
    10030    2    1    2    0    0  0.00000000000E+00  0.00000000000E+00  0.45947161784E+03  0.15691595322E+04  0.15003824413E+04 0.  0.
        5    1    3    3  502    0  0.14161891067E+03  0.22536990765E+03 -0.50378283981E+03  0.56979535872E+03  0.46999998093E+01 0. -1.
       -5    1    3    3    0  502 -0.14161891067E+03 -0.22536990765E+03  0.96325445765E+03  0.99936417352E+03  0.46999998093E+01 0.  1.
</event>
<event>
 5   0  0.6509279E-05  0.1500502E+04  0.7818609E-02  0.8884119E-01
       -1   -1    0    0    0  501  0.00000000000E+00  0.00000000000E+00  0.46752193238E+03  0.46752193241E+03  0.50400001928E-02 0. -1.
        1   -1    0    0  501    0  0.00000000000E+00  0.00000000000E+00 -0.12039572577E+04  0.12039572577E+04  0.50400001928E-02 0.  1.
    10030    2    1    2    0    0  0.00000000000E+00  0.00000000000E+00 -0.73643532533E+03  0.16714791901E+04  0.15005018143E+04 0.  0.
        2    1    3    3  502    0  0.28645718601E+03  0.19238320800E+03  0.37388112398E+03  0.50877904144E+03  0.25500000920E-02 0. -1.
       -2    1    3    3    0  502 -0.28645718601E+03 -0.19238320800E+03 -0.11103164493E+04  0.11627001487E+04  0.25500000920E-02 0.  1.
</event>
<event>
 5   0  0.6509279E-05  0.1493695E+04  0.7818609E-02  0.8888656E-01
        1   -1    0    0  501    0  0.00000000000E+00  0.00000000000E+00  0.64828159079E+03  0.64828159081E+03  0.50400001928E-02 0.  1.
       -1   -1    0    0    0  501  0.00000000000E+00  0.00000000000E+00 -0.86039981547E+03  0.86039981548E+03  0.50400001928E-02 0. -1.
    10030    2    1    2    0    0  0.00000000000E+00  0.00000000000E+00 -0.21211822468E+03  0.15086814063E+04  0.14936952314E+04 0.  0.
        2    1    3    3  502    0 -0.26249315226E+03 -0.16284293132E+01 -0.81227084132E+03  0.85363295768E+03  0.25500000920E-02 0. -1.
       -2    1    3    3    0  502  0.26249315226E+03  0.16284293132E+01  0.60015261664E+03  0.65504844861E+03  0.25500000920E-02 0.  1.
</event>
<event>
 5   0  0.6509279E-05  0.1501089E+04  0.7818609E-02  0.8883729E-01
       -1   -1    0    0    0  501  0.00000000000E+00  0.00000000000E+00  0.73476685165E+03  0.73476685166E+03  0.50400001928E-02 0. -1.
        1   -1    0    0  501    0  0.00000000000E+00  0.00000000000E+00 -0.76666091155E+03  0.76666091156E+03  0.50400001928E-02 0.  1.
    10030    2    1    2    0    0  0.00000000000E+00  0.00000000000E+00 -0.31894059900E+02  0.15014277632E+04  0.15010889704E+04 0.  0.
        2    1    3    3  502    0  0.11822362211E+03 -0.69531172578E+03 -0.27267946962E+03  0.75616751715E+03  0.25500000920E-02 0. -1.
       -2    1    3    3    0  502 -0.11822362211E+03  0.69531172578E+03  0.24078540972E+03  0.74526024607E+03  0.25500000920E-02 0.  1.
</event>
<event>
 5   0  0.1219810E-04  0.1505176E+04  0.7818609E-02  0.8881018E-01
        2   -1    0    0  501    0  0.00000000000E+00  0.00000000000E+00  0.36299872345E+03  0.36299872346E+03  0.25500000920E-02 0. -1.
       -2   -1    0    0    0  501  0.00000000000E+00  0.00000000000E+00 -0.15603053554E+04  0.15603053554E+04  0.25500000920E-02 0.  1.
    10030    2    1    2    0    0  0.00000000000E+00  0.00000000000E+00 -0.11973066319E+04  0.19233040788E+04  0.15051762052E+04 0.  0.
        1    1    3    3  502    0  0.81902898621E+02  0.67704414211E+03 -0.10053289714E+04  0.12148181740E+04  0.50400001928E-02 0.  1.
       -1    1    3    3    0  502 -0.81902898621E+02 -0.67704414211E+03 -0.19197766056E+03  0.70848590484E+03  0.50400001928E-02 0. -1.
</event>
<event>
 5   0  0.6364378E-05  0.1484246E+04  0.7818609E-02  0.8894997E-01
       -1   -1    0    0    0  501  0.00000000000E+00  0.00000000000E+00  0.54823581161E+03  0.54823581164E+03  0.50400001928E-02 0.  1.
        1   -1    0    0  501    0  0.00000000000E+00  0.00000000000E+00 -0.10045802081E+04  0.10045802082E+04  0.50400001928E-02 0. -1.
    10030    2    1    2    0    0  0.00000000000E+00  0.00000000000E+00 -0.45634439653E+03  0.15528160198E+04  0.14842464024E+04 0.  0.
        5    1    3    3  502    0  0.10303789658E+03 -0.73260416646E+03 -0.16717710799E+03  0.75848266181E+03  0.46999998093E+01 0.  1.
       -5    1    3    3    0  502 -0.10303789658E+03  0.73260416646E+03 -0.28916728854E+03  0.79433335798E+03  0.46999998093E+01 0. -1.
</event>
<event>
 5   0  0.6509279E-05  0.1493327E+04  0.7818609E-02  0.8888903E-01
       -1   -1    0    0    0  501  0.00000000000E+00  0.00000000000E+00  0.71589119067E+03  0.71589119068E+03  0.50400001928E-02 0. -1.
        1   -1    0    0  501    0  0.00000000000E+00  0.00000000000E+00 -0.77875814510E+03  0.77875814512E+03  0.50400001928E-02 0.  1.
    10030    2    1    2    0    0  0.00000000000E+00  0.00000000000E+00 -0.62866954438E+02  0.14946493358E+04  0.14933266163E+04 0.  0.
        2    1    3    3  502    0  0.31034821740E+03  0.67637934462E+03  0.29456762084E+02  0.74476354282E+03  0.25500000920E-02 0. -1.
       -2    1    3    3    0  502 -0.31034821740E+03 -0.67637934462E+03 -0.92323716521E+02  0.74988579298E+03  0.25500000920E-02 0.  1.
</event>
<event>
 5   0  0.6668433E-05  0.1499994E+04  0.7818609E-02  0.8884457E-01
        1   -1    0    0  501    0  0.00000000000E+00  0.00000000000E+00  0.77404793155E+03  0.77404793157E+03  0.50400001928E-02 0. -1.
       -1   -1    0    0    0  501  0.00000000000E+00  0.00000000000E+00 -0.72669317197E+03  0.72669317198E+03  0.50400001928E-02 0.  1.
    10030    2    1    2    0    0  0.00000000000E+00  0.00000000000E+00  0.47354759583E+02  0.15007411036E+04  0.14999937955E+04 0.  0.
        1    1    3    3  502    0 -0.80442907396E+02  0.47592489711E+03 -0.55064674279E+03  0.73224818498E+03  0.50400001928E-02 0.  1.
       -1    1    3    3    0  502  0.80442907396E+02 -0.47592489711E+03  0.59800150237E+03  0.76849291857E+03  0.50400001928E-02 0. -1.
</event>
<event>
 5   0  0.1254487E-04  0.1498437E+04  0.7818609E-02  0.8885493E-01
       -2   -1    0    0    0  501  0.00000000000E+00  0.00000000000E+00  0.87458628428E+03  0.87458628428E+03  0.25500000920E-02 0. -1.
        2   -1    0    0  501    0  0.00000000000E+00  0.00000000000E+00 -0.64182177723E+03  0.64182177723E+03  0.25500000920E-02 0.  1.
    10030    2    1    2    0    0  0.00000000000E+00  0.00000000000E+00  0.23276450705E+03  0.15164080615E+04  0.14984372170E+04 0.  0.
        5    1    3    3  502    0  0.38321956298E+03  0.56440044710E+03  0.42977566374E+03  0.80630906560E+03  0.46999998093E+01 0. -1.
       -5    1    3    3    0  502 -0.38321956298E+03 -0.56440044710E+03 -0.19701115669E+03  0.71009899591E+03  0.46999998093E+01 0.  1.
</event>
<event>
 5   0  0.1254487E-04  0.1500917E+04  0.7818609E-02  0.8883843E-01
        2   -1    0    0  501    0  0.00000000000E+00  0.00000000000E+00  0.20278526822E+04  0.20278526822E+04  0.25500000920E-02 0. -1.
       -2   -1    0    0    0  501  0.00000000000E+00  0.00000000000E+00 -0.27772641577E+03  0.27772641578E+03  0.25500000920E-02 0.  1.
    10030    2    1    2    0    0  0.00000000000E+00  0.00000000000E+00  0.17501262664E+04  0.23055790979E+04  0.15009173956E+04 0.  0.
        5    1    3    3  502    0  0.83795286325E+01 -0.19085877130E+03  0.19898505651E+04  0.19990059151E+04  0.46999998093E+01 0. -1.
       -5    1    3    3    0  502 -0.83795286325E+01  0.19085877130E+03 -0.23972429869E+03  0.30657318288E+03  0.46999998093E+01 0.  1.
</event>
<event>
 5   0  0.1216921E-04  0.1498218E+04  0.7818609E-02  0.8885639E-01
        2   -1    0    0  501    0  0.00000000000E+00  0.00000000000E+00  0.59551135883E+03  0.59551135884E+03  0.25500000920E-02 0. -1.
       -2   -1    0    0    0  501  0.00000000000E+00  0.00000000000E+00 -0.94232301945E+03  0.94232301945E+03  0.25500000920E-02 0.  1.
    10030    2    1    2    0    0  0.00000000000E+00  0.00000000000E+00 -0.34681166062E+03  0.15378343783E+04  0.14982176902E+04 0.  0.
        4    1    3    3  502    0 -0.63810266973E+03  0.10684382252E+03 -0.56097703752E+03  0.85632205919E+03  0.12699999809E+01 0.  1.
       -4    1    3    3    0  502  0.63810266973E+03 -0.10684382252E+03  0.21416537690E+03  0.68151231910E+03  0.12699999809E+01 0. -1.
</event>
<event>
 5   0  0.6364378E-05  0.1502756E+04  0.7818609E-02  0.8882622E-01
       -1   -1    0    0    0  501  0.00000000000E+00  0.00000000000E+00  0.27855911252E+03  0.27855911257E+03  0.50400001928E-02 0.  1.
        1   -1    0    0  501    0  0.00000000000E+00  0.00000000000E+00 -0.20267464168E+04  0.20267464168E+04  0.50400001928E-02 0. -1.
    10030    2    1    2    0    0  0.00000000000E+00  0.00000000000E+00 -0.17481873043E+04  0.23053055294E+04  0.15027557130E+04 0.  0.
        5    1    3    3  502    0 -0.41869404465E+02  0.19871874155E+03 -0.19838235857E+04  0.19941966539E+04  0.46999998093E+01 0. -1.
       -5    1    3    3    0  502  0.41869404465E+02 -0.19871874155E+03  0.23563628142E+03  0.31110887547E+03  0.46999998093E+01 0.  1.
</event>
<event>
 5   0  0.1228286E-04  0.1501001E+04  0.7818609E-02  0.8883788E-01
       -2   -1    0    0    0  501  0.00000000000E+00  0.00000000000E+00  0.11897608062E+04  0.11897608062E+04  0.25500000920E-02 0. -1.
        2   -1    0    0  501    0  0.00000000000E+00  0.00000000000E+00 -0.47341523746E+03  0.47341523747E+03  0.25500000920E-02 0.  1.
    10030    2    1    2    0    0  0.00000000000E+00  0.00000000000E+00  0.71634556873E+03  0.16631760437E+04  0.15010008589E+04 0.  0.
        2    1    3    3  502    0  0.15539725343E+03  0.44249550071E+03 -0.29105094373E+03  0.55196125442E+03  0.25500000920E-02 0.  1.
       -2    1    3    3    0  502 -0.15539725343E+03 -0.44249550071E+03  0.10073965125E+04  0.11112147892E+04  0.25500000920E-02 0. -1.
</event>
<event>
 5   0  0.6509279E-05  0.1530641E+04  0.7818609E-02  0.8864329E-01
       -1   -1    0    0    0  501  0.00000000000E+00  0.00000000000E+00  0.10686124795E+04  0.10686124795E+04  0.50400001928E-02 0. -1.
        1   -1    0    0  501    0  0.00000000000E+00  0.00000000000E+00 -0.54810818854E+03  0.54810818856E+03  0.50400001928E-02 0.  1.
    10030    2    1    2    0    0  0.00000000000E+00  0.00000000000E+00  0.52050429093E+03  0.16167206680E+04  0.15306407160E+04 0.  0.
        2    1    3    3  502    0 -0.10265934177E+03 -0.47833964794E+03 -0.36137545727E+03  0.60822691519E+03  0.25500000920E-02 0.  1.
       -2    1    3    3    0  502  0.10265934177E+03  0.47833964794E+03  0.88187974820E+03  0.10084937528E+04  0.25500000920E-02 0. -1.
</event>
<event>
 5   0  0.1228286E-04  0.1492198E+04  0.7818609E-02  0.8889658E-01
       -2   -1    0    0    0  501  0.00000000000E+00  0.00000000000E+00  0.22457941041E+03  0.22457941042E+03  0.25500000920E-02 0.  1.
        2   -1    0    0  501    0  0.00000000000E+00  0.00000000000E+00 -0.24786944414E+04  0.24786944414E+04  0.25500000920E-02 0. -1.
    10030    2    1    2    0    0  0.00000000000E+00  0.00000000000E+00 -0.22541150310E+04  0.27032738519E+04  0.14921980248E+04 0.  0.
        2    1    3    3  502    0 -0.54546149705E+03 -0.12557013409E+03 -0.20207641703E+04  0.20968509569E+04  0.25500000920E-02 0. -1.
       -2    1    3    3    0  502  0.54546149705E+03  0.12557013409E+03 -0.23335086069E+03  0.60642289496E+03  0.25500000920E-02 0.  1.
</event>
<event>
 5   0  0.6364378E-05  0.1502671E+04  0.7818609E-02  0.8882679E-01
        1   -1    0    0  501    0  0.00000000000E+00  0.00000000000E+00  0.58410623782E+03  0.58410623785E+03  0.50400001928E-02 0. -1.
       -1   -1    0    0    0  501  0.00000000000E+00  0.00000000000E+00 -0.96644196633E+03  0.96644196634E+03  0.50400001928E-02 0.  1.
    10030    2    1    2    0    0  0.00000000000E+00  0.00000000000E+00 -0.38233572851E+03  0.15505482042E+04  0.15026706639E+04 0.  0.
        5    1    3    3  502    0 -0.41475989800E+03 -0.43589655645E+03  0.27311381408E+03  0.66079106104E+03  0.46999998093E+01 0. -1.
       -5    1    3    3    0  502  0.41475989800E+03  0.43589655645E+03 -0.65544954259E+03  0.88975714315E+03  0.46999998093E+01 0.  1.
</event>
<event>
 5   0  0.1216921E-04  0.1507767E+04  0.7818609E-02  0.8879304E-01
        2   -1    0    0  501    0  0.00000000000E+00  0.00000000000E+00  0.65699587420E+03  0.65699587420E+03  0.25500000920E-02 0. -1.
       -2   -1    0    0    0  501  0.00000000000E+00  0.00000000000E+00 -0.86505910394E+03  0.86505910394E+03  0.25500000920E-02 0.  1.
    10030    2    1    2    0    0  0.00000000000E+00  0.00000000000E+00 -0.20806322974E+03  0.15220549781E+04  0.15077669080E+04 0.  0.
        4    1    3    3  502    0 -0.24742107292E+03  0.28999965157E+03  0.55253294590E+03  0.67127584080E+03  0.12699999809E+01 0. -1.
       -4    1    3    3    0  502  0.24742107292E+03 -0.28999965157E+03 -0.76059617564E+03  0.85077913734E+03  0.12699999809E+01 0.  1.
</event>
<event>
 5   0  0.6668433E-05  0.1500546E+04  0.7818609E-02  0.8884090E-01
       -1   -1    0    0    0  501  0.00000000000E+00  0.00000000000E+00  0.38701864768E+03  0.38701864771E+03  0.50400001928E-02 0.  1.
        1   -1    0    0  501    0  0.00000000000E+00  0.00000000000E+00 -0.14544765141E+04  0.14544765141E+04  0.50400001928E-02 0. -1.
    10030    2    1    2    0    0  0.00000000000E+00  0.00000000000E+00 -0.10674578664E+04  0.18414951618E+04  0.15005459455E+04 0.  0.
        1    1    3    3  502    0  0.21570422707E+03 -0.48009975903E+03 -0.11899003439E+04  0.13011098803E+04  0.50400001928E-02 0. -1.
       -1    1    3    3    0  502 -0.21570422707E+03  0.48009975903E+03  0.12244247746E+03  0.54038528154E+03  0.50400001928E-02 0.  1.
</event>
<event>
 5   0  0.6364378E-05  0.1501812E+04  0.7818609E-02  0.8883249E-01
       -1   -1    0    0    0  501  0.00000000000E+00  0.00000000000E+00  0.26054432993E+03  0.26054432998E+03  0.50400001928E-02 0. -1.
        1   -1    0    0  501    0  0.00000000000E+00  0.00000000000E+00 -0.21641603569E+04  0.21641603569E+04  0.50400001928E-02 0.  1.
    10030    2    1    2    0    0  0.00000000000E+00  0.00000000000E+00 -0.19036160270E+04  0.24247046869E+04  0.15018118526E+04 0.  0.
        5    1    3    3  502    0 -0.26011475652E+02  0.51797649090E+03 -0.18285105638E+04  0.19006444207E+04  0.46999998093E+01 0.  1.
       -5    1    3    3    0  502  0.26011475652E+02 -0.51797649090E+03 -0.75105463151E+02  0.52406026618E+03  0.46999998093E+01 0. -1.
</event>
<event>
 5   0  0.6668433E-05  0.1499066E+04  0.7818609E-02  0.8885074E-01
       -1   -1    0    0    0  501  0.00000000000E+00  0.00000000000E+00  0.10884677601E+04  0.10884677601E+04  0.50400001928E-02 0.  1.
        1   -1    0    0  501    0  0.00000000000E+00  0.00000000000E+00 -0.51613802804E+03  0.51613802806E+03  0.50400001928E-02 0. -1.
    10030    2    1    2    0    0  0.00000000000E+00  0.00000000000E+00  0.57232973204E+03  0.16046057882E+04  0.14990658469E+04 0.  0.
        1    1    3    3  502    0 -0.47151412080E+03 -0.12734268911E+03 -0.32242147746E+03  0.58523271930E+03  0.50400001928E-02 0. -1.
       -1    1    3    3    0  502  0.47151412080E+03  0.12734268911E+03  0.89475120950E+03  0.10193730689E+04  0.50400001928E-02 0.  1.
</event>
<event>
 5   0  0.1228286E-04  0.1499549E+04  0.7818609E-02  0.8884753E-01
        2   -1    0    0  501    0  0.00000000000E+00  0.00000000000E+00  0.90878076697E+03  0.90878076698E+03  0.25500000920E-02 0. -1.
       -2   -1    0    0    0  501  0.00000000000E+00  0.00000000000E+00 -0.61858860495E+03  0.61858860495E+03  0.25500000920E-02 0.  1.
    10030    2    1    2    0    0  0.00000000000E+00  0.00000000000E+00  0.29019216202E+03  0.15273693719E+04  0.14995485012E+04 0.  0.
        2    1    3    3  502    0 -0.23862407236E+03 -0.64538009431E+03 -0.15826259339E+03  0.70604813045E+03  0.25500000920E-02 0.  1.
       -2    1    3    3    0  502  0.23862407236E+03  0.64538009431E+03  0.44845475541E+03  0.82132124148E+03  0.25500000920E-02 0. -1.
</event>
<event>
 5   0  0.1186664E-04  0.1498644E+04  0.7818609E-02  0.8885355E-01
       -2   -1    0    0    0  501  0.00000000000E+00  0.00000000000E+00  0.67918571061E+03  0.67918571062E+03  0.25500000920E-02 0.  1.
        2   -1    0    0  501    0  0.00000000000E+00  0.00000000000E+00 -0.82670102831E+03  0.82670102831E+03  0.25500000920E-02 0. -1.
    10030    2    1    2    0    0  0.00000000000E+00  0.00000000000E+00 -0.14751531770E+03  0.15058867389E+04  0.14986440877E+04 0.  0.
        3    1    3    3  502    0 -0.70391247617E+03  0.23477293520E+03 -0.17853242839E+03  0.76320701215E+03  0.10100000352E+00 0.  1.
       -3    1    3    3    0  502  0.70391247617E+03 -0.23477293520E+03  0.31017110693E+02  0.74267972678E+03  0.10100000352E+00 0. -1.
</event>
<event>
 5   0  0.6364378E-05  0.1500871E+04  0.7818609E-02  0.8883874E-01
       -1   -1    0    0    0  501  0.00000000000E+00  0.00000000000E+00  0.43171452078E+03  0.43171452081E+03  0.50400001928E-02 0.  1.
        1   -1    0    0  501    0  0.00000000000E+00  0.00000000000E+00 -0.13044579328E+04  0.13044579328E+04  0.50400001928E-02 0. -1.
    10030    2    1    2    0    0  0.00000000000E+00  0.00000000000E+00 -0.87274341200E+03  0.17361724536E+04  0.15008709889E+04 0.  0.
        5    1    3    3  502    0  0.56694448211E+03 -0.36492795224E+03 -0.55279407160E+02  0.67651781867E+03  0.46999998093E+01 0. -1.
       -5    1    3    3    0  502 -0.56694448211E+03  0.36492795224E+03 -0.81746400484E+03  0.10596546349E+04  0.46999998093E+01 0.  1.
</event>
<event>
 5   0  0.4462875E-05  0.1507372E+04  0.7818609E-02  0.8879565E-01
       -4   -1    0    0    0  501  0.00000000000E+00  0.00000000000E+00  0.13712049066E+04  0.13712054947E+04  0.12699999809E+01 0. -1.
        4   -1    0    0  501    0  0.00000000000E+00  0.00000000000E+00 -0.41426373069E+03  0.41426567739E+03  0.12699999809E+01 0.  1.
    10030    2    1    2    0    0  0.00000000000E+00  0.00000000000E+00  0.95694117587E+03  0.17854711721E+04  0.15073721811E+04 0.  0.
        2    1    3    3  502    0  0.91901145137E+02  0.72058245989E+03  0.71642633701E+03  0.10202703555E+04  0.25500000920E-02 0.  1.
       -2    1    3    3    0  502 -0.91901145137E+02 -0.72058245989E+03  0.24051483887E+03  0.76520081658E+03  0.25500000920E-02 0. -1.
</event>
<event>
 5   0  0.1254487E-04  0.1499887E+04  0.7818609E-02  0.8884528E-01
        2   -1    0    0  501    0  0.00000000000E+00  0.00000000000E+00  0.38759989557E+03  0.38759989558E+03  0.25500000920E-02 0. -1.
       -2   -1    0    0    0  501  0.00000000000E+00  0.00000000000E+00 -0.14510206287E+04  0.14510206287E+04  0.25500000920E-02 0.  1.
    10030    2    1    2    0    0  0.00000000000E+00  0.00000000000E+00 -0.10634207331E+04  0.18386205243E+04  0.14998872546E+04 0.  0.
        5    1    3    3  502    0 -0.66974473303E+03  0.86548523636E+02 -0.93146307406E+03  0.11505191014E+04  0.46999998093E+01 0.  1.
       -5    1    3    3    0  502  0.66974473303E+03 -0.86548523636E+02 -0.13195765907E+03  0.68810142287E+03  0.46999998093E+01 0. -1.
</event>
<event>
 5   0  0.1254487E-04  0.1496737E+04  0.7818609E-02  0.8886625E-01
        2   -1    0    0  501    0  0.00000000000E+00  0.00000000000E+00  0.61398089444E+03  0.61398089445E+03  0.25500000920E-02 0. -1.
       -2   -1    0    0    0  501  0.00000000000E+00  0.00000000000E+00 -0.91217115116E+03  0.91217115116E+03  0.25500000920E-02 0.  1.
    10030    2    1    2    0    0  0.00000000000E+00  0.00000000000E+00 -0.29819025672E+03  0.15261520456E+04  0.14967373307E+04 0.  0.
        5    1    3    3  502    0  0.20709487748E+03  0.14988264000E+03 -0.86625271504E+03  0.90319928608E+03  0.46999998093E+01 0.  1.
       -5    1    3    3    0  502 -0.20709487748E+03 -0.14988264000E+03  0.56806245833E+03  0.62295275953E+03  0.46999998093E+01 0. -1.
</event>
<event>
 5   0  0.6668433E-05  0.1506290E+04  0.7818609E-02  0.8880281E-01
       -1   -1    0    0    0  501  0.00000000000E+00  0.00000000000E+00  0.79802894658E+03  0.79802894660E+03  0.50400001928E-02 0.  1.
        1   -1    0    0  501    0  0.00000000000E+00  0.00000000000E+00 -0.71078584819E+03  0.71078584820E+03  0.50400001928E-02 0. -1.
    10030    2    1    2    0    0  0.00000000000E+00  0.00000000000E+00  0.87243098396E+02  0.15088147948E+04  0.15062903859E+04 0.  0.
        1    1    3    3  502    0  0.48321638791E+03  0.57647261447E+03  0.81220157229E+02  0.75658143431E+03  0.50400001928E-02 0.  1.
       -1    1    3    3    0  502 -0.48321638791E+03 -0.57647261447E+03  0.60229411667E+01  0.75223336049E+03  0.50400001928E-02 0. -1.
</event>
<event>
 5   0  0.1216921E-04  0.1500149E+04  0.7818609E-02  0.8884354E-01
       -2   -1    0    0    0  501  0.00000000000E+00  0.00000000000E+00  0.33654247607E+03  0.33654247608E+03  0.25500000920E-02 0.  1.
        2   -1    0    0  501    0  0.00000000000E+00  0.00000000000E+00 -0.16717406394E+04  0.16717406394E+04  0.25500000920E-02 0. -1.
    10030    2    1    2    0    0  0.00000000000E+00  0.00000000000E+00 -0.13351981633E+04  0.20082831154E+04  0.15001489714E+04 0.  0.
        4    1    3    3  502    0 -0.13757119990E+03 -0.73629240392E+03 -0.72043678178E+03  0.10392704694E+04  0.12699999809E+01 0. -1.
       -4    1    3    3    0  502  0.13757119990E+03  0.73629240392E+03 -0.61476138150E+03  0.96901264604E+03  0.12699999809E+01 0.  1.
</event>
<event>
 5   0  0.6668433E-05  0.1499709E+04  0.7818609E-02  0.8884646E-01
        1   -1    0    0  501    0  0.00000000000E+00  0.00000000000E+00  0.68100254592E+03  0.68100254594E+03  0.50400001928E-02 0.  1.
       -1   -1    0    0    0  501  0.00000000000E+00  0.00000000000E+00 -0.82566810564E+03  0.82566810566E+03  0.50400001928E-02 0. -1.
    10030    2    1    2    0    0  0.00000000000E+00  0.00000000000E+00 -0.14466555972E+03  0.15066706516E+04  0.14997094146E+04 0.  0.
        1    1    3    3  502    0 -0.65003207639E+03  0.22307771939E+03 -0.37368630237E+03  0.78227029972E+03  0.50400001928E-02 0. -1.
       -1    1    3    3    0  502  0.65003207639E+03 -0.22307771939E+03  0.22902074264E+03  0.72440035188E+03  0.50400001928E-02 0.  1.
</event>
<event>
 5   0  0.6361716E-05  0.1503070E+04  0.7818609E-02  0.8882414E-01
       -1   -1    0    0    0  501  0.00000000000E+00  0.00000000000E+00  0.10756698257E+04  0.10756698257E+04  0.50400001928E-02 0.  1.
        1   -1    0    0  501    0  0.00000000000E+00  0.00000000000E+00 -0.52507249865E+03  0.52507249868E+03  0.50400001928E-02 0. -1.
    10030    2    1    2    0    0  0.00000000000E+00  0.00000000000E+00  0.55059732708E+03  0.16007423244E+04  0.15030697165E+04 0.  0.
        3    1    3    3  502    0 -0.47054191917E+03 -0.42557801806E+02  0.89772923607E+03  0.10144647139E+04  0.10100000352E+00 0.  1.
       -3    1    3    3    0  502  0.47054191917E+03  0.42557801806E+02 -0.34713190899E+03  0.58627761055E+03  0.10100000352E+00 0. -1.
</event>
<event>
 5   0  0.6509279E-05  0.1475216E+04  0.7818609E-02  0.8901103E-01
        1   -1    0    0  501    0  0.00000000000E+00  0.00000000000E+00  0.11788043974E+04  0.11788043974E+04  0.50400001928E-02 0.  1.
       -1   -1    0    0    0  501  0.00000000000E+00  0.00000000000E+00 -0.46154007998E+03  0.46154008001E+03  0.50400001928E-02 0. -1.
    10030    2    1    2    0    0  0.00000000000E+00  0.00000000000E+00  0.71726431739E+03  0.16403444774E+04  0.14752158837E+04 0.  0.
        2    1    3    3  502    0  0.56209645618E+03 -0.47006989087E+03  0.45263737010E+03  0.86127737528E+03  0.25500000920E-02 0.  1.
       -2    1    3    3    0  502 -0.56209645618E+03  0.47006989087E+03  0.26462694729E+03  0.77906710211E+03  0.25500000920E-02 0. -1.
</event>
<event>
 5   0  0.1216921E-04  0.1499100E+04  0.7818609E-02  0.8885052E-01
       -2   -1    0    0    0  501  0.00000000000E+00  0.00000000000E+00  0.47943342959E+03  0.47943342960E+03  0.25500000920E-02 0.  1.
        2   -1    0    0  501    0  0.00000000000E+00  0.00000000000E+00 -0.11718521215E+04  0.11718521215E+04  0.25500000920E-02 0. -1.
    10030    2    1    2    0    0  0.00000000000E+00  0.00000000000E+00 -0.69241869186E+03  0.16512855511E+04  0.14990998387E+04 0.  0.
        4    1    3    3  502    0 -0.55442091952E+03  0.30741624913E+03 -0.78672866472E+03  0.10103617723E+04  0.12699999809E+01 0. -1.
       -4    1    3    3    0  502  0.55442091952E+03 -0.30741624913E+03  0.94309972859E+02  0.64092377870E+03  0.12699999809E+01 0.  1.
</event>
<event>
 5   0  0.6542036E-05  0.1499760E+04  0.7818609E-02  0.8884612E-01
        1   -1    0    0  501    0  0.00000000000E+00  0.00000000000E+00  0.16881275757E+04  0.16881275757E+04  0.50400001928E-02 0. -1.
       -1   -1    0    0    0  501  0.00000000000E+00  0.00000000000E+00 -0.33310300682E+03  0.33310300686E+03  0.50400001928E-02 0.  1.
    10030    2    1    2    0    0  0.00000000000E+00  0.00000000000E+00  0.13550245689E+04  0.20212305826E+04  0.14997604761E+04 0.  0.
        4    1    3    3  502    0 -0.67242378173E+03  0.11161602575E+02  0.11245767025E+04  0.13103254162E+04  0.12699999809E+01 0.  1.
       -4    1    3    3    0  502  0.67242378173E+03 -0.11161602575E+02  0.23044786642E+03  0.71090516642E+03  0.12699999809E+01 0. -1.
</event>
<event>
 5   0  0.6361716E-05  0.1491218E+04  0.7818609E-02  0.8890314E-01
        1   -1    0    0  501    0  0.00000000000E+00  0.00000000000E+00  0.14228733536E+04  0.14228733536E+04  0.50400001928E-02 0. -1.
       -1   -1    0    0    0  501  0.00000000000E+00  0.00000000000E+00 -0.39071131680E+03  0.39071131683E+03  0.50400001928E-02 0.  1.
    10030    2    1    2    0    0  0.00000000000E+00  0.00000000000E+00  0.10321620368E+04  0.18135846704E+04  0.14912179206E+04 0.  0.
        3    1    3    3  502    0 -0.63626556244E+03  0.49363878865E+02  0.47163146832E+02  0.63991798780E+03  0.10100000352E+00 0.  1.
       -3    1    3    3    0  502  0.63626556244E+03 -0.49363878865E+02  0.98499888996E+03  0.11736666826E+04  0.10100000352E+00 0. -1.
</event>
<event>
 5   0  0.1219810E-04  0.1510383E+04  0.7818609E-02  0.8877577E-01
        2   -1    0    0  501    0  0.00000000000E+00  0.00000000000E+00  0.12305508342E+04  0.12305508342E+04  0.25500000920E-02 0.  1.
       -2   -1    0    0    0  501  0.00000000000E+00  0.00000000000E+00 -0.46346280215E+03  0.46346280216E+03  0.25500000920E-02 0. -1.
    10030    2    1    2    0    0  0.00000000000E+00  0.00000000000E+00  0.76708803201E+03  0.16940136363E+04  0.15103834451E+04 0.  0.
        1    1    3    3  502    0 -0.19743034018E+03  0.53532044481E+03 -0.17134591603E+03  0.59573999431E+03  0.50400001928E-02 0. -1.
       -1    1    3    3    0  502  0.19743034018E+03 -0.53532044481E+03  0.93843394804E+03  0.10982736420E+04  0.50400001928E-02 0.  1.
</event>
<event>
 5   0  0.1254487E-04  0.1500454E+04  0.7818609E-02  0.8884151E-01
       -2   -1    0    0    0  501  0.00000000000E+00  0.00000000000E+00  0.62276556164E+03  0.62276556165E+03  0.25500000920E-02 0. -1.
        2   -1    0    0  501    0  0.00000000000E+00  0.00000000000E+00 -0.90377556858E+03  0.90377556858E+03  0.25500000920E-02 0.  1.
    10030    2    1    2    0    0  0.00000000000E+00  0.00000000000E+00 -0.28101000693E+03  0.15265411302E+04  0.15004536642E+04 0.  0.
        5    1    3    3  502    0 -0.40616014249E+03  0.94814657830E+02  0.49392521139E+03  0.64648285757E+03  0.46999998093E+01 0. -1.
       -5    1    3    3    0  502  0.40616014249E+03 -0.94814657830E+02 -0.77493521832E+03  0.88005827266E+03  0.46999998093E+01 0.  1.
</event>
<event>
 5   0  0.6542036E-05  0.1498266E+04  0.7818609E-02  0.8885607E-01
        1   -1    0    0  501    0  0.00000000000E+00  0.00000000000E+00  0.82593869403E+03  0.82593869404E+03  0.50400001928E-02 0. -1.
       -1   -1    0    0    0  501  0.00000000000E+00  0.00000000000E+00 -0.67946995531E+03  0.67946995532E+03  0.50400001928E-02 0.  1.
    10030    2    1    2    0    0  0.00000000000E+00  0.00000000000E+00  0.14646873872E+03  0.15054086494E+04  0.14982663682E+04 0.  0.
        4    1    3    3  502    0  0.56859331605E+03 -0.40809107194E+03  0.34164492450E+03  0.77881933039E+03  0.12699999809E+01 0. -1.
       -4    1    3    3    0  502 -0.56859331605E+03  0.40809107194E+03 -0.19517618578E+03  0.72658931898E+03  0.12699999809E+01 0.  1.
</event>
<event>
 5   0  0.1216921E-04  0.1501434E+04  0.7818609E-02  0.8883500E-01
       -2   -1    0    0    0  501  0.00000000000E+00  0.00000000000E+00  0.68595194500E+03  0.68595194500E+03  0.25500000920E-02 0. -1.
        2   -1    0    0  501    0  0.00000000000E+00  0.00000000000E+00 -0.82159640356E+03  0.82159640357E+03  0.25500000920E-02 0.  1.
    10030    2    1    2    0    0  0.00000000000E+00  0.00000000000E+00 -0.13564445856E+03  0.15075483486E+04  0.15014335164E+04 0.  0.
        4    1    3    3  502    0  0.47545410841E+03  0.56845068663E+03  0.52588003917E+02  0.74294004024E+03  0.12699999809E+01 0. -1.
       -4    1    3    3    0  502 -0.47545410841E+03 -0.56845068663E+03 -0.18823246248E+03  0.76460830833E+03  0.12699999809E+01 0.  1.
</event>
<event>
 5   0  0.1228286E-04  0.1500333E+04  0.7818609E-02  0.8884232E-01
        2   -1    0    0  501    0  0.00000000000E+00  0.00000000000E+00  0.11795577775E+04  0.11795577775E+04  0.25500000920E-02 0. -1.
       -2   -1    0    0    0  501  0.00000000000E+00  0.00000000000E+00 -0.47708511577E+03  0.47708511578E+03  0.25500000920E-02 0.  1.
    10030    2    1    2    0    0  0.00000000000E+00  0.00000000000E+00  0.70247266170E+03  0.16566428932E+04  0.15003325749E+04 0.  0.
        2    1    3    3  502    0 -0.50043799456E+02  0.51504543197E+03 -0.24846180906E+03  0.57402913639E+03  0.25500000920E-02 0.  1.
       -2    1    3    3    0  502  0.50043799456E+02 -0.51504543197E+03  0.95093447076E+03  0.10826137569E+04  0.25500000920E-02 0. -1.
</event>
<event>
 5   0  0.6668433E-05  0.1496649E+04  0.7818609E-02  0.8886684E-01
       -1   -1    0    0    0  501  0.00000000000E+00  0.00000000000E+00  0.55192925927E+03  0.55192925930E+03  0.50400001928E-02 0.  1.
        1   -1    0    0  501    0  0.00000000000E+00  0.00000000000E+00 -0.10146039128E+04  0.10146039128E+04  0.50400001928E-02 0. -1.
    10030    2    1    2    0    0  0.00000000000E+00  0.00000000000E+00 -0.46267465352E+03  0.15665331721E+04  0.14966490384E+04 0.  0.
        1    1    3    3  502    0 -0.14100792883E+03 -0.27557990377E+03 -0.94444391251E+03  0.99388219787E+03  0.50400001928E-02 0. -1.
       -1    1    3    3    0  502  0.14100792883E+03  0.27557990377E+03  0.48176925899E+03  0.57265097423E+03  0.50400001928E-02 0.  1.
</event>
<event>
 5   0  0.1228286E-04  0.1499872E+04  0.7818609E-02  0.8884538E-01
        2   -1    0    0  501    0  0.00000000000E+00  0.00000000000E+00  0.16304165544E+04  0.16304165544E+04  0.25500000920E-02 0.  1.
       -2   -1    0    0    0  501  0.00000000000E+00  0.00000000000E+00 -0.34494484919E+03  0.34494484920E+03  0.25500000920E-02 0. -1.
    10030    2    1    2    0    0  0.00000000000E+00  0.00000000000E+00  0.12854717052E+04  0.19753614036E+04  0.14998717178E+04 0.  0.
        2    1    3    3  502    0  0.31691155348E+03  0.14273226452E+03 -0.23246186020E+03  0.41814345447E+03  0.25500000920E-02 0. -1.
       -2    1    3    3    0  502 -0.31691155348E+03 -0.14273226452E+03  0.15179335654E+04  0.15572179491E+04  0.25500000920E-02 0.  1.
</event>
<event>
 5   0  0.6509279E-05  0.1501736E+04  0.7818609E-02  0.8883299E-01
        1   -1    0    0  501    0  0.00000000000E+00  0.00000000000E+00  0.10368832552E+04  0.10368832552E+04  0.50400001928E-02 0.  1.
       -1   -1    0    0    0  501  0.00000000000E+00  0.00000000000E+00 -0.54374749577E+03  0.54374749580E+03  0.50400001928E-02 0. -1.
    10030    2    1    2    0    0  0.00000000000E+00  0.00000000000E+00  0.49313575945E+03  0.15806307510E+04  0.15017358935E+04 0.  0.
        2    1    3    3  502    0  0.43923971766E+03  0.11151655508E+02  0.88744617313E+03  0.99026087431E+03  0.25500000920E-02 0.  1.
       -2    1    3    3    0  502 -0.43923971766E+03 -0.11151655508E+02 -0.39431041368E+03  0.59036987672E+03  0.25500000920E-02 0. -1.
</event>
<event>
 5   0  0.6668433E-05  0.1504324E+04  0.7818609E-02  0.8881583E-01
        1   -1    0    0  501    0  0.00000000000E+00  0.00000000000E+00  0.73469125617E+03  0.73469125618E+03  0.50400001928E-02 0.  1.
       -1   -1    0    0    0  501  0.00000000000E+00  0.00000000000E+00 -0.77004779240E+03  0.77004779242E+03  0.50400001928E-02 0. -1.
    10030    2    1    2    0    0  0.00000000000E+00  0.00000000000E+00 -0.35356536236E+02  0.15047390486E+04  0.15043236087E+04 0.  0.
        1    1    3    3  502    0 -0.62663599094E+03  0.55011732106E+02  0.39480489462E+03  0.74267749438E+03  0.50400001928E-02 0.  1.
       -1    1    3    3    0  502  0.62663599094E+03 -0.55011732106E+02 -0.43016143086E+03  0.76206155423E+03  0.50400001928E-02 0. -1.
</event>
<event>
 5   0  0.1219810E-04  0.1499283E+04  0.7818609E-02  0.8884930E-01
        2   -1    0    0  501    0  0.00000000000E+00  0.00000000000E+00  0.98881029119E+03  0.98881029120E+03  0.25500000920E-02 0.  1.
       -2   -1    0    0    0  501  0.00000000000E+00  0.00000000000E+00 -0.56832158818E+03  0.56832158819E+03  0.25500000920E-02 0. -1.
    10030    2    1    2    0    0  0.00000000000E+00  0.00000000000E+00  0.42048870301E+03  0.15571318794E+04  0.14992828087E+04 0.  0.
        1    1    3    3  502    0 -0.61164294779E+03  0.33668695952E+03 -0.73228398384E+02  0.70201681080E+03  0.50400001928E-02 0.  1.
       -1    1    3    3    0  502  0.61164294779E+03 -0.33668695952E+03  0.49371710140E+03  0.85511506859E+03  0.50400001928E-02 0. -1.
</event>
<event>
 5   0  0.1228286E-04  0.1499823E+04  0.7818609E-02  0.8884570E-01
        2   -1    0    0  501    0  0.00000000000E+00  0.00000000000E+00  0.12257922082E+04  0.12257922082E+04  0.25500000920E-02 0. -1.
       -2   -1    0    0    0  501  0.00000000000E+00  0.00000000000E+00 -0.45877891442E+03  0.45877891443E+03  0.25500000920E-02 0.  1.
    10030    2    1    2    0    0  0.00000000000E+00  0.00000000000E+00  0.76701329375E+03  0.16845711226E+04  0.14998234811E+04 0.  0.
        2    1    3    3  502    0 -0.78533355624E+02 -0.74462082975E+03  0.33665577757E+03  0.82095358007E+03  0.25500000920E-02 0.  1.
       -2    1    3    3    0  502  0.78533355624E+02  0.74462082975E+03  0.43035751618E+03  0.86361754254E+03  0.25500000920E-02 0. -1.
</event>
<event>
 5   0  0.6668433E-05  0.1501185E+04  0.7818609E-02  0.8883665E-01
       -1   -1    0    0    0  501  0.00000000000E+00  0.00000000000E+00  0.68474242039E+03  0.68474242041E+03  0.50400001928E-02 0. -1.
        1   -1    0    0  501    0  0.00000000000E+00  0.00000000000E+00 -0.82277503508E+03  0.82277503509E+03  0.50400001928E-02 0.  1.
    10030    2    1    2    0    0  0.00000000000E+00  0.00000000000E+00 -0.13803261469E+03  0.15075174555E+04  0.15011848240E+04 0.  0.
        1    1    3    3  502    0  0.16664507344E+02 -0.16328595714E+03 -0.80453275309E+03  0.82110471952E+03  0.50400001928E-02 0.  1.
       -1    1    3    3    0  502 -0.16664507344E+02  0.16328595714E+03  0.66650013840E+03  0.68641273598E+03  0.50400001928E-02 0. -1.
</event>
<event>
 5   0  0.6509279E-05  0.1496203E+04  0.7818609E-02  0.8886982E-01
        1   -1    0    0  501    0  0.00000000000E+00  0.00000000000E+00  0.22075097499E+04  0.22075097499E+04  0.50400001928E-02 0.  1.
       -1   -1    0    0    0  501  0.00000000000E+00  0.00000000000E+00 -0.25352366463E+03  0.25352366468E+03  0.50400001928E-02 0. -1.
    10030    2    1    2    0    0  0.00000000000E+00  0.00000000000E+00  0.19539860852E+04  0.24610334145E+04  0.14962031434E+04 0.  0.
        2    1    3    3  502    0 -0.10226864162E+03 -0.66379360497E+03  0.15189841232E+04  0.16608412301E+04  0.25500000920E-02 0.  1.
       -2    1    3    3    0  502  0.10226864162E+03  0.66379360497E+03  0.43500196201E+03  0.80019218442E+03  0.25500000920E-02 0. -1.
</event>
<event>
 5   0  0.1219810E-04  0.1491521E+04  0.7818609E-02  0.8890111E-01
        2   -1    0    0  501    0  0.00000000000E+00  0.00000000000E+00  0.19700895216E+04  0.19700895216E+04  0.25500000920E-02 0. -1.
       -2   -1    0    0    0  501  0.00000000000E+00  0.00000000000E+00 -0.28230138398E+03  0.28230138399E+03  0.25500000920E-02 0.  1.
    10030    2    1    2    0    0  0.00000000000E+00  0.00000000000E+00  0.16877881377E+04  0.22523909056E+04  0.14915213690E+04 0.  0.
        1    1    3    3  502    0 -0.43245995800E+03  0.60042911749E+03  0.70366927986E+03  0.10211205589E+04  0.50400001928E-02 0.  1.
       -1    1    3    3    0  502  0.43245995800E+03 -0.60042911749E+03  0.98411885779E+03  0.12312703467E+04  0.50400001928E-02 0. -1.
</event>
<event>
 5   0  0.6509279E-05  0.1502710E+04  0.7818609E-02  0.8882652E-01
       -1   -1    0    0    0  501  0.00000000000E+00  0.00000000000E+00  0.49935976388E+03  0.49935976391E+03  0.50400001928E-02 0. -1.
        1   -1    0    0  501    0  0.00000000000E+00  0.00000000000E+00 -0.11305169836E+04  0.11305169836E+04  0.50400001928E-02 0.  1.
    10030    2    1    2    0    0  0.00000000000E+00  0.00000000000E+00 -0.63115721976E+03  0.16298767476E+04  0.15027104765E+04 0.  0.
        2    1    3    3  502    0 -0.75116188236E+03  0.69576415591E+01 -0.29870191575E+03  0.80840300393E+03  0.25500000920E-02 0.  1.
       -2    1    3    3    0  502  0.75116188236E+03 -0.69576415591E+01 -0.33245530401E+03  0.82147374362E+03  0.25500000920E-02 0. -1.
</event>
<event>
 5   0  0.6361716E-05  0.1501342E+04  0.7818609E-02  0.8883561E-01
        1   -1    0    0  501    0  0.00000000000E+00  0.00000000000E+00  0.11778079207E+04  0.11778079207E+04  0.50400001928E-02 0.  1.
       -1   -1    0    0    0  501  0.00000000000E+00  0.00000000000E+00 -0.47843702728E+03  0.47843702731E+03  0.50400001928E-02 0. -1.
    10030    2    1    2    0    0  0.00000000000E+00  0.00000000000E+00  0.69937089340E+03  0.16562449480E+04  0.15013419601E+04 0.  0.
        3    1    3    3  502    0  0.51215269955E+03  0.54654861206E+03  0.29462448930E+03  0.80487227117E+03  0.10100000352E+00 0. -1.
       -3    1    3    3    0  502 -0.51215269955E+03 -0.54654861206E+03  0.40474640410E+03  0.85137267682E+03  0.10100000352E+00 0.  1.
</event>
<event>
 5   0  0.1219810E-04  0.1497658E+04  0.7818609E-02  0.8886012E-01
        2   -1    0    0  501    0  0.00000000000E+00  0.00000000000E+00  0.10224169273E+04  0.10224169273E+04  0.25500000920E-02 0.  1.
       -2   -1    0    0    0  501  0.00000000000E+00  0.00000000000E+00 -0.54845011719E+03  0.54845011719E+03  0.25500000920E-02 0. -1.
    10030    2    1    2    0    0  0.00000000000E+00  0.00000000000E+00  0.47396681008E+03  0.15708670445E+04  0.14976577494E+04 0.  0.
        1    1    3    3  502    0 -0.49685149373E+02  0.70771225190E+03 -0.14353532674E+02  0.70959937252E+03  0.50400001928E-02 0. -1.
       -1    1    3    3    0  502  0.49685149373E+02 -0.70771225190E+03  0.48832034275E+03  0.86126767194E+03  0.50400001928E-02 0.  1.
</event>
<event>
 5   0  0.1216921E-04  0.1506689E+04  0.7818609E-02  0.8880017E-01
        2   -1    0    0  501    0  0.00000000000E+00  0.00000000000E+00  0.62490508857E+03  0.62490508857E+03  0.25500000920E-02 0. -1.
       -2   -1    0    0    0  501  0.00000000000E+00  0.00000000000E+00 -0.90818265281E+03  0.90818265281E+03  0.25500000920E-02 0.  1.
    10030    2    1    2    0    0  0.00000000000E+00  0.00000000000E+00 -0.28327756424E+03  0.15330877414E+04  0.15066890337E+04 0.  0.
        4    1    3    3  502    0  0.17001978222E+03 -0.16491792015E+03  0.58602868728E+03  0.63208850800E+03  0.12699999809E+01 0. -1.
       -4    1    3    3    0  502 -0.17001978222E+03  0.16491792015E+03 -0.86930625152E+03  0.90099923339E+03  0.12699999809E+01 0.  1.
</event>
<event>
 5   0  0.1216921E-04  0.1501856E+04  0.7818609E-02  0.8883220E-01
        2   -1    0    0  501    0  0.00000000000E+00  0.00000000000E+00  0.12155880030E+04  0.12155880030E+04  0.25500000920E-02 0. -1.
       -2   -1    0    0    0  501  0.00000000000E+00  0.00000000000E+00 -0.46388485567E+03  0.46388485568E+03  0.25500000920E-02 0.  1.
    10030    2    1    2    0    0  0.00000000000E+00  0.00000000000E+00  0.75170314728E+03  0.16794728586E+04  0.15018560055E+04 0.  0.
        4    1    3    3  502    0 -0.47392002350E+03  0.36450521930E+03  0.88392672365E+03  0.10671421223E+04  0.12699999809E+01 0. -1.
       -4    1    3    3    0  502  0.47392002350E+03 -0.36450521930E+03 -0.13222357637E+03  0.61233073630E+03  0.12699999809E+01 0.  1.
</event>
<event>
 5   0  0.1186664E-04  0.1498629E+04  0.7818609E-02  0.8885365E-01
       -2   -1    0    0    0  501  0.00000000000E+00  0.00000000000E+00  0.63096313958E+03  0.63096313959E+03  0.25500000920E-02 0. -1.
        2   -1    0    0  501    0  0.00000000000E+00  0.00000000000E+00 -0.88986512355E+03  0.88986512356E+03  0.25500000920E-02 0.  1.
    10030    2    1    2    0    0  0.00000000000E+00  0.00000000000E+00 -0.25890198397E+03  0.15208282631E+04  0.14986288295E+04 0.  0.
        3    1    3    3  502    0 -0.43261373388E+03  0.16821811363E+03 -0.72639934593E+03  0.86203712012E+03  0.10100000352E+00 0.  1.
       -3    1    3    3    0  502  0.43261373388E+03 -0.16821811363E+03  0.46749736196E+03  0.65879114303E+03  0.10100000352E+00 0. -1.
</event>
<event>
 5   0  0.6668433E-05  0.1499318E+04  0.7818609E-02  0.8884907E-01
        1   -1    0    0  501    0  0.00000000000E+00  0.00000000000E+00  0.47894626112E+03  0.47894626115E+03  0.50400001928E-02 0. -1.
       -1   -1    0    0    0  501  0.00000000000E+00  0.00000000000E+00 -0.11733852045E+04  0.11733852045E+04  0.50400001928E-02 0.  1.
    10030    2    1    2    0    0  0.00000000000E+00  0.00000000000E+00 -0.69443894338E+03  0.16523314657E+04  0.14993177870E+04 0.  0.
        1    1    3    3  502    0  0.62547209453E+03 -0.75734017891E+02 -0.79492737819E+03  0.10143276192E+04  0.50400001928E-02 0.  1.
       -1    1    3    3    0  502 -0.62547209453E+03  0.75734017891E+02  0.10048843482E+03  0.63800384643E+03  0.50400001928E-02 0. -1.
</event>
<event>
 5   0  0.1228286E-04  0.1501076E+04  0.7818609E-02  0.8883737E-01
        2   -1    0    0  501    0  0.00000000000E+00  0.00000000000E+00  0.45687809375E+03  0.45687809375E+03  0.25500000920E-02 0.  1.
       -2   -1    0    0    0  501  0.00000000000E+00  0.00000000000E+00 -0.12329493301E+04  0.12329493301E+04  0.25500000920E-02 0. -1.
    10030    2    1    2    0    0  0.00000000000E+00  0.00000000000E+00 -0.77607123638E+03  0.16898274239E+04  0.15010763334E+04 0.  0.
        2    1    3    3  502    0 -0.38610905792E+03 -0.23275608680E+03 -0.10635306408E+04  0.11551419932E+04  0.25500000920E-02 0. -1.
       -2    1    3    3    0  502  0.38610905792E+03  0.23275608680E+03  0.28745940443E+03  0.53468543066E+03  0.25500000920E-02 0.  1.
</event>
<event>
 5   0  0.1219810E-04  0.1500448E+04  0.7818609E-02  0.8884155E-01
        2   -1    0    0  501    0  0.00000000000E+00  0.00000000000E+00  0.19593986657E+04  0.19593986657E+04  0.25500000920E-02 0. -1.
       -2   -1    0    0    0  501  0.00000000000E+00  0.00000000000E+00 -0.28724939639E+03  0.28724939640E+03  0.25500000920E-02 0.  1.
    10030    2    1    2    0    0  0.00000000000E+00  0.00000000000E+00  0.16721492694E+04  0.22466480621E+04  0.15004480451E+04 0.  0.
        1    1    3    3  502    0  0.14801377714E+03 -0.56359365864E+03  0.12853803737E+03  0.59671426777E+03  0.50400001928E-02 0.  1.
       -1    1    3    3    0  502 -0.14801377714E+03  0.56359365864E+03  0.15436112320E+04  0.16499337944E+04  0.50400001928E-02 0. -1.
</event>
<event>
 5   0  0.6509279E-05  0.1510800E+04  0.7818609E-02  0.8877303E-01
       -1   -1    0    0    0  501  0.00000000000E+00  0.00000000000E+00  0.59736519473E+03  0.59736519475E+03  0.50400001928E-02 0. -1.
        1   -1    0    0  501    0  0.00000000000E+00  0.00000000000E+00 -0.95524314426E+03  0.95524314428E+03  0.50400001928E-02 0.  1.
    10030    2    1    2    0    0  0.00000000000E+00  0.00000000000E+00 -0.35787794954E+03  0.15526083390E+04  0.15107997973E+04 0.  0.
        2    1    3    3  502    0 -0.67127408363E+03  0.33485231295E+03 -0.87631851601E+02  0.75525777604E+03  0.25500000920E-02 0. -1.
       -2    1    3    3    0  502  0.67127408363E+03 -0.33485231295E+03 -0.27024609794E+03  0.79735056299E+03  0.25500000920E-02 0.  1.
</event>
<event>
 5   0  0.6509279E-05  0.1499488E+04  0.7818609E-02  0.8884794E-01
       -1   -1    0    0    0  501  0.00000000000E+00  0.00000000000E+00  0.53999719236E+03  0.53999719238E+03  0.50400001928E-02 0. -1.
        1   -1    0    0  501    0  0.00000000000E+00  0.00000000000E+00 -0.10409604655E+04  0.10409604656E+04  0.50400001928E-02 0.  1.
    10030    2    1    2    0    0  0.00000000000E+00  0.00000000000E+00 -0.50096327318E+03  0.15809576579E+04  0.14994875508E+04 0.  0.
        2    1    3    3  502    0  0.48076908051E+03 -0.13852120628E+03  0.33823669144E+03  0.60392970850E+03  0.25500000920E-02 0. -1.
       -2    1    3    3    0  502 -0.48076908051E+03  0.13852120628E+03 -0.83919996462E+03  0.97702794944E+03  0.25500000920E-02 0.  1.
</event>
<event>
 5   0  0.1219810E-04  0.1499553E+04  0.7818609E-02  0.8884750E-01
        2   -1    0    0  501    0  0.00000000000E+00  0.00000000000E+00  0.19198230845E+04  0.19198230845E+04  0.25500000920E-02 0.  1.
       -2   -1    0    0    0  501  0.00000000000E+00  0.00000000000E+00 -0.29282111033E+03  0.29282111035E+03  0.25500000920E-02 0. -1.
    10030    2    1    2    0    0  0.00000000000E+00  0.00000000000E+00  0.16270019741E+04  0.22126441948E+04  0.14995529030E+04 0.  0.
        1    1    3    3  502    0 -0.49823816361E+03  0.18852136068E+03  0.15920236650E+04  0.16787855494E+04  0.50400001928E-02 0.  1.
       -1    1    3    3    0  502  0.49823816361E+03 -0.18852136068E+03  0.34978309153E+02  0.53385864538E+03  0.50400001928E-02 0. -1.
</event>
<event>
 5   0  0.1216921E-04  0.1499255E+04  0.7818609E-02  0.8884949E-01
        2   -1    0    0  501    0  0.00000000000E+00  0.00000000000E+00  0.92772900409E+03  0.92772900409E+03  0.25500000920E-02 0. -1.
       -2   -1    0    0    0  501  0.00000000000E+00  0.00000000000E+00 -0.60571695186E+03  0.60571695187E+03  0.25500000920E-02 0.  1.
    10030    2    1    2    0    0  0.00000000000E+00  0.00000000000E+00  0.32201205222E+03  0.15334459560E+04  0.14992547275E+04 0.  0.
        4    1    3    3  502    0 -0.73180365533E+03  0.55915152906E+02  0.49603730998E+01  0.73395457113E+03  0.12699999809E+01 0.  1.
       -4    1    3    3    0  502  0.73180365533E+03 -0.55915152906E+02  0.31705167912E+03  0.79949138483E+03  0.12699999809E+01 0. -1.
</event>
<event>
 5   0  0.1216921E-04  0.1500176E+04  0.7818609E-02  0.8884336E-01
       -2   -1    0    0    0  501  0.00000000000E+00  0.00000000000E+00  0.81541022480E+03  0.81541022481E+03  0.25500000920E-02 0.  1.
        2   -1    0    0  501    0  0.00000000000E+00  0.00000000000E+00 -0.68999897619E+03  0.68999897620E+03  0.25500000920E-02 0. -1.
    10030    2    1    2    0    0  0.00000000000E+00  0.00000000000E+00  0.12541124861E+03  0.15054092010E+04  0.15001762834E+04 0.  0.
        4    1    3    3  502    0 -0.70447680253E+03  0.23628428632E+03 -0.40183867068E+02  0.74413317715E+03  0.12699999809E+01 0. -1.
       -4    1    3    3    0  502  0.70447680253E+03 -0.23628428632E+03  0.16559511568E+03  0.76127602385E+03  0.12699999809E+01 0.  1.
</event>
<event>
 5   0  0.6361716E-05  0.1495840E+04  0.7818609E-02  0.8887224E-01
       -1   -1    0    0    0  501  0.00000000000E+00  0.00000000000E+00  0.46771131173E+03  0.46771131176E+03  0.50400001928E-02 0.  1.
        1   -1    0    0  501    0  0.00000000000E+00  0.00000000000E+00 -0.11960028625E+04  0.11960028625E+04  0.50400001928E-02 0. -1.
    10030    2    1    2    0    0  0.00000000000E+00  0.00000000000E+00 -0.72829155073E+03  0.16637141742E+04  0.14958396541E+04 0.  0.
        3    1    3    3  502    0  0.68678992044E+03  0.25352595096E+03 -0.53438657257E+03  0.90638006475E+03  0.10100000352E+00 0.  1.
       -3    1    3    3    0  502 -0.68678992044E+03 -0.25352595096E+03 -0.19390497816E+03  0.75733410948E+03  0.10100000352E+00 0. -1.
</event>
<event>
 5   0  0.6364378E-05  0.1497442E+04  0.7818609E-02  0.8886156E-01
       -1   -1    0    0    0  501  0.00000000000E+00  0.00000000000E+00  0.10618149872E+04  0.10618149872E+04  0.50400001928E-02 0. -1.
        1   -1    0    0  501    0  0.00000000000E+00  0.00000000000E+00 -0.52794795848E+03  0.52794795850E+03  0.50400001928E-02 0.  1.
    10030    2    1    2    0    0  0.00000000000E+00  0.00000000000E+00  0.53386702875E+03  0.15897629457E+04  0.14974418918E+04 0.  0.
        5    1    3    3  502    0 -0.14647096515E+03 -0.21812204430E+03 -0.47738257036E+03  0.54492859929E+03  0.46999998093E+01 0.  1.
       -5    1    3    3    0  502  0.14647096515E+03  0.21812204430E+03  0.10112495991E+04  0.10448343465E+04  0.46999998093E+01 0. -1.
</event>
<event>
 5   0  0.1228286E-04  0.1496123E+04  0.7818609E-02  0.8887035E-01
        2   -1    0    0  501    0  0.00000000000E+00  0.00000000000E+00  0.22554639734E+04  0.22554639734E+04  0.25500000920E-02 0. -1.
       -2   -1    0    0    0  501  0.00000000000E+00  0.00000000000E+00 -0.24810672920E+03  0.24810672921E+03  0.25500000920E-02 0.  1.
    10030    2    1    2    0    0  0.00000000000E+00  0.00000000000E+00  0.20073572442E+04  0.25035707026E+04  0.14961227079E+04 0.  0.
        2    1    3    3  502    0 -0.59889915345E+03 -0.11701636615E+03  0.27962293089E+03  0.67123915964E+03  0.25500000920E-02 0.  1.
       -2    1    3    3    0  502  0.59889915345E+03  0.11701636615E+03  0.17277343133E+04  0.18323315430E+04  0.25500000920E-02 0. -1.
</event>
<event>
 5   0  0.6509279E-05  0.1501267E+04  0.7818609E-02  0.8883611E-01
        1   -1    0    0  501    0  0.00000000000E+00  0.00000000000E+00  0.99179650653E+03  0.99179650654E+03  0.50400001928E-02 0. -1.
       -1   -1    0    0    0  501  0.00000000000E+00  0.00000000000E+00 -0.56811130224E+03  0.56811130226E+03  0.50400001928E-02 0.  1.
    10030    2    1    2    0    0  0.00000000000E+00  0.00000000000E+00  0.42368520429E+03  0.15599078088E+04  0.15012672046E+04 0.  0.
        2    1    3    3  502    0  0.62852144280E+03 -0.39570287962E+03  0.98824352617E+02  0.74925711587E+03  0.25500000920E-02 0. -1.
       -2    1    3    3    0  502 -0.62852144280E+03  0.39570287962E+03  0.32486085168E+03  0.81065069294E+03  0.25500000920E-02 0.  1.
</event>
<event>
 5   0  0.6509279E-05  0.1500110E+04  0.7818609E-02  0.8884379E-01
        1   -1    0    0  501    0  0.00000000000E+00  0.00000000000E+00  0.11540955498E+04  0.11540955498E+04  0.50400001928E-02 0. -1.
       -1   -1    0    0    0  501  0.00000000000E+00  0.00000000000E+00 -0.48746641188E+03  0.48746641190E+03  0.50400001928E-02 0.  1.
    10030    2    1    2    0    0  0.00000000000E+00  0.00000000000E+00  0.66662913789E+03  0.16415619617E+04  0.15001104181E+04 0.  0.
        2    1    3    3  502    0  0.20832955940E+03 -0.72043534784E+03  0.34691734809E+03  0.82630499342E+03  0.25500000920E-02 0.  1.
       -2    1    3    3    0  502 -0.20832955940E+03  0.72043534784E+03  0.31971178979E+03  0.81525696825E+03  0.25500000920E-02 0. -1.
</event>
<event>
 5   0  0.6668433E-05  0.1493181E+04  0.7818609E-02  0.8889000E-01
       -1   -1    0    0    0  501  0.00000000000E+00  0.00000000000E+00  0.67116963044E+03  0.67116963046E+03  0.50400001928E-02 0.  1.
        1   -1    0    0  501    0  0.00000000000E+00  0.00000000000E+00 -0.83048634661E+03  0.83048634662E+03  0.50400001928E-02 0. -1.
    10030    2    1    2    0    0  0.00000000000E+00  0.00000000000E+00 -0.15931671617E+03  0.15016559771E+04  0.14931807853E+04 0.  0.
        1    1    3    3  502    0  0.23645099969E+03  0.41421460919E+03 -0.65730026119E+03  0.81211233897E+03  0.50400001928E-02 0. -1.
       -1    1    3    3    0  502 -0.23645099969E+03 -0.41421460919E+03  0.49798354502E+03  0.68954363811E+03  0.50400001928E-02 0.  1.
</event>
<event>
 5   0  0.1228286E-04  0.1501348E+04  0.7818609E-02  0.8883557E-01
       -2   -1    0    0    0  501  0.00000000000E+00  0.00000000000E+00  0.66015369261E+03  0.66015369261E+03  0.25500000920E-02 0.  1.
        2   -1    0    0  501    0  0.00000000000E+00  0.00000000000E+00 -0.85360643694E+03  0.85360643695E+03  0.25500000920E-02 0. -1.
    10030    2    1    2    0    0  0.00000000000E+00  0.00000000000E+00 -0.19345274433E+03  0.15137601296E+04  0.15013479828E+04 0.  0.
        2    1    3    3  502    0 -0.33689895668E+03  0.35181878756E+03  0.47916471613E+03  0.68328339032E+03  0.25500000920E-02 0.  1.
       -2    1    3    3    0  502  0.33689895668E+03 -0.35181878756E+03 -0.67261746047E+03  0.83047673924E+03  0.25500000920E-02 0. -1.
</event>
<event>
 5   0  0.1216921E-04  0.1488026E+04  0.7818609E-02  0.8892455E-01
        2   -1    0    0  501    0  0.00000000000E+00  0.00000000000E+00  0.12347834685E+04  0.12347834685E+04  0.25500000920E-02 0.  1.
       -2   -1    0    0    0  501  0.00000000000E+00  0.00000000000E+00 -0.44830145596E+03  0.44830145597E+03  0.25500000920E-02 0. -1.
    10030    2    1    2    0    0  0.00000000000E+00  0.00000000000E+00  0.78648201257E+03  0.16830849245E+04  0.14880258422E+04 0.  0.
        4    1    3    3  502    0  0.70682463372E+03 -0.16011839929E+03  0.20291367881E+03  0.75260516778E+03  0.12699999809E+01 0. -1.
       -4    1    3    3    0  502 -0.70682463372E+03  0.16011839929E+03  0.58356833376E+03  0.93047975673E+03  0.12699999809E+01 0.  1.
</event>
<event>
 5   0  0.6361716E-05  0.1494363E+04  0.7818609E-02  0.8888210E-01
        1   -1    0    0  501    0  0.00000000000E+00  0.00000000000E+00  0.38936385821E+03  0.38936385824E+03  0.50400001928E-02 0.  1.
       -1   -1    0    0    0  501  0.00000000000E+00  0.00000000000E+00 -0.14338264427E+04  0.14338264427E+04  0.50400001928E-02 0. -1.
    10030    2    1    2    0    0  0.00000000000E+00  0.00000000000E+00 -0.10444625845E+04  0.18231903009E+04  0.14943630024E+04 0.  0.
        3    1    3    3  502    0  0.78807472587E+02  0.33042231937E+03 -0.13341716997E+04  0.13767365984E+04  0.10100000352E+00 0. -1.
       -3    1    3    3    0  502 -0.78807472587E+02 -0.33042231937E+03  0.28970911522E+03  0.44645370255E+03  0.10100000352E+00 0.  1.
</event>
<event>
 5   0  0.1219810E-04  0.1501246E+04  0.7818609E-02  0.8883625E-01
       -2   -1    0    0    0  501  0.00000000000E+00  0.00000000000E+00  0.12473739667E+04  0.12473739667E+04  0.25500000920E-02 0.  1.
        2   -1    0    0  501    0  0.00000000000E+00  0.00000000000E+00 -0.45169689028E+03  0.45169689029E+03  0.25500000920E-02 0. -1.
    10030    2    1    2    0    0  0.00000000000E+00  0.00000000000E+00  0.79567707645E+03  0.16990708570E+04  0.15012460715E+04 0.  0.
        1    1    3    3  502    0  0.12800682474E+03  0.14146156343E+03  0.12194765021E+04  0.12343095480E+04  0.50400001928E-02 0.  1.
       -1    1    3    3    0  502 -0.12800682474E+03 -0.14146156343E+03 -0.42379942567E+03  0.46476130899E+03  0.50400001928E-02 0. -1.
</event>
<event>
 5   0  0.6509279E-05  0.1534036E+04  0.7818609E-02  0.8862129E-01
        1   -1    0    0  501    0  0.00000000000E+00  0.00000000000E+00  0.91617464260E+03  0.91617464261E+03  0.50400001928E-02 0.  1.
       -1   -1    0    0    0  501  0.00000000000E+00  0.00000000000E+00 -0.64214494659E+03  0.64214494661E+03  0.50400001928E-02 0. -1.
    10030    2    1    2    0    0  0.00000000000E+00  0.00000000000E+00  0.27402969601E+03  0.15583195892E+04  0.15340363972E+04 0.  0.
        2    1    3    3  502    0 -0.44447104053E+03  0.60712635534E+03  0.28823363205E+03  0.80575153979E+03  0.25500000920E-02 0.  1.
       -2    1    3    3    0  502  0.44447104053E+03 -0.60712635534E+03 -0.14203936049E+02  0.75256804943E+03  0.25500000920E-02 0. -1.
</event>
<event>
 5   0  0.6668433E-05  0.1497790E+04  0.7818609E-02  0.8885924E-01
       -1   -1    0    0    0  501  0.00000000000E+00  0.00000000000E+00  0.10167022724E+04  0.10167022724E+04  0.50400001928E-02 0.  1.
        1   -1    0    0  501    0  0.00000000000E+00  0.00000000000E+00 -0.55163060819E+03  0.55163060822E+03  0.50400001928E-02 0. -1.
    10030    2    1    2    0    0  0.00000000000E+00  0.00000000000E+00  0.46507166422E+03  0.15683328806E+04  0.14977904966E+04 0.  0.
        1    1    3    3  502    0  0.37295303381E+03  0.63445844101E+03  0.37767358898E+03  0.82720542711E+03  0.50400001928E-02 0.  1.
       -1    1    3    3    0  502 -0.37295303381E+03 -0.63445844101E+03  0.87398075242E+02  0.74112745353E+03  0.50400001928E-02 0. -1.
</event>
<event>
 5   0  0.6361716E-05  0.1499223E+04  0.7818609E-02  0.8884969E-01
        1   -1    0    0  501    0  0.00000000000E+00  0.00000000000E+00  0.97194388228E+03  0.97194388229E+03  0.50400001928E-02 0.  1.
       -1   -1    0    0    0  501  0.00000000000E+00  0.00000000000E+00 -0.57813803310E+03  0.57813803313E+03  0.50400001928E-02 0. -1.
    10030    2    1    2    0    0  0.00000000000E+00  0.00000000000E+00  0.39380584917E+03  0.15500819154E+04  0.14992234315E+04 0.  0.
        3    1    3    3  502    0 -0.69684931149E+03 -0.27234720520E+03  0.14900927193E+03  0.76287334233E+03  0.10100000352E+00 0. -1.
       -3    1    3    3    0  502  0.69684931149E+03  0.27234720520E+03  0.24479657724E+03  0.78720857309E+03  0.10100000352E+00 0.  1.
</event>
<event>
 5   0  0.6668433E-05  0.1496749E+04  0.7818609E-02  0.8886618E-01
        1   -1    0    0  501    0  0.00000000000E+00  0.00000000000E+00  0.15663949337E+04  0.15663949337E+04  0.50400001928E-02 0.  1.
       -1   -1    0    0    0  501  0.00000000000E+00  0.00000000000E+00 -0.35754995513E+03  0.35754995517E+03  0.50400001928E-02 0. -1.
    10030    2    1    2    0    0  0.00000000000E+00  0.00000000000E+00  0.12088449785E+04  0.19239448888E+04  0.14967490615E+04 0.  0.
        1    1    3    3  502    0  0.57369931895E+03 -0.43299564170E+03  0.33648712000E+03  0.79362441762E+03  0.50400001928E-02 0. -1.
       -1    1    3    3    0  502 -0.57369931895E+03  0.43299564170E+03  0.87235785853E+03  0.11303204712E+04  0.50400001928E-02 0.  1.
</event>
<event>
 5   0  0.6668433E-05  0.1497678E+04  0.7818609E-02  0.8885998E-01
       -1   -1    0    0    0  501  0.00000000000E+00  0.00000000000E+00  0.81513698201E+03  0.81513698203E+03  0.50400001928E-02 0.  1.
        1   -1    0    0  501    0  0.00000000000E+00  0.00000000000E+00 -0.68793332691E+03  0.68793332693E+03  0.50400001928E-02 0. -1.
    10030    2    1    2    0    0  0.00000000000E+00  0.00000000000E+00  0.12720365510E+03  0.15030703090E+04  0.14976780641E+04 0.  0.
        1    1    3    3  502    0  0.56897235821E+03  0.39099659475E+03 -0.22753227835E+03  0.72689670465E+03  0.50400001928E-02 0. -1.
       -1    1    3    3    0  502 -0.56897235821E+03 -0.39099659475E+03  0.35473593345E+03  0.77617360430E+03  0.50400001928E-02 0.  1.
</event>
<event>
 5   0  0.6509279E-05  0.1497345E+04  0.7818609E-02  0.8886220E-01
        1   -1    0    0  501    0  0.00000000000E+00  0.00000000000E+00  0.99877806627E+03  0.99877806628E+03  0.50400001928E-02 0. -1.
       -1   -1    0    0    0  501  0.00000000000E+00  0.00000000000E+00 -0.56119656540E+03  0.56119656543E+03  0.50400001928E-02 0.  1.
    10030    2    1    2    0    0  0.00000000000E+00  0.00000000000E+00  0.43758150087E+03  0.15599746317E+04  0.14973454116E+04 0.  0.
        2    1    3    3  502    0 -0.89479682742E+02  0.30982855585E+03 -0.48512537201E+03  0.58253495536E+03  0.25500000920E-02 0.  1.
       -2    1    3    3    0  502  0.89479682742E+02 -0.30982855585E+03  0.92270687288E+03  0.97743967635E+03  0.25500000920E-02 0. -1.
</event>
<event>
 5   0  0.6668433E-05  0.1500623E+04  0.7818609E-02  0.8884039E-01
        1   -1    0    0  501    0  0.00000000000E+00  0.00000000000E+00  0.86493149809E+03  0.86493149810E+03  0.50400001928E-02 0.  1.
       -1   -1    0    0    0  501  0.00000000000E+00  0.00000000000E+00 -0.65088089969E+03  0.65088089971E+03  0.50400001928E-02 0. -1.
    10030    2    1    2    0    0  0.00000000000E+00  0.00000000000E+00  0.21405059840E+03  0.15158123978E+04  0.15006230595E+04 0.  0.
        1    1    3    3  502    0  0.12917801068E+03 -0.59925050511E+03 -0.32999610509E+03  0.69619361941E+03  0.50400001928E-02 0. -1.
       -1    1    3    3    0  502 -0.12917801068E+03  0.59925050511E+03  0.54404670349E+03  0.81961877840E+03  0.50400001928E-02 0.  1.
</event>
<event>
 5   0  0.1228286E-04  0.1499611E+04  0.7818609E-02  0.8884711E-01
        2   -1    0    0  501    0  0.00000000000E+00  0.00000000000E+00  0.69132519872E+03  0.69132519873E+03  0.25500000920E-02 0.  1.
       -2   -1    0    0    0  501  0.00000000000E+00  0.00000000000E+00 -0.81323326099E+03  0.81323326099E+03  0.25500000920E-02 0. -1.
    10030    2    1    2    0    0  0.00000000000E+00  0.00000000000E+00 -0.12190806227E+03  0.15045584597E+04  0.14996114774E+04 0.  0.
        2    1    3    3  502    0 -0.10077598691E+03  0.22428365421E+03 -0.77163366042E+03  0.80986261982E+03  0.25500000920E-02 0. -1.
       -2    1    3    3    0  502  0.10077598691E+03 -0.22428365421E+03  0.64972559815E+03  0.69469583990E+03  0.25500000920E-02 0.  1.
</event>
<event>
 5   0  0.6509279E-05  0.1496705E+04  0.7818609E-02  0.8886647E-01
        1   -1    0    0  501    0  0.00000000000E+00  0.00000000000E+00  0.21830515580E+04  0.21830515580E+04  0.50400001928E-02 0. -1.
       -1   -1    0    0    0  501  0.00000000000E+00  0.00000000000E+00 -0.25653598853E+03  0.25653598858E+03  0.50400001928E-02 0.  1.
    10030    2    1    2    0    0  0.00000000000E+00  0.00000000000E+00  0.19265155694E+04  0.24395875466E+04  0.14967047665E+04 0.  0.
        2    1    3    3  502    0  0.83110749837E+02  0.69889842242E+03  0.54876733299E+03  0.89247520266E+03  0.25500000920E-02 0.  1.
       -2    1    3    3    0  502 -0.83110749837E+02 -0.69889842242E+03  0.13777482365E+04  0.15471123439E+04  0.25500000920E-02 0. -1.
</event>
<event>
 5   0  0.6364378E-05  0.1481192E+04  0.7818609E-02  0.8897057E-01
       -1   -1    0    0    0  501  0.00000000000E+00  0.00000000000E+00  0.16413662343E+03  0.16413662350E+03  0.50400001928E-02 0. -1.
        1   -1    0    0  501    0  0.00000000000E+00  0.00000000000E+00 -0.33416219827E+04  0.33416219827E+04  0.50400001928E-02 0.  1.
    10030    2    1    2    0    0  0.00000000000E+00  0.00000000000E+00 -0.31774853593E+04  0.35057586062E+04  0.14811921539E+04 0.  0.
        5    1    3    3  502    0 -0.41576896398E+03 -0.43301890808E+02 -0.30356632492E+04  0.30643127023E+04  0.46999998093E+01 0.  1.
       -5    1    3    3    0  502  0.41576896398E+03  0.43301890808E+02 -0.14182211009E+03  0.44144590389E+03  0.46999998093E+01 0. -1.
</event>
<event>
 5   0  0.1219810E-04  0.1504007E+04  0.7818609E-02  0.8881793E-01
        2   -1    0    0  501    0  0.00000000000E+00  0.00000000000E+00  0.18524690485E+04  0.18524690485E+04  0.25500000920E-02 0.  1.
       -2   -1    0    0    0  501  0.00000000000E+00  0.00000000000E+00 -0.30527328133E+03  0.30527328134E+03  0.25500000920E-02 0. -1.
    10030    2    1    2    0    0  0.00000000000E+00  0.00000000000E+00  0.15471957672E+04  0.21577423299E+04  0.15040070545E+04 0.  0.
        1    1    3    3  502    0  0.30840692396E+03  0.31174330639E+03 -0.10285118660E+03  0.45041879006E+03  0.50400001928E-02 0. -1.
       -1    1    3    3    0  502 -0.30840692396E+03 -0.31174330639E+03  0.16500469538E+04  0.17073235398E+04  0.50400001928E-02 0.  1.
</event>
<event>
 5   0  0.1219810E-04  0.1500897E+04  0.7818609E-02  0.8883857E-01
        2   -1    0    0  501    0  0.00000000000E+00  0.00000000000E+00  0.92719763992E+03  0.92719763992E+03  0.25500000920E-02 0.  1.
       -2   -1    0    0    0  501  0.00000000000E+00  0.00000000000E+00 -0.60739266226E+03  0.60739266227E+03  0.25500000920E-02 0. -1.
    10030    2    1    2    0    0  0.00000000000E+00  0.00000000000E+00  0.31980497766E+03  0.15345903022E+04  0.15008971223E+04 0.  0.
        1    1    3    3  502    0  0.15673941164E+03  0.31979159635E+03  0.83529090472E+03  0.90804449439E+03  0.50400001928E-02 0.  1.
       -1    1    3    3    0  502 -0.15673941164E+03 -0.31979159635E+03 -0.51548592706E+03  0.62654580781E+03  0.50400001928E-02 0. -1.
</event>
<event>
 5   0  0.1228286E-04  0.1501074E+04  0.7818609E-02  0.8883739E-01
       -2   -1    0    0    0  501  0.00000000000E+00  0.00000000000E+00  0.92383173159E+03  0.92383173160E+03  0.25500000920E-02 0.  1.
        2   -1    0    0  501    0  0.00000000000E+00  0.00000000000E+00 -0.60974905623E+03  0.60974905623E+03  0.25500000920E-02 0. -1.
    10030    2    1    2    0    0  0.00000000000E+00  0.00000000000E+00  0.31408267536E+03  0.15335807878E+04  0.15010736510E+04 0.  0.
        2    1    3    3  502    0  0.12627292260E+03 -0.40085694796E+02  0.91179120733E+03  0.92136579038E+03  0.25500000920E-02 0.  1.
       -2    1    3    3    0  502 -0.12627292260E+03  0.40085694796E+02 -0.59770853197E+03  0.61221499745E+03  0.25500000920E-02 0. -1.
</event>
<event>
 5   0  0.1254487E-04  0.1499029E+04  0.7818609E-02  0.8885099E-01
       -2   -1    0    0    0  501  0.00000000000E+00  0.00000000000E+00  0.53149485760E+03  0.53149485760E+03  0.25500000920E-02 0.  1.
        2   -1    0    0  501    0  0.00000000000E+00  0.00000000000E+00 -0.10569660452E+04  0.10569660452E+04  0.25500000920E-02 0. -1.
    10030    2    1    2    0    0  0.00000000000E+00  0.00000000000E+00 -0.52547118759E+03  0.15884609028E+04  0.14990290427E+04 0.  0.
        5    1    3    3  502    0 -0.52161321657E+03 -0.32443426331E+03  0.19231643874E+03  0.64369685530E+03  0.46999998093E+01 0.  1.
       -5    1    3    3    0  502  0.52161321657E+03  0.32443426331E+03 -0.71778762633E+03  0.94476404749E+03  0.46999998093E+01 0. -1.
</event>
<event>
 5   0  0.6542036E-05  0.1500747E+04  0.7818609E-02  0.8883957E-01
       -1   -1    0    0    0  501  0.00000000000E+00  0.00000000000E+00  0.36575144133E+03  0.36575144137E+03  0.50400001928E-02 0.  1.
        1   -1    0    0  501    0  0.00000000000E+00  0.00000000000E+00 -0.15394611873E+04  0.15394611873E+04  0.50400001928E-02 0. -1.
    10030    2    1    2    0    0  0.00000000000E+00  0.00000000000E+00 -0.11737097460E+04  0.19052126287E+04  0.15007466784E+04 0.  0.
        4    1    3    3  502    0 -0.42689807265E+02 -0.10050968066E+03  0.35560882529E+03  0.37199981865E+03  0.12699999809E+01 0.  1.
       -4    1    3    3    0  502  0.42689807265E+02  0.10050968066E+03 -0.15293185713E+04  0.15332128100E+04  0.12699999809E+01 0. -1.
</event>
<event>
 5   0  0.1219810E-04  0.1535486E+04  0.7818609E-02  0.8861192E-01
       -2   -1    0    0    0  501  0.00000000000E+00  0.00000000000E+00  0.40668112647E+03  0.40668112648E+03  0.25500000920E-02 0. -1.
        2   -1    0    0  501    0  0.00000000000E+00  0.00000000000E+00 -0.14493639204E+04  0.14493639204E+04  0.25500000920E-02 0.  1.
    10030    2    1    2    0    0  0.00000000000E+00  0.00000000000E+00 -0.10426827939E+04  0.18560450469E+04  0.15354855282E+04 0.  0.
        1    1    3    3  502    0  0.17724705717E+03 -0.66839834765E+03 -0.92452667383E+03  0.11545226031E+04  0.50400001928E-02 0.  1.
       -1    1    3    3    0  502 -0.17724705717E+03  0.66839834765E+03 -0.11815612012E+03  0.70152244381E+03  0.50400001928E-02 0. -1.
</event>
<event>
 5   0  0.6668433E-05  0.1492280E+04  0.7818609E-02  0.8889603E-01
       -1   -1    0    0    0  501  0.00000000000E+00  0.00000000000E+00  0.82899850388E+03  0.82899850389E+03  0.50400001928E-02 0.  1.
        1   -1    0    0  501    0  0.00000000000E+00  0.00000000000E+00 -0.67156332534E+03  0.67156332536E+03  0.50400001928E-02 0. -1.
    10030    2    1    2    0    0  0.00000000000E+00  0.00000000000E+00  0.15743517854E+03  0.15005618292E+04  0.14922801238E+04 0.  0.
        1    1    3    3  502    0  0.23377990427E+01 -0.71360411270E+03  0.29784598895E+03  0.77327131599E+03  0.50400001928E-02 0. -1.
       -1    1    3    3    0  502 -0.23377990427E+01  0.71360411270E+03 -0.14041081041E+03  0.72729051326E+03  0.50400001928E-02 0.  1.
</event>
<event>
 5   0  0.6509279E-05  0.1498611E+04  0.7818609E-02  0.8885377E-01
        1   -1    0    0  501    0  0.00000000000E+00  0.00000000000E+00  0.63799856820E+03  0.63799856822E+03  0.50400001928E-02 0. -1.
       -1   -1    0    0    0  501  0.00000000000E+00  0.00000000000E+00 -0.88003153797E+03  0.88003153799E+03  0.50400001928E-02 0.  1.
    10030    2    1    2    0    0  0.00000000000E+00  0.00000000000E+00 -0.24203296977E+03  0.15180301062E+04  0.14986111720E+04 0.  0.
        2    1    3    3  502    0  0.10579370617E+03 -0.11532209429E+03  0.62125942441E+03  0.64066743801E+03  0.25500000920E-02 0. -1.
       -2    1    3    3    0  502 -0.10579370617E+03  0.11532209429E+03 -0.86329239418E+03  0.87736266820E+03  0.25500000920E-02 0.  1.
</event>
<event>
 5   0  0.6361716E-05  0.1498805E+04  0.7818609E-02  0.8885248E-01
        1   -1    0    0  501    0  0.00000000000E+00  0.00000000000E+00  0.77053856663E+03  0.77053856664E+03  0.50400001928E-02 0.  1.
       -1   -1    0    0    0  501  0.00000000000E+00  0.00000000000E+00 -0.72884581650E+03  0.72884581652E+03  0.50400001928E-02 0. -1.
    10030    2    1    2    0    0  0.00000000000E+00  0.00000000000E+00  0.41692750125E+02  0.14993843832E+04  0.14988046047E+04 0.  0.
        3    1    3    3  502    0 -0.41442273026E+03  0.17299851869E+03  0.62101937377E+03  0.76638094941E+03  0.10100000352E+00 0.  1.
       -3    1    3    3    0  502  0.41442273026E+03 -0.17299851869E+03 -0.57932662365E+03  0.73300343375E+03  0.10100000352E+00 0. -1.
</event>
<event>
 5   0  0.6364378E-05  0.1490679E+04  0.7818609E-02  0.8890675E-01
        1   -1    0    0  501    0  0.00000000000E+00  0.00000000000E+00  0.72932962564E+03  0.72932962565E+03  0.50400001928E-02 0.  1.
       -1   -1    0    0    0  501  0.00000000000E+00  0.00000000000E+00 -0.76170084044E+03  0.76170084046E+03  0.50400001928E-02 0. -1.
    10030    2    1    2    0    0  0.00000000000E+00  0.00000000000E+00 -0.32371214806E+02  0.14910304661E+04  0.14906790249E+04 0.  0.
        5    1    3    3  502    0 -0.14920603755E+03 -0.18617123670E+03 -0.72245881819E+03  0.76084887133E+03  0.46999998093E+01 0. -1.
       -5    1    3    3    0  502  0.14920603755E+03  0.18617123670E+03  0.69008760339E+03  0.73018159478E+03  0.46999998093E+01 0.  1.
</event>
<event>
 5   0  0.6509279E-05  0.1501259E+04  0.7818609E-02  0.8883616E-01
       -1   -1    0    0    0  501  0.00000000000E+00  0.00000000000E+00  0.39104724378E+03  0.39104724381E+03  0.50400001928E-02 0. -1.
        1   -1    0    0  501    0  0.00000000000E+00  0.00000000000E+00 -0.14408612150E+04  0.14408612150E+04  0.50400001928E-02 0.  1.
    10030    2    1    2    0    0  0.00000000000E+00  0.00000000000E+00 -0.10498139712E+04  0.18319084588E+04  0.15012592139E+04 0.  0.
        2    1    3    3  502    0  0.25858953344E+03  0.69855862411E+03 -0.63801619396E+03  0.98077385869E+03  0.25500000920E-02 0. -1.
       -2    1    3    3    0  502 -0.25858953344E+03 -0.69855862411E+03 -0.41179777722E+03  0.85113460008E+03  0.25500000920E-02 0.  1.
</event>
<event>
 5   0  0.1219810E-04  0.1494172E+04  0.7818609E-02  0.8888338E-01
        2   -1    0    0  501    0  0.00000000000E+00  0.00000000000E+00  0.58211601789E+03  0.58211601790E+03  0.25500000920E-02 0.  1.
       -2   -1    0    0    0  501  0.00000000000E+00  0.00000000000E+00 -0.95880833328E+03  0.95880833328E+03  0.25500000920E-02 0. -1.
    10030    2    1    2    0    0  0.00000000000E+00  0.00000000000E+00 -0.37669231539E+03  0.15409243512E+04  0.14941722644E+04 0.  0.
        1    1    3    3  502    0 -0.10079034374E+03 -0.38451791724E+03 -0.84069286311E+03  0.92993398270E+03  0.50400001928E-02 0. -1.
       -1    1    3    3    0  502  0.10079034374E+03  0.38451791724E+03  0.46400054772E+03  0.61099036848E+03  0.50400001928E-02 0.  1.
</event>
<event>
 5   0  0.1186664E-04  0.1501114E+04  0.7818609E-02  0.8883712E-01
        2   -1    0    0  501    0  0.00000000000E+00  0.00000000000E+00  0.80754741972E+03  0.80754741973E+03  0.25500000920E-02 0. -1.
       -2   -1    0    0    0  501  0.00000000000E+00  0.00000000000E+00 -0.69758895209E+03  0.69758895210E+03  0.25500000920E-02 0.  1.
    10030    2    1    2    0    0  0.00000000000E+00  0.00000000000E+00  0.10995846763E+03  0.15051363718E+04  0.15011144637E+04 0.  0.
        3    1    3    3  502    0  0.68658587649E+03 -0.10326079426E+03  0.34082758800E+03  0.77345097606E+03  0.10100000352E+00 0. -1.
       -3    1    3    3    0  502 -0.68658587649E+03  0.10326079426E+03 -0.23086912037E+03  0.73168539576E+03  0.10100000352E+00 0.  1.
</event>
<event>
 5   0  0.6668433E-05  0.1518610E+04  0.7818609E-02  0.8872171E-01
       -1   -1    0    0    0  501  0.00000000000E+00  0.00000000000E+00  0.48103973363E+03  0.48103973366E+03  0.50400001928E-02 0. -1.
        1   -1    0    0  501    0  0.00000000000E+00  0.00000000000E+00 -0.11985375240E+04  0.11985375240E+04  0.50400001928E-02 0.  1.
    10030    2    1    2    0    0  0.00000000000E+00  0.00000000000E+00 -0.71749779034E+03  0.16795772576E+04  0.15186101163E+04 0.  0.
        1    1    3    3  502    0  0.45927408330E+03 -0.59949245576E+02 -0.10242036379E+04  0.11240639161E+04  0.50400001928E-02 0. -1.
       -1    1    3    3    0  502 -0.45927408330E+03  0.59949245576E+02  0.30670584756E+03  0.55551334151E+03  0.50400001928E-02 0.  1.
</event>
<event>
 5   0  0.6509279E-05  0.1506096E+04  0.7818609E-02  0.8880410E-01
        1   -1    0    0  501    0  0.00000000000E+00  0.00000000000E+00  0.12200768497E+04  0.12200768497E+04  0.50400001928E-02 0. -1.
       -1   -1    0    0    0  501  0.00000000000E+00  0.00000000000E+00 -0.46479118146E+03  0.46479118148E+03  0.50400001928E-02 0.  1.
    10030    2    1    2    0    0  0.00000000000E+00  0.00000000000E+00  0.75528566824E+03  0.16848680312E+04  0.15060955620E+04 0.  0.
        2    1    3    3  502    0  0.54002087871E+03  0.49553817575E+03  0.57108508326E+03  0.92914950648E+03  0.25500000920E-02 0.  1.
       -2    1    3    3    0  502 -0.54002087871E+03 -0.49553817575E+03  0.18420058498E+03  0.75571852471E+03  0.25500000920E-02 0. -1.
</event>
<event>
 5   0  0.6668433E-05  0.1499485E+04  0.7818609E-02  0.8884795E-01
        1   -1    0    0  501    0  0.00000000000E+00  0.00000000000E+00  0.13917497970E+04  0.13917497970E+04  0.50400001928E-02 0. -1.
       -1   -1    0    0    0  501  0.00000000000E+00  0.00000000000E+00 -0.40389025264E+03  0.40389025267E+03  0.50400001928E-02 0.  1.
    10030    2    1    2    0    0  0.00000000000E+00  0.00000000000E+00  0.98785954436E+03  0.17956400497E+04  0.14994854813E+04 0.  0.
        1    1    3    3  502    0 -0.19659848564E+03  0.57222486265E+03 -0.36257547450E+02  0.60614096361E+03  0.50400001928E-02 0.  1.
       -1    1    3    3    0  502  0.19659848564E+03 -0.57222486265E+03  0.10241170918E+04  0.11894990861E+04  0.50400001928E-02 0. -1.
</event>
<event>
 5   0  0.6542036E-05  0.1502857E+04  0.7818609E-02  0.8882555E-01
        1   -1    0    0  501    0  0.00000000000E+00  0.00000000000E+00  0.76249296570E+03  0.76249296572E+03  0.50400001928E-02 0. -1.
       -1   -1    0    0    0  501  0.00000000000E+00  0.00000000000E+00 -0.74052452962E+03  0.74052452963E+03  0.50400001928E-02 0.  1.
    10030    2    1    2    0    0  0.00000000000E+00  0.00000000000E+00  0.21968436085E+02  0.15030174953E+04  0.15028569390E+04 0.  0.
        4    1    3    3  502    0  0.23238624055E+03 -0.70854008194E+03 -0.81819657429E+02  0.75015230571E+03  0.12699999809E+01 0.  1.
       -4    1    3    3    0  502 -0.23238624055E+03  0.70854008194E+03  0.10378809351E+03  0.75286518964E+03  0.12699999809E+01 0. -1.
</event>
<event>
 5   0  0.6361716E-05  0.1500704E+04  0.7818609E-02  0.8883985E-01
       -1   -1    0    0    0  501  0.00000000000E+00  0.00000000000E+00  0.69029408774E+03  0.69029408776E+03  0.50400001928E-02 0. -1.
        1   -1    0    0  501    0  0.00000000000E+00  0.00000000000E+00 -0.81563563145E+03  0.81563563146E+03  0.50400001928E-02 0.  1.
    10030    2    1    2    0    0  0.00000000000E+00  0.00000000000E+00 -0.12534154370E+03  0.15059297192E+04  0.15007044401E+04 0.  0.
        3    1    3    3  502    0 -0.18718754667E+03  0.27565801317E+03 -0.73732256552E+03  0.80911747829E+03  0.10100000352E+00 0.  1.
       -3    1    3    3    0  502  0.18718754667E+03 -0.27565801317E+03  0.61198102182E+03  0.69681224093E+03  0.10100000352E+00 0. -1.
</event>
<event>
 5   0  0.1219810E-04  0.1501629E+04  0.7818609E-02  0.8883370E-01
       -2   -1    0    0    0  501  0.00000000000E+00  0.00000000000E+00  0.72298532147E+03  0.72298532147E+03  0.25500000920E-02 0. -1.
        2   -1    0    0  501    0  0.00000000000E+00  0.00000000000E+00 -0.77971474204E+03  0.77971474204E+03  0.25500000920E-02 0.  1.
    10030    2    1    2    0    0  0.00000000000E+00  0.00000000000E+00 -0.56729420572E+02  0.15027000635E+04  0.15016288668E+04 0.  0.
        1    1    3    3  502    0 -0.27058507809E+02 -0.43566817193E+03 -0.63968787361E+03  0.77442849544E+03  0.50400001928E-02 0.  1.
       -1    1    3    3    0  502  0.27058507809E+02  0.43566817193E+03  0.58295845303E+03  0.72827156808E+03  0.50400001928E-02 0. -1.
</event>
<event>
 5   0  0.6364378E-05  0.1500290E+04  0.7818609E-02  0.8884260E-01
       -1   -1    0    0    0  501  0.00000000000E+00  0.00000000000E+00  0.54899900443E+03  0.54899900445E+03  0.50400001928E-02 0. -1.
        1   -1    0    0  501    0  0.00000000000E+00  0.00000000000E+00 -0.10249878160E+04  0.10249878161E+04  0.50400001928E-02 0.  1.
    10030    2    1    2    0    0  0.00000000000E+00  0.00000000000E+00 -0.47598881162E+03  0.15739868205E+04  0.15002896928E+04 0.  0.
        5    1    3    3  502    0 -0.37556885026E+03 -0.29167421915E+03 -0.84663830507E+03  0.97105320194E+03  0.46999998093E+01 0.  1.
       -5    1    3    3    0  502  0.37556885026E+03  0.29167421915E+03  0.37064949345E+03  0.60293361856E+03  0.46999998093E+01 0. -1.
</event>
<event>
 5   0  0.1228286E-04  0.1497928E+04  0.7818609E-02  0.8885832E-01
        2   -1    0    0  501    0  0.00000000000E+00  0.00000000000E+00  0.44334388571E+03  0.44334388572E+03  0.25500000920E-02 0. -1.
       -2   -1    0    0    0  501  0.00000000000E+00  0.00000000000E+00 -0.12652632002E+04  0.12652632002E+04  0.25500000920E-02 0.  1.
    10030    2    1    2    0    0  0.00000000000E+00  0.00000000000E+00 -0.82191931452E+03  0.17086070860E+04  0.14979275065E+04 0.  0.
        2    1    3    3  502    0 -0.57700823707E+03  0.45960505871E+03 -0.55867850473E+03  0.92536316508E+03  0.25500000920E-02 0. -1.
       -2    1    3    3    0  502  0.57700823707E+03 -0.45960505871E+03 -0.26324080978E+03  0.78324392087E+03  0.25500000920E-02 0.  1.
</event>
<event>
 5   0  0.6542036E-05  0.1511313E+04  0.7818609E-02  0.8876964E-01
       -1   -1    0    0    0  501  0.00000000000E+00  0.00000000000E+00  0.69278946368E+03  0.69278946370E+03  0.50400001928E-02 0. -1.
        1   -1    0    0  501    0  0.00000000000E+00  0.00000000000E+00 -0.82422893639E+03  0.82422893640E+03  0.50400001928E-02 0.  1.
    10030    2    1    2    0    0  0.00000000000E+00  0.00000000000E+00 -0.13143947270E+03  0.15170184001E+04  0.15113134987E+04 0.  0.
        4    1    3    3  502    0 -0.46497587571E+03  0.48977054374E+03 -0.40602420379E+03  0.78799430040E+03  0.12699999809E+01 0.  1.
       -4    1    3    3    0  502  0.46497587571E+03 -0.48977054374E+03  0.27458473108E+03  0.72902409970E+03  0.12699999809E+01 0. -1.
</event>
<event>
 5   0  0.1186664E-04  0.1500190E+04  0.7818609E-02  0.8884326E-01
        2   -1    0    0  501    0  0.00000000000E+00  0.00000000000E+00  0.82582029364E+03  0.82582029365E+03  0.25500000920E-02 0. -1.
       -2   -1    0    0    0  501  0.00000000000E+00  0.00000000000E+00 -0.68131384046E+03  0.68131384047E+03  0.25500000920E-02 0.  1.
    10030    2    1    2    0    0  0.00000000000E+00  0.00000000000E+00  0.14450645318E+03  0.15071341341E+04  0.15001903823E+04 0.  0.
        3    1    3    3  502    0  0.47570243498E+03  0.57772736315E+03  0.21213815022E+02  0.74867332590E+03  0.10100000352E+00 0. -1.
       -3    1    3    3    0  502 -0.47570243498E+03 -0.57772736315E+03  0.12329263816E+03  0.75846080821E+03  0.10100000352E+00 0.  1.
</event>
<event>
 5   0  0.6668433E-05  0.1496922E+04  0.7818609E-02  0.8886502E-01
       -1   -1    0    0    0  501  0.00000000000E+00  0.00000000000E+00  0.78928723116E+03  0.78928723118E+03  0.50400001928E-02 0.  1.
        1   -1    0    0  501    0  0.00000000000E+00  0.00000000000E+00 -0.70974647350E+03  0.70974647352E+03  0.50400001928E-02 0. -1.
    10030    2    1    2    0    0  0.00000000000E+00  0.00000000000E+00  0.79540757656E+02  0.14990337047E+04  0.14969219471E+04 0.  0.
        1    1    3    3  502    0 -0.41595688104E+03 -0.50328787524E+03 -0.32663514374E+03  0.73007487931E+03  0.50400001928E-02 0.  1.
       -1    1    3    3    0  502  0.41595688104E+03  0.50328787524E+03  0.40617590140E+03  0.76895882539E+03  0.50400001928E-02 0. -1.
</event>
<event>
 5   0  0.1186664E-04  0.1501495E+04  0.7818609E-02  0.8883460E-01
        2   -1    0    0  501    0  0.00000000000E+00  0.00000000000E+00  0.57421703589E+03  0.57421703590E+03  0.25500000920E-02 0. -1.
       -2   -1    0    0    0  501  0.00000000000E+00  0.00000000000E+00 -0.98154793952E+03  0.98154793952E+03  0.25500000920E-02 0.  1.
    10030    2    1    2    0    0  0.00000000000E+00  0.00000000000E+00 -0.40733090362E+03  0.15557649754E+04  0.15014946532E+04 0.  0.
        3    1    3    3  502    0 -0.43429912885E+03  0.12468787520E+03  0.41755353807E+03  0.61523472504E+03  0.10100000352E+00 0. -1.
       -3    1    3    3    0  502  0.43429912885E+03 -0.12468787520E+03 -0.82488444169E+03  0.94053025038E+03  0.10100000352E+00 0.  1.
</event>
<event>
 5   0  0.6364378E-05  0.1467360E+04  0.7818609E-02  0.8906453E-01
        1   -1    0    0  501    0  0.00000000000E+00  0.00000000000E+00  0.12365148992E+04  0.12365148992E+04  0.50400001928E-02 0.  1.
       -1   -1    0    0    0  501  0.00000000000E+00  0.00000000000E+00 -0.43532562574E+03  0.43532562577E+03  0.50400001928E-02 0. -1.
    10030    2    1    2    0    0  0.00000000000E+00  0.00000000000E+00  0.80118927346E+03  0.16718405250E+04  0.14673603814E+04 0.  0.
        5    1    3    3  502    0 -0.13287089728E+03 -0.45730449355E+03  0.10364741823E+04  0.11406502074E+04  0.46999998093E+01 0.  1.
       -5    1    3    3    0  502  0.13287089728E+03  0.45730449355E+03 -0.23528490880E+03  0.53119031756E+03  0.46999998093E+01 0. -1.
</event>
<event>
 5   0  0.6364378E-05  0.1497288E+04  0.7818609E-02  0.8886259E-01
       -1   -1    0    0    0  501  0.00000000000E+00  0.00000000000E+00  0.10665687335E+04  0.10665687335E+04  0.50400001928E-02 0. -1.
        1   -1    0    0  501    0  0.00000000000E+00  0.00000000000E+00 -0.52548656075E+03  0.52548656077E+03  0.50400001928E-02 0.  1.
    10030    2    1    2    0    0  0.00000000000E+00  0.00000000000E+00  0.54108217275E+03  0.15920552943E+04  0.14972875951E+04 0.  0.
        5    1    3    3  502    0  0.63271239603E+02  0.54688729695E+03  0.80995292644E+03  0.97935427623E+03  0.46999998093E+01 0. -1.
       -5    1    3    3    0  502 -0.63271239603E+02 -0.54688729695E+03 -0.26887075369E+03  0.61270101805E+03  0.46999998093E+01 0.  1.
</event>
<event>
 5   0  0.6361716E-05  0.1495496E+04  0.7818609E-02  0.8887454E-01
        1   -1    0    0  501    0  0.00000000000E+00  0.00000000000E+00  0.34766140349E+03  0.34766140352E+03  0.50400001928E-02 0. -1.
       -1   -1    0    0    0  501  0.00000000000E+00  0.00000000000E+00 -0.16082515824E+04  0.16082515824E+04  0.50400001928E-02 0.  1.
    10030    2    1    2    0    0  0.00000000000E+00  0.00000000000E+00 -0.12605901789E+04  0.19559129859E+04  0.14954959075E+04 0.  0.
        3    1    3    3  502    0  0.25740013879E+03  0.69528650325E+03 -0.50316348506E+03  0.89601989707E+03  0.10100000352E+00 0.  1.
       -3    1    3    3    0  502 -0.25740013879E+03 -0.69528650325E+03 -0.75742669385E+03  0.10598930889E+04  0.10100000352E+00 0. -1.
</event>
<event>
 5   0  0.1254487E-04  0.1500899E+04  0.7818609E-02  0.8883855E-01
       -2   -1    0    0    0  501  0.00000000000E+00  0.00000000000E+00  0.40021239658E+03  0.40021239659E+03  0.25500000920E-02 0.  1.
        2   -1    0    0  501    0  0.00000000000E+00  0.00000000000E+00 -0.14071892400E+04  0.14071892400E+04  0.25500000920E-02 0. -1.
    10030    2    1    2    0    0  0.00000000000E+00  0.00000000000E+00 -0.10069768434E+04  0.18074016366E+04  0.15008991681E+04 0.  0.
        5    1    3    3  502    0  0.48719151054E+03 -0.10698371810E+03  0.17167803341E+03  0.52753817022E+03  0.46999998093E+01 0.  1.
       -5    1    3    3    0  502 -0.48719151054E+03  0.10698371810E+03 -0.11786548768E+04  0.12798634663E+04  0.46999998093E+01 0. -1.
</event>
<event>
 5   0  0.1219810E-04  0.1500294E+04  0.7818609E-02  0.8884257E-01
        2   -1    0    0  501    0  0.00000000000E+00  0.00000000000E+00  0.57390061337E+03  0.57390061337E+03  0.25500000920E-02 0. -1.
       -2   -1    0    0    0  501  0.00000000000E+00  0.00000000000E+00 -0.98051922021E+03  0.98051922021E+03  0.25500000920E-02 0.  1.
    10030    2    1    2    0    0  0.00000000000E+00  0.00000000000E+00 -0.40661860684E+03  0.15544198336E+04  0.15002940804E+04 0.  0.
        1    1    3    3  502    0  0.61091017466E+03 -0.36932821438E+03  0.35451906779E+02  0.71475269091E+03  0.50400001928E-02 0. -1.
       -1    1    3    3    0  502 -0.61091017466E+03  0.36932821438E+03 -0.44207051362E+03  0.83966714267E+03  0.50400001928E-02 0.  1.
</event>
<event>
 5   0  0.1219810E-04  0.1461446E+04  0.7818609E-02  0.8910504E-01
       -2   -1    0    0    0  501  0.00000000000E+00  0.00000000000E+00  0.30035166491E+03  0.30035166492E+03  0.25500000920E-02 0. -1.
        2   -1    0    0  501    0  0.00000000000E+00  0.00000000000E+00 -0.17777697419E+04  0.17777697419E+04  0.25500000920E-02 0.  1.
    10030    2    1    2    0    0  0.00000000000E+00  0.00000000000E+00 -0.14774180770E+04  0.20781214068E+04  0.14614459988E+04 0.  0.
        1    1    3    3  502    0  0.65691781074E+03  0.30109066102E+03 -0.89290843529E+03  0.11486871071E+04  0.50400001928E-02 0.  1.
       -1    1    3    3    0  502 -0.65691781074E+03 -0.30109066102E+03 -0.58450964173E+03  0.92943429973E+03  0.50400001928E-02 0. -1.
</event>
<event>
 5   0  0.6509279E-05  0.1502256E+04  0.7818609E-02  0.8882954E-01
        1   -1    0    0  501    0  0.00000000000E+00  0.00000000000E+00  0.93994879451E+03  0.93994879452E+03  0.50400001928E-02 0. -1.
       -1   -1    0    0    0  501  0.00000000000E+00  0.00000000000E+00 -0.60023861593E+03  0.60023861596E+03  0.50400001928E-02 0.  1.
    10030    2    1    2    0    0  0.00000000000E+00  0.00000000000E+00  0.33971017857E+03  0.15401874105E+04  0.15022563876E+04 0.  0.
        2    1    3    3  502    0 -0.50959602481E+01 -0.73293521879E+02 -0.59654583502E+03  0.60105311116E+03  0.25500000920E-02 0.  1.
       -2    1    3    3    0  502  0.50959602481E+01  0.73293521879E+02  0.93625601359E+03  0.93913429931E+03  0.25500000920E-02 0. -1.
</event>
<event>
 5   0  0.6509279E-05  0.1502308E+04  0.7818609E-02  0.8882920E-01
        1   -1    0    0  501    0  0.00000000000E+00  0.00000000000E+00  0.87554025097E+03  0.87554025099E+03  0.50400001928E-02 0.  1.
       -1   -1    0    0    0  501  0.00000000000E+00  0.00000000000E+00 -0.64443881616E+03  0.64443881618E+03  0.50400001928E-02 0. -1.
    10030    2    1    2    0    0  0.00000000000E+00  0.00000000000E+00  0.23110143481E+03  0.15199790672E+04  0.15023077220E+04 0.  0.
        2    1    3    3  502    0 -0.72039594871E+01  0.66698592053E+03  0.46502654675E+03  0.81312471639E+03  0.25500000920E-02 0. -1.
       -2    1    3    3    0  502  0.72039594871E+01 -0.66698592053E+03 -0.23392511194E+03  0.70685435078E+03  0.25500000920E-02 0.  1.
</event>
<event>
 5   0  0.1228286E-04  0.1500266E+04  0.7818609E-02  0.8884276E-01
        2   -1    0    0  501    0  0.00000000000E+00  0.00000000000E+00  0.10437445498E+04  0.10437445498E+04  0.25500000920E-02 0.  1.
       -2   -1    0    0    0  501  0.00000000000E+00  0.00000000000E+00 -0.53911626468E+03  0.53911626469E+03  0.25500000920E-02 0. -1.
    10030    2    1    2    0    0  0.00000000000E+00  0.00000000000E+00  0.50462828507E+03  0.15828608145E+04  0.15002661937E+04 0.  0.
        2    1    3    3  502    0 -0.20383510082E+03  0.35325716577E+03 -0.41191736610E+03  0.57966825857E+03  0.25500000920E-02 0. -1.
       -2    1    3    3    0  502  0.20383510082E+03 -0.35325716577E+03  0.91654565117E+03  0.10031925559E+04  0.25500000920E-02 0.  1.
</event>
<event>
 5   0  0.6364378E-05  0.1504008E+04  0.7818609E-02  0.8881792E-01
        1   -1    0    0  501    0  0.00000000000E+00  0.00000000000E+00  0.55940299431E+03  0.55940299433E+03  0.50400001928E-02 0. -1.
       -1   -1    0    0    0  501  0.00000000000E+00  0.00000000000E+00 -0.10109168541E+04  0.10109168541E+04  0.50400001928E-02 0.  1.
    10030    2    1    2    0    0  0.00000000000E+00  0.00000000000E+00 -0.45151385979E+03  0.15703198484E+04  0.15040078660E+04 0.  0.
        5    1    3    3  502    0  0.39006241028E+03 -0.44478364319E+02 -0.89540939685E+03  0.97770501010E+03  0.46999998093E+01 0.  1.
       -5    1    3    3    0  502 -0.39006241028E+03  0.44478364319E+02  0.44389553706E+03  0.59261483835E+03  0.46999998093E+01 0. -1.
</event>
<event>
 5   0  0.6542036E-05  0.1500506E+04  0.7818609E-02  0.8884117E-01
       -1   -1    0    0    0  501  0.00000000000E+00  0.00000000000E+00  0.72301378886E+03  0.72301378888E+03  0.50400001928E-02 0. -1.
        1   -1    0    0  501    0  0.00000000000E+00  0.00000000000E+00 -0.77851800121E+03  0.77851800123E+03  0.50400001928E-02 0.  1.
    10030    2    1    2    0    0  0.00000000000E+00  0.00000000000E+00 -0.55504212350E+02  0.15015317901E+04  0.15005055812E+04 0.  0.
        4    1    3    3  502    0 -0.58449961742E+03  0.21632527642E+03  0.39019513241E+03  0.73531645040E+03  0.12699999809E+01 0. -1.
       -4    1    3    3    0  502  0.58449961742E+03 -0.21632527642E+03 -0.44569934476E+03  0.76621533970E+03  0.12699999809E+01 0.  1.
</event>
<event>
 5   0  0.6361716E-05  0.1500432E+04  0.7818609E-02  0.8884165E-01
       -1   -1    0    0    0  501  0.00000000000E+00  0.00000000000E+00  0.37214172336E+03  0.37214172340E+03  0.50400001928E-02 0. -1.
        1   -1    0    0  501    0  0.00000000000E+00  0.00000000000E+00 -0.15123924038E+04  0.15123924039E+04  0.50400001928E-02 0.  1.
    10030    2    1    2    0    0  0.00000000000E+00  0.00000000000E+00 -0.11402506805E+04  0.18845341272E+04  0.15004323585E+04 0.  0.
        3    1    3    3  502    0 -0.47191663763E+03  0.48233403994E+03 -0.98187855732E+03  0.11914012550E+04  0.10100000352E+00 0.  1.
       -3    1    3    3    0  502  0.47191663763E+03 -0.48233403994E+03 -0.15837212316E+03  0.69313287222E+03  0.10100000352E+00 0. -1.
</event>
<event>
 5   0  0.6364378E-05  0.1499382E+04  0.7818609E-02  0.8884864E-01
        1   -1    0    0  501    0  0.00000000000E+00  0.00000000000E+00  0.19016779439E+04  0.19016779439E+04  0.50400001928E-02 0.  1.
       -1   -1    0    0    0  501  0.00000000000E+00  0.00000000000E+00 -0.29554791293E+03  0.29554791297E+03  0.50400001928E-02 0. -1.
    10030    2    1    2    0    0  0.00000000000E+00  0.00000000000E+00  0.16061300310E+04  0.21972258569E+04  0.14993824695E+04 0.  0.
        5    1    3    3  502    0  0.66047546036E+03  0.35166379763E+03  0.87053163281E+03  0.11479297339E+04  0.46999998093E+01 0. -1.
       -5    1    3    3    0  502 -0.66047546036E+03 -0.35166379763E+03  0.73559839819E+03  0.10492961230E+04  0.46999998093E+01 0.  1.
</event>
<event>
 5   0  0.1228286E-04  0.1497520E+04  0.7818609E-02  0.8886104E-01
        2   -1    0    0  501    0  0.00000000000E+00  0.00000000000E+00  0.92051389638E+03  0.92051389639E+03  0.25500000920E-02 0. -1.
       -2   -1    0    0    0  501  0.00000000000E+00  0.00000000000E+00 -0.60905296561E+03  0.60905296562E+03  0.25500000920E-02 0.  1.
    10030    2    1    2    0    0  0.00000000000E+00  0.00000000000E+00  0.31146093077E+03  0.15295668620E+04  0.14975202416E+04 0.  0.
        2    1    3    3  502    0 -0.72569861651E+03 -0.56662277642E+01  0.34398730495E+03  0.80311758424E+03  0.25500000920E-02 0.  1.
       -2    1    3    3    0  502  0.72569861651E+03  0.56662277642E+01 -0.32526374179E+02  0.72644927776E+03  0.25500000920E-02 0. -1.
</event>
<event>
 5   0  0.1228286E-04  0.1500530E+04  0.7818609E-02  0.8884101E-01
       -2   -1    0    0    0  501  0.00000000000E+00  0.00000000000E+00  0.44262786214E+03  0.44262786215E+03  0.25500000920E-02 0. -1.
        2   -1    0    0  501    0  0.00000000000E+00  0.00000000000E+00 -0.12717172933E+04  0.12717172933E+04  0.25500000920E-02 0.  1.
    10030    2    1    2    0    0  0.00000000000E+00  0.00000000000E+00 -0.82908943120E+03  0.17143451555E+04  0.15005299155E+04 0.  0.
        2    1    3    3  502    0  0.54221180774E+03  0.32345989764E+03 -0.87761053377E+03  0.10811198818E+04  0.25500000920E-02 0. -1.
       -2    1    3    3    0  502 -0.54221180774E+03 -0.32345989764E+03  0.48521102570E+02  0.63322527369E+03  0.25500000920E-02 0.  1.
</event>
<event>
 5   0  0.6542036E-05  0.1499113E+04  0.7818609E-02  0.8885043E-01
       -1   -1    0    0    0  501  0.00000000000E+00  0.00000000000E+00  0.79402753106E+03  0.79402753107E+03  0.50400001928E-02 0. -1.
        1   -1    0    0  501    0  0.00000000000E+00  0.00000000000E+00 -0.70757619828E+03  0.70757619830E+03  0.50400001928E-02 0.  1.
    10030    2    1    2    0    0  0.00000000000E+00  0.00000000000E+00  0.86451332774E+02  0.15016037294E+04  0.14991130468E+04 0.  0.
        4    1    3    3  502    0  0.52517471818E+03  0.32679496674E+03  0.46728460966E+03  0.77521606938E+03  0.12699999809E+01 0. -1.
       -4    1    3    3    0  502 -0.52517471818E+03 -0.32679496674E+03 -0.38083327689E+03  0.72638765999E+03  0.12699999809E+01 0.  1.
</event>
<event>
 5   0  0.6668433E-05  0.1499638E+04  0.7818609E-02  0.8884694E-01
        1   -1    0    0  501    0  0.00000000000E+00  0.00000000000E+00  0.24003903045E+04  0.24003903045E+04  0.50400001928E-02 0.  1.
       -1   -1    0    0    0  501  0.00000000000E+00  0.00000000000E+00 -0.23422364647E+03  0.23422364653E+03  0.50400001928E-02 0. -1.
    10030    2    1    2    0    0  0.00000000000E+00  0.00000000000E+00  0.21661666580E+04  0.26346139510E+04  0.14996375164E+04 0.  0.
        1    1    3    3  502    0  0.62237029549E+03 -0.27274311336E+03  0.52615153781E+03  0.85940039059E+03  0.50400001928E-02 0. -1.
       -1    1    3    3    0  502 -0.62237029549E+03  0.27274311336E+03  0.16400151202E+04  0.17752135604E+04  0.50400001928E-02 0.  1.
</event>
<event>
 5   0  0.6668433E-05  0.1502010E+04  0.7818609E-02  0.8883118E-01
        1   -1    0    0  501    0  0.00000000000E+00  0.00000000000E+00  0.64995276999E+03  0.64995277001E+03  0.50400001928E-02 0.  1.
       -1   -1    0    0    0  501  0.00000000000E+00  0.00000000000E+00 -0.86776795684E+03  0.86776795686E+03  0.50400001928E-02 0. -1.
    10030    2    1    2    0    0  0.00000000000E+00  0.00000000000E+00 -0.21781518685E+03  0.15177207269E+04  0.15020095703E+04 0.  0.
        1    1    3    3  502    0 -0.55134711914E+03  0.50986976607E+03 -0.11656066068E+03  0.75995869084E+03  0.50400001928E-02 0.  1.
       -1    1    3    3    0  502  0.55134711914E+03 -0.50986976607E+03 -0.10125452618E+03  0.75776203602E+03  0.50400001928E-02 0. -1.
</event>
<event>
 5   0  0.6364378E-05  0.1499281E+04  0.7818609E-02  0.8884931E-01
        1   -1    0    0  501    0  0.00000000000E+00  0.00000000000E+00  0.74627799822E+03  0.74627799824E+03  0.50400001928E-02 0. -1.
       -1   -1    0    0    0  501  0.00000000000E+00  0.00000000000E+00 -0.75301833944E+03  0.75301833945E+03  0.50400001928E-02 0.  1.
    10030    2    1    2    0    0  0.00000000000E+00  0.00000000000E+00 -0.67403412167E+01  0.14992963377E+04  0.14992811864E+04 0.  0.
        5    1    3    3  502    0 -0.29846382353E+03  0.66156449090E+03 -0.19096390900E+03  0.75049152834E+03  0.46999998093E+01 0.  1.
       -5    1    3    3    0  502  0.29846382353E+03 -0.66156449090E+03  0.18422356778E+03  0.74880480935E+03  0.46999998093E+01 0. -1.
</event>
<event>
 5   0  0.1219810E-04  0.1500750E+04  0.7818609E-02  0.8883954E-01
        2   -1    0    0  501    0  0.00000000000E+00  0.00000000000E+00  0.76713086840E+03  0.76713086841E+03  0.25500000920E-02 0. -1.
       -2   -1    0    0    0  501  0.00000000000E+00  0.00000000000E+00 -0.73398518203E+03  0.73398518204E+03  0.25500000920E-02 0.  1.
    10030    2    1    2    0    0  0.00000000000E+00  0.00000000000E+00  0.33145686367E+02  0.15011160504E+04  0.15007500659E+04 0.  0.
        1    1    3    3  502    0 -0.74320685724E+03  0.52512731176E+02  0.10574990188E+03  0.75252711670E+03  0.50400001928E-02 0. -1.
       -1    1    3    3    0  502  0.74320685724E+03 -0.52512731176E+02 -0.72604215516E+02  0.74858893375E+03  0.50400001928E-02 0.  1.
</event>
<event>
 5   0  0.1186664E-04  0.1499547E+04  0.7818609E-02  0.8884754E-01
       -2   -1    0    0    0  501  0.00000000000E+00  0.00000000000E+00  0.53339830354E+03  0.53339830355E+03  0.25500000920E-02 0.  1.
        2   -1    0    0  501    0  0.00000000000E+00  0.00000000000E+00 -0.10539225489E+04  0.10539225489E+04  0.25500000920E-02 0. -1.
    10030    2    1    2    0    0  0.00000000000E+00  0.00000000000E+00 -0.52052424536E+03  0.15873208525E+04  0.14995472646E+04 0.  0.
        3    1    3    3  502    0  0.78607536714E+02 -0.44427233808E+01 -0.10495346083E+04  0.10524836278E+04  0.10100000352E+00 0. -1.
       -3    1    3    3    0  502 -0.78607536714E+02  0.44427233808E+01  0.52901036291E+03  0.53483722466E+03  0.10100000352E+00 0.  1.
</event>
<event>
 5   0  0.1219810E-04  0.1501376E+04  0.7818609E-02  0.8883538E-01
        2   -1    0    0  501    0  0.00000000000E+00  0.00000000000E+00  0.97660065517E+03  0.97660065518E+03  0.25500000920E-02 0.  1.
       -2   -1    0    0    0  501  0.00000000000E+00  0.00000000000E+00 -0.57703481039E+03  0.57703481039E+03  0.25500000920E-02 0. -1.
    10030    2    1    2    0    0  0.00000000000E+00  0.00000000000E+00  0.39956584479E+03  0.15536354656E+04  0.15013761339E+04 0.  0.
        1    1    3    3  502    0 -0.57001603065E+03 -0.25225033777E+03 -0.23308845506E+03  0.66549134931E+03  0.50400001928E-02 0. -1.
       -1    1    3    3    0  502  0.57001603065E+03  0.25225033777E+03  0.63265429985E+03  0.88814411626E+03  0.50400001928E-02 0.  1.
</event>
<event>
 5   0  0.1186664E-04  0.1499827E+04  0.7818609E-02  0.8884568E-01
        2   -1    0    0  501    0  0.00000000000E+00  0.00000000000E+00  0.77135381952E+03  0.77135381953E+03  0.25500000920E-02 0.  1.
       -2   -1    0    0    0  501  0.00000000000E+00  0.00000000000E+00 -0.72906899216E+03  0.72906899217E+03  0.25500000920E-02 0. -1.
    10030    2    1    2    0    0  0.00000000000E+00  0.00000000000E+00  0.42284827358E+02  0.15004228117E+04  0.14998268591E+04 0.  0.
        3    1    3    3  502    0  0.51868934504E+03 -0.36315655840E+02 -0.51945428005E+03  0.73497634165E+03  0.10100000352E+00 0. -1.
       -3    1    3    3    0  502 -0.51868934504E+03  0.36315655840E+02  0.56173910741E+03  0.76544647005E+03  0.10100000352E+00 0.  1.
</event>
<event>
 5   0  0.1254487E-04  0.1512303E+04  0.7818609E-02  0.8876312E-01
        2   -1    0    0  501    0  0.00000000000E+00  0.00000000000E+00  0.72396183342E+03  0.72396183343E+03  0.25500000920E-02 0.  1.
       -2   -1    0    0    0  501  0.00000000000E+00  0.00000000000E+00 -0.78977263218E+03  0.78977263219E+03  0.25500000920E-02 0. -1.
    10030    2    1    2    0    0  0.00000000000E+00  0.00000000000E+00 -0.65810798762E+02  0.15137344656E+04  0.15123032008E+04 0.  0.
        5    1    3    3  502    0  0.65818148277E+03 -0.31261939608E+03 -0.23510995782E+03  0.76565823533E+03  0.46999998093E+01 0. -1.
       -5    1    3    3    0  502 -0.65818148277E+03  0.31261939608E+03  0.16929915906E+03  0.74807623029E+03  0.46999998093E+01 0.  1.
</event>
<event>
 5   0  0.4462875E-05  0.1500855E+04  0.7818609E-02  0.8883885E-01
        4   -1    0    0  501    0  0.00000000000E+00  0.00000000000E+00  0.10257156101E+04  0.10257163963E+04  0.12699999809E+01 0.  1.
       -4   -1    0    0    0  501  0.00000000000E+00  0.00000000000E+00 -0.54902116813E+03  0.54902263702E+03  0.12699999809E+01 0. -1.
    10030    2    1    2    0    0  0.00000000000E+00  0.00000000000E+00  0.47669444197E+03  0.15747390334E+04  0.15008549004E+04 0.  0.
        5    1    3    3  502    0 -0.10458683888E+03  0.92782637472E+02  0.10119152654E+04  0.10215388485E+04  0.46999998093E+01 0.  1.
       -5    1    3    3    0  502  0.10458683888E+03 -0.92782637472E+02 -0.53522082342E+03  0.55320018484E+03  0.46999998093E+01 0. -1.
</event>
<event>
 5   0  0.6361716E-05  0.1495421E+04  0.7818609E-02  0.8887503E-01
        1   -1    0    0  501    0  0.00000000000E+00  0.00000000000E+00  0.85583912934E+03  0.85583912936E+03  0.50400001928E-02 0. -1.
       -1   -1    0    0    0  501  0.00000000000E+00  0.00000000000E+00 -0.65324347728E+03  0.65324347729E+03  0.50400001928E-02 0.  1.
    10030    2    1    2    0    0  0.00000000000E+00  0.00000000000E+00  0.20259565207E+03  0.15090826067E+04  0.14954214508E+04 0.  0.
        3    1    3    3  502    0 -0.43093272499E+03 -0.60661817744E+03  0.17533488740E+03  0.76448084319E+03  0.10100000352E+00 0.  1.
       -3    1    3    3    0  502  0.43093272499E+03  0.60661817744E+03  0.27260764669E+02  0.74460176346E+03  0.10100000352E+00 0. -1.
</event>
<event>
 5   0  0.1219810E-04  0.1500233E+04  0.7818609E-02  0.8884298E-01
        2   -1    0    0  501    0  0.00000000000E+00  0.00000000000E+00  0.11964914347E+04  0.11964914347E+04  0.25500000920E-02 0.  1.
       -2   -1    0    0    0  501  0.00000000000E+00  0.00000000000E+00 -0.47027056116E+03  0.47027056117E+03  0.25500000920E-02 0. -1.
    10030    2    1    2    0    0  0.00000000000E+00  0.00000000000E+00  0.72622087356E+03  0.16667619959E+04  0.15002329132E+04 0.  0.
        1    1    3    3  502    0 -0.47128791084E+03  0.23380511827E+03  0.95715651427E+03  0.10922113903E+04  0.50400001928E-02 0.  1.
       -1    1    3    3    0  502  0.47128791084E+03 -0.23380511827E+03 -0.23093564071E+03  0.57455060561E+03  0.50400001928E-02 0. -1.
</event>
<event>
 5   0  0.6361716E-05  0.1506066E+04  0.7818609E-02  0.8880429E-01
       -1   -1    0    0    0  501  0.00000000000E+00  0.00000000000E+00  0.40908095453E+03  0.40908095456E+03  0.50400001928E-02 0. -1.
        1   -1    0    0  501    0  0.00000000000E+00  0.00000000000E+00 -0.13861780379E+04  0.13861780379E+04  0.50400001928E-02 0.  1.
    10030    2    1    2    0    0  0.00000000000E+00  0.00000000000E+00 -0.97709708336E+03  0.17952589925E+04  0.15060664460E+04 0.  0.
        3    1    3    3  502    0  0.75142295034E+03 -0.21233609177E+02 -0.54147883582E+03  0.92643761598E+03  0.10100000352E+00 0.  1.
       -3    1    3    3    0  502 -0.75142295034E+03  0.21233609177E+02 -0.43561824754E+03  0.86882137649E+03  0.10100000352E+00 0. -1.
</event>
<event>
 5   0  0.6509279E-05  0.1500968E+04  0.7818609E-02  0.8883809E-01
        1   -1    0    0  501    0  0.00000000000E+00  0.00000000000E+00  0.19135297817E+04  0.19135297817E+04  0.50400001928E-02 0.  1.
       -1   -1    0    0    0  501  0.00000000000E+00  0.00000000000E+00 -0.29433890440E+03  0.29433890445E+03  0.50400001928E-02 0. -1.
    10030    2    1    2    0    0  0.00000000000E+00  0.00000000000E+00  0.16191908773E+04  0.22078686862E+04  0.15009680337E+04 0.  0.
        2    1    3    3  502    0  0.49834233204E+03 -0.53230586773E+03  0.10707965955E+04  0.12954921712E+04  0.25500000920E-02 0.  1.
       -2    1    3    3    0  502 -0.49834233204E+03  0.53230586773E+03  0.54839428179E+03  0.91237651495E+03  0.25500000920E-02 0. -1.
</event>
<event>
 5   0  0.6542036E-05  0.1502159E+04  0.7818609E-02  0.8883019E-01
        1   -1    0    0  501    0  0.00000000000E+00  0.00000000000E+00  0.12803818657E+04  0.12803818657E+04  0.50400001928E-02 0. -1.
       -1   -1    0    0    0  501  0.00000000000E+00  0.00000000000E+00 -0.44058750013E+03  0.44058750016E+03  0.50400001928E-02 0.  1.
    10030    2    1    2    0    0  0.00000000000E+00  0.00000000000E+00  0.83979436553E+03  0.17209693658E+04  0.15021587738E+04 0.  0.
        4    1    3    3  502    0  0.24015582067E+03 -0.71164631017E+03  0.42199207375E+03  0.86150694262E+03  0.12699999809E+01 0.  1.
       -4    1    3    3    0  502 -0.24015582067E+03  0.71164631017E+03  0.41780229178E+03  0.85946242320E+03  0.12699999809E+01 0. -1.
</event>
<event>
 5   0  0.1216921E-04  0.1498118E+04  0.7818609E-02  0.8885705E-01
       -2   -1    0    0    0  501  0.00000000000E+00  0.00000000000E+00  0.11513535386E+04  0.11513535386E+04  0.25500000920E-02 0.  1.
        2   -1    0    0  501    0  0.00000000000E+00  0.00000000000E+00 -0.48733048956E+03  0.48733048957E+03  0.25500000920E-02 0. -1.
    10030    2    1    2    0    0  0.00000000000E+00  0.00000000000E+00  0.66402304907E+03  0.16386840282E+04  0.14981183981E+04 0.  0.
        4    1    3    3  502    0 -0.25541611777E+03  0.47515794491E+03  0.90046085856E+03  0.10496874947E+04  0.12699999809E+01 0.  1.
       -4    1    3    3    0  502  0.25541611777E+03 -0.47515794491E+03 -0.23643780949E+03  0.58899653351E+03  0.12699999809E+01 0. -1.
</event>
<event>
 5   0  0.4462875E-05  0.1499042E+04  0.7818609E-02  0.8885090E-01
        3   -1    0    0  501    0  0.00000000000E+00  0.00000000000E+00  0.80251342065E+03  0.80251342701E+03  0.10100000352E+00 0.  1.
       -3   -1    0    0    0  501  0.00000000000E+00  0.00000000000E+00 -0.70002781819E+03  0.70002782547E+03  0.10100000352E+00 0. -1.
    10030    2    1    2    0    0  0.00000000000E+00  0.00000000000E+00  0.10248560246E+03  0.15025412525E+04  0.14990419996E+04 0.  0.
        2    1    3    3  502    0  0.23574687941E+03  0.47013117110E+03  0.58651356325E+03  0.78778047011E+03  0.25500000920E-02 0.  1.
       -2    1    3    3    0  502 -0.23574687941E+03 -0.47013117110E+03 -0.48402796079E+03  0.71476078238E+03  0.25500000920E-02 0. -1.
</event>
<event>
 5   0  0.6364378E-05  0.1498482E+04  0.7818609E-02  0.8885463E-01
        1   -1    0    0  501    0  0.00000000000E+00  0.00000000000E+00  0.12925711118E+04  0.12925711118E+04  0.50400001928E-02 0.  1.
       -1   -1    0    0    0  501  0.00000000000E+00  0.00000000000E+00 -0.43429891017E+03  0.43429891020E+03  0.50400001928E-02 0. -1.
    10030    2    1    2    0    0  0.00000000000E+00  0.00000000000E+00  0.85827220158E+03  0.17268700220E+04  0.14984821990E+04 0.  0.
        5    1    3    3  502    0  0.20056936643E+03  0.54636577841E+03  0.97284598533E+03  0.11336644282E+04  0.46999998093E+01 0.  1.
       -5    1    3    3    0  502 -0.20056936643E+03 -0.54636577841E+03 -0.11457378375E+03  0.59320559377E+03  0.46999998093E+01 0. -1.
</event>
<event>
 5   0  0.6364378E-05  0.1499410E+04  0.7818609E-02  0.8884845E-01
        1   -1    0    0  501    0  0.00000000000E+00  0.00000000000E+00  0.12121687781E+04  0.12121687781E+04  0.50400001928E-02 0.  1.
       -1   -1    0    0    0  501  0.00000000000E+00  0.00000000000E+00 -0.46367944223E+03  0.46367944225E+03  0.50400001928E-02 0. -1.
    10030    2    1    2    0    0  0.00000000000E+00  0.00000000000E+00  0.74848933584E+03  0.16758482203E+04  0.14994102080E+04 0.  0.
        5    1    3    3  502    0 -0.38523233840E+03 -0.24384749435E+02 -0.34406008724E+03  0.51710540916E+03  0.46999998093E+01 0. -1.
       -5    1    3    3    0  502  0.38523233840E+03  0.24384749435E+02  0.10925494231E+04  0.11587428112E+04  0.46999998093E+01 0.  1.
</event>
<event>
 5   0  0.1254487E-04  0.1495377E+04  0.7818609E-02  0.8887533E-01
        2   -1    0    0  501    0  0.00000000000E+00  0.00000000000E+00  0.96785286361E+03  0.96785286361E+03  0.25500000920E-02 0. -1.
       -2   -1    0    0    0  501  0.00000000000E+00  0.00000000000E+00 -0.57760633411E+03  0.57760633412E+03  0.25500000920E-02 0.  1.
    10030    2    1    2    0    0  0.00000000000E+00  0.00000000000E+00  0.39024652950E+03  0.15454591977E+04  0.14953768014E+04 0.  0.
        5    1    3    3  502    0 -0.25036684247E+02 -0.38425776837E+03 -0.46722705985E+03  0.60547839232E+03  0.46999998093E+01 0.  1.
       -5    1    3    3    0  502  0.25036684247E+02  0.38425776837E+03  0.85747358935E+03  0.93998080541E+03  0.46999998093E+01 0. -1.
</event>
<event>
 5   0  0.1219810E-04  0.1490369E+04  0.7818609E-02  0.8890883E-01
        2   -1    0    0  501    0  0.00000000000E+00  0.00000000000E+00  0.24504479857E+04  0.24504479857E+04  0.25500000920E-02 0. -1.
       -2   -1    0    0    0  501  0.00000000000E+00  0.00000000000E+00 -0.22661161585E+03  0.22661161586E+03  0.25500000920E-02 0.  1.
    10030    2    1    2    0    0  0.00000000000E+00  0.00000000000E+00  0.22238363699E+04  0.26770596016E+04  0.14903690518E+04 0.  0.
        1    1    3    3  502    0 -0.69448431425E+03 -0.23899224050E+03  0.13382316877E+04  0.15265286777E+04  0.50400001928E-02 0. -1.
       -1    1    3    3    0  502  0.69448431425E+03  0.23899224050E+03  0.88560468215E+03  0.11505309239E+04  0.50400001928E-02 0.  1.
</event>
<event>
 5   0  0.6509279E-05  0.1505415E+04  0.7818609E-02  0.8880860E-01
        1   -1    0    0  501    0  0.00000000000E+00  0.00000000000E+00  0.11987671983E+04  0.11987671983E+04  0.50400001928E-02 0.  1.
       -1   -1    0    0    0  501  0.00000000000E+00  0.00000000000E+00 -0.47262589400E+03  0.47262589403E+03  0.50400001928E-02 0. -1.
    10030    2    1    2    0    0  0.00000000000E+00  0.00000000000E+00  0.72614130429E+03  0.16713930923E+04  0.15054147851E+04 0.  0.
        2    1    3    3  502    0 -0.24575868034E+03 -0.20321037645E+03  0.11200626424E+04  0.11645737885E+04  0.25500000920E-02 0.  1.
       -2    1    3    3    0  502  0.24575868034E+03  0.20321037645E+03 -0.39392133811E+03  0.50681930378E+03  0.25500000920E-02 0. -1.
</event>
<event>
 5   0  0.4462875E-05  0.1513334E+04  0.7818609E-02  0.8875634E-01
       -4   -1    0    0    0  501  0.00000000000E+00  0.00000000000E+00  0.10351820448E+04  0.10351828238E+04  0.12699999809E+01 0. -1.
        4   -1    0    0  501    0  0.00000000000E+00  0.00000000000E+00 -0.55308463880E+03  0.55308609690E+03  0.12699999809E+01 0.  1.
    10030    2    1    2    0    0  0.00000000000E+00  0.00000000000E+00  0.48209740599E+03  0.15882689207E+04  0.15133341520E+04 0.  0.
        5    1    3    3  502    0 -0.36726710569E+02  0.47275688211E+03  0.85988527173E+03  0.98197387510E+03  0.46999998093E+01 0. -1.
       -5    1    3    3    0  502  0.36726710569E+02 -0.47275688211E+03 -0.37778786574E+03  0.60629504562E+03  0.46999998093E+01 0.  1.
</event>
<event>
 5   0  0.1219810E-04  0.1508969E+04  0.7818609E-02  0.8878510E-01
        2   -1    0    0  501    0  0.00000000000E+00  0.00000000000E+00  0.13459607546E+04  0.13459607546E+04  0.25500000920E-02 0. -1.
       -2   -1    0    0    0  501  0.00000000000E+00  0.00000000000E+00 -0.42292983144E+03  0.42292983144E+03  0.25500000920E-02 0.  1.
    10030    2    1    2    0    0  0.00000000000E+00  0.00000000000E+00  0.92303092320E+03  0.17688905861E+04  0.15089691250E+04 0.  0.
        1    1    3    3  502    0  0.90113585069E+02  0.30877860734E+03  0.12615561829E+04  0.13019173127E+04  0.50400001928E-02 0. -1.
       -1    1    3    3    0  502 -0.90113585069E+02 -0.30877860734E+03 -0.33852525968E+03  0.46697327336E+03  0.50400001928E-02 0.  1.
</event>
<event>
 5   0  0.1219810E-04  0.1500118E+04  0.7818609E-02  0.8884375E-01
       -2   -1    0    0    0  501  0.00000000000E+00  0.00000000000E+00  0.20764407221E+03  0.20764407223E+03  0.25500000920E-02 0. -1.
        2   -1    0    0  501    0  0.00000000000E+00  0.00000000000E+00 -0.27093870466E+04  0.27093870466E+04  0.25500000920E-02 0.  1.
    10030    2    1    2    0    0  0.00000000000E+00  0.00000000000E+00 -0.25017429744E+04  0.29170311188E+04  0.15001175415E+04 0.  0.
        1    1    3    3  502    0  0.15430943338E+03  0.49993367900E+03 -0.20579818663E+03  0.56222591391E+03  0.50400001928E-02 0. -1.
       -1    1    3    3    0  502 -0.15430943338E+03 -0.49993367900E+03 -0.22959447877E+04  0.23548052049E+04  0.50400001928E-02 0.  1.
</event>
<event>
 5   0  0.1186664E-04  0.1500288E+04  0.7818609E-02  0.8884262E-01
        2   -1    0    0  501    0  0.00000000000E+00  0.00000000000E+00  0.81680035440E+03  0.81680035440E+03  0.25500000920E-02 0.  1.
       -2   -1    0    0    0  501  0.00000000000E+00  0.00000000000E+00 -0.68892687214E+03  0.68892687214E+03  0.25500000920E-02 0. -1.
    10030    2    1    2    0    0  0.00000000000E+00  0.00000000000E+00  0.12787348226E+03  0.15057272265E+04  0.15002875902E+04 0.  0.
        3    1    3    3  502    0 -0.23343552572E+02  0.53079457962E+03 -0.46753771127E+03  0.70772828745E+03  0.10100000352E+00 0. -1.
       -3    1    3    3    0  502  0.23343552572E+02 -0.53079457962E+03  0.59541119353E+03  0.79799893909E+03  0.10100000352E+00 0.  1.
</event>
<event>
 5   0  0.6542036E-05  0.1496791E+04  0.7818609E-02  0.8886590E-01
        1   -1    0    0  501    0  0.00000000000E+00  0.00000000000E+00  0.16011463280E+04  0.16011463280E+04  0.50400001928E-02 0.  1.
       -1   -1    0    0    0  501  0.00000000000E+00  0.00000000000E+00 -0.34980905073E+03  0.34980905076E+03  0.50400001928E-02 0. -1.
    10030    2    1    2    0    0  0.00000000000E+00  0.00000000000E+00  0.12513372773E+04  0.19509553788E+04  0.14967905359E+04 0.  0.
        4    1    3    3  502    0  0.93362778203E+02 -0.17039123569E+03 -0.31636117492E+03  0.37126242397E+03  0.12699999809E+01 0. -1.
       -4    1    3    3    0  502 -0.93362778203E+02  0.17039123569E+03  0.15676984522E+04  0.15796929548E+04  0.12699999809E+01 0.  1.
</event>
<event>
 5   0  0.6542036E-05  0.1502906E+04  0.7818609E-02  0.8882523E-01
        1   -1    0    0  501    0  0.00000000000E+00  0.00000000000E+00  0.61230887317E+03  0.61230887319E+03  0.50400001928E-02 0. -1.
       -1   -1    0    0    0  501  0.00000000000E+00  0.00000000000E+00 -0.92221667782E+03  0.92221667784E+03  0.50400001928E-02 0.  1.
    10030    2    1    2    0    0  0.00000000000E+00  0.00000000000E+00 -0.30990780465E+03  0.15345255510E+04  0.15029057919E+04 0.  0.
        4    1    3    3  502    0  0.42974252924E+03  0.42749205021E+03 -0.60842832413E+03  0.85884499937E+03  0.12699999809E+01 0.  1.
       -4    1    3    3    0  502 -0.42974252924E+03 -0.42749205021E+03  0.29852051949E+03  0.67568055166E+03  0.12699999809E+01 0. -1.
</event>
<event>
 5   0  0.6668433E-05  0.1499506E+04  0.7818609E-02  0.8884781E-01
       -1   -1    0    0    0  501  0.00000000000E+00  0.00000000000E+00  0.31837127195E+03  0.31837127199E+03  0.50400001928E-02 0. -1.
        1   -1    0    0  501    0  0.00000000000E+00  0.00000000000E+00 -0.17656421280E+04  0.17656421280E+04  0.50400001928E-02 0.  1.
    10030    2    1    2    0    0  0.00000000000E+00  0.00000000000E+00 -0.14472708560E+04  0.20840133999E+04  0.14995062256E+04 0.  0.
        1    1    3    3  502    0 -0.57047881590E+03 -0.87651354162E+02 -0.13887107292E+04  0.15038770989E+04  0.50400001928E-02 0.  1.
       -1    1    3    3    0  502  0.57047881590E+03  0.87651354162E+02 -0.58560126800E+02  0.58013630101E+03  0.50400001928E-02 0. -1.
</event>
<event>
 5   0  0.1254487E-04  0.1502087E+04  0.7818609E-02  0.8883066E-01
        2   -1    0    0  501    0  0.00000000000E+00  0.00000000000E+00  0.20027288779E+04  0.20027288779E+04  0.25500000920E-02 0.  1.
       -2   -1    0    0    0  501  0.00000000000E+00  0.00000000000E+00 -0.28164891242E+03  0.28164891243E+03  0.25500000920E-02 0. -1.
    10030    2    1    2    0    0  0.00000000000E+00  0.00000000000E+00  0.17210799655E+04  0.22843777904E+04  0.15020870952E+04 0.  0.
        5    1    3    3  502    0  0.32951725470E+03 -0.12813715385E+03  0.18682292296E+04  0.19013950920E+04  0.46999998093E+01 0.  1.
       -5    1    3    3    0  502 -0.32951725470E+03  0.12813715385E+03 -0.14714926411E+03  0.38298269840E+03  0.46999998093E+01 0. -1.
</event>
<event>
 5   0  0.6361716E-05  0.1499130E+04  0.7818609E-02  0.8885031E-01
        1   -1    0    0  501    0  0.00000000000E+00  0.00000000000E+00  0.74207173948E+03  0.74207173950E+03  0.50400001928E-02 0. -1.
       -1   -1    0    0    0  501  0.00000000000E+00  0.00000000000E+00 -0.75713438683E+03  0.75713438685E+03  0.50400001928E-02 0.  1.
    10030    2    1    2    0    0  0.00000000000E+00  0.00000000000E+00 -0.15062647350E+02  0.14992061264E+04  0.14991304566E+04 0.  0.
        3    1    3    3  502    0  0.57505711179E+03  0.13546793732E+03 -0.46886337441E+03  0.75423810426E+03  0.10100000352E+00 0.  1.
       -3    1    3    3    0  502 -0.57505711179E+03 -0.13546793732E+03  0.45380072706E+03  0.74496802209E+03  0.10100000352E+00 0. -1.
</event>
<event>
 5   0  0.4462875E-05  0.1484949E+04  0.7818609E-02  0.8894524E-01
       -4   -1    0    0    0  501  0.00000000000E+00  0.00000000000E+00  0.46868018040E+03  0.46868190108E+03  0.12699999809E+01 0.  1.
        4   -1    0    0  501    0  0.00000000000E+00  0.00000000000E+00 -0.11762099495E+04  0.11762106352E+04  0.12699999809E+01 0. -1.
    10030    2    1    2    0    0  0.00000000000E+00  0.00000000000E+00 -0.70752976913E+03  0.16448925363E+04  0.14849488481E+04 0.  0.
        2    1    3    3  502    0  0.16618891449E+03  0.22125608751E+03  0.40942654236E+03  0.49416910582E+03  0.25500000920E-02 0.  1.
       -2    1    3    3    0  502 -0.16618891449E+03 -0.22125608751E+03 -0.11169563115E+04  0.11507234304E+04  0.25500000920E-02 0. -1.
</event>
<event>
 5   0  0.1219810E-04  0.1505199E+04  0.7818609E-02  0.8881003E-01
       -2   -1    0    0    0  501  0.00000000000E+00  0.00000000000E+00  0.37795109610E+03  0.37795109611E+03  0.25500000920E-02 0. -1.
        2   -1    0    0  501    0  0.00000000000E+00  0.00000000000E+00 -0.14986232768E+04  0.14986232768E+04  0.25500000920E-02 0.  1.
    10030    2    1    2    0    0  0.00000000000E+00  0.00000000000E+00 -0.11206721807E+04  0.18765743730E+04  0.15051994023E+04 0.  0.
        1    1    3    3  502    0  0.48403481126E+03  0.45861654310E+03 -0.99542004020E+03  0.11981151399E+04  0.50400001928E-02 0.  1.
       -1    1    3    3    0  502 -0.48403481126E+03 -0.45861654310E+03 -0.12525214054E+03  0.67845923301E+03  0.50400001928E-02 0. -1.
</event>
<event>
 5   0  0.1216921E-04  0.1501309E+04  0.7818609E-02  0.8883583E-01
       -2   -1    0    0    0  501  0.00000000000E+00  0.00000000000E+00  0.76277069876E+03  0.76277069876E+03  0.25500000920E-02 0. -1.
        2   -1    0    0  501    0  0.00000000000E+00  0.00000000000E+00 -0.73873045426E+03  0.73873045427E+03  0.25500000920E-02 0.  1.
    10030    2    1    2    0    0  0.00000000000E+00  0.00000000000E+00  0.24040244494E+02  0.15015011530E+04  0.15013086888E+04 0.  0.
        4    1    3    3  502    0  0.23858399396E+03  0.21485064741E+03 -0.66659262464E+03  0.73988543910E+03  0.12699999809E+01 0.  1.
       -4    1    3    3    0  502 -0.23858399396E+03 -0.21485064741E+03  0.69063286914E+03  0.76161571393E+03  0.12699999809E+01 0. -1.
</event>
<event>
 5   0  0.1254487E-04  0.1498291E+04  0.7818609E-02  0.8885590E-01
        2   -1    0    0  501    0  0.00000000000E+00  0.00000000000E+00  0.61372741702E+03  0.61372741703E+03  0.25500000920E-02 0. -1.
       -2   -1    0    0    0  501  0.00000000000E+00  0.00000000000E+00 -0.91444314790E+03  0.91444314790E+03  0.25500000920E-02 0.  1.
    10030    2    1    2    0    0  0.00000000000E+00  0.00000000000E+00 -0.30071573088E+03  0.15281705649E+04  0.14982908011E+04 0.  0.
        5    1    3    3  502    0  0.62407357201E+03  0.95126628924E+02  0.26102158013E+03  0.68313340871E+03  0.46999998093E+01 0. -1.
       -5    1    3    3    0  502 -0.62407357201E+03 -0.95126628924E+02 -0.56173731101E+03  0.84503715622E+03  0.46999998093E+01 0.  1.
</event>
<event>
 5   0  0.6542036E-05  0.1523232E+04  0.7818609E-02  0.8869149E-01
       -1   -1    0    0    0  501  0.00000000000E+00  0.00000000000E+00  0.68497701130E+03  0.68497701132E+03  0.50400001928E-02 0.  1.
        1   -1    0    0  501    0  0.00000000000E+00  0.00000000000E+00 -0.84682959643E+03  0.84682959644E+03  0.50400001928E-02 0. -1.
    10030    2    1    2    0    0  0.00000000000E+00  0.00000000000E+00 -0.16185258512E+03  0.15318066078E+04  0.15232318354E+04 0.  0.
        4    1    3    3  502    0 -0.22243353032E+03 -0.51061790315E+03 -0.60332132823E+03  0.82110021095E+03  0.12699999809E+01 0.  1.
       -4    1    3    3    0  502  0.22243353032E+03  0.51061790315E+03  0.44146874311E+03  0.71070639681E+03  0.12699999809E+01 0. -1.
</event>
<event>
 5   0  0.1219810E-04  0.1499571E+04  0.7818609E-02  0.8884738E-01
        2   -1    0    0  501    0  0.00000000000E+00  0.00000000000E+00  0.11859033100E+04  0.11859033100E+04  0.25500000920E-02 0.  1.
       -2   -1    0    0    0  501  0.00000000000E+00  0.00000000000E+00 -0.47405069323E+03  0.47405069324E+03  0.25500000920E-02 0. -1.
    10030    2    1    2    0    0  0.00000000000E+00  0.00000000000E+00  0.71185261673E+03  0.16599540032E+04  0.14995709869E+04 0.  0.
        1    1    3    3  502    0 -0.82485200946E+01 -0.70628323872E+03  0.63437326509E+03  0.94938584931E+03  0.50400001928E-02 0. -1.
       -1    1    3    3    0  502  0.82485200946E+01  0.70628323872E+03  0.77479351645E+02  0.71056815390E+03  0.50400001928E-02 0.  1.
</event>
<event>
 5   0  0.6542036E-05  0.1500237E+04  0.7818609E-02  0.8884295E-01
        1   -1    0    0  501    0  0.00000000000E+00  0.00000000000E+00  0.52490322903E+03  0.52490322906E+03  0.50400001928E-02 0.  1.
       -1   -1    0    0    0  501  0.00000000000E+00  0.00000000000E+00 -0.10719650005E+04  0.10719650005E+04  0.50400001928E-02 0. -1.
    10030    2    1    2    0    0  0.00000000000E+00  0.00000000000E+00 -0.54706177144E+03  0.15968682295E+04  0.15002371682E+04 0.  0.
        4    1    3    3  502    0 -0.36880911535E+03 -0.24121632622E+02  0.42125631466E+03  0.56041102083E+03  0.12699999809E+01 0.  1.
       -4    1    3    3    0  502  0.36880911535E+03  0.24121632622E+02 -0.96831808609E+03  0.10364572087E+04  0.12699999809E+01 0. -1.
</event>
<event>
 5   0  0.6509279E-05  0.1507473E+04  0.7818609E-02  0.8879498E-01
       -1   -1    0    0    0  501  0.00000000000E+00  0.00000000000E+00  0.70552781373E+03  0.70552781375E+03  0.50400001928E-02 0.  1.
        1   -1    0    0  501    0  0.00000000000E+00  0.00000000000E+00 -0.80523966663E+03  0.80523966665E+03  0.50400001928E-02 0. -1.
    10030    2    1    2    0    0  0.00000000000E+00  0.00000000000E+00 -0.99711852900E+02  0.15107674804E+04  0.15074733584E+04 0.  0.
        2    1    3    3  502    0 -0.82861459485E+02 -0.74654507966E+03 -0.11262988317E+03  0.75952687117E+03  0.25500000920E-02 0. -1.
       -2    1    3    3    0  502  0.82861459485E+02  0.74654507966E+03  0.12918030275E+02  0.75124060923E+03  0.25500000920E-02 0.  1.
</event>
<event>
 5   0  0.6509279E-05  0.1499236E+04  0.7818609E-02  0.8884961E-01
       -1   -1    0    0    0  501  0.00000000000E+00  0.00000000000E+00  0.97809874402E+03  0.97809874403E+03  0.50400001928E-02 0.  1.
        1   -1    0    0  501    0  0.00000000000E+00  0.00000000000E+00 -0.57450963365E+03  0.57450963367E+03  0.50400001928E-02 0. -1.
    10030    2    1    2    0    0  0.00000000000E+00  0.00000000000E+00  0.40358911037E+03  0.15526083777E+04  0.14992360069E+04 0.  0.
        2    1    3    3  502    0  0.22223813939E+03 -0.19338706895E+03 -0.51204756583E+03  0.59074618807E+03  0.25500000920E-02 0. -1.
       -2    1    3    3    0  502 -0.22223813939E+03  0.19338706895E+03  0.91563667620E+03  0.96186218964E+03  0.25500000920E-02 0.  1.
</event>
<event>
 5   0  0.6668433E-05  0.1500237E+04  0.7818609E-02  0.8884296E-01
       -1   -1    0    0    0  501  0.00000000000E+00  0.00000000000E+00  0.11199259087E+04  0.11199259087E+04  0.50400001928E-02 0.  1.
        1   -1    0    0  501    0  0.00000000000E+00  0.00000000000E+00 -0.50242392203E+03  0.50242392206E+03  0.50400001928E-02 0. -1.
    10030    2    1    2    0    0  0.00000000000E+00  0.00000000000E+00  0.61750198669E+03  0.16223498308E+04  0.15002367379E+04 0.  0.
        1    1    3    3  502    0  0.28632629237E+03  0.58693198527E+03 -0.90349531797E+02  0.65926848776E+03  0.50400001928E-02 0.  1.
       -1    1    3    3    0  502 -0.28632629237E+03 -0.58693198527E+03  0.70785151848E+03  0.96308134302E+03  0.50400001928E-02 0. -1.
</event>
<event>
 5   0  0.6542036E-05  0.1495716E+04  0.7818609E-02  0.8887307E-01
        1   -1    0    0  501    0  0.00000000000E+00  0.00000000000E+00  0.80358527372E+03  0.80358527374E+03  0.50400001928E-02 0. -1.
       -1   -1    0    0    0  501  0.00000000000E+00  0.00000000000E+00 -0.69599563815E+03  0.69599563817E+03  0.50400001928E-02 0.  1.
    10030    2    1    2    0    0  0.00000000000E+00  0.00000000000E+00  0.10758963557E+03  0.14995809119E+04  0.14957163440E+04 0.  0.
        4    1    3    3  502    0  0.52991330521E+03 -0.32967246189E+03 -0.35933561862E+03  0.72014980586E+03  0.12699999809E+01 0.  1.
       -4    1    3    3    0  502 -0.52991330521E+03  0.32967246189E+03  0.46692525420E+03  0.77943110605E+03  0.12699999809E+01 0. -1.
</event>
<event>
 5   0  0.1216921E-04  0.1506639E+04  0.7818609E-02  0.8880050E-01
        2   -1    0    0  501    0  0.00000000000E+00  0.00000000000E+00  0.15163757165E+04  0.15163757165E+04  0.25500000920E-02 0.  1.
       -2   -1    0    0    0  501  0.00000000000E+00  0.00000000000E+00 -0.37424100298E+03  0.37424100299E+03  0.25500000920E-02 0. -1.
    10030    2    1    2    0    0  0.00000000000E+00  0.00000000000E+00  0.11421347135E+04  0.18906167195E+04  0.15066386017E+04 0.  0.
        4    1    3    3  502    0 -0.34475843613E+03  0.18735387317E+03  0.13780182906E+04  0.14327930329E+04  0.12699999809E+01 0.  1.
       -4    1    3    3    0  502  0.34475843613E+03 -0.18735387317E+03 -0.23588357713E+03  0.45782368651E+03  0.12699999809E+01 0. -1.
</event>
<event>
 5   0  0.1216921E-04  0.1462086E+04  0.7818609E-02  0.8910064E-01
       -2   -1    0    0    0  501  0.00000000000E+00  0.00000000000E+00  0.48983912813E+03  0.48983912814E+03  0.25500000920E-02 0. -1.
        2   -1    0    0  501    0  0.00000000000E+00  0.00000000000E+00 -0.10910196636E+04  0.10910196636E+04  0.25500000920E-02 0.  1.
    10030    2    1    2    0    0  0.00000000000E+00  0.00000000000E+00 -0.60118053546E+03  0.15808587917E+04  0.14620863460E+04 0.  0.
        4    1    3    3  502    0 -0.25020815203E+03 -0.30190411963E+03  0.36651702824E+03  0.53673695762E+03  0.12699999809E+01 0. -1.
       -4    1    3    3    0  502  0.25020815203E+03  0.30190411963E+03 -0.96769756370E+03  0.10441218341E+04  0.12699999809E+01 0.  1.
</event>
<event>
 5   0  0.6364378E-05  0.1499887E+04  0.7818609E-02  0.8884528E-01
       -1   -1    0    0    0  501  0.00000000000E+00  0.00000000000E+00  0.99002508100E+03  0.99002508102E+03  0.50400001928E-02 0.  1.
        1   -1    0    0  501    0  0.00000000000E+00  0.00000000000E+00 -0.56808217894E+03  0.56808217897E+03  0.50400001928E-02 0. -1.
    10030    2    1    2    0    0  0.00000000000E+00  0.00000000000E+00  0.42194290206E+03  0.15581072600E+04  0.14998874694E+04 0.  0.
        5    1    3    3  502    0 -0.11623871863E+03 -0.53121198881E+03  0.74744318273E+03  0.92433274213E+03  0.46999998093E+01 0.  1.
       -5    1    3    3    0  502  0.11623871863E+03  0.53121198881E+03 -0.32550028067E+03  0.63377451785E+03  0.46999998093E+01 0. -1.
</event>
<event>
 5   0  0.1228286E-04  0.1498814E+04  0.7818609E-02  0.8885242E-01
        2   -1    0    0  501    0  0.00000000000E+00  0.00000000000E+00  0.17705121725E+04  0.17705121725E+04  0.25500000920E-02 0.  1.
       -2   -1    0    0    0  501  0.00000000000E+00  0.00000000000E+00 -0.31720231744E+03  0.31720231745E+03  0.25500000920E-02 0. -1.
    10030    2    1    2    0    0  0.00000000000E+00  0.00000000000E+00  0.14533098551E+04  0.20877144900E+04  0.14988136164E+04 0.  0.
        2    1    3    3  502    0  0.51824004980E+02  0.55504853000E+03  0.29021894647E+02  0.55821758170E+03  0.25500000920E-02 0. -1.
       -2    1    3    3    0  502 -0.51824004980E+02 -0.55504853000E+03  0.14242879604E+04  0.15294969083E+04  0.25500000920E-02 0.  1.
</event>
<event>
 5   0  0.6364378E-05  0.1497544E+04  0.7818609E-02  0.8886088E-01
        1   -1    0    0  501    0  0.00000000000E+00  0.00000000000E+00  0.56992708969E+03  0.56992708971E+03  0.50400001928E-02 0. -1.
       -1   -1    0    0    0  501  0.00000000000E+00  0.00000000000E+00 -0.98373862788E+03  0.98373862789E+03  0.50400001928E-02 0.  1.
    10030    2    1    2    0    0  0.00000000000E+00  0.00000000000E+00 -0.41381153819E+03  0.15536657176E+04  0.14975437132E+04 0.  0.
        5    1    3    3  502    0  0.31705322639E+03  0.30282430453E+01  0.49682523554E+03  0.58939742389E+03  0.46999998093E+01 0. -1.
       -5    1    3    3    0  502 -0.31705322639E+03 -0.30282430453E+01 -0.91063677373E+03  0.96426829372E+03  0.46999998093E+01 0.  1.
</event>
<event>
 5   0  0.1219810E-04  0.1498236E+04  0.7818609E-02  0.8885627E-01
        2   -1    0    0  501    0  0.00000000000E+00  0.00000000000E+00  0.93796625630E+03  0.93796625631E+03  0.25500000920E-02 0.  1.
       -2   -1    0    0    0  501  0.00000000000E+00  0.00000000000E+00 -0.59829178386E+03  0.59829178387E+03  0.25500000920E-02 0. -1.
    10030    2    1    2    0    0  0.00000000000E+00  0.00000000000E+00  0.33967447244E+03  0.15362580402E+04  0.14982356353E+04 0.  0.
        1    1    3    3  502    0  0.45569007771E+03 -0.16255450229E+03  0.75627830853E+03  0.89779412624E+03  0.50400001928E-02 0.  1.
       -1    1    3    3    0  502 -0.45569007771E+03  0.16255450229E+03 -0.41660383609E+03  0.63846391394E+03  0.50400001928E-02 0. -1.
</event>
<event>
 5   0  0.1216921E-04  0.1496224E+04  0.7818609E-02  0.8886968E-01
        2   -1    0    0  501    0  0.00000000000E+00  0.00000000000E+00  0.46560509709E+03  0.46560509710E+03  0.25500000920E-02 0. -1.
       -2   -1    0    0    0  501  0.00000000000E+00  0.00000000000E+00 -0.12020299831E+04  0.12020299831E+04  0.25500000920E-02 0.  1.
    10030    2    1    2    0    0  0.00000000000E+00  0.00000000000E+00 -0.73642488600E+03  0.16676350802E+04  0.14962236290E+04 0.  0.
        4    1    3    3  502    0 -0.26488452148E+03  0.68578976864E+03 -0.21378110986E+03  0.76562091947E+03  0.12699999809E+01 0. -1.
       -4    1    3    3    0  502  0.26488452148E+03 -0.68578976864E+03 -0.52264377614E+03  0.90201416072E+03  0.12699999809E+01 0.  1.
</event>
<event>
 5   0  0.6364378E-05  0.1500006E+04  0.7818609E-02  0.8884449E-01
       -1   -1    0    0    0  501  0.00000000000E+00  0.00000000000E+00  0.68715344818E+03  0.68715344820E+03  0.50400001928E-02 0. -1.
        1   -1    0    0  501    0  0.00000000000E+00  0.00000000000E+00 -0.81860055147E+03  0.81860055149E+03  0.50400001928E-02 0.  1.
    10030    2    1    2    0    0  0.00000000000E+00  0.00000000000E+00 -0.13144710329E+03  0.15057539997E+04  0.15000055889E+04 0.  0.
        5    1    3    3  502    0 -0.16727085079E+03  0.28677052899E+03 -0.74080744675E+03  0.81180948318E+03  0.46999998093E+01 0.  1.
       -5    1    3    3    0  502  0.16727085079E+03 -0.28677052899E+03  0.60936034346E+03  0.69394451651E+03  0.46999998093E+01 0. -1.
</event>
<event>
 5   0  0.1216921E-04  0.1499950E+04  0.7818609E-02  0.8884486E-01
       -2   -1    0    0    0  501  0.00000000000E+00  0.00000000000E+00  0.21536208882E+03  0.21536208884E+03  0.25500000920E-02 0.  1.
        2   -1    0    0  501    0  0.00000000000E+00  0.00000000000E+00 -0.26117074662E+04  0.26117074662E+04  0.25500000920E-02 0. -1.
    10030    2    1    2    0    0  0.00000000000E+00  0.00000000000E+00 -0.23963453774E+04  0.28270695550E+04  0.14999503663E+04 0.  0.
        4    1    3    3  502    0  0.70085663056E+02 -0.29993588347E+02 -0.26043838324E+04  0.26054996402E+04  0.12699999809E+01 0. -1.
       -4    1    3    3    0  502 -0.70085663056E+02  0.29993588347E+02  0.20803845503E+03  0.22156991487E+03  0.12699999809E+01 0.  1.
</event>
<event>
 5   0  0.1254487E-04  0.1501283E+04  0.7818609E-02  0.8883600E-01
        2   -1    0    0  501    0  0.00000000000E+00  0.00000000000E+00  0.83822082767E+03  0.83822082767E+03  0.25500000920E-02 0.  1.
       -2   -1    0    0    0  501  0.00000000000E+00  0.00000000000E+00 -0.67221311530E+03  0.67221311531E+03  0.25500000920E-02 0. -1.
    10030    2    1    2    0    0  0.00000000000E+00  0.00000000000E+00  0.16600771236E+03  0.15104339430E+04  0.15012834961E+04 0.  0.
        5    1    3    3  502    0 -0.45448387455E+03  0.94662440204E+02 -0.51044248096E+03  0.68999288850E+03  0.46999998093E+01 0. -1.
       -5    1    3    3    0  502  0.45448387455E+03 -0.94662440204E+02  0.67645019333E+03  0.82044105447E+03  0.46999998093E+01 0.  1.
</event>
<event>
 5   0  0.1219810E-04  0.1499854E+04  0.7818609E-02  0.8884550E-01
       -2   -1    0    0    0  501  0.00000000000E+00  0.00000000000E+00  0.64097964331E+03  0.64097964331E+03  0.25500000920E-02 0.  1.
        2   -1    0    0  501    0  0.00000000000E+00  0.00000000000E+00 -0.87739213126E+03  0.87739213126E+03  0.25500000920E-02 0. -1.
    10030    2    1    2    0    0  0.00000000000E+00  0.00000000000E+00 -0.23641248795E+03  0.15183717746E+04  0.14998539867E+04 0.  0.
        1    1    3    3  502    0 -0.45164587638E+03  0.74957983256E+02 -0.71949892579E+03  0.85280795092E+03  0.50400001928E-02 0. -1.
       -1    1    3    3    0  502  0.45164587638E+03 -0.74957983256E+02  0.48308643785E+03  0.66556382366E+03  0.50400001928E-02 0.  1.
</event>
<event>
 5   0  0.6542036E-05  0.1501812E+04  0.7818609E-02  0.8883249E-01
        1   -1    0    0  501    0  0.00000000000E+00  0.00000000000E+00  0.15497953379E+04  0.15497953379E+04  0.50400001928E-02 0. -1.
       -1   -1    0    0    0  501  0.00000000000E+00  0.00000000000E+00 -0.36382846913E+03  0.36382846917E+03  0.50400001928E-02 0.  1.
    10030    2    1    2    0    0  0.00000000000E+00  0.00000000000E+00  0.11859668688E+04  0.19136238071E+04  0.15018117929E+04 0.  0.
        4    1    3    3  502    0  0.64998023738E+03  0.37394500041E+03  0.64313101161E+03  0.98789082560E+03  0.12699999809E+01 0.  1.
       -4    1    3    3    0  502 -0.64998023738E+03 -0.37394500041E+03  0.54283585719E+03  0.92573298151E+03  0.12699999809E+01 0. -1.
</event>
<event>
 5   0  0.1219810E-04  0.1499933E+04  0.7818609E-02  0.8884497E-01
        2   -1    0    0  501    0  0.00000000000E+00  0.00000000000E+00  0.16792922667E+04  0.16792922667E+04  0.25500000920E-02 0. -1.
       -2   -1    0    0    0  501  0.00000000000E+00  0.00000000000E+00 -0.33493282524E+03  0.33493282525E+03  0.25500000920E-02 0.  1.
    10030    2    1    2    0    0  0.00000000000E+00  0.00000000000E+00  0.13443594415E+04  0.20142250920E+04  0.14999334696E+04 0.  0.
        1    1    3    3  502    0  0.91398399705E+02 -0.56865835210E+03  0.13172135611E+04  0.14376291436E+04  0.50400001928E-02 0. -1.
       -1    1    3    3    0  502 -0.91398399705E+02  0.56865835210E+03  0.27145880403E+02  0.57659594842E+03  0.50400001928E-02 0.  1.
</event>
<event>
 5   0  0.6509279E-05  0.1500081E+04  0.7818609E-02  0.8884399E-01
       -1   -1    0    0    0  501  0.00000000000E+00  0.00000000000E+00  0.10337177668E+04  0.10337177668E+04  0.50400001928E-02 0.  1.
        1   -1    0    0  501    0  0.00000000000E+00  0.00000000000E+00 -0.54421151572E+03  0.54421151574E+03  0.50400001928E-02 0. -1.
    10030    2    1    2    0    0  0.00000000000E+00  0.00000000000E+00  0.48950625110E+03  0.15779292826E+04  0.15000814814E+04 0.  0.
        2    1    3    3  502    0 -0.24288718585E+03  0.70945867420E+03  0.22861698738E+03  0.78395887798E+03  0.25500000920E-02 0.  1.
       -2    1    3    3    0  502  0.24288718585E+03 -0.70945867420E+03  0.26088926372E+03  0.79397040460E+03  0.25500000920E-02 0. -1.
</event>
<event>
 5   0  0.1186664E-04  0.1500359E+04  0.7818609E-02  0.8884214E-01
       -2   -1    0    0    0  501  0.00000000000E+00  0.00000000000E+00  0.49421184183E+03  0.49421184183E+03  0.25500000920E-02 0.  1.
        2   -1    0    0  501    0  0.00000000000E+00  0.00000000000E+00 -0.11387202863E+04  0.11387202863E+04  0.25500000920E-02 0. -1.
    10030    2    1    2    0    0  0.00000000000E+00  0.00000000000E+00 -0.64450844449E+03  0.16329321282E+04  0.15003586905E+04 0.  0.
        3    1    3    3  502    0 -0.31230394952E+03 -0.14205387204E+03  0.40381889329E+03  0.52988939245E+03  0.10100000352E+00 0.  1.
       -3    1    3    3    0  502  0.31230394952E+03  0.14205387204E+03 -0.10483273378E+04  0.11030427357E+04  0.10100000352E+00 0. -1.
</event>
<event>
 5   0  0.6542036E-05  0.1501555E+04  0.7818609E-02  0.8883419E-01
       -1   -1    0    0    0  501  0.00000000000E+00  0.00000000000E+00  0.10101292051E+04  0.10101292051E+04  0.50400001928E-02 0. -1.
        1   -1    0    0  501    0  0.00000000000E+00  0.00000000000E+00 -0.55801471744E+03  0.55801471746E+03  0.50400001928E-02 0.  1.
    10030    2    1    2    0    0  0.00000000000E+00  0.00000000000E+00  0.45211448766E+03  0.15681439226E+04  0.15015551445E+04 0.  0.
        4    1    3    3  502    0 -0.49231880904E+03  0.23589217960E+03  0.76431878056E+03  0.93925914494E+03  0.12699999809E+01 0. -1.
       -4    1    3    3    0  502  0.49231880904E+03 -0.23589217960E+03 -0.31220429290E+03  0.62888477763E+03  0.12699999809E+01 0.  1.
</event>
<event>
 5   0  0.6668433E-05  0.1499880E+04  0.7818609E-02  0.8884533E-01
       -1   -1    0    0    0  501  0.00000000000E+00  0.00000000000E+00  0.11686468022E+04  0.11686468022E+04  0.50400001928E-02 0. -1.
        1   -1    0    0  501    0  0.00000000000E+00  0.00000000000E+00 -0.48124887393E+03  0.48124887396E+03  0.50400001928E-02 0.  1.
    10030    2    1    2    0    0  0.00000000000E+00  0.00000000000E+00  0.68739792828E+03  0.16498956762E+04  0.14998799387E+04 0.  0.
        1    1    3    3  502    0  0.61016617428E+03  0.16456671129E+03 -0.10044839655E+03  0.63990221369E+03  0.50400001928E-02 0. -1.
       -1    1    3    3    0  502 -0.61016617428E+03 -0.16456671129E+03  0.78784632483E+03  0.10099934625E+04  0.50400001928E-02 0.  1.
</event>
<event>
 5   0  0.1186664E-04  0.1500493E+04  0.7818609E-02  0.8884125E-01
        2   -1    0    0  501    0  0.00000000000E+00  0.00000000000E+00  0.84566182038E+03  0.84566182039E+03  0.25500000920E-02 0.  1.
       -2   -1    0    0    0  501  0.00000000000E+00  0.00000000000E+00 -0.66559656285E+03  0.66559656286E+03  0.25500000920E-02 0. -1.
    10030    2    1    2    0    0  0.00000000000E+00  0.00000000000E+00  0.18006525753E+03  0.15112583832E+04  0.15004927204E+04 0.  0.
        3    1    3    3  502    0  0.55581811174E+03  0.14237293905E+03  0.57689069825E+03  0.81363795083E+03  0.10100000352E+00 0.  1.
       -3    1    3    3    0  502 -0.55581811174E+03 -0.14237293905E+03 -0.39682544072E+03  0.69762043241E+03  0.10100000352E+00 0. -1.
</event>
<event>
 5   0  0.1216921E-04  0.1499214E+04  0.7818609E-02  0.8884976E-01
       -2   -1    0    0    0  501  0.00000000000E+00  0.00000000000E+00  0.27947130163E+03  0.27947130165E+03  0.25500000920E-02 0. -1.
        2   -1    0    0  501    0  0.00000000000E+00  0.00000000000E+00 -0.20106194368E+04  0.20106194368E+04  0.25500000920E-02 0.  1.
    10030    2    1    2    0    0  0.00000000000E+00  0.00000000000E+00 -0.17311481351E+04  0.22900907384E+04  0.14992137020E+04 0.  0.
        4    1    3    3  502    0  0.18350432514E+03  0.45003312976E+03 -0.17373431630E+04  0.18040417219E+04  0.12699999809E+01 0.  1.
       -4    1    3    3    0  502 -0.18350432514E+03 -0.45003312976E+03  0.61950278899E+01  0.48604901655E+03  0.12699999809E+01 0. -1.
</event>
<event>
 5   0  0.4462875E-05  0.1499703E+04  0.7818609E-02  0.8884650E-01
       -3   -1    0    0    0  501  0.00000000000E+00  0.00000000000E+00  0.10491613916E+04  0.10491613965E+04  0.10100000352E+00 0.  1.
        3   -1    0    0  501    0  0.00000000000E+00  0.00000000000E+00 -0.53593026221E+03  0.53593027173E+03  0.10100000352E+00 0. -1.
    10030    2    1    2    0    0  0.00000000000E+00  0.00000000000E+00  0.51323112943E+03  0.15850916682E+04  0.14997031054E+04 0.  0.
        2    1    3    3  502    0 -0.53956960072E+03 -0.34405233128E+03  0.66972785737E+03  0.92630597732E+03  0.25500000920E-02 0.  1.
       -2    1    3    3    0  502  0.53956960072E+03  0.34405233128E+03 -0.15649672794E+03  0.65878569091E+03  0.25500000920E-02 0. -1.
</event>
<event>
 5   0  0.1219810E-04  0.1501425E+04  0.7818609E-02  0.8883506E-01
       -2   -1    0    0    0  501  0.00000000000E+00  0.00000000000E+00  0.42930735453E+03  0.42930735453E+03  0.25500000920E-02 0. -1.
        2   -1    0    0  501    0  0.00000000000E+00  0.00000000000E+00 -0.13127402592E+04  0.13127402592E+04  0.25500000920E-02 0.  1.
    10030    2    1    2    0    0  0.00000000000E+00  0.00000000000E+00 -0.88343290471E+03  0.17420476138E+04  0.15014247206E+04 0.  0.
        1    1    3    3  502    0 -0.59240778325E+03 -0.16591394682E+03  0.57459168319E+02  0.61788022743E+03  0.50400001928E-02 0. -1.
       -1    1    3    3    0  502  0.59240778325E+03  0.16591394682E+03 -0.94089207303E+03  0.11241673863E+04  0.50400001928E-02 0.  1.
</event>
<event>
 5   0  0.1186664E-04  0.1501420E+04  0.7818609E-02  0.8883509E-01
        2   -1    0    0  501    0  0.00000000000E+00  0.00000000000E+00  0.77492682906E+03  0.77492682906E+03  0.25500000920E-02 0.  1.
       -2   -1    0    0    0  501  0.00000000000E+00  0.00000000000E+00 -0.72725030679E+03  0.72725030679E+03  0.25500000920E-02 0. -1.
    10030    2    1    2    0    0  0.00000000000E+00  0.00000000000E+00  0.47676522266E+02  0.15021771359E+04  0.15014203598E+04 0.  0.
        3    1    3    3  502    0  0.60480452527E+03 -0.96479739413E+02 -0.41051061908E+03  0.73730308047E+03  0.10100000352E+00 0. -1.
       -3    1    3    3    0  502 -0.60480452527E+03  0.96479739413E+02  0.45818714135E+03  0.76487405538E+03  0.10100000352E+00 0.  1.
</event>
<event>
 5   0  0.6668433E-05  0.1499882E+04  0.7818609E-02  0.8884531E-01
       -1   -1    0    0    0  501  0.00000000000E+00  0.00000000000E+00  0.13545506944E+04  0.13545506944E+04  0.50400001928E-02 0.  1.
        1   -1    0    0  501    0  0.00000000000E+00  0.00000000000E+00 -0.41520165565E+03  0.41520165568E+03  0.50400001928E-02 0. -1.
    10030    2    1    2    0    0  0.00000000000E+00  0.00000000000E+00  0.93934903870E+03  0.17697523500E+04  0.14998822500E+04 0.  0.
        1    1    3    3  502    0 -0.72171059348E+03  0.16666547794E+03  0.60812446529E+03  0.95836262844E+03  0.50400001928E-02 0.  1.
       -1    1    3    3    0  502  0.72171059348E+03 -0.16666547794E+03  0.33122457342E+03  0.81138972161E+03  0.50400001928E-02 0. -1.
</event>
<event>
 5   0  0.6668433E-05  0.1499843E+04  0.7818609E-02  0.8884557E-01
       -1   -1    0    0    0  501  0.00000000000E+00  0.00000000000E+00  0.16213657601E+04  0.16213657601E+04  0.50400001928E-02 0.  1.
        1   -1    0    0  501    0  0.00000000000E+00  0.00000000000E+00 -0.34685701944E+03  0.34685701947E+03  0.50400001928E-02 0. -1.
    10030    2    1    2    0    0  0.00000000000E+00  0.00000000000E+00  0.12745087406E+04  0.19682227796E+04  0.14998427851E+04 0.  0.
        1    1    3    3  502    0 -0.19551480017E+03 -0.49004587185E+03  0.13366069378E+04  0.14369721986E+04  0.50400001928E-02 0.  1.
       -1    1    3    3    0  502  0.19551480017E+03  0.49004587185E+03 -0.62098197123E+02  0.53125058091E+03  0.50400001928E-02 0. -1.
</event>
<event>
 5   0  0.6361716E-05  0.1497206E+04  0.7818609E-02  0.8886313E-01
        1   -1    0    0  501    0  0.00000000000E+00  0.00000000000E+00  0.80711808062E+03  0.80711808063E+03  0.50400001928E-02 0. -1.
       -1   -1    0    0    0  501  0.00000000000E+00  0.00000000000E+00 -0.69433039526E+03  0.69433039528E+03  0.50400001928E-02 0.  1.
    10030    2    1    2    0    0  0.00000000000E+00  0.00000000000E+00  0.11278768536E+03  0.15014484759E+04  0.14972062195E+04 0.  0.
        3    1    3    3  502    0 -0.46724080312E+03  0.48307807493E+03  0.38706775399E+03  0.77556421459E+03  0.10100000352E+00 0.  1.
       -3    1    3    3    0  502  0.46724080312E+03 -0.48307807493E+03 -0.27428006864E+03  0.72588426132E+03  0.10100000352E+00 0. -1.
</event>
<event>
 5   0  0.6364378E-05  0.1498824E+04  0.7818609E-02  0.8885235E-01
       -1   -1    0    0    0  501  0.00000000000E+00  0.00000000000E+00  0.20525217953E+03  0.20525217960E+03  0.50400001928E-02 0.  1.
        1   -1    0    0  501    0  0.00000000000E+00  0.00000000000E+00 -0.27362354276E+04  0.27362354276E+04  0.50400001928E-02 0. -1.
    10030    2    1    2    0    0  0.00000000000E+00  0.00000000000E+00 -0.25309832481E+04  0.29414876072E+04  0.14988239194E+04 0.  0.
        5    1    3    3  502    0  0.37788573786E+03  0.45968890279E+03 -0.37154945901E+03  0.70155727401E+03  0.46999998093E+01 0.  1.
       -5    1    3    3    0  502 -0.37788573786E+03 -0.45968890279E+03 -0.21594337891E+04  0.22399303332E+04  0.46999998093E+01 0. -1.
</event>
<event>
 5   0  0.6364378E-05  0.1501124E+04  0.7818609E-02  0.8883706E-01
        1   -1    0    0  501    0  0.00000000000E+00  0.00000000000E+00  0.16137061098E+04  0.16137061099E+04  0.50400001928E-02 0. -1.
       -1   -1    0    0    0  501  0.00000000000E+00  0.00000000000E+00 -0.34909927230E+03  0.34909927233E+03  0.50400001928E-02 0.  1.
    10030    2    1    2    0    0  0.00000000000E+00  0.00000000000E+00  0.12646068375E+04  0.19628053822E+04  0.15011244168E+04 0.  0.
        5    1    3    3  502    0 -0.25997473807E+03  0.64984053253E+03  0.98665360894E+03  0.12097053427E+04  0.46999998093E+01 0.  1.
       -5    1    3    3    0  502  0.25997473807E+03 -0.64984053253E+03  0.27795322861E+03  0.75310003947E+03  0.46999998093E+01 0. -1.
</event>
<event>
 5   0  0.1216921E-04  0.1500643E+04  0.7818609E-02  0.8884026E-01
        2   -1    0    0  501    0  0.00000000000E+00  0.00000000000E+00  0.58496444998E+03  0.58496444999E+03  0.25500000920E-02 0. -1.
       -2   -1    0    0    0  501  0.00000000000E+00  0.00000000000E+00 -0.96242123683E+03  0.96242123683E+03  0.25500000920E-02 0.  1.
    10030    2    1    2    0    0  0.00000000000E+00  0.00000000000E+00 -0.37745678685E+03  0.15473856868E+04  0.15006428082E+04 0.  0.
        4    1    3    3  502    0 -0.20910498446E+03  0.55583430661E+03 -0.66160184682E+03  0.88904178054E+03  0.12699999809E+01 0.  1.
       -4    1    3    3    0  502  0.20910498446E+03 -0.55583430661E+03  0.28414505997E+03  0.65834390628E+03  0.12699999809E+01 0. -1.
</event>
<event>
 5   0  0.1219810E-04  0.1497318E+04  0.7818609E-02  0.8886238E-01
        2   -1    0    0  501    0  0.00000000000E+00  0.00000000000E+00  0.11818742433E+04  0.11818742433E+04  0.25500000920E-02 0.  1.
       -2   -1    0    0    0  501  0.00000000000E+00  0.00000000000E+00 -0.47423882001E+03  0.47423882002E+03  0.25500000920E-02 0. -1.
    10030    2    1    2    0    0  0.00000000000E+00  0.00000000000E+00  0.70763542328E+03  0.16561130633E+04  0.14973184652E+04 0.  0.
        1    1    3    3  502    0 -0.25340400997E+02  0.70124911390E+03  0.64244912074E+03  0.95138495281E+03  0.50400001928E-02 0.  1.
       -1    1    3    3    0  502  0.25340400997E+02 -0.70124911390E+03  0.65186302540E+02  0.70472811050E+03  0.50400001928E-02 0. -1.
</event>
<event>
 5   0  0.6509279E-05  0.1499135E+04  0.7818609E-02  0.8885028E-01
       -1   -1    0    0    0  501  0.00000000000E+00  0.00000000000E+00  0.23686222609E+03  0.23686222615E+03  0.50400001928E-02 0.  1.
        1   -1    0    0  501    0  0.00000000000E+00  0.00000000000E+00 -0.23720615126E+04  0.23720615126E+04  0.50400001928E-02 0. -1.
    10030    2    1    2    0    0  0.00000000000E+00  0.00000000000E+00 -0.21351992865E+04  0.26089237387E+04  0.14991354447E+04 0.  0.
        2    1    3    3  502    0  0.11783009376E+02  0.34530132461E+03  0.90023760925E+02  0.35703798345E+03  0.25500000920E-02 0.  1.
       -2    1    3    3    0  502 -0.11783009376E+02 -0.34530132461E+03 -0.22252230474E+04  0.22518857553E+04  0.25500000920E-02 0. -1.
</event>
<event>
 5   0  0.1254487E-04  0.1498219E+04  0.7818609E-02  0.8885638E-01
        2   -1    0    0  501    0  0.00000000000E+00  0.00000000000E+00  0.58033499674E+03  0.58033499674E+03  0.25500000920E-02 0.  1.
       -2   -1    0    0    0  501  0.00000000000E+00  0.00000000000E+00 -0.96696691657E+03  0.96696691658E+03  0.25500000920E-02 0. -1.
    10030    2    1    2    0    0  0.00000000000E+00  0.00000000000E+00 -0.38663191984E+03  0.15473019133E+04  0.14982185987E+04 0.  0.
        5    1    3    3  502    0 -0.62408804324E+03 -0.37713525733E+03 -0.16156741829E+02  0.72938331373E+03  0.46999998093E+01 0. -1.
       -5    1    3    3    0  502  0.62408804324E+03  0.37713525733E+03 -0.37047517801E+03  0.81791859959E+03  0.46999998093E+01 0.  1.
</event>
<event>
 5   0  0.6509279E-05  0.1501770E+04  0.7818609E-02  0.8883277E-01
        1   -1    0    0  501    0  0.00000000000E+00  0.00000000000E+00  0.13993464744E+04  0.13993464744E+04  0.50400001928E-02 0. -1.
       -1   -1    0    0    0  501  0.00000000000E+00  0.00000000000E+00 -0.40292256776E+03  0.40292256780E+03  0.50400001928E-02 0.  1.
    10030    2    1    2    0    0  0.00000000000E+00  0.00000000000E+00  0.99642390663E+03  0.18022690422E+04  0.15017699886E+04 0.  0.
        2    1    3    3  502    0 -0.22630871902E+03  0.44202314159E+03  0.11741425131E+04  0.12748375328E+04  0.25500000920E-02 0. -1.
       -2    1    3    3    0  502  0.22630871902E+03 -0.44202314159E+03 -0.17771860647E+03  0.52743150939E+03  0.25500000920E-02 0.  1.
</event>
<event>
 5   0  0.1228286E-04  0.1501766E+04  0.7818609E-02  0.8883279E-01
        2   -1    0    0  501    0  0.00000000000E+00  0.00000000000E+00  0.78874672880E+03  0.78874672881E+03  0.25500000920E-02 0. -1.
       -2   -1    0    0    0  501  0.00000000000E+00  0.00000000000E+00 -0.71483686484E+03  0.71483686484E+03  0.25500000920E-02 0.  1.
    10030    2    1    2    0    0  0.00000000000E+00  0.00000000000E+00  0.73909863961E+02  0.15035835937E+04  0.15017659455E+04 0.  0.
        2    1    3    3  502    0 -0.25595829204E+03 -0.48307537392E+03 -0.47839981885E+03  0.72645911849E+03  0.25500000920E-02 0.  1.
       -2    1    3    3    0  502  0.25595829204E+03  0.48307537392E+03  0.55230968281E+03  0.77712447516E+03  0.25500000920E-02 0. -1.
</event>
<event>
 5   0  0.1186664E-04  0.1498683E+04  0.7818609E-02  0.8885329E-01
       -2   -1    0    0    0  501  0.00000000000E+00  0.00000000000E+00  0.30279531571E+03  0.30279531572E+03  0.25500000920E-02 0.  1.
        2   -1    0    0  501    0  0.00000000000E+00  0.00000000000E+00 -0.18544302987E+04  0.18544302987E+04  0.25500000920E-02 0. -1.
    10030    2    1    2    0    0  0.00000000000E+00  0.00000000000E+00 -0.15516349830E+04  0.21572256144E+04  0.14986831657E+04 0.  0.
        3    1    3    3  502    0 -0.36422420794E+03  0.19062676409E+03 -0.16776249994E+04  0.17272589515E+04  0.10100000352E+00 0. -1.
       -3    1    3    3    0  502  0.36422420794E+03 -0.19062676409E+03  0.12599001634E+03  0.42996666296E+03  0.10100000352E+00 0.  1.
</event>
<event>
 5   0  0.1219810E-04  0.1499216E+04  0.7818609E-02  0.8884975E-01
        2   -1    0    0  501    0  0.00000000000E+00  0.00000000000E+00  0.57676631913E+03  0.57676631914E+03  0.25500000920E-02 0. -1.
       -2   -1    0    0    0  501  0.00000000000E+00  0.00000000000E+00 -0.97424560606E+03  0.97424560607E+03  0.25500000920E-02 0.  1.
    10030    2    1    2    0    0  0.00000000000E+00  0.00000000000E+00 -0.39747928693E+03  0.15510119252E+04  0.14992158646E+04 0.  0.
        1    1    3    3  502    0  0.69364866743E+03 -0.19876409760E+03  0.11394534015E+02  0.72165467902E+03  0.50400001928E-02 0. -1.
       -1    1    3    3    0  502 -0.69364866743E+03  0.19876409760E+03 -0.40887382095E+03  0.82935724619E+03  0.50400001928E-02 0.  1.
</event>
<event>
 5   0  0.1216921E-04  0.1500634E+04  0.7818609E-02  0.8884031E-01
        2   -1    0    0  501    0  0.00000000000E+00  0.00000000000E+00  0.67127219647E+03  0.67127219648E+03  0.25500000920E-02 0. -1.
       -2   -1    0    0    0  501  0.00000000000E+00  0.00000000000E+00 -0.83867016128E+03  0.83867016128E+03  0.25500000920E-02 0.  1.
    10030    2    1    2    0    0  0.00000000000E+00  0.00000000000E+00 -0.16739796481E+03  0.15099423578E+04  0.15006344809E+04 0.  0.
        4    1    3    3  502    0 -0.48903673926E+01 -0.40580530921E+02  0.67015004964E+03  0.67139660195E+03  0.12699999809E+01 0. -1.
       -4    1    3    3    0  502  0.48903673926E+01  0.40580530921E+02 -0.83754801444E+03  0.83854575581E+03  0.12699999809E+01 0.  1.
</event>
<event>
 5   0  0.6364378E-05  0.1499550E+04  0.7818609E-02  0.8884752E-01
        1   -1    0    0  501    0  0.00000000000E+00  0.00000000000E+00  0.65982837027E+03  0.65982837029E+03  0.50400001928E-02 0.  1.
       -1   -1    0    0    0  501  0.00000000000E+00  0.00000000000E+00 -0.85198254877E+03  0.85198254879E+03  0.50400001928E-02 0. -1.
    10030    2    1    2    0    0  0.00000000000E+00  0.00000000000E+00 -0.19215417851E+03  0.15118109191E+04  0.14995496080E+04 0.  0.
        5    1    3    3  502    0 -0.37319610488E+03 -0.64724379723E+03 -0.15936216958E+03  0.76394911928E+03  0.46999998093E+01 0. -1.
       -5    1    3    3    0  502  0.37319610488E+03  0.64724379723E+03 -0.32792008928E+02  0.74786179980E+03  0.46999998093E+01 0.  1.
</event>
<event>
 5   0  0.6542036E-05  0.1494089E+04  0.7818609E-02  0.8888393E-01
        1   -1    0    0  501    0  0.00000000000E+00  0.00000000000E+00  0.78172522331E+03  0.78172522333E+03  0.50400001928E-02 0. -1.
       -1   -1    0    0    0  501  0.00000000000E+00  0.00000000000E+00 -0.71390222956E+03  0.71390222958E+03  0.50400001928E-02 0.  1.
    10030    2    1    2    0    0  0.00000000000E+00  0.00000000000E+00  0.67822993746E+02  0.14956274529E+04  0.14940888593E+04 0.  0.
        4    1    3    3  502    0 -0.35940811807E+03 -0.21567146346E+02 -0.62131157718E+03  0.71810098591E+03  0.12699999809E+01 0.  1.
       -4    1    3    3    0  502  0.35940811807E+03  0.21567146346E+02  0.68913457092E+03  0.77752646699E+03  0.12699999809E+01 0. -1.
</event>
<event>
 5   0  0.4462875E-05  0.1455398E+04  0.7818609E-02  0.8914667E-01
        3   -1    0    0  501    0  0.00000000000E+00  0.00000000000E+00  0.57515443031E+03  0.57515443918E+03  0.10100000352E+00 0. -1.
       -3   -1    0    0    0  501  0.00000000000E+00  0.00000000000E+00 -0.92070147595E+03  0.92070148149E+03  0.10100000352E+00 0.  1.
    10030    2    1    2    0    0  0.00000000000E+00  0.00000000000E+00 -0.34554704564E+03  0.14958559207E+04  0.14553976002E+04 0.  0.
        2    1    3    3  502    0 -0.46342513543E+03  0.53108499500E+03 -0.35872109162E+03  0.79088238673E+03  0.25500000920E-02 0.  1.
       -2    1    3    3    0  502  0.46342513543E+03 -0.53108499500E+03  0.13174045982E+02  0.70497353394E+03  0.25500000920E-02 0. -1.
</event>
<event>
 5   0  0.1186664E-04  0.1500276E+04  0.7818609E-02  0.8884269E-01
        2   -1    0    0  501    0  0.00000000000E+00  0.00000000000E+00  0.20906076671E+04  0.20906076671E+04  0.25500000920E-02 0.  1.
       -2   -1    0    0    0  501  0.00000000000E+00  0.00000000000E+00 -0.26915954963E+03  0.26915954965E+03  0.25500000920E-02 0. -1.
    10030    2    1    2    0    0  0.00000000000E+00  0.00000000000E+00  0.18214481174E+04  0.23597672167E+04  0.15002759988E+04 0.  0.
        3    1    3    3  502    0  0.47906170106E+03  0.22033810133E+03  0.71535197769E+02  0.53213371162E+03  0.10100000352E+00 0. -1.
       -3    1    3    3    0  502 -0.47906170106E+03 -0.22033810133E+03  0.17499129196E+04  0.18276335051E+04  0.10100000352E+00 0.  1.
</event>
<event>
 5   0  0.1228286E-04  0.1499449E+04  0.7818609E-02  0.8884820E-01
        2   -1    0    0  501    0  0.00000000000E+00  0.00000000000E+00  0.78370237550E+03  0.78370237550E+03  0.25500000920E-02 0.  1.
       -2   -1    0    0    0  501  0.00000000000E+00  0.00000000000E+00 -0.71721930045E+03  0.71721930045E+03  0.25500000920E-02 0. -1.
    10030    2    1    2    0    0  0.00000000000E+00  0.00000000000E+00  0.66483075045E+02  0.15009216760E+04  0.14994485247E+04 0.  0.
        2    1    3    3  502    0 -0.59250328599E+03 -0.27336608050E+03 -0.33630583031E+03  0.73409179902E+03  0.25500000920E-02 0. -1.
       -2    1    3    3    0  502  0.59250328599E+03  0.27336608050E+03  0.40278890535E+03  0.76682987694E+03  0.25500000920E-02 0.  1.
</event>
<event>
 5   0  0.1254487E-04  0.1497925E+04  0.7818609E-02  0.8885834E-01
       -2   -1    0    0    0  501  0.00000000000E+00  0.00000000000E+00  0.48408991883E+03  0.48408991883E+03  0.25500000920E-02 0.  1.
        2   -1    0    0  501    0  0.00000000000E+00  0.00000000000E+00 -0.11587611971E+04  0.11587611971E+04  0.25500000920E-02 0. -1.
    10030    2    1    2    0    0  0.00000000000E+00  0.00000000000E+00 -0.67467127831E+03  0.16428511160E+04  0.14979247162E+04 0.  0.
        5    1    3    3  502    0  0.42120044152E+03 -0.54035968282E+03 -0.55359205645E+01  0.68516504228E+03  0.46999998093E+01 0.  1.
       -5    1    3    3    0  502 -0.42120044152E+03  0.54035968282E+03 -0.66913535775E+03  0.95768607369E+03  0.46999998093E+01 0. -1.
</event>
<event>
 5   0  0.6542036E-05  0.1496887E+04  0.7818609E-02  0.8886526E-01
       -1   -1    0    0    0  501  0.00000000000E+00  0.00000000000E+00  0.35755969945E+03  0.35755969949E+03  0.50400001928E-02 0.  1.
        1   -1    0    0  501    0  0.00000000000E+00  0.00000000000E+00 -0.15666408824E+04  0.15666408824E+04  0.50400001928E-02 0. -1.
    10030    2    1    2    0    0  0.00000000000E+00  0.00000000000E+00 -0.12090811830E+04  0.19242005819E+04  0.14968869605E+04 0.  0.
        4    1    3    3  502    0 -0.17343607141E+02 -0.32881991372E+03 -0.14685269891E+04  0.15049905205E+04  0.12699999809E+01 0. -1.
       -4    1    3    3    0  502  0.17343607141E+02  0.32881991372E+03  0.25944580609E+03  0.41921006139E+03  0.12699999809E+01 0.  1.
</event>
<event>
 5   0  0.6668433E-05  0.1502221E+04  0.7818609E-02  0.8882978E-01
        1   -1    0    0  501    0  0.00000000000E+00  0.00000000000E+00  0.59620024327E+03  0.59620024329E+03  0.50400001928E-02 0.  1.
       -1   -1    0    0    0  501  0.00000000000E+00  0.00000000000E+00 -0.94627051970E+03  0.94627051971E+03  0.50400001928E-02 0. -1.
    10030    2    1    2    0    0  0.00000000000E+00  0.00000000000E+00 -0.35007027643E+03  0.15424707630E+04  0.15022206417E+04 0.  0.
        1    1    3    3  502    0  0.34209678409E+03  0.61533021796E+03  0.93712756765E+02  0.71024190782E+03  0.50400001928E-02 0.  1.
       -1    1    3    3    0  502 -0.34209678409E+03 -0.61533021796E+03 -0.44378303319E+03  0.83222885518E+03  0.50400001928E-02 0. -1.
</event>
<event>
 5   0  0.1228286E-04  0.1496513E+04  0.7818609E-02  0.8886775E-01
       -2   -1    0    0    0  501  0.00000000000E+00  0.00000000000E+00  0.84450959026E+03  0.84450959026E+03  0.25500000920E-02 0.  1.
        2   -1    0    0  501    0  0.00000000000E+00  0.00000000000E+00 -0.66297361208E+03  0.66297361208E+03  0.25500000920E-02 0. -1.
    10030    2    1    2    0    0  0.00000000000E+00  0.00000000000E+00  0.18153597818E+03  0.15074832023E+04  0.14965127109E+04 0.  0.
        2    1    3    3  502    0  0.48187640640E+03 -0.42788067791E+03 -0.29228377024E+03  0.70761327568E+03  0.25500000920E-02 0. -1.
       -2    1    3    3    0  502 -0.48187640640E+03  0.42788067791E+03  0.47381974842E+03  0.79986992666E+03  0.25500000920E-02 0.  1.
</event>
<event>
 5   0  0.4462875E-05  0.1497474E+04  0.7818609E-02  0.8886134E-01
       -3   -1    0    0    0  501  0.00000000000E+00  0.00000000000E+00  0.39746255559E+03  0.39746256842E+03  0.10100000352E+00 0.  1.
        3   -1    0    0  501    0  0.00000000000E+00  0.00000000000E+00 -0.14104655219E+04  0.14104655256E+04  0.10100000352E+00 0. -1.
    10030    2    1    2    0    0  0.00000000000E+00  0.00000000000E+00 -0.10130029664E+04  0.18079280940E+04  0.14974742012E+04 0.  0.
        5    1    3    3  502    0  0.28219914248E+03 -0.11897839653E+03 -0.13313685117E+04  0.13661465583E+04  0.46999998093E+01 0. -1.
       -5    1    3    3    0  502 -0.28219914248E+03  0.11897839653E+03  0.31836554530E+03  0.44178153571E+03  0.46999998093E+01 0.  1.
</event>
<event>
 5   0  0.6542036E-05  0.1506735E+04  0.7818609E-02  0.8879986E-01
        1   -1    0    0  501    0  0.00000000000E+00  0.00000000000E+00  0.88774104449E+03  0.88774104450E+03  0.50400001928E-02 0.  1.
       -1   -1    0    0    0  501  0.00000000000E+00  0.00000000000E+00 -0.63933359784E+03  0.63933359786E+03  0.50400001928E-02 0. -1.
    10030    2    1    2    0    0  0.00000000000E+00  0.00000000000E+00  0.24840744665E+03  0.15270746424E+04  0.15067351140E+04 0.  0.
        4    1    3    3  502    0 -0.58597598436E+03 -0.47249613057E+03  0.93120260173E+02  0.75848101057E+03  0.12699999809E+01 0. -1.
       -4    1    3    3    0  502  0.58597598436E+03  0.47249613057E+03  0.15528718648E+03  0.76859363179E+03  0.12699999809E+01 0.  1.
</event>
<event>
 5   0  0.1216921E-04  0.1498484E+04  0.7818609E-02  0.8885462E-01
        2   -1    0    0  501    0  0.00000000000E+00  0.00000000000E+00  0.91179040935E+03  0.91179040935E+03  0.25500000920E-02 0. -1.
       -2   -1    0    0    0  501  0.00000000000E+00  0.00000000000E+00 -0.61567134729E+03  0.61567134730E+03  0.25500000920E-02 0.  1.
    10030    2    1    2    0    0  0.00000000000E+00  0.00000000000E+00  0.29611906206E+03  0.15274617567E+04  0.14984835398E+04 0.  0.
        4    1    3    3  502    0 -0.94619110544E+02  0.55649088480E+03 -0.35414101045E+03  0.66637253029E+03  0.12699999809E+01 0.  1.
       -4    1    3    3    0  502  0.94619110544E+02 -0.55649088480E+03  0.65026007251E+03  0.86108922636E+03  0.12699999809E+01 0. -1.
</event>
<event>
 5   0  0.6364378E-05  0.1499982E+04  0.7818609E-02  0.8884465E-01
        1   -1    0    0  501    0  0.00000000000E+00  0.00000000000E+00  0.34689713996E+03  0.34689714000E+03  0.50400001928E-02 0.  1.
       -1   -1    0    0    0  501  0.00000000000E+00  0.00000000000E+00 -0.16214793100E+04  0.16214793100E+04  0.50400001928E-02 0. -1.
    10030    2    1    2    0    0  0.00000000000E+00  0.00000000000E+00 -0.12745821701E+04  0.19683764500E+04  0.14999820468E+04 0.  0.
        5    1    3    3  502    0  0.10622897779E+02 -0.19133922102E+03  0.31420713947E+03  0.36806488551E+03  0.46999998093E+01 0.  1.
       -5    1    3    3    0  502 -0.10622897779E+02  0.19133922102E+03 -0.15887893095E+04  0.16003115645E+04  0.46999998093E+01 0. -1.
</event>
<event>
 5   0  0.1254487E-04  0.1498774E+04  0.7818609E-02  0.8885269E-01
       -2   -1    0    0    0  501  0.00000000000E+00  0.00000000000E+00  0.32170458543E+03  0.32170458544E+03  0.25500000920E-02 0.  1.
        2   -1    0    0  501    0  0.00000000000E+00  0.00000000000E+00 -0.17456416476E+04  0.17456416476E+04  0.25500000920E-02 0. -1.
    10030    2    1    2    0    0  0.00000000000E+00  0.00000000000E+00 -0.14239370622E+04  0.20673462331E+04  0.14987740624E+04 0.  0.
        5    1    3    3  502    0 -0.33627207984E+03  0.66648486591E+03 -0.80218577184E+03  0.10958125254E+04  0.46999998093E+01 0.  1.
       -5    1    3    3    0  502  0.33627207984E+03 -0.66648486591E+03 -0.62175129034E+03  0.97153370770E+03  0.46999998093E+01 0. -1.
</event>
<event>
 5   0  0.1219810E-04  0.1501809E+04  0.7818609E-02  0.8883251E-01
       -2   -1    0    0    0  501  0.00000000000E+00  0.00000000000E+00  0.10648894518E+04  0.10648894518E+04  0.25500000920E-02 0. -1.
        2   -1    0    0  501    0  0.00000000000E+00  0.00000000000E+00 -0.52949860233E+03  0.52949860234E+03  0.25500000920E-02 0.  1.
    10030    2    1    2    0    0  0.00000000000E+00  0.00000000000E+00  0.53539084952E+03  0.15943880542E+04  0.15018088778E+04 0.  0.
        1    1    3    3  502    0 -0.52654078466E+03 -0.34709470265E+03  0.70042169348E+03  0.94250224363E+03  0.50400001928E-02 0.  1.
       -1    1    3    3    0  502  0.52654078466E+03  0.34709470265E+03 -0.16503084396E+03  0.65188581056E+03  0.50400001928E-02 0. -1.
</event>
<event>
 5   0  0.6361716E-05  0.1499795E+04  0.7818609E-02  0.8884590E-01
        1   -1    0    0  501    0  0.00000000000E+00  0.00000000000E+00  0.17350017774E+04  0.17350017774E+04  0.50400001928E-02 0.  1.
       -1   -1    0    0    0  501  0.00000000000E+00  0.00000000000E+00 -0.32411836138E+03  0.32411836142E+03  0.50400001928E-02 0. -1.
    10030    2    1    2    0    0  0.00000000000E+00  0.00000000000E+00  0.14108834160E+04  0.20591201388E+04  0.14997945634E+04 0.  0.
        3    1    3    3  502    0 -0.60596159602E+03 -0.42712107435E+03  0.55057335531E+03  0.92344620730E+03  0.10100000352E+00 0.  1.
       -3    1    3    3    0  502  0.60596159602E+03  0.42712107435E+03  0.86031006071E+03  0.11356739315E+04  0.10100000352E+00 0. -1.
</event>
<event>
 5   0  0.6542036E-05  0.1490150E+04  0.7818609E-02  0.8891030E-01
        1   -1    0    0  501    0  0.00000000000E+00  0.00000000000E+00  0.57153661557E+03  0.57153661559E+03  0.50400001928E-02 0.  1.
       -1   -1    0    0    0  501  0.00000000000E+00  0.00000000000E+00 -0.97130504373E+03  0.97130504375E+03  0.50400001928E-02 0. -1.
    10030    2    1    2    0    0  0.00000000000E+00  0.00000000000E+00 -0.39976842817E+03  0.15428416593E+04  0.14901495192E+04 0.  0.
        4    1    3    3  502    0 -0.15669685003E+03 -0.49828604440E+03 -0.74998304017E+03  0.91395790838E+03  0.12699999809E+01 0. -1.
       -4    1    3    3    0  502  0.15669685003E+03  0.49828604440E+03  0.35021461200E+03  0.62888375095E+03  0.12699999809E+01 0.  1.
</event>
<event>
 5   0  0.6542036E-05  0.1491432E+04  0.7818609E-02  0.8890171E-01
       -1   -1    0    0    0  501  0.00000000000E+00  0.00000000000E+00  0.63565514429E+03  0.63565514431E+03  0.50400001928E-02 0.  1.
        1   -1    0    0  501    0  0.00000000000E+00  0.00000000000E+00 -0.87483315054E+03  0.87483315055E+03  0.50400001928E-02 0. -1.
    10030    2    1    2    0    0  0.00000000000E+00  0.00000000000E+00 -0.23917800625E+03  0.15104882949E+04  0.14914317853E+04 0.  0.
        4    1    3    3  502    0  0.11114999416E+03 -0.71968935618E+03 -0.28221306820E+03  0.78099482672E+03  0.12699999809E+01 0. -1.
       -4    1    3    3    0  502 -0.11114999416E+03  0.71968935618E+03  0.43035061947E+02  0.72949346814E+03  0.12699999809E+01 0.  1.
</event>
<event>
 5   0  0.6542036E-05  0.1498927E+04  0.7818609E-02  0.8885167E-01
        1   -1    0    0  501    0  0.00000000000E+00  0.00000000000E+00  0.51115416402E+03  0.51115416404E+03  0.50400001928E-02 0. -1.
       -1   -1    0    0    0  501  0.00000000000E+00  0.00000000000E+00 -0.10988763076E+04  0.10988763076E+04  0.50400001928E-02 0.  1.
    10030    2    1    2    0    0  0.00000000000E+00  0.00000000000E+00 -0.58772214361E+03  0.16100304717E+04  0.14989265498E+04 0.  0.
        4    1    3    3  502    0 -0.21406211586E+03  0.39688151621E+03 -0.93686128974E+03  0.10397346856E+04  0.12699999809E+01 0.  1.
       -4    1    3    3    0  502  0.21406211586E+03 -0.39688151621E+03  0.34913914613E+03  0.57029578607E+03  0.12699999809E+01 0. -1.
</event>
<event>
 5   0  0.6361716E-05  0.1500128E+04  0.7818609E-02  0.8884367E-01
        1   -1    0    0  501    0  0.00000000000E+00  0.00000000000E+00  0.86801023396E+03  0.86801023397E+03  0.50400001928E-02 0. -1.
       -1   -1    0    0    0  501  0.00000000000E+00  0.00000000000E+00 -0.64814485213E+03  0.64814485215E+03  0.50400001928E-02 0.  1.
    10030    2    1    2    0    0  0.00000000000E+00  0.00000000000E+00  0.21986538182E+03  0.15161550861E+04  0.15001284809E+04 0.  0.
        3    1    3    3  502    0 -0.63546339291E+02 -0.63032558723E+03 -0.29591414631E+03  0.69922362327E+03  0.10100000352E+00 0.  1.
       -3    1    3    3    0  502  0.63546339291E+02  0.63032558723E+03  0.51577952813E+03  0.81693146285E+03  0.10100000352E+00 0. -1.
</event>
<event>
 5   0  0.1254487E-04  0.1494675E+04  0.7818609E-02  0.8888002E-01
        2   -1    0    0  501    0  0.00000000000E+00  0.00000000000E+00  0.11500854830E+04  0.11500854830E+04  0.25500000920E-02 0.  1.
       -2   -1    0    0    0  501  0.00000000000E+00  0.00000000000E+00 -0.48562772181E+03  0.48562772181E+03  0.25500000920E-02 0. -1.
    10030    2    1    2    0    0  0.00000000000E+00  0.00000000000E+00  0.66445776118E+03  0.16357132048E+04  0.14946750724E+04 0.  0.
        5    1    3    3  502    0 -0.71218341176E+03 -0.20798572468E+03  0.23417498698E+03  0.77802524906E+03  0.46999998093E+01 0. -1.
       -5    1    3    3    0  502  0.71218341176E+03  0.20798572468E+03  0.43028277419E+03  0.85768795574E+03  0.46999998093E+01 0.  1.
</event>
<event>
 5   0  0.1228286E-04  0.1499717E+04  0.7818609E-02  0.8884641E-01
       -2   -1    0    0    0  501  0.00000000000E+00  0.00000000000E+00  0.49054223549E+03  0.49054223550E+03  0.25500000920E-02 0.  1.
        2   -1    0    0  501    0  0.00000000000E+00  0.00000000000E+00 -0.11462570619E+04  0.11462570619E+04  0.25500000920E-02 0. -1.
    10030    2    1    2    0    0  0.00000000000E+00  0.00000000000E+00 -0.65571482637E+03  0.16367992974E+04  0.14997166420E+04 0.  0.
        2    1    3    3  502    0 -0.13117951235E+03  0.73821914081E+03 -0.33940452980E+03  0.82302551550E+03  0.25500000920E-02 0. -1.
       -2    1    3    3    0  502  0.13117951235E+03 -0.73821914081E+03 -0.31631029657E+03  0.81377378186E+03  0.25500000920E-02 0.  1.
</event>
<event>
 5   0  0.6509279E-05  0.1528991E+04  0.7818609E-02  0.8865400E-01
        1   -1    0    0  501    0  0.00000000000E+00  0.00000000000E+00  0.35258680446E+03  0.35258680449E+03  0.50400001928E-02 0. -1.
       -1   -1    0    0    0  501  0.00000000000E+00  0.00000000000E+00 -0.16576153529E+04  0.16576153529E+04  0.50400001928E-02 0.  1.
    10030    2    1    2    0    0  0.00000000000E+00  0.00000000000E+00 -0.13050285484E+04  0.20102021574E+04  0.15289909095E+04 0.  0.
        2    1    3    3  502    0  0.68479753939E+03  0.12496153710E+03 -0.10680385198E+04  0.12748605161E+04  0.25500000920E-02 0. -1.
       -2    1    3    3    0  502 -0.68479753939E+03 -0.12496153710E+03 -0.23699002859E+03  0.73534164125E+03  0.25500000920E-02 0.  1.
</event>
<event>
 5   0  0.6668433E-05  0.1500946E+04  0.7818609E-02  0.8883824E-01
       -1   -1    0    0    0  501  0.00000000000E+00  0.00000000000E+00  0.82517023703E+03  0.82517023704E+03  0.50400001928E-02 0.  1.
        1   -1    0    0  501    0  0.00000000000E+00  0.00000000000E+00 -0.68253797792E+03  0.68253797794E+03  0.50400001928E-02 0. -1.
    10030    2    1    2    0    0  0.00000000000E+00  0.00000000000E+00  0.14263225911E+03  0.15077082150E+04  0.15009464015E+04 0.  0.
        1    1    3    3  502    0  0.30243307418E+03 -0.62312481883E+03 -0.21887930854E+03  0.72640102969E+03  0.50400001928E-02 0. -1.
       -1    1    3    3    0  502 -0.30243307418E+03  0.62312481883E+03  0.36151156766E+03  0.78130718529E+03  0.50400001928E-02 0.  1.
</event>
<event>
 5   0  0.6361716E-05  0.1498797E+04  0.7818609E-02  0.8885253E-01
        1   -1    0    0  501    0  0.00000000000E+00  0.00000000000E+00  0.66456514298E+03  0.66456514300E+03  0.50400001928E-02 0.  1.
       -1   -1    0    0    0  501  0.00000000000E+00  0.00000000000E+00 -0.84506146858E+03  0.84506146859E+03  0.50400001928E-02 0. -1.
    10030    2    1    2    0    0  0.00000000000E+00  0.00000000000E+00 -0.18049632559E+03  0.15096266116E+04  0.14987973789E+04 0.  0.
        3    1    3    3  502    0 -0.52841258410E+03  0.20785333125E+03 -0.58283747052E+03  0.81370903497E+03  0.10100000352E+00 0. -1.
       -3    1    3    3    0  502  0.52841258410E+03 -0.20785333125E+03  0.40234114493E+03  0.69591757662E+03  0.10100000352E+00 0.  1.
</event>
<event>
 5   0  0.6668433E-05  0.1493751E+04  0.7818609E-02  0.8888619E-01
       -1   -1    0    0    0  501  0.00000000000E+00  0.00000000000E+00  0.53184840110E+03  0.53184840113E+03  0.50400001928E-02 0.  1.
        1   -1    0    0  501    0  0.00000000000E+00  0.00000000000E+00 -0.10488390729E+04  0.10488390729E+04  0.50400001928E-02 0. -1.
    10030    2    1    2    0    0  0.00000000000E+00  0.00000000000E+00 -0.51699067181E+03  0.15806874740E+04  0.14937514974E+04 0.  0.
        1    1    3    3  502    0  0.65335086423E+03  0.30012299448E+02  0.12312514615E+03  0.66552828006E+03  0.50400001928E-02 0.  1.
       -1    1    3    3    0  502 -0.65335086423E+03 -0.30012299448E+02 -0.64011581796E+03  0.91515919399E+03  0.50400001928E-02 0. -1.
</event>
<event>
 5   0  0.6542036E-05  0.1490376E+04  0.7818609E-02  0.8890878E-01
        1   -1    0    0  501    0  0.00000000000E+00  0.00000000000E+00  0.13884894515E+04  0.13884894515E+04  0.50400001928E-02 0. -1.
       -1   -1    0    0    0  501  0.00000000000E+00  0.00000000000E+00 -0.39993481838E+03  0.39993481841E+03  0.50400001928E-02 0.  1.
    10030    2    1    2    0    0  0.00000000000E+00  0.00000000000E+00  0.98855463315E+03  0.17884242700E+04  0.14903761628E+04 0.  0.
        4    1    3    3  502    0 -0.73866990643E+02  0.37757119684E+03 -0.27153986412E+03  0.47090535322E+03  0.12699999809E+01 0.  1.
       -4    1    3    3    0  502  0.73866990643E+02 -0.37757119684E+03  0.12600944973E+04  0.13175189167E+04  0.12699999809E+01 0. -1.
</event>
<event>
 5   0  0.6542036E-05  0.1501461E+04  0.7818609E-02  0.8883482E-01
       -1   -1    0    0    0  501  0.00000000000E+00  0.00000000000E+00  0.65207914446E+03  0.65207914448E+03  0.50400001928E-02 0.  1.
        1   -1    0    0  501    0  0.00000000000E+00  0.00000000000E+00 -0.86430618555E+03  0.86430618556E+03  0.50400001928E-02 0. -1.
    10030    2    1    2    0    0  0.00000000000E+00  0.00000000000E+00 -0.21222704108E+03  0.15163853300E+04  0.15014606729E+04 0.  0.
        4    1    3    3  502    0  0.19926594448E+03 -0.66282059414E+03  0.18756269453E+03  0.71709095233E+03  0.12699999809E+01 0. -1.
       -4    1    3    3    0  502 -0.19926594448E+03  0.66282059414E+03 -0.39978973561E+03  0.79929437771E+03  0.12699999809E+01 0.  1.
</event>
<event>
 5   0  0.6361716E-05  0.1501913E+04  0.7818609E-02  0.8883182E-01
        1   -1    0    0  501    0  0.00000000000E+00  0.00000000000E+00  0.16667899995E+04  0.16667899995E+04  0.50400001928E-02 0.  1.
       -1   -1    0    0    0  501  0.00000000000E+00  0.00000000000E+00 -0.33833616806E+03  0.33833616810E+03  0.50400001928E-02 0. -1.
    10030    2    1    2    0    0  0.00000000000E+00  0.00000000000E+00  0.13284538315E+04  0.20051261676E+04  0.15019125693E+04 0.  0.
        3    1    3    3  502    0 -0.63356775397E+03 -0.39058939762E+03  0.53094149249E+03  0.91425765244E+03  0.10100000352E+00 0. -1.
       -3    1    3    3    0  502  0.63356775397E+03  0.39058939762E+03  0.79751233899E+03  0.10908685152E+04  0.10100000352E+00 0.  1.
</event>
<event>
 5   0  0.1228286E-04  0.1507020E+04  0.7818609E-02  0.8879798E-01
       -2   -1    0    0    0  501  0.00000000000E+00  0.00000000000E+00  0.12591697884E+04  0.12591697884E+04  0.25500000920E-02 0.  1.
        2   -1    0    0  501    0  0.00000000000E+00  0.00000000000E+00 -0.45091414240E+03  0.45091414241E+03  0.25500000920E-02 0. -1.
    10030    2    1    2    0    0  0.00000000000E+00  0.00000000000E+00  0.80825564599E+03  0.17100839308E+04  0.15070201927E+04 0.  0.
        2    1    3    3  502    0 -0.26184675300E+03  0.11823228057E+03  0.11945777366E+04  0.12286409415E+04  0.25500000920E-02 0.  1.
       -2    1    3    3    0  502  0.26184675300E+03 -0.11823228057E+03 -0.38632209064E+03  0.48144298931E+03  0.25500000920E-02 0. -1.
</event>
<event>
 5   0  0.4462875E-05  0.1500152E+04  0.7818609E-02  0.8884352E-01
       -3   -1    0    0    0  501  0.00000000000E+00  0.00000000000E+00  0.43830281025E+03  0.43830282189E+03  0.10100000352E+00 0.  1.
        3   -1    0    0  501    0  0.00000000000E+00  0.00000000000E+00 -0.12836193926E+04  0.12836193965E+04  0.10100000352E+00 0. -1.
    10030    2    1    2    0    0  0.00000000000E+00  0.00000000000E+00 -0.84531658232E+03  0.17219222184E+04  0.15001519930E+04 0.  0.
        2    1    3    3  502    0 -0.55435198501E+03  0.75112674536E+01 -0.10025706741E+04  0.11456485059E+04  0.25500000920E-02 0. -1.
       -2    1    3    3    0  502  0.55435198501E+03 -0.75112674536E+01  0.15725409177E+03  0.57627371257E+03  0.25500000920E-02 0.  1.
</event>
<event>
 5   0  0.1219810E-04  0.1498233E+04  0.7818609E-02  0.8885629E-01
        2   -1    0    0  501    0  0.00000000000E+00  0.00000000000E+00  0.12379348934E+04  0.12379348934E+04  0.25500000920E-02 0.  1.
       -2   -1    0    0    0  501  0.00000000000E+00  0.00000000000E+00 -0.45331568078E+03  0.45331568079E+03  0.25500000920E-02 0. -1.
    10030    2    1    2    0    0  0.00000000000E+00  0.00000000000E+00  0.78461921258E+03  0.16912505742E+04  0.14982326908E+04 0.  0.
        1    1    3    3  502    0  0.10797143543E+03 -0.27790093451E+02  0.12285170840E+04  0.12335657039E+04  0.50400001928E-02 0.  1.
       -1    1    3    3    0  502 -0.10797143543E+03  0.27790093451E+02 -0.44389787143E+03  0.45768487024E+03  0.50400001928E-02 0. -1.
</event>
<event>
 5   0  0.6361716E-05  0.1498014E+04  0.7818609E-02  0.8885775E-01
       -1   -1    0    0    0  501  0.00000000000E+00  0.00000000000E+00  0.76640280172E+03  0.76640280173E+03  0.50400001928E-02 0.  1.
        1   -1    0    0  501    0  0.00000000000E+00  0.00000000000E+00 -0.73200562592E+03  0.73200562593E+03  0.50400001928E-02 0. -1.
    10030    2    1    2    0    0  0.00000000000E+00  0.00000000000E+00  0.34397175802E+02  0.14984084277E+04  0.14980135682E+04 0.  0.
        3    1    3    3  502    0  0.28374076311E+03  0.60863775310E+03  0.34904259843E+03  0.75682196114E+03  0.10100000352E+00 0.  1.
       -3    1    3    3    0  502 -0.28374076311E+03 -0.60863775310E+03 -0.31464542263E+03  0.74158646652E+03  0.10100000352E+00 0. -1.
</event>
<event>
 5   0  0.1219810E-04  0.1499920E+04  0.7818609E-02  0.8884506E-01
        2   -1    0    0  501    0  0.00000000000E+00  0.00000000000E+00  0.18470500031E+04  0.18470500031E+04  0.25500000920E-02 0. -1.
       -2   -1    0    0    0  501  0.00000000000E+00  0.00000000000E+00 -0.30450736692E+03  0.30450736693E+03  0.25500000920E-02 0.  1.
    10030    2    1    2    0    0  0.00000000000E+00  0.00000000000E+00  0.15425426362E+04  0.21515573700E+04  0.14999204419E+04 0.  0.
        1    1    3    3  502    0  0.36210020435E+03 -0.65303772760E+03  0.87132855488E+03  0.11475139573E+04  0.50400001928E-02 0.  1.
       -1    1    3    3    0  502 -0.36210020435E+03  0.65303772760E+03  0.67121408131E+03  0.10040434127E+04  0.50400001928E-02 0. -1.
</event>
<event>
 5   0  0.6668433E-05  0.1504632E+04  0.7818609E-02  0.8881379E-01
        1   -1    0    0  501    0  0.00000000000E+00  0.00000000000E+00  0.55766517352E+03  0.55766517354E+03  0.50400001928E-02 0. -1.
       -1   -1    0    0    0  501  0.00000000000E+00  0.00000000000E+00 -0.10149084163E+04  0.10149084163E+04  0.50400001928E-02 0.  1.
    10030    2    1    2    0    0  0.00000000000E+00  0.00000000000E+00 -0.45724324281E+03  0.15725735899E+04  0.15046316202E+04 0.  0.
        1    1    3    3  502    0  0.41562231936E+02  0.65096613657E+02  0.55351076660E+03  0.55887311351E+03  0.50400001928E-02 0. -1.
       -1    1    3    3    0  502 -0.41562231936E+02 -0.65096613657E+02 -0.10107540094E+04  0.10137004764E+04  0.50400001928E-02 0.  1.
</event>
<event>
 5   0  0.1254487E-04  0.1492511E+04  0.7818609E-02  0.8889449E-01
       -2   -1    0    0    0  501  0.00000000000E+00  0.00000000000E+00  0.40433985897E+03  0.40433985897E+03  0.25500000920E-02 0. -1.
        2   -1    0    0  501    0  0.00000000000E+00  0.00000000000E+00 -0.13772993303E+04  0.13772993303E+04  0.25500000920E-02 0.  1.
    10030    2    1    2    0    0  0.00000000000E+00  0.00000000000E+00 -0.97295947135E+03  0.17816391893E+04  0.14925106592E+04 0.  0.
        5    1    3    3  502    0  0.29688504251E+03  0.14675488111E+03  0.31179402641E+03  0.45487946590E+03  0.46999998093E+01 0. -1.
       -5    1    3    3    0  502 -0.29688504251E+03 -0.14675488111E+03 -0.12847534978E+04  0.13267597234E+04  0.46999998093E+01 0.  1.
</event>
<event>
 5   0  0.6509279E-05  0.1502899E+04  0.7818609E-02  0.8882527E-01
        1   -1    0    0  501    0  0.00000000000E+00  0.00000000000E+00  0.50686528258E+03  0.50686528260E+03  0.50400001928E-02 0.  1.
       -1   -1    0    0    0  501  0.00000000000E+00  0.00000000000E+00 -0.11140559327E+04  0.11140559327E+04  0.50400001928E-02 0. -1.
    10030    2    1    2    0    0  0.00000000000E+00  0.00000000000E+00 -0.60719065008E+03  0.16209212153E+04  0.15028988990E+04 0.  0.
        2    1    3    3  502    0 -0.75110286419E+03  0.13761326441E+02 -0.28396168539E+03  0.80310592420E+03  0.25500000920E-02 0.  1.
       -2    1    3    3    0  502  0.75110286419E+03 -0.13761326441E+02 -0.32322896469E+03  0.81781529108E+03  0.25500000920E-02 0. -1.
</event>
<event>
 5   0  0.1186664E-04  0.1496708E+04  0.7818609E-02  0.8886645E-01
        2   -1    0    0  501    0  0.00000000000E+00  0.00000000000E+00  0.13744031600E+04  0.13744031600E+04  0.25500000920E-02 0. -1.
       -2   -1    0    0    0  501  0.00000000000E+00  0.00000000000E+00 -0.40747410899E+03  0.40747410900E+03  0.25500000920E-02 0.  1.
    10030    2    1    2    0    0  0.00000000000E+00  0.00000000000E+00  0.96692905099E+03  0.17818772690E+04  0.14967079916E+04 0.  0.
        3    1    3    3  502    0 -0.59527466795E+03 -0.41802862828E+03  0.69285530154E+03  0.10045637578E+04  0.10100000352E+00 0. -1.
       -3    1    3    3    0  502  0.59527466795E+03  0.41802862828E+03  0.27407374945E+03  0.77731351121E+03  0.10100000352E+00 0.  1.
</event>
<event>
 5   0  0.1228286E-04  0.1499918E+04  0.7818609E-02  0.8884508E-01
        2   -1    0    0  501    0  0.00000000000E+00  0.00000000000E+00  0.13286832149E+04  0.13286832149E+04  0.25500000920E-02 0.  1.
       -2   -1    0    0    0  501  0.00000000000E+00  0.00000000000E+00 -0.42330508767E+03  0.42330508768E+03  0.25500000920E-02 0. -1.
    10030    2    1    2    0    0  0.00000000000E+00  0.00000000000E+00  0.90537812724E+03  0.17519883026E+04  0.14999178175E+04 0.  0.
        2    1    3    3  502    0 -0.69117084878E+02  0.32578283234E+03 -0.33219493510E+03  0.47038824410E+03  0.25500000920E-02 0. -1.
       -2    1    3    3    0  502  0.69117084878E+02 -0.32578283234E+03  0.12375730623E+04  0.12816000585E+04  0.25500000920E-02 0.  1.
</event>
<event>
 5   0  0.6509279E-05  0.1500478E+04  0.7818609E-02  0.8884135E-01
       -1   -1    0    0    0  501  0.00000000000E+00  0.00000000000E+00  0.69667239100E+03  0.69667239102E+03  0.50400001928E-02 0.  1.
        1   -1    0    0  501    0  0.00000000000E+00  0.00000000000E+00 -0.80792452372E+03  0.80792452374E+03  0.50400001928E-02 0. -1.
    10030    2    1    2    0    0  0.00000000000E+00  0.00000000000E+00 -0.11125213273E+03  0.15045969148E+04  0.15004782034E+04 0.  0.
        2    1    3    3  502    0 -0.68010128464E+03  0.28349989550E+03 -0.19725384578E+03  0.76277062594E+03  0.25500000920E-02 0.  1.
       -2    1    3    3    0  502  0.68010128464E+03 -0.28349989550E+03  0.86001713056E+02  0.74182628881E+03  0.25500000920E-02 0. -1.
</event>
<event>
 5   0  0.4462875E-05  0.1498195E+04  0.7818609E-02  0.8885654E-01
       -4   -1    0    0    0  501  0.00000000000E+00  0.00000000000E+00  0.13905789143E+04  0.13905794943E+04  0.12699999809E+01 0. -1.
        4   -1    0    0  501    0  0.00000000000E+00  0.00000000000E+00 -0.40353346367E+03  0.40353546214E+03  0.12699999809E+01 0.  1.
    10030    2    1    2    0    0  0.00000000000E+00  0.00000000000E+00  0.98704545065E+03  0.17941149564E+04  0.14981954996E+04 0.  0.
        4    1    3    3  502    0  0.39528559041E+03 -0.18043567915E+03  0.12242419170E+04  0.12990679800E+04  0.12699999809E+01 0. -1.
       -4    1    3    3    0  502 -0.39528559041E+03  0.18043567915E+03 -0.23719646639E+03  0.49504697642E+03  0.12699999809E+01 0.  1.
</event>
<event>
 5   0  0.1254487E-04  0.1499975E+04  0.7818609E-02  0.8884470E-01
        2   -1    0    0  501    0  0.00000000000E+00  0.00000000000E+00  0.13727959679E+04  0.13727959679E+04  0.25500000920E-02 0.  1.
       -2   -1    0    0    0  501  0.00000000000E+00  0.00000000000E+00 -0.40973398920E+03  0.40973398921E+03  0.25500000920E-02 0. -1.
    10030    2    1    2    0    0  0.00000000000E+00  0.00000000000E+00  0.96306197868E+03  0.17825299571E+04  0.14999748908E+04 0.  0.
        5    1    3    3  502    0 -0.52566243224E+03 -0.46409012500E+03  0.79764371360E+03  0.10620537748E+04  0.46999998093E+01 0.  1.
       -5    1    3    3    0  502  0.52566243224E+03  0.46409012500E+03  0.16541826508E+03  0.72047618227E+03  0.46999998093E+01 0. -1.
</event>
<event>
 5   0  0.1186664E-04  0.1487708E+04  0.7818609E-02  0.8892668E-01
       -2   -1    0    0    0  501  0.00000000000E+00  0.00000000000E+00  0.34400128153E+03  0.34400128154E+03  0.25500000920E-02 0. -1.
        2   -1    0    0  501    0  0.00000000000E+00  0.00000000000E+00 -0.16084793726E+04  0.16084793726E+04  0.25500000920E-02 0.  1.
    10030    2    1    2    0    0  0.00000000000E+00  0.00000000000E+00 -0.12644780910E+04  0.19524806541E+04  0.14877082584E+04 0.  0.
        3    1    3    3  502    0  0.64113370216E+03 -0.11986921015E+03 -0.11015932134E+04  0.12802064949E+04  0.10100000352E+00 0.  1.
       -3    1    3    3    0  502 -0.64113370216E+03  0.11986921015E+03 -0.16288487766E+03  0.67227415923E+03  0.10100000352E+00 0. -1.
</event>
<event>
 5   0  0.1219810E-04  0.1501604E+04  0.7818609E-02  0.8883387E-01
        2   -1    0    0  501    0  0.00000000000E+00  0.00000000000E+00  0.14562943430E+04  0.14562943430E+04  0.25500000920E-02 0.  1.
       -2   -1    0    0    0  501  0.00000000000E+00  0.00000000000E+00 -0.38708097433E+03  0.38708097434E+03  0.25500000920E-02 0. -1.
    10030    2    1    2    0    0  0.00000000000E+00  0.00000000000E+00  0.10692133687E+04  0.18433753173E+04  0.15016042531E+04 0.  0.
        1    1    3    3  502    0  0.11627041731E+02  0.75065349053E+03  0.54612146864E+03  0.92836658141E+03  0.50400001928E-02 0.  1.
       -1    1    3    3    0  502 -0.11627041731E+02 -0.75065349053E+03  0.52309190003E+03  0.91500873594E+03  0.50400001928E-02 0. -1.
</event>
<event>
 5   0  0.6364378E-05  0.1497694E+04  0.7818609E-02  0.8885988E-01
       -1   -1    0    0    0  501  0.00000000000E+00  0.00000000000E+00  0.79876619871E+03  0.79876619873E+03  0.50400001928E-02 0.  1.
        1   -1    0    0  501    0  0.00000000000E+00  0.00000000000E+00 -0.70204733979E+03  0.70204733981E+03  0.50400001928E-02 0. -1.
    10030    2    1    2    0    0  0.00000000000E+00  0.00000000000E+00  0.96718858918E+02  0.15008135385E+04  0.14976938071E+04 0.  0.
        5    1    3    3  502    0 -0.64620260338E+03  0.21312691278E+03 -0.26493972350E+03  0.73021642864E+03  0.46999998093E+01 0. -1.
       -5    1    3    3    0  502  0.64620260338E+03 -0.21312691278E+03  0.36165858241E+03  0.77059710991E+03  0.46999998093E+01 0.  1.
</event>
<event>
 5   0  0.6668433E-05  0.1496789E+04  0.7818609E-02  0.8886591E-01
       -1   -1    0    0    0  501  0.00000000000E+00  0.00000000000E+00  0.64377148949E+03  0.64377148951E+03  0.50400001928E-02 0. -1.
        1   -1    0    0  501    0  0.00000000000E+00  0.00000000000E+00 -0.87002003505E+03  0.87002003507E+03  0.50400001928E-02 0.  1.
    10030    2    1    2    0    0  0.00000000000E+00  0.00000000000E+00 -0.22624854556E+03  0.15137915246E+04  0.14967886877E+04 0.  0.
        1    1    3    3  502    0  0.32429730618E+03  0.18992389098E+03  0.54141701870E+03  0.65906920375E+03  0.50400001928E-02 0. -1.
       -1    1    3    3    0  502 -0.32429730618E+03 -0.18992389098E+03 -0.76766556426E+03  0.85472232084E+03  0.50400001928E-02 0.  1.
</event>
<event>
 5   0  0.1228286E-04  0.1497874E+04  0.7818609E-02  0.8885868E-01
       -2   -1    0    0    0  501  0.00000000000E+00  0.00000000000E+00  0.60022939677E+03  0.60022939678E+03  0.25500000920E-02 0.  1.
        2   -1    0    0  501    0  0.00000000000E+00  0.00000000000E+00 -0.93448668889E+03  0.93448668890E+03  0.25500000920E-02 0. -1.
    10030    2    1    2    0    0  0.00000000000E+00  0.00000000000E+00 -0.33425729212E+03  0.15347160857E+04  0.14978736683E+04 0.  0.
        2    1    3    3  502    0 -0.67355175664E+03  0.50998290963E+02 -0.49855605058E+03  0.83954209551E+03  0.25500000920E-02 0. -1.
       -2    1    3    3    0  502  0.67355175664E+03 -0.50998290963E+02  0.16429875846E+03  0.69517399016E+03  0.25500000920E-02 0.  1.
</event>
<event>
 5   0  0.6509279E-05  0.1500245E+04  0.7818609E-02  0.8884290E-01
        1   -1    0    0  501    0  0.00000000000E+00  0.00000000000E+00  0.10813680182E+04  0.10813680182E+04  0.50400001928E-02 0.  1.
       -1   -1    0    0    0  501  0.00000000000E+00  0.00000000000E+00 -0.52034455643E+03  0.52034455645E+03  0.50400001928E-02 0. -1.
    10030    2    1    2    0    0  0.00000000000E+00  0.00000000000E+00  0.56102346181E+03  0.16017125747E+04  0.15002452624E+04 0.  0.
        2    1    3    3  502    0 -0.48516123689E+03 -0.50642007484E+00  0.89130864777E+03  0.10147969195E+04  0.25500000920E-02 0.  1.
       -2    1    3    3    0  502  0.48516123689E+03  0.50642007484E+00 -0.33028518596E+03  0.58691565519E+03  0.25500000920E-02 0. -1.
</event>
<event>
 5   0  0.1186664E-04  0.1498476E+04  0.7818609E-02  0.8885467E-01
        2   -1    0    0  501    0  0.00000000000E+00  0.00000000000E+00  0.70541914958E+03  0.70541914959E+03  0.25500000920E-02 0.  1.
       -2   -1    0    0    0  501  0.00000000000E+00  0.00000000000E+00 -0.79577911828E+03  0.79577911829E+03  0.25500000920E-02 0. -1.
    10030    2    1    2    0    0  0.00000000000E+00  0.00000000000E+00 -0.90359968703E+02  0.15011982679E+04  0.14984763313E+04 0.  0.
        3    1    3    3  502    0  0.70830357130E+03  0.12313727667E+03 -0.25651596617E+03  0.76331984719E+03  0.10100000352E+00 0. -1.
       -3    1    3    3    0  502 -0.70830357130E+03 -0.12313727667E+03  0.16615599746E+03  0.73787842068E+03  0.10100000352E+00 0.  1.
</event>
<event>
 5   0  0.1254487E-04  0.1500728E+04  0.7818609E-02  0.8883969E-01
       -2   -1    0    0    0  501  0.00000000000E+00  0.00000000000E+00  0.70244175906E+03  0.70244175906E+03  0.25500000920E-02 0. -1.
        2   -1    0    0  501    0  0.00000000000E+00  0.00000000000E+00 -0.80155582817E+03  0.80155582818E+03  0.25500000920E-02 0.  1.
    10030    2    1    2    0    0  0.00000000000E+00  0.00000000000E+00 -0.99114069111E+02  0.15039975872E+04  0.15007282045E+04 0.  0.
        5    1    3    3  502    0  0.48818394440E+03  0.14023228560E+03 -0.60306046257E+03  0.78847490068E+03  0.46999998093E+01 0.  1.
       -5    1    3    3    0  502 -0.48818394440E+03 -0.14023228560E+03  0.50394639346E+03  0.71552268656E+03  0.46999998093E+01 0. -1.
</event>
<event>
 5   0  0.6364378E-05  0.1498939E+04  0.7818609E-02  0.8885159E-01
        1   -1    0    0  501    0  0.00000000000E+00  0.00000000000E+00  0.97684384487E+03  0.97684384488E+03  0.50400001928E-02 0.  1.
       -1   -1    0    0    0  501  0.00000000000E+00  0.00000000000E+00 -0.57501954071E+03  0.57501954073E+03  0.50400001928E-02 0. -1.
    10030    2    1    2    0    0  0.00000000000E+00  0.00000000000E+00  0.40182430416E+03  0.15518633856E+04  0.14989386899E+04 0.  0.
        5    1    3    3  502    0 -0.44547674738E+03  0.53084941591E+03  0.49634993281E+03  0.85242945786E+03  0.46999998093E+01 0. -1.
       -5    1    3    3    0  502  0.44547674738E+03 -0.53084941591E+03 -0.94525628652E+02  0.69943392775E+03  0.46999998093E+01 0.  1.
</event>
<event>
 5   0  0.6364378E-05  0.1494579E+04  0.7818609E-02  0.8888066E-01
        1   -1    0    0  501    0  0.00000000000E+00  0.00000000000E+00  0.14628791025E+04  0.14628791025E+04  0.50400001928E-02 0. -1.
       -1   -1    0    0    0  501  0.00000000000E+00  0.00000000000E+00 -0.38174134621E+03  0.38174134624E+03  0.50400001928E-02 0.  1.
    10030    2    1    2    0    0  0.00000000000E+00  0.00000000000E+00  0.10811377563E+04  0.18446204488E+04  0.14945787875E+04 0.  0.
        5    1    3    3  502    0 -0.57120974293E+03 -0.70401030187E+02  0.11288374077E+04  0.12670962309E+04  0.46999998093E+01 0. -1.
       -5    1    3    3    0  502  0.57120974293E+03  0.70401030187E+02 -0.47699651349E+02  0.57752421786E+03  0.46999998093E+01 0.  1.
</event>
<event>
 5   0  0.1219810E-04  0.1496348E+04  0.7818609E-02  0.8886885E-01
        2   -1    0    0  501    0  0.00000000000E+00  0.00000000000E+00  0.14407373720E+04  0.14407373720E+04  0.25500000920E-02 0.  1.
       -2   -1    0    0    0  501  0.00000000000E+00  0.00000000000E+00 -0.38852647597E+03  0.38852647598E+03  0.25500000920E-02 0. -1.
    10030    2    1    2    0    0  0.00000000000E+00  0.00000000000E+00  0.10522108960E+04  0.18292638480E+04  0.14963483738E+04 0.  0.
        1    1    3    3  502    0  0.37088962046E+01  0.35996874381E+03 -0.27569333370E+03  0.45342923009E+03  0.50400001928E-02 0. -1.
       -1    1    3    3    0  502 -0.37088962046E+01 -0.35996874381E+03  0.13279042297E+04  0.13758346179E+04  0.50400001928E-02 0.  1.
</event>
<event>
 5   0  0.1216921E-04  0.1498789E+04  0.7818609E-02  0.8885258E-01
        2   -1    0    0  501    0  0.00000000000E+00  0.00000000000E+00  0.11880818983E+04  0.11880818983E+04  0.25500000920E-02 0. -1.
       -2   -1    0    0    0  501  0.00000000000E+00  0.00000000000E+00 -0.47268829294E+03  0.47268829294E+03  0.25500000920E-02 0.  1.
    10030    2    1    2    0    0  0.00000000000E+00  0.00000000000E+00  0.71539360540E+03  0.16607701913E+04  0.14987893840E+04 0.  0.
        4    1    3    3  502    0 -0.37382983775E+03 -0.60306060023E+03  0.62492419206E+03  0.94549600414E+03  0.12699999809E+01 0. -1.
       -4    1    3    3    0  502  0.37382983775E+03  0.60306060023E+03  0.90469413343E+02  0.71527418714E+03  0.12699999809E+01 0.  1.
</event>
<event>
 5   0  0.6509279E-05  0.1501115E+04  0.7818609E-02  0.8883712E-01
        1   -1    0    0  501    0  0.00000000000E+00  0.00000000000E+00  0.72147438758E+03  0.72147438760E+03  0.50400001928E-02 0.  1.
       -1   -1    0    0    0  501  0.00000000000E+00  0.00000000000E+00 -0.78081293616E+03  0.78081293617E+03  0.50400001928E-02 0. -1.
    10030    2    1    2    0    0  0.00000000000E+00  0.00000000000E+00 -0.59338548578E+02  0.15022873238E+04  0.15011149656E+04 0.  0.
        2    1    3    3  502    0 -0.56317203339E+03  0.41341403995E+03 -0.30422388123E+03  0.76198823977E+03  0.25500000920E-02 0. -1.
       -2    1    3    3    0  502  0.56317203339E+03 -0.41341403995E+03  0.24488533265E+03  0.74029908400E+03  0.25500000920E-02 0.  1.
</event>
<event>
 5   0  0.6542036E-05  0.1502376E+04  0.7818609E-02  0.8882874E-01
       -1   -1    0    0    0  501  0.00000000000E+00  0.00000000000E+00  0.47608720433E+03  0.47608720436E+03  0.50400001928E-02 0.  1.
        1   -1    0    0  501    0  0.00000000000E+00  0.00000000000E+00 -0.11852525495E+04  0.11852525495E+04  0.50400001928E-02 0. -1.
    10030    2    1    2    0    0  0.00000000000E+00  0.00000000000E+00 -0.70916534520E+03  0.16613397539E+04  0.15023762149E+04 0.  0.
        4    1    3    3  502    0  0.10895627099E+03  0.61024364062E+03 -0.82375449572E+03  0.10309422157E+04  0.12699999809E+01 0. -1.
       -4    1    3    3    0  502 -0.10895627099E+03 -0.61024364062E+03  0.11458915052E+03  0.63039753824E+03  0.12699999809E+01 0.  1.
</event>
<event>
 5   0  0.1254487E-04  0.1500477E+04  0.7818609E-02  0.8884136E-01
       -2   -1    0    0    0  501  0.00000000000E+00  0.00000000000E+00  0.38079245379E+03  0.38079245380E+03  0.25500000920E-02 0.  1.
        2   -1    0    0  501    0  0.00000000000E+00  0.00000000000E+00 -0.14781220895E+04  0.14781220895E+04  0.25500000920E-02 0. -1.
    10030    2    1    2    0    0  0.00000000000E+00  0.00000000000E+00 -0.10973296358E+04  0.18589145433E+04  0.15004769075E+04 0.  0.
        5    1    3    3  502    0 -0.44351135270E+03  0.54230262850E+03 -0.88118693586E+03  0.11257472926E+04  0.46999998093E+01 0. -1.
       -5    1    3    3    0  502  0.44351135270E+03 -0.54230262850E+03 -0.21614269989E+03  0.73316725075E+03  0.46999998093E+01 0.  1.
</event>
<event>
 5   0  0.6668433E-05  0.1500810E+04  0.7818609E-02  0.8883915E-01
        1   -1    0    0  501    0  0.00000000000E+00  0.00000000000E+00  0.14200645146E+04  0.14200645146E+04  0.50400001928E-02 0.  1.
       -1   -1    0    0    0  501  0.00000000000E+00  0.00000000000E+00 -0.39653644646E+03  0.39653644649E+03  0.50400001928E-02 0. -1.
    10030    2    1    2    0    0  0.00000000000E+00  0.00000000000E+00  0.10235280681E+04  0.18166009611E+04  0.15008095634E+04 0.  0.
        1    1    3    3  502    0 -0.70198804838E+03 -0.98893241450E+02  0.80958552359E+03  0.10761021389E+04  0.50400001928E-02 0. -1.
       -1    1    3    3    0  502  0.70198804838E+03  0.98893241450E+02  0.21394254451E+03  0.74049882218E+03  0.50400001928E-02 0.  1.
</event>
<event>
 5   0  0.1254487E-04  0.1520908E+04  0.7818609E-02  0.8870667E-01
       -2   -1    0    0    0  501  0.00000000000E+00  0.00000000000E+00  0.72814323600E+03  0.72814323601E+03  0.25500000920E-02 0.  1.
        2   -1    0    0  501    0  0.00000000000E+00  0.00000000000E+00 -0.79419903577E+03  0.79419903578E+03  0.25500000920E-02 0. -1.
    10030    2    1    2    0    0  0.00000000000E+00  0.00000000000E+00 -0.66055799767E+02  0.15223422718E+04  0.15209084863E+04 0.  0.
        5    1    3    3  502    0  0.29267818743E+03 -0.57424615139E+03 -0.43695436412E+03  0.77869786831E+03  0.46999998093E+01 0. -1.
       -5    1    3    3    0  502 -0.29267818743E+03  0.57424615139E+03  0.37089856435E+03  0.74364440348E+03  0.46999998093E+01 0.  1.
</event>
<event>
 5   0  0.6509279E-05  0.1502148E+04  0.7818609E-02  0.8883026E-01
        1   -1    0    0  501    0  0.00000000000E+00  0.00000000000E+00  0.69125498447E+03  0.69125498449E+03  0.50400001928E-02 0.  1.
       -1   -1    0    0    0  501  0.00000000000E+00  0.00000000000E+00 -0.81606972246E+03  0.81606972247E+03  0.50400001928E-02 0. -1.
    10030    2    1    2    0    0  0.00000000000E+00  0.00000000000E+00 -0.12481473799E+03  0.15073247070E+04  0.15021481463E+04 0.  0.
        2    1    3    3  502    0 -0.74243954491E+03 -0.25416098198E+02  0.48652890226E+02  0.74446595599E+03  0.25500000920E-02 0.  1.
       -2    1    3    3    0  502  0.74243954491E+03  0.25416098198E+02 -0.17346762822E+03  0.76285875097E+03  0.25500000920E-02 0. -1.
</event>
<event>
 5   0  0.1219810E-04  0.1500883E+04  0.7818609E-02  0.8883866E-01
        2   -1    0    0  501    0  0.00000000000E+00  0.00000000000E+00  0.12235074825E+04  0.12235074825E+04  0.25500000920E-02 0. -1.
       -2   -1    0    0    0  501  0.00000000000E+00  0.00000000000E+00 -0.46028516685E+03  0.46028516686E+03  0.25500000920E-02 0.  1.
    10030    2    1    2    0    0  0.00000000000E+00  0.00000000000E+00  0.76322231567E+03  0.16837926494E+04  0.15008828678E+04 0.  0.
        1    1    3    3  502    0  0.26200473205E+03  0.42790385826E+03 -0.24444167202E+03  0.55812178113E+03  0.50400001928E-02 0.  1.
       -1    1    3    3    0  502 -0.26200473205E+03 -0.42790385826E+03  0.10076639877E+04  0.11256708683E+04  0.50400001928E-02 0. -1.
</event>
<event>
 5   0  0.1228286E-04  0.1500231E+04  0.7818609E-02  0.8884299E-01
        2   -1    0    0  501    0  0.00000000000E+00  0.00000000000E+00  0.56948176923E+03  0.56948176924E+03  0.25500000920E-02 0. -1.
       -2   -1    0    0    0  501  0.00000000000E+00  0.00000000000E+00 -0.98804422960E+03  0.98804422960E+03  0.25500000920E-02 0.  1.
    10030    2    1    2    0    0  0.00000000000E+00  0.00000000000E+00 -0.41856246037E+03  0.15575259988E+04  0.15002308835E+04 0.  0.
        2    1    3    3  502    0 -0.29592730026E+03  0.52106593738E+03  0.25916090886E+03  0.65287598732E+03  0.25500000920E-02 0. -1.
       -2    1    3    3    0  502  0.29592730026E+03 -0.52106593738E+03 -0.67772336923E+03  0.90465001152E+03  0.25500000920E-02 0.  1.
</event>
<event>
 5   0  0.4462875E-05  0.1500943E+04  0.7818609E-02  0.8883826E-01
       -3   -1    0    0    0  501  0.00000000000E+00  0.00000000000E+00  0.13205818028E+04  0.13205818067E+04  0.10100000352E+00 0.  1.
        3   -1    0    0  501    0  0.00000000000E+00  0.00000000000E+00 -0.42648440918E+03  0.42648442114E+03  0.10100000352E+00 0. -1.
    10030    2    1    2    0    0  0.00000000000E+00  0.00000000000E+00  0.89409739365E+03  0.17470662278E+04  0.15009431219E+04 0.  0.
        3    1    3    3  502    0  0.31596077315E+03  0.51184635822E+03 -0.75303837357E+02  0.60620836576E+03  0.10100000352E+00 0. -1.
       -3    1    3    3    0  502 -0.31596077315E+03 -0.51184635822E+03  0.96940123101E+03  0.11408578621E+04  0.10100000352E+00 0.  1.
</event>
<event>
 5   0  0.6542036E-05  0.1500778E+04  0.7818609E-02  0.8883936E-01
       -1   -1    0    0    0  501  0.00000000000E+00  0.00000000000E+00  0.38659077838E+03  0.38659077842E+03  0.50400001928E-02 0. -1.
        1   -1    0    0  501    0  0.00000000000E+00  0.00000000000E+00 -0.14565371838E+04  0.14565371838E+04  0.50400001928E-02 0.  1.
    10030    2    1    2    0    0  0.00000000000E+00  0.00000000000E+00 -0.10699464054E+04  0.18431279622E+04  0.15007782563E+04 0.  0.
        4    1    3    3  502    0  0.57129595264E+03 -0.41673618368E+03 -0.22663538037E+03  0.74257209806E+03  0.12699999809E+01 0. -1.
       -4    1    3    3    0  502 -0.57129595264E+03  0.41673618368E+03 -0.84331102505E+03  0.11005558642E+04  0.12699999809E+01 0.  1.
</event>
<event>
 5   0  0.1216921E-04  0.1499581E+04  0.7818609E-02  0.8884732E-01
        2   -1    0    0  501    0  0.00000000000E+00  0.00000000000E+00  0.13124952819E+04  0.13124952819E+04  0.25500000920E-02 0. -1.
       -2   -1    0    0    0  501  0.00000000000E+00  0.00000000000E+00 -0.42833335288E+03  0.42833335289E+03  0.25500000920E-02 0.  1.
    10030    2    1    2    0    0  0.00000000000E+00  0.00000000000E+00  0.88416192899E+03  0.17408286348E+04  0.14995806143E+04 0.  0.
        4    1    3    3  502    0 -0.73600470437E+03  0.93250062414E+02  0.56810640839E+03  0.93442228310E+03  0.12699999809E+01 0. -1.
       -4    1    3    3    0  502  0.73600470437E+03 -0.93250062414E+02  0.31605552060E+03  0.80640635166E+03  0.12699999809E+01 0.  1.
</event>
<event>
 5   0  0.1254487E-04  0.1499461E+04  0.7818609E-02  0.8884812E-01
       -2   -1    0    0    0  501  0.00000000000E+00  0.00000000000E+00  0.39520581242E+03  0.39520581243E+03  0.25500000920E-02 0. -1.
        2   -1    0    0  501    0  0.00000000000E+00  0.00000000000E+00 -0.14222854599E+04  0.14222854599E+04  0.25500000920E-02 0.  1.
    10030    2    1    2    0    0  0.00000000000E+00  0.00000000000E+00 -0.10270796475E+04  0.18174912723E+04  0.14994605439E+04 0.  0.
        5    1    3    3  502    0  0.19234512798E+03 -0.50120670912E+03 -0.11478598084E+04  0.12672052096E+04  0.46999998093E+01 0.  1.
       -5    1    3    3    0  502 -0.19234512798E+03  0.50120670912E+03  0.12078016093E+03  0.55028606270E+03  0.46999998093E+01 0. -1.
</event>
<event>
 5   0  0.6668433E-05  0.1527413E+04  0.7818609E-02  0.8866425E-01
        1   -1    0    0  501    0  0.00000000000E+00  0.00000000000E+00  0.52284359418E+03  0.52284359421E+03  0.50400001928E-02 0. -1.
       -1   -1    0    0    0  501  0.00000000000E+00  0.00000000000E+00 -0.11155303009E+04  0.11155303009E+04  0.50400001928E-02 0.  1.
    10030    2    1    2    0    0  0.00000000000E+00  0.00000000000E+00 -0.59268670674E+03  0.16383738951E+04  0.15274133324E+04 0.  0.
        1    1    3    3  502    0 -0.50271967171E+03  0.57389292832E+03 -0.33299757730E+03  0.83244672383E+03  0.50400001928E-02 0.  1.
       -1    1    3    3    0  502  0.50271967171E+03 -0.57389292832E+03 -0.25968912944E+03  0.80592717132E+03  0.50400001928E-02 0. -1.
</event>
<event>
 5   0  0.1216921E-04  0.1504511E+04  0.7818609E-02  0.8881459E-01
       -2   -1    0    0    0  501  0.00000000000E+00  0.00000000000E+00  0.57413985386E+03  0.57413985386E+03  0.25500000920E-02 0.  1.
        2   -1    0    0  501    0  0.00000000000E+00  0.00000000000E+00 -0.98562787442E+03  0.98562787443E+03  0.25500000920E-02 0. -1.
    10030    2    1    2    0    0  0.00000000000E+00  0.00000000000E+00 -0.41148802057E+03  0.15597677283E+04  0.15045108757E+04 0.  0.
        4    1    3    3  502    0  0.14219431759E+03  0.35241420386E+03  0.46730823199E+03  0.60232349417E+03  0.12699999809E+01 0.  1.
       -4    1    3    3    0  502 -0.14219431759E+03 -0.35241420386E+03 -0.87879625256E+03  0.95744423412E+03  0.12699999809E+01 0. -1.
</event>
<event>
 5   0  0.6361716E-05  0.1501957E+04  0.7818609E-02  0.8883152E-01
       -1   -1    0    0    0  501  0.00000000000E+00  0.00000000000E+00  0.53105842536E+03  0.53105842538E+03  0.50400001928E-02 0. -1.
        1   -1    0    0  501    0  0.00000000000E+00  0.00000000000E+00 -0.10619714343E+04  0.10619714343E+04  0.50400001928E-02 0.  1.
    10030    2    1    2    0    0  0.00000000000E+00  0.00000000000E+00 -0.53091300896E+03  0.15930298597E+04  0.15019572267E+04 0.  0.
        3    1    3    3  502    0  0.25821587330E+03 -0.16029994834E+03  0.46291346664E+03  0.55376926464E+03  0.10100000352E+00 0. -1.
       -3    1    3    3    0  502 -0.25821587330E+03  0.16029994834E+03 -0.99382647560E+03  0.10392605951E+04  0.10100000352E+00 0.  1.
</event>
<event>
 5   0  0.6509279E-05  0.1485860E+04  0.7818609E-02  0.8893911E-01
        1   -1    0    0  501    0  0.00000000000E+00  0.00000000000E+00  0.60207375700E+03  0.60207375702E+03  0.50400001928E-02 0.  1.
       -1   -1    0    0    0  501  0.00000000000E+00  0.00000000000E+00 -0.91673988874E+03  0.91673988875E+03  0.50400001928E-02 0. -1.
    10030    2    1    2    0    0  0.00000000000E+00  0.00000000000E+00 -0.31466613174E+03  0.15188136458E+04  0.14858600594E+04 0.  0.
        2    1    3    3  502    0  0.69395936853E+03 -0.15821935043E+03 -0.37496835356E+03  0.80449626114E+03  0.25500000920E-02 0.  1.
       -2    1    3    3    0  502 -0.69395936853E+03  0.15821935043E+03  0.60302221821E+02  0.71431738463E+03  0.25500000920E-02 0. -1.
</event>
<event>
 5   0  0.6509279E-05  0.1501918E+04  0.7818609E-02  0.8883178E-01
        1   -1    0    0  501    0  0.00000000000E+00  0.00000000000E+00  0.28341912734E+03  0.28341912739E+03  0.50400001928E-02 0. -1.
       -1   -1    0    0    0  501  0.00000000000E+00  0.00000000000E+00 -0.19897730845E+04  0.19897730845E+04  0.50400001928E-02 0.  1.
    10030    2    1    2    0    0  0.00000000000E+00  0.00000000000E+00 -0.17063539572E+04  0.22731922119E+04  0.15019184416E+04 0.  0.
        2    1    3    3  502    0  0.82690453965E+02  0.28903338899E+03 -0.18947221585E+04  0.19184238503E+04  0.25500000920E-02 0.  1.
       -2    1    3    3    0  502 -0.82690453965E+02 -0.28903338899E+03  0.18836820138E+03  0.35476836165E+03  0.25500000920E-02 0. -1.
</event>
<event>
 5   0  0.6668433E-05  0.1501329E+04  0.7818609E-02  0.8883570E-01
       -1   -1    0    0    0  501  0.00000000000E+00  0.00000000000E+00  0.52900070172E+03  0.52900070174E+03  0.50400001928E-02 0.  1.
        1   -1    0    0  501    0  0.00000000000E+00  0.00000000000E+00 -0.10652100032E+04  0.10652100032E+04  0.50400001928E-02 0. -1.
    10030    2    1    2    0    0  0.00000000000E+00  0.00000000000E+00 -0.53620930146E+03  0.15942107049E+04  0.15013285306E+04 0.  0.
        1    1    3    3  502    0  0.66092958213E+03 -0.72633646848E+02 -0.63807532936E+03  0.92154418513E+03  0.50400001928E-02 0. -1.
       -1    1    3    3    0  502 -0.66092958213E+03  0.72633646848E+02  0.10186602790E+03  0.67266651979E+03  0.50400001928E-02 0.  1.
</event>
<event>
 5   0  0.6364378E-05  0.1487677E+04  0.7818609E-02  0.8892689E-01
       -1   -1    0    0    0  501  0.00000000000E+00  0.00000000000E+00  0.48193257133E+03  0.48193257135E+03  0.50400001928E-02 0. -1.
        1   -1    0    0  501    0  0.00000000000E+00  0.00000000000E+00 -0.11480766733E+04  0.11480766733E+04  0.50400001928E-02 0.  1.
    10030    2    1    2    0    0  0.00000000000E+00  0.00000000000E+00 -0.66614410197E+03  0.16300092447E+04  0.14876767704E+04 0.  0.
        5    1    3    3  502    0 -0.39544786733E+03  0.44338411973E+03  0.15730183832E+03  0.61460105088E+03  0.46999998093E+01 0. -1.
       -5    1    3    3    0  502  0.39544786733E+03 -0.44338411973E+03 -0.82344594029E+03  0.10154081938E+04  0.46999998093E+01 0.  1.
</event>
<event>
 5   0  0.6509279E-05  0.1499343E+04  0.7818609E-02  0.8884890E-01
        1   -1    0    0  501    0  0.00000000000E+00  0.00000000000E+00  0.62809267255E+03  0.62809267257E+03  0.50400001928E-02 0. -1.
       -1   -1    0    0    0  501  0.00000000000E+00  0.00000000000E+00 -0.89478365403E+03  0.89478365405E+03  0.50400001928E-02 0.  1.
    10030    2    1    2    0    0  0.00000000000E+00  0.00000000000E+00 -0.26669098148E+03  0.15228763266E+04  0.14993425981E+04 0.  0.
        2    1    3    3  502    0 -0.57986771606E+03 -0.21985167828E+03 -0.56117629751E+03  0.83636126492E+03  0.25500000920E-02 0.  1.
       -2    1    3    3    0  502  0.57986771606E+03  0.21985167828E+03  0.29448531603E+03  0.68651506169E+03  0.25500000920E-02 0. -1.
</event>
<event>
 5   0  0.1216921E-04  0.1499216E+04  0.7818609E-02  0.8884974E-01
       -2   -1    0    0    0  501  0.00000000000E+00  0.00000000000E+00  0.18665157407E+03  0.18665157408E+03  0.25500000920E-02 0. -1.
        2   -1    0    0  501    0  0.00000000000E+00  0.00000000000E+00 -0.30104870785E+04  0.30104870785E+04  0.25500000920E-02 0.  1.
    10030    2    1    2    0    0  0.00000000000E+00  0.00000000000E+00 -0.28238355044E+04  0.31971386526E+04  0.14992159977E+04 0.  0.
        4    1    3    3  502    0  0.70381879203E+02 -0.72623197381E+03 -0.10453685484E+04  0.12748190082E+04  0.12699999809E+01 0. -1.
       -4    1    3    3    0  502 -0.70381879203E+02  0.72623197381E+03 -0.17784669560E+04  0.19223196444E+04  0.12699999809E+01 0.  1.
</event>
<event>
 5   0  0.1216921E-04  0.1500412E+04  0.7818609E-02  0.8884179E-01
        2   -1    0    0  501    0  0.00000000000E+00  0.00000000000E+00  0.72767739420E+03  0.72767739420E+03  0.25500000920E-02 0. -1.
       -2   -1    0    0    0  501  0.00000000000E+00  0.00000000000E+00 -0.77343227112E+03  0.77343227113E+03  0.25500000920E-02 0.  1.
    10030    2    1    2    0    0  0.00000000000E+00  0.00000000000E+00 -0.45754876922E+02  0.15011096653E+04  0.15004121829E+04 0.  0.
        4    1    3    3  502    0 -0.67987823996E+03  0.24901222874E+03 -0.21935115050E+03  0.75654348940E+03  0.12699999809E+01 0.  1.
       -4    1    3    3    0  502  0.67987823996E+03 -0.24901222874E+03  0.17359627358E+03  0.74456617593E+03  0.12699999809E+01 0. -1.
</event>
<event>
 5   0  0.1219810E-04  0.1500162E+04  0.7818609E-02  0.8884345E-01
       -2   -1    0    0    0  501  0.00000000000E+00  0.00000000000E+00  0.41690500721E+03  0.41690500722E+03  0.25500000920E-02 0.  1.
        2   -1    0    0  501    0  0.00000000000E+00  0.00000000000E+00 -0.13495200805E+04  0.13495200805E+04  0.25500000920E-02 0. -1.
    10030    2    1    2    0    0  0.00000000000E+00  0.00000000000E+00 -0.93261507330E+03  0.17664250877E+04  0.15001622298E+04 0.  0.
        1    1    3    3  502    0 -0.25194203727E+03 -0.69356506678E+03 -0.30782959682E+03  0.79954133896E+03  0.50400001928E-02 0.  1.
       -1    1    3    3    0  502  0.25194203727E+03  0.69356506678E+03 -0.62478547648E+03  0.96688374877E+03  0.50400001928E-02 0. -1.
</event>
<event>
 5   0  0.6542036E-05  0.1499319E+04  0.7818609E-02  0.8884906E-01
        1   -1    0    0  501    0  0.00000000000E+00  0.00000000000E+00  0.52613186387E+03  0.52613186390E+03  0.50400001928E-02 0.  1.
       -1   -1    0    0    0  501  0.00000000000E+00  0.00000000000E+00 -0.10681525083E+04  0.10681525083E+04  0.50400001928E-02 0. -1.
    10030    2    1    2    0    0  0.00000000000E+00  0.00000000000E+00 -0.54202064442E+03  0.15942843722E+04  0.14993186054E+04 0.  0.
        4    1    3    3  502    0 -0.34578228930E+02  0.12588544281E+03  0.51395063976E+03  0.53027320471E+03  0.12699999809E+01 0.  1.
       -4    1    3    3    0  502  0.34578228930E+02 -0.12588544281E+03 -0.10559712842E+04  0.10640111675E+04  0.12699999809E+01 0. -1.
</event>
<event>
 5   0  0.6542036E-05  0.1497832E+04  0.7818609E-02  0.8885896E-01
        1   -1    0    0  501    0  0.00000000000E+00  0.00000000000E+00  0.17120625611E+04  0.17120625611E+04  0.50400001928E-02 0. -1.
       -1   -1    0    0    0  501  0.00000000000E+00  0.00000000000E+00 -0.32760210512E+03  0.32760210516E+03  0.50400001928E-02 0.  1.
    10030    2    1    2    0    0  0.00000000000E+00  0.00000000000E+00  0.13844604560E+04  0.20396646663E+04  0.14978321657E+04 0.  0.
        4    1    3    3  502    0 -0.14097995209E+03  0.54431557197E+03  0.13658725644E+04  0.14770796404E+04  0.12699999809E+01 0. -1.
       -4    1    3    3    0  502  0.14097995209E+03 -0.54431557197E+03  0.18587891559E+02  0.56258502593E+03  0.12699999809E+01 0.  1.
</event>
<event>
 5   0  0.1254487E-04  0.1512113E+04  0.7818609E-02  0.8876437E-01
       -2   -1    0    0    0  501  0.00000000000E+00  0.00000000000E+00  0.83463118371E+03  0.83463118371E+03  0.25500000920E-02 0.  1.
        2   -1    0    0  501    0  0.00000000000E+00  0.00000000000E+00 -0.68487940273E+03  0.68487940273E+03  0.25500000920E-02 0. -1.
    10030    2    1    2    0    0  0.00000000000E+00  0.00000000000E+00  0.14975178098E+03  0.15195105864E+04  0.15121133643E+04 0.  0.
        5    1    3    3  502    0 -0.57326185230E+03  0.40625165943E+03 -0.20564930159E+03  0.73210879474E+03  0.46999998093E+01 0.  1.
       -5    1    3    3    0  502  0.57326185230E+03 -0.40625165943E+03  0.35540108258E+03  0.78740179171E+03  0.46999998093E+01 0. -1.
</event>
<event>
 5   0  0.6364378E-05  0.1487217E+04  0.7818609E-02  0.8892999E-01
       -1   -1    0    0    0  501  0.00000000000E+00  0.00000000000E+00  0.61096897689E+03  0.61096897691E+03  0.50400001928E-02 0.  1.
        1   -1    0    0  501    0  0.00000000000E+00  0.00000000000E+00 -0.90504314853E+03  0.90504314854E+03  0.50400001928E-02 0. -1.
    10030    2    1    2    0    0  0.00000000000E+00  0.00000000000E+00 -0.29407417163E+03  0.15160121255E+04  0.14872165767E+04 0.  0.
        5    1    3    3  502    0  0.42297333035E+03  0.57542025997E+03  0.64136457174E+02  0.71704287801E+03  0.46999998093E+01 0.  1.
       -5    1    3    3    0  502 -0.42297333035E+03 -0.57542025997E+03 -0.35821062881E+03  0.79896924744E+03  0.46999998093E+01 0. -1.
</event>
<event>
 5   0  0.4462875E-05  0.1499852E+04  0.7818609E-02  0.8884551E-01
       -3   -1    0    0    0  501  0.00000000000E+00  0.00000000000E+00  0.79749129290E+03  0.79749129930E+03  0.10100000352E+00 0. -1.
        3   -1    0    0  501    0  0.00000000000E+00  0.00000000000E+00 -0.70519775101E+03  0.70519775825E+03  0.10100000352E+00 0.  1.
    10030    2    1    2    0    0  0.00000000000E+00  0.00000000000E+00  0.92293541888E+02  0.15026890575E+04  0.14998520946E+04 0.  0.
        2    1    3    3  502    0 -0.53420360823E+03  0.16500277122E+03  0.54688174320E+03  0.78209913093E+03  0.25500000920E-02 0. -1.
       -2    1    3    3    0  502  0.53420360823E+03 -0.16500277122E+03 -0.45458820131E+03  0.72058992661E+03  0.25500000920E-02 0.  1.
</event>
<event>
 5   0  0.1228286E-04  0.1501125E+04  0.7818609E-02  0.8883705E-01
        2   -1    0    0  501    0  0.00000000000E+00  0.00000000000E+00  0.26004078030E+04  0.26004078030E+04  0.25500000920E-02 0.  1.
       -2   -1    0    0    0  501  0.00000000000E+00  0.00000000000E+00 -0.21663695330E+03  0.21663695332E+03  0.25500000920E-02 0. -1.
    10030    2    1    2    0    0  0.00000000000E+00  0.00000000000E+00  0.23837708497E+04  0.28170447563E+04  0.15011254762E+04 0.  0.
        2    1    3    3  502    0 -0.62745694358E+03  0.31014378872E+03  0.17004916049E+04  0.18389026848E+04  0.25500000920E-02 0.  1.
       -2    1    3    3    0  502  0.62745694358E+03 -0.31014378872E+03  0.68327924473E+03  0.97814207148E+03  0.25500000920E-02 0. -1.
</event>
<event>
 5   0  0.6361716E-05  0.1501993E+04  0.7818609E-02  0.8883128E-01
       -1   -1    0    0    0  501  0.00000000000E+00  0.00000000000E+00  0.48971930741E+03  0.48971930744E+03  0.50400001928E-02 0. -1.
        1   -1    0    0  501    0  0.00000000000E+00  0.00000000000E+00 -0.11516719827E+04  0.11516719827E+04  0.50400001928E-02 0.  1.
    10030    2    1    2    0    0  0.00000000000E+00  0.00000000000E+00 -0.66195267532E+03  0.16413912902E+04  0.15019933499E+04 0.  0.
        3    1    3    3  502    0 -0.93142720902E+01  0.35407489274E+02  0.48874344860E+03  0.49011285915E+03  0.10100000352E+00 0. -1.
       -3    1    3    3    0  502  0.93142720902E+01 -0.35407489274E+02 -0.11506961239E+04  0.11512784310E+04  0.10100000352E+00 0.  1.
</event>
<event>
 5   0  0.1186664E-04  0.1498109E+04  0.7818609E-02  0.8885711E-01
        2   -1    0    0  501    0  0.00000000000E+00  0.00000000000E+00  0.14327569575E+04  0.14327569575E+04  0.25500000920E-02 0.  1.
       -2   -1    0    0    0  501  0.00000000000E+00  0.00000000000E+00 -0.39161064056E+03  0.39161064057E+03  0.25500000920E-02 0. -1.
    10030    2    1    2    0    0  0.00000000000E+00  0.00000000000E+00  0.10411463170E+04  0.18243675981E+04  0.14981093016E+04 0.  0.
        3    1    3    3  502    0 -0.62964125327E+03  0.20298653708E+03  0.94841312977E+03  0.11563473168E+04  0.10100000352E+00 0.  1.
       -3    1    3    3    0  502  0.62964125327E+03 -0.20298653708E+03  0.92733187191E+02  0.66802028133E+03  0.10100000352E+00 0. -1.
</event>
<event>
 5   0  0.1216921E-04  0.1500195E+04  0.7818609E-02  0.8884323E-01
       -2   -1    0    0    0  501  0.00000000000E+00  0.00000000000E+00  0.10006403850E+04  0.10006403850E+04  0.25500000920E-02 0. -1.
        2   -1    0    0  501    0  0.00000000000E+00  0.00000000000E+00 -0.56228612497E+03  0.56228612498E+03  0.25500000920E-02 0.  1.
    10030    2    1    2    0    0  0.00000000000E+00  0.00000000000E+00  0.43835426002E+03  0.15629265100E+04  0.15001949268E+04 0.  0.
        4    1    3    3  502    0  0.54721799838E+03 -0.31753499470E+03 -0.20062231768E+03  0.66372203358E+03  0.12699999809E+01 0.  1.
       -4    1    3    3    0  502 -0.54721799838E+03  0.31753499470E+03  0.63897657770E+03  0.89920447639E+03  0.12699999809E+01 0. -1.
</event>
<event>
 5   0  0.1216921E-04  0.1504745E+04  0.7818609E-02  0.8881303E-01
        2   -1    0    0  501    0  0.00000000000E+00  0.00000000000E+00  0.15903189574E+04  0.15903189574E+04  0.25500000920E-02 0.  1.
       -2   -1    0    0    0  501  0.00000000000E+00  0.00000000000E+00 -0.35594415514E+03  0.35594415515E+03  0.25500000920E-02 0. -1.
    10030    2    1    2    0    0  0.00000000000E+00  0.00000000000E+00  0.12343748023E+04  0.19462631126E+04  0.15047454771E+04 0.  0.
        4    1    3    3  502    0  0.66841418246E+03  0.20437901608E+03  0.25708096331E+03  0.74474192585E+03  0.12699999809E+01 0. -1.
       -4    1    3    3    0  502 -0.66841418246E+03 -0.20437901608E+03  0.97729383896E+03  0.12015211867E+04  0.12699999809E+01 0.  1.
</event>
<event>
 5   0  0.6509279E-05  0.1498914E+04  0.7818609E-02  0.8885175E-01
       -1   -1    0    0    0  501  0.00000000000E+00  0.00000000000E+00  0.12576600051E+04  0.12576600051E+04  0.50400001928E-02 0.  1.
        1   -1    0    0  501    0  0.00000000000E+00  0.00000000000E+00 -0.44661199660E+03  0.44661199662E+03  0.50400001928E-02 0. -1.
    10030    2    1    2    0    0  0.00000000000E+00  0.00000000000E+00  0.81104800851E+03  0.17042720017E+04  0.14989143350E+04 0.  0.
        2    1    3    3  502    0  0.45240597001E+03  0.18094979753E+03  0.10529898413E+04  0.11602592800E+04  0.25500000920E-02 0.  1.
       -2    1    3    3    0  502 -0.45240597001E+03 -0.18094979753E+03 -0.24194183281E+03  0.54401272173E+03  0.25500000920E-02 0. -1.
</event>
<event>
 5   0  0.1219810E-04  0.1497580E+04  0.7818609E-02  0.8886064E-01
        2   -1    0    0  501    0  0.00000000000E+00  0.00000000000E+00  0.15182289852E+04  0.15182289852E+04  0.25500000920E-02 0.  1.
       -2   -1    0    0    0  501  0.00000000000E+00  0.00000000000E+00 -0.36930295472E+03  0.36930295473E+03  0.25500000920E-02 0. -1.
    10030    2    1    2    0    0  0.00000000000E+00  0.00000000000E+00  0.11489260304E+04  0.18875319399E+04  0.14975799814E+04 0.  0.
        1    1    3    3  502    0 -0.50288151196E+03  0.36975015093E+03  0.10957846619E+04  0.12610904069E+04  0.50400001928E-02 0.  1.
       -1    1    3    3    0  502  0.50288151196E+03 -0.36975015093E+03  0.53141368567E+02  0.62644153299E+03  0.50400001928E-02 0. -1.
</event>
<event>
 5   0  0.6668433E-05  0.1502518E+04  0.7818609E-02  0.8882780E-01
       -1   -1    0    0    0  501  0.00000000000E+00  0.00000000000E+00  0.80578537883E+03  0.80578537884E+03  0.50400001928E-02 0. -1.
        1   -1    0    0  501    0  0.00000000000E+00  0.00000000000E+00 -0.70042264831E+03  0.70042264832E+03  0.50400001928E-02 0.  1.
    10030    2    1    2    0    0  0.00000000000E+00  0.00000000000E+00  0.10536273052E+03  0.15062080272E+04  0.15025183247E+04 0.  0.
        1    1    3    3  502    0  0.15136386531E+03 -0.70703589572E+03  0.25709275007E+03  0.76740306210E+03  0.50400001928E-02 0. -1.
       -1    1    3    3    0  502 -0.15136386531E+03  0.70703589572E+03 -0.15173001955E+03  0.73880496507E+03  0.50400001928E-02 0.  1.
</event>
<event>
 5   0  0.6364378E-05  0.1493414E+04  0.7818609E-02  0.8888845E-01
       -1   -1    0    0    0  501  0.00000000000E+00  0.00000000000E+00  0.60130943906E+03  0.60130943908E+03  0.50400001928E-02 0. -1.
        1   -1    0    0  501    0  0.00000000000E+00  0.00000000000E+00 -0.92726151409E+03  0.92726151411E+03  0.50400001928E-02 0.  1.
    10030    2    1    2    0    0  0.00000000000E+00  0.00000000000E+00 -0.32595207504E+03  0.15285709532E+04  0.14934136747E+04 0.  0.
        5    1    3    3  502    0  0.12016468676E+02  0.64131576653E+03  0.22827759547E+03  0.68085465300E+03  0.46999998093E+01 0. -1.
       -5    1    3    3    0  502 -0.12016468676E+02 -0.64131576653E+03 -0.55422967051E+03  0.84771630018E+03  0.46999998093E+01 0.  1.
</event>
<event>
 5   0  0.1219810E-04  0.1497106E+04  0.7818609E-02  0.8886379E-01
       -2   -1    0    0    0  501  0.00000000000E+00  0.00000000000E+00  0.47412908739E+03  0.47412908740E+03  0.25500000920E-02 0. -1.
        2   -1    0    0  501    0  0.00000000000E+00  0.00000000000E+00 -0.11818128590E+04  0.11818128590E+04  0.25500000920E-02 0.  1.
    10030    2    1    2    0    0  0.00000000000E+00  0.00000000000E+00 -0.70768377162E+03  0.16559419464E+04  0.14971063453E+04 0.  0.
        1    1    3    3  502    0 -0.74004350143E+03 -0.89555387568E+01 -0.47793799687E+03  0.88100471881E+03  0.50400001928E-02 0.  1.
       -1    1    3    3    0  502  0.74004350143E+03  0.89555387568E+01 -0.22974577475E+03  0.77493722761E+03  0.50400001928E-02 0. -1.
</event>
<event>
 5   0  0.6364378E-05  0.1493666E+04  0.7818609E-02  0.8888676E-01
        1   -1    0    0  501    0  0.00000000000E+00  0.00000000000E+00  0.79241865288E+03  0.79241865289E+03  0.50400001928E-02 0.  1.
       -1   -1    0    0    0  501  0.00000000000E+00  0.00000000000E+00 -0.70387021018E+03  0.70387021020E+03  0.50400001928E-02 0. -1.
    10030    2    1    2    0    0  0.00000000000E+00  0.00000000000E+00  0.88548442699E+02  0.14962888631E+04  0.14936664739E+04 0.  0.
        5    1    3    3  502    0  0.46173940472E+03 -0.57517830980E+03  0.16154566315E+03  0.75508440403E+03  0.46999998093E+01 0.  1.
       -5    1    3    3    0  502 -0.46173940472E+03  0.57517830980E+03 -0.72997220456E+02  0.74120445906E+03  0.46999998093E+01 0. -1.
</event>
<event>
 5   0  0.6364378E-05  0.1503912E+04  0.7818609E-02  0.8881856E-01
        1   -1    0    0  501    0  0.00000000000E+00  0.00000000000E+00  0.10079446088E+04  0.10079446088E+04  0.50400001928E-02 0.  1.
       -1   -1    0    0    0  501  0.00000000000E+00  0.00000000000E+00 -0.56098078423E+03  0.56098078425E+03  0.50400001928E-02 0. -1.
    10030    2    1    2    0    0  0.00000000000E+00  0.00000000000E+00  0.44696382459E+03  0.15689253931E+04  0.15039116425E+04 0.  0.
        5    1    3    3  502    0  0.71639253182E+01 -0.74861325652E+03  0.29682280113E+03  0.80535643968E+03  0.46999998093E+01 0.  1.
       -5    1    3    3    0  502 -0.71639253182E+01  0.74861325652E+03  0.15014102345E+03  0.76356895339E+03  0.46999998093E+01 0. -1.
</event>
<event>
 5   0  0.6542036E-05  0.1499973E+04  0.7818609E-02  0.8884471E-01
        1   -1    0    0  501    0  0.00000000000E+00  0.00000000000E+00  0.99239350999E+03  0.99239351001E+03  0.50400001928E-02 0. -1.
       -1   -1    0    0    0  501  0.00000000000E+00  0.00000000000E+00 -0.56679111524E+03  0.56679111526E+03  0.50400001928E-02 0.  1.
    10030    2    1    2    0    0  0.00000000000E+00  0.00000000000E+00  0.42560239476E+03  0.15591846253E+04  0.14999730988E+04 0.  0.
        4    1    3    3  502    0 -0.43740629620E+03  0.47260495513E+03  0.61242291889E+03  0.88867494397E+03  0.12699999809E+01 0. -1.
       -4    1    3    3    0  502  0.43740629620E+03 -0.47260495513E+03 -0.18682052413E+03  0.67050968129E+03  0.12699999809E+01 0.  1.
</event>
<event>
 5   0  0.1254487E-04  0.1498754E+04  0.7818609E-02  0.8885282E-01
        2   -1    0    0  501    0  0.00000000000E+00  0.00000000000E+00  0.22745322740E+04  0.22745322740E+04  0.25500000920E-02 0. -1.
       -2   -1    0    0    0  501  0.00000000000E+00  0.00000000000E+00 -0.24689296277E+03  0.24689296278E+03  0.25500000920E-02 0.  1.
    10030    2    1    2    0    0  0.00000000000E+00  0.00000000000E+00  0.20276393112E+04  0.25214252368E+04  0.14987541654E+04 0.  0.
        5    1    3    3  502    0 -0.55238598816E+03 -0.37573989192E+03  0.15849095269E+04  0.17199625126E+04  0.46999998093E+01 0. -1.
       -5    1    3    3    0  502  0.55238598816E+03  0.37573989192E+03  0.44272978427E+03  0.80146272413E+03  0.46999998093E+01 0.  1.
</event>
<event>
 5   0  0.1219810E-04  0.1505220E+04  0.7818609E-02  0.8880989E-01
       -2   -1    0    0    0  501  0.00000000000E+00  0.00000000000E+00  0.67170243032E+03  0.67170243032E+03  0.25500000920E-02 0.  1.
        2   -1    0    0  501    0  0.00000000000E+00  0.00000000000E+00 -0.84326315966E+03  0.84326315967E+03  0.25500000920E-02 0. -1.
    10030    2    1    2    0    0  0.00000000000E+00  0.00000000000E+00 -0.17156072935E+03  0.15149655900E+04  0.15052201351E+04 0.  0.
        1    1    3    3  502    0 -0.29447309127E+02 -0.67347546945E+03 -0.42258942517E+03  0.79562439270E+03  0.50400001928E-02 0. -1.
       -1    1    3    3    0  502  0.29447309127E+02  0.67347546945E+03  0.25102869582E+03  0.71934119729E+03  0.50400001928E-02 0.  1.
</event>
<event>
 5   0  0.6509279E-05  0.1498901E+04  0.7818609E-02  0.8885184E-01
       -1   -1    0    0    0  501  0.00000000000E+00  0.00000000000E+00  0.42063291680E+03  0.42063291683E+03  0.50400001928E-02 0.  1.
        1   -1    0    0  501    0  0.00000000000E+00  0.00000000000E+00 -0.13353117880E+04  0.13353117881E+04  0.50400001928E-02 0. -1.
    10030    2    1    2    0    0  0.00000000000E+00  0.00000000000E+00 -0.91467887124E+03  0.17559447049E+04  0.14989010538E+04 0.  0.
        2    1    3    3  502    0 -0.66269728851E+03  0.21000577392E+03 -0.78536858637E+03  0.10488440960E+04  0.25500000920E-02 0. -1.
       -2    1    3    3    0  502  0.66269728851E+03 -0.21000577392E+03 -0.12931028487E+03  0.70710060887E+03  0.25500000920E-02 0.  1.
</event>
<event>
 5   0  0.6364378E-05  0.1500571E+04  0.7818609E-02  0.8884073E-01
       -1   -1    0    0    0  501  0.00000000000E+00  0.00000000000E+00  0.67305663433E+03  0.67305663435E+03  0.50400001928E-02 0. -1.
        1   -1    0    0  501    0  0.00000000000E+00  0.00000000000E+00 -0.83637620488E+03  0.83637620489E+03  0.50400001928E-02 0.  1.
    10030    2    1    2    0    0  0.00000000000E+00  0.00000000000E+00 -0.16331957054E+03  0.15094328392E+04  0.15005712959E+04 0.  0.
        5    1    3    3  502    0  0.17004548578E+03  0.45633361362E+03 -0.65577597164E+03  0.81683538680E+03  0.46999998093E+01 0.  1.
       -5    1    3    3    0  502 -0.17004548578E+03 -0.45633361362E+03  0.49245640110E+03  0.69259745244E+03  0.46999998093E+01 0. -1.
</event>
<event>
 5   0  0.1186664E-04  0.1496710E+04  0.7818609E-02  0.8886643E-01
        2   -1    0    0  501    0  0.00000000000E+00  0.00000000000E+00  0.15986169121E+04  0.15986169121E+04  0.25500000920E-02 0.  1.
       -2   -1    0    0    0  501  0.00000000000E+00  0.00000000000E+00 -0.35032503873E+03  0.35032503874E+03  0.25500000920E-02 0. -1.
    10030    2    1    2    0    0  0.00000000000E+00  0.00000000000E+00  0.12482918734E+04  0.19489419509E+04  0.14967104352E+04 0.  0.
        3    1    3    3  502    0 -0.52572808453E+03  0.32707485388E+03  0.76828226533E+02  0.62391551151E+03  0.10100000352E+00 0. -1.
       -3    1    3    3    0  502  0.52572808453E+03 -0.32707485388E+03  0.11714636469E+04  0.13250264394E+04  0.10100000352E+00 0.  1.
</event>
<event>
 5   0  0.1219810E-04  0.1500355E+04  0.7818609E-02  0.8884217E-01
       -2   -1    0    0    0  501  0.00000000000E+00  0.00000000000E+00  0.38779629707E+03  0.38779629708E+03  0.25500000920E-02 0. -1.
        2   -1    0    0  501    0  0.00000000000E+00  0.00000000000E+00 -0.14511907667E+04  0.14511907667E+04  0.25500000920E-02 0.  1.
    10030    2    1    2    0    0  0.00000000000E+00  0.00000000000E+00 -0.10633944697E+04  0.18389870638E+04  0.15003551655E+04 0.  0.
        1    1    3    3  502    0  0.31147674690E+03 -0.39602189826E+01 -0.13681724605E+04  0.14031854221E+04  0.50400001928E-02 0.  1.
       -1    1    3    3    0  502 -0.31147674690E+03  0.39602189826E+01  0.30477799082E+03  0.43580164169E+03  0.50400001928E-02 0. -1.
</event>
<event>
 5   0  0.4462875E-05  0.1500526E+04  0.7818609E-02  0.8884104E-01
        3   -1    0    0  501    0  0.00000000000E+00  0.00000000000E+00  0.99415505371E+03  0.99415505884E+03  0.10100000352E+00 0.  1.
       -3   -1    0    0    0  501  0.00000000000E+00  0.00000000000E+00 -0.56620365383E+03  0.56620366284E+03  0.10100000352E+00 0. -1.
    10030    2    1    2    0    0  0.00000000000E+00  0.00000000000E+00  0.42795139988E+03  0.15603587217E+04  0.15005255545E+04 0.  0.
        1    1    3    3  502    0  0.17661782274E+03 -0.77068275322E+02  0.96798236193E+03  0.98697681198E+03  0.50400001928E-02 0.  1.
       -1    1    3    3    0  502 -0.17661782274E+03  0.77068275322E+02 -0.54003096204E+03  0.57338190969E+03  0.50400001928E-02 0. -1.
</event>
<event>
 5   0  0.6509279E-05  0.1499815E+04  0.7818609E-02  0.8884576E-01
       -1   -1    0    0    0  501  0.00000000000E+00  0.00000000000E+00  0.65490583396E+03  0.65490583398E+03  0.50400001928E-02 0. -1.
        1   -1    0    0  501    0  0.00000000000E+00  0.00000000000E+00 -0.85868993612E+03  0.85868993614E+03  0.50400001928E-02 0.  1.
    10030    2    1    2    0    0  0.00000000000E+00  0.00000000000E+00 -0.20378410216E+03  0.15135957701E+04  0.14998147202E+04 0.  0.
        2    1    3    3  502    0  0.28629950311E+03 -0.43122003999E+03  0.44571981716E+03  0.68306975031E+03  0.25500000920E-02 0. -1.
       -2    1    3    3    0  502 -0.28629950311E+03  0.43122003999E+03 -0.64950391932E+03  0.83052601981E+03  0.25500000920E-02 0.  1.
</event>
<event>
 5   0  0.6364378E-05  0.1499004E+04  0.7818609E-02  0.8885116E-01
        1   -1    0    0  501    0  0.00000000000E+00  0.00000000000E+00  0.11651506112E+04  0.11651506112E+04  0.50400001928E-02 0.  1.
       -1   -1    0    0    0  501  0.00000000000E+00  0.00000000000E+00 -0.48212902011E+03  0.48212902014E+03  0.50400001928E-02 0. -1.
    10030    2    1    2    0    0  0.00000000000E+00  0.00000000000E+00  0.68302159112E+03  0.16472796314E+04  0.14990035657E+04 0.  0.
        5    1    3    3  502    0  0.36683302057E+03 -0.96422512472E+02 -0.36885776905E+03  0.52909536917E+03  0.46999998093E+01 0. -1.
       -5    1    3    3    0  502 -0.36683302057E+03  0.96422512472E+02  0.10518793602E+04  0.11181842622E+04  0.46999998093E+01 0.  1.
</event>
<event>
 5   0  0.6509279E-05  0.1492007E+04  0.7818609E-02  0.8889786E-01
       -1   -1    0    0    0  501  0.00000000000E+00  0.00000000000E+00  0.43229481451E+03  0.43229481454E+03  0.50400001928E-02 0. -1.
        1   -1    0    0  501    0  0.00000000000E+00  0.00000000000E+00 -0.12873653034E+04  0.12873653034E+04  0.50400001928E-02 0.  1.
    10030    2    1    2    0    0  0.00000000000E+00  0.00000000000E+00 -0.85507048884E+03  0.17196601179E+04  0.14920071649E+04 0.  0.
        2    1    3    3  502    0 -0.42167549423E+03 -0.12792090905E+03  0.26626470444E+03  0.51485034159E+03  0.25500000920E-02 0. -1.
       -2    1    3    3    0  502  0.42167549423E+03  0.12792090905E+03 -0.11213351933E+04  0.12048097763E+04  0.25500000920E-02 0.  1.
</event>
<event>
 5   0  0.6364378E-05  0.1502445E+04  0.7818609E-02  0.8882829E-01
       -1   -1    0    0    0  501  0.00000000000E+00  0.00000000000E+00  0.51855252024E+03  0.51855252026E+03  0.50400001928E-02 0.  1.
        1   -1    0    0  501    0  0.00000000000E+00  0.00000000000E+00 -0.10882892761E+04  0.10882892761E+04  0.50400001928E-02 0. -1.
    10030    2    1    2    0    0  0.00000000000E+00  0.00000000000E+00 -0.56973675589E+03  0.16068417964E+04  0.15024448701E+04 0.  0.
        5    1    3    3  502    0 -0.13361763105E+03  0.62742861768E+01 -0.10754339102E+04  0.10837311582E+04  0.46999998093E+01 0. -1.
       -5    1    3    3    0  502  0.13361763105E+03 -0.62742861768E+01  0.50569715429E+03  0.52311063824E+03  0.46999998093E+01 0.  1.
</event>
<event>
 5   0  0.6509279E-05  0.1499505E+04  0.7818609E-02  0.8884782E-01
        1   -1    0    0  501    0  0.00000000000E+00  0.00000000000E+00  0.10525307873E+04  0.10525307873E+04  0.50400001928E-02 0. -1.
       -1   -1    0    0    0  501  0.00000000000E+00  0.00000000000E+00 -0.53407328429E+03  0.53407328432E+03  0.50400001928E-02 0.  1.
    10030    2    1    2    0    0  0.00000000000E+00  0.00000000000E+00  0.51845750302E+03  0.15866040716E+04  0.14995046841E+04 0.  0.
        2    1    3    3  502    0 -0.72698721121E+03 -0.72300636260E+02  0.43751155496E+03  0.85155983231E+03  0.25500000920E-02 0.  1.
       -2    1    3    3    0  502  0.72698721121E+03  0.72300636260E+02  0.80945948066E+02  0.73504423934E+03  0.25500000920E-02 0. -1.
</event>
<event>
 5   0  0.1186664E-04  0.1501361E+04  0.7818609E-02  0.8883548E-01
       -2   -1    0    0    0  501  0.00000000000E+00  0.00000000000E+00  0.57728381816E+03  0.57728381816E+03  0.25500000920E-02 0. -1.
        2   -1    0    0  501    0  0.00000000000E+00  0.00000000000E+00 -0.97616011633E+03  0.97616011634E+03  0.25500000920E-02 0.  1.
    10030    2    1    2    0    0  0.00000000000E+00  0.00000000000E+00 -0.39887629817E+03  0.15534439345E+04  0.15013613011E+04 0.  0.
        3    1    3    3  502    0 -0.28648437174E+03  0.10974826514E+03  0.50945945065E+03  0.59469901548E+03  0.10100000352E+00 0. -1.
       -3    1    3    3    0  502  0.28648437174E+03 -0.10974826514E+03 -0.90833574883E+03  0.95874491902E+03  0.10100000352E+00 0.  1.
</event>
<event>
 5   0  0.1228286E-04  0.1497723E+04  0.7818609E-02  0.8885969E-01
        2   -1    0    0  501    0  0.00000000000E+00  0.00000000000E+00  0.13389759248E+04  0.13389759248E+04  0.25500000920E-02 0.  1.
       -2   -1    0    0    0  501  0.00000000000E+00  0.00000000000E+00 -0.41882250138E+03  0.41882250139E+03  0.25500000920E-02 0. -1.
    10030    2    1    2    0    0  0.00000000000E+00  0.00000000000E+00  0.92015342341E+03  0.17577984262E+04  0.14977225993E+04 0.  0.
        2    1    3    3  502    0  0.39182377253E+03 -0.22565864852E+03  0.11606819163E+04  0.12456444939E+04  0.25500000920E-02 0.  1.
       -2    1    3    3    0  502 -0.39182377253E+03  0.22565864852E+03 -0.24052849294E+03  0.51215393223E+03  0.25500000920E-02 0. -1.
</event>
<event>
 5   0  0.1219810E-04  0.1497031E+04  0.7818609E-02  0.8886430E-01
        2   -1    0    0  501    0  0.00000000000E+00  0.00000000000E+00  0.23805814300E+04  0.23805814300E+04  0.25500000920E-02 0. -1.
       -2   -1    0    0    0  501  0.00000000000E+00  0.00000000000E+00 -0.23535224250E+03  0.23535224252E+03  0.25500000920E-02 0.  1.
    10030    2    1    2    0    0  0.00000000000E+00  0.00000000000E+00  0.21452291875E+04  0.26159336725E+04  0.14970306316E+04 0.  0.
        1    1    3    3  502    0 -0.27644247163E+03 -0.12239978456E+03  0.22691448030E+04  0.22891964276E+04  0.50400001928E-02 0. -1.
       -1    1    3    3    0  502  0.27644247163E+03  0.12239978456E+03 -0.12391561552E+03  0.32673724485E+03  0.50400001928E-02 0.  1.
</event>
<event>
 5   0  0.6509279E-05  0.1474743E+04  0.7818609E-02  0.8901424E-01
       -1   -1    0    0    0  501  0.00000000000E+00  0.00000000000E+00  0.59031201273E+03  0.59031201275E+03  0.50400001928E-02 0.  1.
        1   -1    0    0  501    0  0.00000000000E+00  0.00000000000E+00 -0.92106678676E+03  0.92106678677E+03  0.50400001928E-02 0. -1.
    10030    2    1    2    0    0  0.00000000000E+00  0.00000000000E+00 -0.33075477403E+03  0.15113787995E+04  0.14747430811E+04 0.  0.
        2    1    3    3  502    0  0.68565373852E+02 -0.40037860792E+03  0.46530660298E+03  0.61766858019E+03  0.25500000920E-02 0.  1.
       -2    1    3    3    0  502 -0.68565373852E+02  0.40037860792E+03 -0.79606137701E+03  0.89371021934E+03  0.25500000920E-02 0. -1.
</event>
<event>
 5   0  0.1216921E-04  0.1499890E+04  0.7818609E-02  0.8884526E-01
        2   -1    0    0  501    0  0.00000000000E+00  0.00000000000E+00  0.17305667438E+04  0.17305667438E+04  0.25500000920E-02 0.  1.
       -2   -1    0    0    0  501  0.00000000000E+00  0.00000000000E+00 -0.32499034514E+03  0.32499034515E+03  0.25500000920E-02 0. -1.
    10030    2    1    2    0    0  0.00000000000E+00  0.00000000000E+00  0.14055763987E+04  0.20555570890E+04  0.14998899738E+04 0.  0.
        4    1    3    3  502    0  0.28449687053E+03 -0.33751779962E+03 -0.12808308943E+03  0.45963422969E+03  0.12699999809E+01 0. -1.
       -4    1    3    3    0  502 -0.28449687053E+03  0.33751779962E+03  0.15336594881E+04  0.15959228593E+04  0.12699999809E+01 0.  1.
</event>
<event>
 5   0  0.6668433E-05  0.1503064E+04  0.7818609E-02  0.8882418E-01
       -1   -1    0    0    0  501  0.00000000000E+00  0.00000000000E+00  0.32076404682E+03  0.32076404686E+03  0.50400001928E-02 0. -1.
        1   -1    0    0  501    0  0.00000000000E+00  0.00000000000E+00 -0.17607980001E+04  0.17607980001E+04  0.50400001928E-02 0.  1.
    10030    2    1    2    0    0  0.00000000000E+00  0.00000000000E+00 -0.14400339533E+04  0.20815620469E+04  0.15030644593E+04 0.  0.
        1    1    3    3  502    0  0.26019246752E+02 -0.68424646524E+03 -0.11489505411E+04  0.13375191858E+04  0.50400001928E-02 0. -1.
       -1    1    3    3    0  502 -0.26019246752E+02  0.68424646524E+03 -0.29108341215E+03  0.74404286116E+03  0.50400001928E-02 0.  1.
</event>
<event>
 5   0  0.6542036E-05  0.1500915E+04  0.7818609E-02  0.8883844E-01
       -1   -1    0    0    0  501  0.00000000000E+00  0.00000000000E+00  0.74506041152E+03  0.74506041154E+03  0.50400001928E-02 0. -1.
        1   -1    0    0  501    0  0.00000000000E+00  0.00000000000E+00 -0.75589414808E+03  0.75589414809E+03  0.50400001928E-02 0.  1.
    10030    2    1    2    0    0  0.00000000000E+00  0.00000000000E+00 -0.10833736557E+02  0.15009545596E+04  0.15009154607E+04 0.  0.
        4    1    3    3  502    0 -0.41218729367E+03  0.71919673926E+02  0.61758763303E+03  0.74598049702E+03  0.12699999809E+01 0. -1.
       -4    1    3    3    0  502  0.41218729367E+03 -0.71919673926E+02 -0.62842136959E+03  0.75497406261E+03  0.12699999809E+01 0.  1.
</event>
<event>
 5   0  0.1186664E-04  0.1499773E+04  0.7818609E-02  0.8884604E-01
        2   -1    0    0  501    0  0.00000000000E+00  0.00000000000E+00  0.13044187590E+04  0.13044187590E+04  0.25500000920E-02 0.  1.
       -2   -1    0    0    0  501  0.00000000000E+00  0.00000000000E+00 -0.43109632008E+03  0.43109632009E+03  0.25500000920E-02 0. -1.
    10030    2    1    2    0    0  0.00000000000E+00  0.00000000000E+00  0.87332243889E+03  0.17355150791E+04  0.14997734854E+04 0.  0.
        3    1    3    3  502    0  0.28890520102E+03  0.67516032734E+03  0.61224255045E+03  0.95611120356E+03  0.10100000352E+00 0.  1.
       -3    1    3    3    0  502 -0.28890520102E+03 -0.67516032734E+03  0.26107988844E+03  0.77940387550E+03  0.10100000352E+00 0. -1.
</event>
<event>
 5   0  0.6364378E-05  0.1499595E+04  0.7818609E-02  0.8884722E-01
        1   -1    0    0  501    0  0.00000000000E+00  0.00000000000E+00  0.38549023554E+03  0.38549023558E+03  0.50400001928E-02 0.  1.
       -1   -1    0    0    0  501  0.00000000000E+00  0.00000000000E+00 -0.14583927365E+04  0.14583927366E+04  0.50400001928E-02 0. -1.
    10030    2    1    2    0    0  0.00000000000E+00  0.00000000000E+00 -0.10729025010E+04  0.18438829721E+04  0.14995948247E+04 0.  0.
        5    1    3    3  502    0 -0.43563649870E+03  0.58729421308E+03 -0.33261985079E+03  0.80333785349E+03  0.46999998093E+01 0. -1.
       -5    1    3    3    0  502  0.43563649870E+03 -0.58729421308E+03 -0.74028265021E+03  0.10405451186E+04  0.46999998093E+01 0.  1.
</event>
<event>
 5   0  0.1186664E-04  0.1486878E+04  0.7818609E-02  0.8893226E-01
        2   -1    0    0  501    0  0.00000000000E+00  0.00000000000E+00  0.19756420286E+04  0.19756420286E+04  0.25500000920E-02 0. -1.
       -2   -1    0    0    0  501  0.00000000000E+00  0.00000000000E+00 -0.27975791701E+03  0.27975791702E+03  0.25500000920E-02 0.  1.
    10030    2    1    2    0    0  0.00000000000E+00  0.00000000000E+00  0.16958841116E+04  0.22553999456E+04  0.14868779354E+04 0.  0.
        3    1    3    3  502    0 -0.95693402719E+02  0.43471761718E+03 -0.55283238560E+02  0.44854529390E+03  0.10100000352E+00 0.  1.
       -3    1    3    3    0  502  0.95693402719E+02 -0.43471761718E+03  0.17511673501E+04  0.18068546517E+04  0.10100000352E+00 0. -1.
</event>
<event>
 5   0  0.6542036E-05  0.1509116E+04  0.7818609E-02  0.8878413E-01
       -1   -1    0    0    0  501  0.00000000000E+00  0.00000000000E+00  0.74903489458E+03  0.74903489460E+03  0.50400001928E-02 0.  1.
        1   -1    0    0  501    0  0.00000000000E+00  0.00000000000E+00 -0.76012178948E+03  0.76012178950E+03  0.50400001928E-02 0. -1.
    10030    2    1    2    0    0  0.00000000000E+00  0.00000000000E+00 -0.11086894906E+02  0.15091566841E+04  0.15091159591E+04 0.  0.
        4    1    3    3  502    0 -0.73649599451E+03 -0.13828833380E+03  0.82811177200E+02  0.75392925210E+03  0.12699999809E+01 0. -1.
       -4    1    3    3    0  502  0.73649599451E+03  0.13828833380E+03 -0.93898072106E+02  0.75522743200E+03  0.12699999809E+01 0.  1.
</event>
<event>
 5   0  0.6364378E-05  0.1502038E+04  0.7818609E-02  0.8883099E-01
        1   -1    0    0  501    0  0.00000000000E+00  0.00000000000E+00  0.14529616819E+04  0.14529616819E+04  0.50400001928E-02 0. -1.
       -1   -1    0    0    0  501  0.00000000000E+00  0.00000000000E+00 -0.38819302789E+03  0.38819302792E+03  0.50400001928E-02 0.  1.
    10030    2    1    2    0    0  0.00000000000E+00  0.00000000000E+00  0.10647686540E+04  0.18411547098E+04  0.15020380751E+04 0.  0.
        5    1    3    3  502    0 -0.21967099903E+03 -0.61896924283E+03  0.97878924566E+03  0.11787403229E+04  0.46999998093E+01 0. -1.
       -5    1    3    3    0  502  0.21967099903E+03  0.61896924283E+03  0.85979408367E+02  0.66241438695E+03  0.46999998093E+01 0.  1.
</event>
<event>
 5   0  0.1254487E-04  0.1499223E+04  0.7818609E-02  0.8884970E-01
       -2   -1    0    0    0  501  0.00000000000E+00  0.00000000000E+00  0.63521801761E+03  0.63521801762E+03  0.25500000920E-02 0.  1.
        2   -1    0    0  501    0  0.00000000000E+00  0.00000000000E+00 -0.88460572972E+03  0.88460572973E+03  0.25500000920E-02 0. -1.
    10030    2    1    2    0    0  0.00000000000E+00  0.00000000000E+00 -0.24938771211E+03  0.15198237473E+04  0.14992231295E+04 0.  0.
        5    1    3    3  502    0 -0.64201376382E+03 -0.31262545230E+03 -0.35581579377E+03  0.79783664710E+03  0.46999998093E+01 0. -1.
       -5    1    3    3    0  502  0.64201376382E+03  0.31262545230E+03  0.10642808166E+03  0.72198710025E+03  0.46999998093E+01 0.  1.
</event>
<event>
 5   0  0.6668433E-05  0.1500145E+04  0.7818609E-02  0.8884356E-01
        1   -1    0    0  501    0  0.00000000000E+00  0.00000000000E+00  0.92523050791E+03  0.92523050793E+03  0.50400001928E-02 0. -1.
       -1   -1    0    0    0  501  0.00000000000E+00  0.00000000000E+00 -0.60807453356E+03  0.60807453358E+03  0.50400001928E-02 0.  1.
    10030    2    1    2    0    0  0.00000000000E+00  0.00000000000E+00  0.31715597436E+03  0.15333050415E+04  0.15001454724E+04 0.  0.
        1    1    3    3  502    0  0.73352149373E+03  0.28749162144E+02  0.31602455539E+03  0.79921950410E+03  0.50400001928E-02 0. -1.
       -1    1    3    3    0  502 -0.73352149373E+03 -0.28749162144E+02  0.11314189679E+01  0.73408553741E+03  0.50400001928E-02 0.  1.
</event>
<event>
 5   0  0.1254487E-04  0.1496044E+04  0.7818609E-02  0.8887088E-01
       -2   -1    0    0    0  501  0.00000000000E+00  0.00000000000E+00  0.43346687293E+03  0.43346687293E+03  0.25500000920E-02 0.  1.
        2   -1    0    0  501    0  0.00000000000E+00  0.00000000000E+00 -0.12908408207E+04  0.12908408207E+04  0.25500000920E-02 0. -1.
    10030    2    1    2    0    0  0.00000000000E+00  0.00000000000E+00 -0.85737394782E+03  0.17243076937E+04  0.14960437614E+04 0.  0.
        5    1    3    3  502    0  0.61360696081E+03 -0.26775972414E+03 -0.44157612857E+02  0.67095510804E+03  0.46999998093E+01 0.  1.
       -5    1    3    3    0  502 -0.61360696081E+03  0.26775972414E+03 -0.81321633496E+03  0.10533525856E+04  0.46999998093E+01 0. -1.
</event>
<event>
 5   0  0.6509279E-05  0.1503494E+04  0.7818609E-02  0.8882132E-01
       -1   -1    0    0    0  501  0.00000000000E+00  0.00000000000E+00  0.11368496950E+04  0.11368496950E+04  0.50400001928E-02 0. -1.
        1   -1    0    0  501    0  0.00000000000E+00  0.00000000000E+00 -0.49709641780E+03  0.49709641782E+03  0.50400001928E-02 0.  1.
    10030    2    1    2    0    0  0.00000000000E+00  0.00000000000E+00  0.63975327723E+03  0.16339461129E+04  0.15034944775E+04 0.  0.
        2    1    3    3  502    0 -0.15987131913E+03 -0.60189258838E+03 -0.13771542450E+03  0.63780801561E+03  0.25500000920E-02 0.  1.
       -2    1    3    3    0  502  0.15987131913E+03  0.60189258838E+03  0.77746870172E+03  0.99613809725E+03  0.25500000920E-02 0. -1.
</event>
<event>
 5   0  0.6361716E-05  0.1497348E+04  0.7818609E-02  0.8886219E-01
       -1   -1    0    0    0  501  0.00000000000E+00  0.00000000000E+00  0.72694500651E+03  0.72694500653E+03  0.50400001928E-02 0. -1.
        1   -1    0    0  501    0  0.00000000000E+00  0.00000000000E+00 -0.77105219290E+03  0.77105219292E+03  0.50400001928E-02 0.  1.
    10030    2    1    2    0    0  0.00000000000E+00  0.00000000000E+00 -0.44107186391E+02  0.14979971994E+04  0.14973477103E+04 0.  0.
        3    1    3    3  502    0 -0.24105300668E+03  0.24212885468E+02 -0.73075321089E+03  0.76986562547E+03  0.10100000352E+00 0.  1.
       -3    1    3    3    0  502  0.24105300668E+03 -0.24212885468E+02  0.68664602450E+03  0.72813157397E+03  0.10100000352E+00 0. -1.
</event>
<event>
 5   0  0.6364378E-05  0.1500356E+04  0.7818609E-02  0.8884216E-01
       -1   -1    0    0    0  501  0.00000000000E+00  0.00000000000E+00  0.17655593890E+04  0.17655593890E+04  0.50400001928E-02 0.  1.
        1   -1    0    0  501    0  0.00000000000E+00  0.00000000000E+00 -0.31874725548E+03  0.31874725552E+03  0.50400001928E-02 0. -1.
    10030    2    1    2    0    0  0.00000000000E+00  0.00000000000E+00  0.14468121335E+04  0.20843066445E+04  0.15003562373E+04 0.  0.
        5    1    3    3  502    0 -0.58701198850E+03  0.20764444368E+03  0.13046294922E+04  0.14456069630E+04  0.46999998093E+01 0. -1.
       -5    1    3    3    0  502  0.58701198850E+03 -0.20764444368E+03  0.14218264130E+03  0.63869968147E+03  0.46999998093E+01 0.  1.
</event>
<event>
 5   0  0.1228286E-04  0.1497128E+04  0.7818609E-02  0.8886365E-01
       -2   -1    0    0    0  501  0.00000000000E+00  0.00000000000E+00  0.47162456206E+03  0.47162456206E+03  0.25500000920E-02 0. -1.
        2   -1    0    0  501    0  0.00000000000E+00  0.00000000000E+00 -0.11881229207E+04  0.11881229207E+04  0.25500000920E-02 0.  1.
    10030    2    1    2    0    0  0.00000000000E+00  0.00000000000E+00 -0.71649835869E+03  0.16597474828E+04  0.14971278532E+04 0.  0.
        2    1    3    3  502    0 -0.61335151705E+03  0.26658101362E+03  0.14554936326E+02  0.66893749071E+03  0.25500000920E-02 0. -1.
       -2    1    3    3    0  502  0.61335151705E+03 -0.26658101362E+03 -0.73105329502E+03  0.99080999211E+03  0.25500000920E-02 0.  1.
</event>
<event>
 5   0  0.1219810E-04  0.1500731E+04  0.7818609E-02  0.8883967E-01
       -2   -1    0    0    0  501  0.00000000000E+00  0.00000000000E+00  0.14708863368E+04  0.14708863368E+04  0.25500000920E-02 0.  1.
        2   -1    0    0  501    0  0.00000000000E+00  0.00000000000E+00 -0.38279509482E+03  0.38279509483E+03  0.25500000920E-02 0. -1.
    10030    2    1    2    0    0  0.00000000000E+00  0.00000000000E+00  0.10880912419E+04  0.18536814316E+04  0.15007305884E+04 0.  0.
        1    1    3    3  502    0  0.35388788532E+03  0.55316666863E+02  0.13584740264E+04  0.14049015088E+04  0.50400001928E-02 0.  1.
       -1    1    3    3    0  502 -0.35388788532E+03 -0.55316666863E+02 -0.27038278441E+03  0.44877992284E+03  0.50400001928E-02 0. -1.
</event>
<event>
 5   0  0.6668433E-05  0.1497974E+04  0.7818609E-02  0.8885801E-01
        1   -1    0    0  501    0  0.00000000000E+00  0.00000000000E+00  0.83815898036E+03  0.83815898037E+03  0.50400001928E-02 0.  1.
       -1   -1    0    0    0  501  0.00000000000E+00  0.00000000000E+00 -0.66930196453E+03  0.66930196455E+03  0.50400001928E-02 0. -1.
    10030    2    1    2    0    0  0.00000000000E+00  0.00000000000E+00  0.16885701583E+03  0.15074609449E+04  0.14979739012E+04 0.  0.
        1    1    3    3  502    0  0.67570559825E+03 -0.15232467264E+01 -0.24072939250E+03  0.71730817381E+03  0.50400001928E-02 0.  1.
       -1    1    3    3    0  502 -0.67570559825E+03  0.15232467264E+01  0.40958640833E+03  0.79015277111E+03  0.50400001928E-02 0. -1.
</event>
<event>
 5   0  0.6361716E-05  0.1501055E+04  0.7818609E-02  0.8883752E-01
        1   -1    0    0  501    0  0.00000000000E+00  0.00000000000E+00  0.20044475183E+04  0.20044475183E+04  0.50400001928E-02 0.  1.
       -1   -1    0    0    0  501  0.00000000000E+00  0.00000000000E+00 -0.28102073072E+03  0.28102073077E+03  0.50400001928E-02 0. -1.
    10030    2    1    2    0    0  0.00000000000E+00  0.00000000000E+00  0.17234267876E+04  0.22854682491E+04  0.15010547043E+04 0.  0.
        3    1    3    3  502    0  0.21379669298E+03  0.16715114893E+03  0.19271272546E+04  0.19461418237E+04  0.10100000352E+00 0.  1.
       -3    1    3    3    0  502 -0.21379669298E+03 -0.16715114893E+03 -0.20370046697E+03  0.33932642538E+03  0.10100000352E+00 0. -1.
</event>
<event>
 5   0  0.6361716E-05  0.1498767E+04  0.7818609E-02  0.8885273E-01
       -1   -1    0    0    0  501  0.00000000000E+00  0.00000000000E+00  0.42486796813E+03  0.42486796816E+03  0.50400001928E-02 0.  1.
        1   -1    0    0  501    0  0.00000000000E+00  0.00000000000E+00 -0.13217656461E+04  0.13217656461E+04  0.50400001928E-02 0. -1.
    10030    2    1    2    0    0  0.00000000000E+00  0.00000000000E+00 -0.89689767792E+03  0.17466336142E+04  0.14987673394E+04 0.  0.
        3    1    3    3  502    0  0.10843823964E+03  0.66098713419E+03 -0.84004608230E+03  0.10744022868E+04  0.10100000352E+00 0. -1.
       -3    1    3    3    0  502 -0.10843823964E+03 -0.66098713419E+03 -0.56851595627E+02  0.67223132738E+03  0.10100000352E+00 0.  1.
</event>
<event>
 5   0  0.6542036E-05  0.1500614E+04  0.7818609E-02  0.8884045E-01
       -1   -1    0    0    0  501  0.00000000000E+00  0.00000000000E+00  0.46188943478E+03  0.46188943481E+03  0.50400001928E-02 0.  1.
        1   -1    0    0  501    0  0.00000000000E+00  0.00000000000E+00 -0.12188204480E+04  0.12188204480E+04  0.50400001928E-02 0. -1.
    10030    2    1    2    0    0  0.00000000000E+00  0.00000000000E+00 -0.75693101324E+03  0.16807098828E+04  0.15006135917E+04 0.  0.
        4    1    3    3  502    0  0.24533702497E+03  0.16453950304E+03 -0.11509472949E+04  0.11882528319E+04  0.12699999809E+01 0. -1.
       -4    1    3    3    0  502 -0.24533702497E+03 -0.16453950304E+03  0.39401628170E+03  0.49245705095E+03  0.12699999809E+01 0.  1.
</event>
<event>
 5   0  0.1219810E-04  0.1500579E+04  0.7818609E-02  0.8884068E-01
        2   -1    0    0  501    0  0.00000000000E+00  0.00000000000E+00  0.63349581785E+03  0.63349581786E+03  0.25500000920E-02 0. -1.
       -2   -1    0    0    0  501  0.00000000000E+00  0.00000000000E+00 -0.88861539241E+03  0.88861539242E+03  0.25500000920E-02 0.  1.
    10030    2    1    2    0    0  0.00000000000E+00  0.00000000000E+00 -0.25511957456E+03  0.15221112103E+04  0.15005787347E+04 0.  0.
        1    1    3    3  502    0 -0.57043615654E+02  0.64762697826E+03  0.25232655027E+03  0.69738322682E+03  0.50400001928E-02 0. -1.
       -1    1    3    3    0  502  0.57043615654E+02 -0.64762697826E+03 -0.50744612483E+03  0.82472798345E+03  0.50400001928E-02 0.  1.
</event>
<event>
 5   0  0.1186664E-04  0.1498451E+04  0.7818609E-02  0.8885483E-01
        2   -1    0    0  501    0  0.00000000000E+00  0.00000000000E+00  0.17652449138E+04  0.17652449138E+04  0.25500000920E-02 0. -1.
       -2   -1    0    0    0  501  0.00000000000E+00  0.00000000000E+00 -0.31799504822E+03  0.31799504823E+03  0.25500000920E-02 0.  1.
    10030    2    1    2    0    0  0.00000000000E+00  0.00000000000E+00  0.14472498656E+04  0.20832399620E+04  0.14984513893E+04 0.  0.
        3    1    3    3  502    0 -0.15130003858E+03 -0.68104604520E+03  0.34384232788E+03  0.77778080074E+03  0.10100000352E+00 0.  1.
       -3    1    3    3    0  502  0.15130003858E+03  0.68104604520E+03  0.11034075377E+04  0.13054591613E+04  0.10100000352E+00 0. -1.
</event>
<event>
 5   0  0.6361716E-05  0.1501736E+04  0.7818609E-02  0.8883299E-01
       -1   -1    0    0    0  501  0.00000000000E+00  0.00000000000E+00  0.51733883848E+03  0.51733883850E+03  0.50400001928E-02 0.  1.
        1   -1    0    0  501    0  0.00000000000E+00  0.00000000000E+00 -0.10898133535E+04  0.10898133535E+04  0.50400001928E-02 0. -1.
    10030    2    1    2    0    0  0.00000000000E+00  0.00000000000E+00 -0.57247451505E+03  0.16071521920E+04  0.15017360281E+04 0.  0.
        3    1    3    3  502    0 -0.71200308307E+03 -0.13900469236E+03 -0.49356845731E+03  0.87742836007E+03  0.10100000352E+00 0. -1.
       -3    1    3    3    0  502  0.71200308307E+03  0.13900469236E+03 -0.78906057745E+02  0.72972383198E+03  0.10100000352E+00 0.  1.
</event>
<event>
 5   0  0.1216921E-04  0.1499119E+04  0.7818609E-02  0.8885039E-01
       -2   -1    0    0    0  501  0.00000000000E+00  0.00000000000E+00  0.92297857670E+03  0.92297857671E+03  0.25500000920E-02 0. -1.
        2   -1    0    0  501    0  0.00000000000E+00  0.00000000000E+00 -0.60872437731E+03  0.60872437732E+03  0.25500000920E-02 0.  1.
    10030    2    1    2    0    0  0.00000000000E+00  0.00000000000E+00  0.31425419939E+03  0.15317029540E+04  0.14991191539E+04 0.  0.
        4    1    3    3  502    0  0.60370099486E+02  0.62351302383E+03 -0.26343199044E+03  0.67956682253E+03  0.12699999809E+01 0.  1.
       -4    1    3    3    0  502 -0.60370099486E+02 -0.62351302383E+03  0.57768618983E+03  0.85213613150E+03  0.12699999809E+01 0. -1.
</event>
<event>
 5   0  0.6361716E-05  0.1500419E+04  0.7818609E-02  0.8884174E-01
       -1   -1    0    0    0  501  0.00000000000E+00  0.00000000000E+00  0.34467267359E+03  0.34467267363E+03  0.50400001928E-02 0. -1.
        1   -1    0    0  501    0  0.00000000000E+00  0.00000000000E+00 -0.16328949957E+04  0.16328949957E+04  0.50400001928E-02 0.  1.
    10030    2    1    2    0    0  0.00000000000E+00  0.00000000000E+00 -0.12882223221E+04  0.19775676693E+04  0.15004189867E+04 0.  0.
        3    1    3    3  502    0  0.43738324510E+03  0.59735173297E+03 -0.48441378840E+03  0.88475416053E+03  0.10100000352E+00 0. -1.
       -3    1    3    3    0  502 -0.43738324510E+03 -0.59735173297E+03 -0.80380853372E+03  0.10928135088E+04  0.10100000352E+00 0.  1.
</event>
<event>
 5   0  0.6361716E-05  0.1493400E+04  0.7818609E-02  0.8888854E-01
        1   -1    0    0  501    0  0.00000000000E+00  0.00000000000E+00  0.92890501839E+03  0.92890501841E+03  0.50400001928E-02 0.  1.
       -1   -1    0    0    0  501  0.00000000000E+00  0.00000000000E+00 -0.60023452082E+03  0.60023452084E+03  0.50400001928E-02 0. -1.
    10030    2    1    2    0    0  0.00000000000E+00  0.00000000000E+00  0.32867049757E+03  0.15291395393E+04  0.14933999580E+04 0.  0.
        3    1    3    3  502    0  0.20700095138E+03 -0.28601687019E+03  0.83803701793E+03  0.90937401410E+03  0.10100000352E+00 0.  1.
       -3    1    3    3    0  502 -0.20700095138E+03  0.28601687019E+03 -0.50936652036E+03  0.61976552515E+03  0.10100000352E+00 0. -1.
</event>
<event>
 5   0  0.1254487E-04  0.1505443E+04  0.7818609E-02  0.8880841E-01
        2   -1    0    0  501    0  0.00000000000E+00  0.00000000000E+00  0.70265373180E+03  0.70265373181E+03  0.25500000920E-02 0. -1.
       -2   -1    0    0    0  501  0.00000000000E+00  0.00000000000E+00 -0.80635710301E+03  0.80635710301E+03  0.25500000920E-02 0.  1.
    10030    2    1    2    0    0  0.00000000000E+00  0.00000000000E+00 -0.10370337120E+03  0.15090108348E+04  0.15054432272E+04 0.  0.
        5    1    3    3  502    0  0.36223540538E+02  0.71944694215E+03  0.16695829641E+03  0.73946819417E+03  0.46999998093E+01 0. -1.
       -5    1    3    3    0  502 -0.36223540538E+02 -0.71944694215E+03 -0.27066166761E+03  0.76954264064E+03  0.46999998093E+01 0.  1.
</event>
<event>
 5   0  0.6542036E-05  0.1498835E+04  0.7818609E-02  0.8885228E-01
       -1   -1    0    0    0  501  0.00000000000E+00  0.00000000000E+00  0.31065610320E+03  0.31065610324E+03  0.50400001928E-02 0. -1.
        1   -1    0    0  501    0  0.00000000000E+00  0.00000000000E+00 -0.18078715094E+04  0.18078715094E+04  0.50400001928E-02 0.  1.
    10030    2    1    2    0    0  0.00000000000E+00  0.00000000000E+00 -0.14972154062E+04  0.21185276127E+04  0.14988346383E+04 0.  0.
        4    1    3    3  502    0  0.13460298377E+03  0.46482839439E+03  0.60203465401E+02  0.48765712301E+03  0.12699999809E+01 0. -1.
       -4    1    3    3    0  502 -0.13460298377E+03 -0.46482839439E+03 -0.15574188716E+04  0.16308704896E+04  0.12699999809E+01 0.  1.
</event>
<event>
 5   0  0.6361716E-05  0.1500699E+04  0.7818609E-02  0.8883988E-01
       -1   -1    0    0    0  501  0.00000000000E+00  0.00000000000E+00  0.36686483890E+03  0.36686483894E+03  0.50400001928E-02 0.  1.
        1   -1    0    0  501    0  0.00000000000E+00  0.00000000000E+00 -0.15346912040E+04  0.15346912040E+04  0.50400001928E-02 0. -1.
    10030    2    1    2    0    0  0.00000000000E+00  0.00000000000E+00 -0.11678263651E+04  0.19015560429E+04  0.15006988257E+04 0.  0.
        3    1    3    3  502    0 -0.15365106616E+03 -0.80316700543E+02  0.34113606391E+03  0.38266597290E+03  0.10100000352E+00 0.  1.
       -3    1    3    3    0  502  0.15365106616E+03  0.80316700543E+02 -0.15089624290E+04  0.15188900700E+04  0.10100000352E+00 0. -1.
</event>
<event>
 5   0  0.1228286E-04  0.1496059E+04  0.7818609E-02  0.8887078E-01
       -2   -1    0    0    0  501  0.00000000000E+00  0.00000000000E+00  0.33446474329E+03  0.33446474330E+03  0.25500000920E-02 0.  1.
        2   -1    0    0  501    0  0.00000000000E+00  0.00000000000E+00 -0.16729652045E+04  0.16729652045E+04  0.25500000920E-02 0. -1.
    10030    2    1    2    0    0  0.00000000000E+00  0.00000000000E+00 -0.13385004612E+04  0.20074299478E+04  0.14960586588E+04 0.  0.
        2    1    3    3  502    0  0.26880228184E+03  0.30143247406E+03  0.17559265308E+03  0.44039639299E+03  0.25500000920E-02 0.  1.
       -2    1    3    3    0  502 -0.26880228184E+03 -0.30143247406E+03 -0.15140931143E+04  0.15670335548E+04  0.25500000920E-02 0. -1.
</event>
<event>
 5   0  0.6668433E-05  0.1492891E+04  0.7818609E-02  0.8889194E-01
        1   -1    0    0  501    0  0.00000000000E+00  0.00000000000E+00  0.12502454949E+04  0.12502454949E+04  0.50400001928E-02 0.  1.
       -1   -1    0    0    0  501  0.00000000000E+00  0.00000000000E+00 -0.44565695984E+03  0.44565695987E+03  0.50400001928E-02 0. -1.
    10030    2    1    2    0    0  0.00000000000E+00  0.00000000000E+00  0.80458853507E+03  0.16959024548E+04  0.14928906274E+04 0.  0.
        1    1    3    3  502    0  0.19434250739E+03  0.14021461310E+03  0.12053578141E+04  0.12289493919E+04  0.50400001928E-02 0.  1.
       -1    1    3    3    0  502 -0.19434250739E+03 -0.14021461310E+03 -0.40076927900E+03  0.46695306287E+03  0.50400001928E-02 0. -1.
</event>
<event>
 5   0  0.1219810E-04  0.1494666E+04  0.7818609E-02  0.8888008E-01
        2   -1    0    0  501    0  0.00000000000E+00  0.00000000000E+00  0.20210384136E+04  0.20210384136E+04  0.25500000920E-02 0.  1.
       -2   -1    0    0    0  501  0.00000000000E+00  0.00000000000E+00 -0.27634643583E+03  0.27634643584E+03  0.25500000920E-02 0. -1.
    10030    2    1    2    0    0  0.00000000000E+00  0.00000000000E+00  0.17446919778E+04  0.22973848495E+04  0.14946661999E+04 0.  0.
        1    1    3    3  502    0  0.39196794990E+03 -0.25057082863E+02 -0.10491193037E+03  0.40653812160E+03  0.50400001928E-02 0. -1.
       -1    1    3    3    0  502 -0.39196794990E+03  0.25057082863E+02  0.18496039082E+04  0.18908467279E+04  0.50400001928E-02 0.  1.
</event>
<event>
 5   0  0.6509279E-05  0.1502171E+04  0.7818609E-02  0.8883011E-01
        1   -1    0    0  501    0  0.00000000000E+00  0.00000000000E+00  0.67929456830E+03  0.67929456831E+03  0.50400001928E-02 0. -1.
       -1   -1    0    0    0  501  0.00000000000E+00  0.00000000000E+00 -0.83046316731E+03  0.83046316732E+03  0.50400001928E-02 0.  1.
    10030    2    1    2    0    0  0.00000000000E+00  0.00000000000E+00 -0.15116859901E+03  0.15097577356E+04  0.15021705878E+04 0.  0.
        2    1    3    3  502    0 -0.14967766335E+03 -0.45513963308E+03 -0.65692919497E+03  0.81308760642E+03  0.25500000920E-02 0.  1.
       -2    1    3    3    0  502  0.14967766335E+03  0.45513963308E+03  0.50576059596E+03  0.69667012921E+03  0.25500000920E-02 0. -1.
</event>
<event>
 5   0  0.6542036E-05  0.1495241E+04  0.7818609E-02  0.8887624E-01
        1   -1    0    0  501    0  0.00000000000E+00  0.00000000000E+00  0.12201020571E+04  0.12201020571E+04  0.50400001928E-02 0.  1.
       -1   -1    0    0    0  501  0.00000000000E+00  0.00000000000E+00 -0.45810618602E+03  0.45810618605E+03  0.50400001928E-02 0. -1.
    10030    2    1    2    0    0  0.00000000000E+00  0.00000000000E+00  0.76199587111E+03  0.16782082432E+04  0.14952408501E+04 0.  0.
        4    1    3    3  502    0 -0.24445935658E+03  0.59426874218E+03 -0.47885565991E+02  0.64436818302E+03  0.12699999809E+01 0. -1.
       -4    1    3    3    0  502  0.24445935658E+03 -0.59426874218E+03  0.80988143710E+03  0.10338400602E+04  0.12699999809E+01 0.  1.
</event>
<event>
 5   0  0.1186664E-04  0.1502151E+04  0.7818609E-02  0.8883024E-01
        2   -1    0    0  501    0  0.00000000000E+00  0.00000000000E+00  0.16903691045E+04  0.16903691045E+04  0.25500000920E-02 0. -1.
       -2   -1    0    0    0  501  0.00000000000E+00  0.00000000000E+00 -0.33372274778E+03  0.33372274779E+03  0.25500000920E-02 0.  1.
    10030    2    1    2    0    0  0.00000000000E+00  0.00000000000E+00  0.13566463567E+04  0.20240918523E+04  0.15021512871E+04 0.  0.
        3    1    3    3  502    0  0.33602041120E+03 -0.59643838807E+03  0.10946565604E+04  0.12910931272E+04  0.10100000352E+00 0. -1.
       -3    1    3    3    0  502 -0.33602041120E+03  0.59643838807E+03  0.26198979631E+03  0.73299872515E+03  0.10100000352E+00 0.  1.
</event>
<event>
 5   0  0.6361716E-05  0.1499027E+04  0.7818609E-02  0.8885100E-01
        1   -1    0    0  501    0  0.00000000000E+00  0.00000000000E+00  0.10971632147E+04  0.10971632147E+04  0.50400001928E-02 0. -1.
       -1   -1    0    0    0  501  0.00000000000E+00  0.00000000000E+00 -0.51202062145E+03  0.51202062148E+03  0.50400001928E-02 0.  1.
    10030    2    1    2    0    0  0.00000000000E+00  0.00000000000E+00  0.58514259322E+03  0.16091838362E+04  0.14990266056E+04 0.  0.
        3    1    3    3  502    0  0.63240155574E+03 -0.40207411853E+03  0.27837624379E+03  0.79943021447E+03  0.10100000352E+00 0.  1.
       -3    1    3    3    0  502 -0.63240155574E+03  0.40207411853E+03  0.30676634943E+03  0.80975362169E+03  0.10100000352E+00 0. -1.
</event>
<event>
 5   0  0.1228286E-04  0.1499803E+04  0.7818609E-02  0.8884584E-01
        2   -1    0    0  501    0  0.00000000000E+00  0.00000000000E+00  0.47286866204E+03  0.47286866204E+03  0.25500000920E-02 0. -1.
       -2   -1    0    0    0  501  0.00000000000E+00  0.00000000000E+00 -0.11892349498E+04  0.11892349498E+04  0.25500000920E-02 0.  1.
    10030    2    1    2    0    0  0.00000000000E+00  0.00000000000E+00 -0.71636628777E+03  0.16621036119E+04  0.14998025731E+04 0.  0.
        2    1    3    3  502    0 -0.18191747715E+03  0.72058933049E+03 -0.46905442865E+03  0.87883730505E+03  0.25500000920E-02 0.  1.
       -2    1    3    3    0  502  0.18191747715E+03 -0.72058933049E+03 -0.24731185912E+03  0.78326630680E+03  0.25500000920E-02 0. -1.
</event>
<event>
 5   0  0.1186664E-04  0.1497133E+04  0.7818609E-02  0.8886362E-01
       -2   -1    0    0    0  501  0.00000000000E+00  0.00000000000E+00  0.58314610481E+03  0.58314610482E+03  0.25500000920E-02 0. -1.
        2   -1    0    0  501    0  0.00000000000E+00  0.00000000000E+00 -0.96091104471E+03  0.96091104471E+03  0.25500000920E-02 0.  1.
    10030    2    1    2    0    0  0.00000000000E+00  0.00000000000E+00 -0.37776493990E+03  0.15440571495E+04  0.14971326365E+04 0.  0.
        3    1    3    3  502    0 -0.63141846156E+03  0.21758912297E+03  0.15982313254E+03  0.68671518399E+03  0.10100000352E+00 0. -1.
       -3    1    3    3    0  502  0.63141846156E+03 -0.21758912297E+03 -0.53758807244E+03  0.85734196553E+03  0.10100000352E+00 0.  1.
</event>
<event>
 5   0  0.1228286E-04  0.1500108E+04  0.7818609E-02  0.8884381E-01
        2   -1    0    0  501    0  0.00000000000E+00  0.00000000000E+00  0.18154074162E+04  0.18154074162E+04  0.25500000920E-02 0. -1.
       -2   -1    0    0    0  501  0.00000000000E+00  0.00000000000E+00 -0.30989251503E+03  0.30989251504E+03  0.25500000920E-02 0.  1.
    10030    2    1    2    0    0  0.00000000000E+00  0.00000000000E+00  0.15055149011E+04  0.21252999312E+04  0.15001082228E+04 0.  0.
        2    1    3    3  502    0  0.39538975383E+03 -0.46491840812E+02 -0.14784862508E+03  0.42468077969E+03  0.25500000920E-02 0.  1.
       -2    1    3    3    0  502 -0.39538975383E+03  0.46491840812E+02  0.16533635262E+04  0.17006191515E+04  0.25500000920E-02 0. -1.
</event>
<event>
 5   0  0.1216921E-04  0.1501084E+04  0.7818609E-02  0.8883732E-01
        2   -1    0    0  501    0  0.00000000000E+00  0.00000000000E+00  0.72614384142E+03  0.72614384142E+03  0.25500000920E-02 0.  1.
       -2   -1    0    0    0  501  0.00000000000E+00  0.00000000000E+00 -0.77576044322E+03  0.77576044322E+03  0.25500000920E-02 0. -1.
    10030    2    1    2    0    0  0.00000000000E+00  0.00000000000E+00 -0.49616601800E+02  0.15019042846E+04  0.15010844990E+04 0.  0.
        4    1    3    3  502    0  0.26320398277E+03 -0.53403854074E+03  0.43242984675E+03  0.73584691669E+03  0.12699999809E+01 0.  1.
       -4    1    3    3    0  502 -0.26320398277E+03  0.53403854074E+03 -0.48204644855E+03  0.76605736796E+03  0.12699999809E+01 0. -1.
</event>
<event>
 5   0  0.6364378E-05  0.1506491E+04  0.7818609E-02  0.8880148E-01
        1   -1    0    0  501    0  0.00000000000E+00  0.00000000000E+00  0.18882077047E+04  0.18882077047E+04  0.50400001928E-02 0.  1.
       -1   -1    0    0    0  501  0.00000000000E+00  0.00000000000E+00 -0.30048548789E+03  0.30048548793E+03  0.50400001928E-02 0. -1.
    10030    2    1    2    0    0  0.00000000000E+00  0.00000000000E+00  0.15877222168E+04  0.21886931926E+04  0.15064913055E+04 0.  0.
        5    1    3    3  502    0 -0.14756464764E+03  0.71134311600E+03  0.10828727807E+04  0.13040014965E+04  0.46999998093E+01 0.  1.
       -5    1    3    3    0  502  0.14756464764E+03 -0.71134311600E+03  0.50484943610E+03  0.88469169604E+03  0.46999998093E+01 0. -1.
</event>
<event>
 5   0  0.6668433E-05  0.1501375E+04  0.7818609E-02  0.8883539E-01
        1   -1    0    0  501    0  0.00000000000E+00  0.00000000000E+00  0.85975389224E+03  0.85975389225E+03  0.50400001928E-02 0. -1.
       -1   -1    0    0    0  501  0.00000000000E+00  0.00000000000E+00 -0.65545720535E+03  0.65545720537E+03  0.50400001928E-02 0.  1.
    10030    2    1    2    0    0  0.00000000000E+00  0.00000000000E+00  0.20429668689E+03  0.15152110976E+04  0.15013752143E+04 0.  0.
        1    1    3    3  502    0 -0.91634731790E+02 -0.13563529537E+03  0.84152388978E+03  0.85729593170E+03  0.50400001928E-02 0. -1.
       -1    1    3    3    0  502  0.91634731790E+02  0.13563529537E+03 -0.63722720289E+03  0.65791516592E+03  0.50400001928E-02 0.  1.
</event>
<event>
 5   0  0.1228286E-04  0.1499087E+04  0.7818609E-02  0.8885061E-01
        2   -1    0    0  501    0  0.00000000000E+00  0.00000000000E+00  0.39941073808E+03  0.39941073809E+03  0.25500000920E-02 0.  1.
       -2   -1    0    0    0  501  0.00000000000E+00  0.00000000000E+00 -0.14066100422E+04  0.14066100422E+04  0.25500000920E-02 0. -1.
    10030    2    1    2    0    0  0.00000000000E+00  0.00000000000E+00 -0.10071993041E+04  0.18060207803E+04  0.14990865954E+04 0.  0.
        2    1    3    3  502    0 -0.81109322871E+02  0.73132787508E+03 -0.67565501978E+03  0.99896390770E+03  0.25500000920E-02 0.  1.
       -2    1    3    3    0  502  0.81109322871E+02 -0.73132787508E+03 -0.33154428435E+03  0.80705687261E+03  0.25500000920E-02 0. -1.
</event>
<event>
 5   0  0.1228286E-04  0.1499648E+04  0.7818609E-02  0.8884687E-01
       -2   -1    0    0    0  501  0.00000000000E+00  0.00000000000E+00  0.82083676004E+03  0.82083676005E+03  0.25500000920E-02 0. -1.
        2   -1    0    0  501    0  0.00000000000E+00  0.00000000000E+00 -0.68495488240E+03  0.68495488240E+03  0.25500000920E-02 0.  1.
    10030    2    1    2    0    0  0.00000000000E+00  0.00000000000E+00  0.13588187765E+03  0.15057916424E+04  0.14996481540E+04 0.  0.
        2    1    3    3  502    0  0.12028161820E+03  0.54801648387E+03 -0.43153674103E+03  0.70782320754E+03  0.25500000920E-02 0.  1.
       -2    1    3    3    0  502 -0.12028161820E+03 -0.54801648387E+03  0.56741861868E+03  0.79796843490E+03  0.25500000920E-02 0. -1.
</event>
<event>
 5   0  0.4462875E-05  0.1508080E+04  0.7818609E-02  0.8879098E-01
        3   -1    0    0  501    0  0.00000000000E+00  0.00000000000E+00  0.10131305967E+04  0.10131306017E+04  0.10100000352E+00 0. -1.
       -3   -1    0    0    0  501  0.00000000000E+00  0.00000000000E+00 -0.56120724373E+03  0.56120725282E+03  0.10100000352E+00 0.  1.
    10030    2    1    2    0    0  0.00000000000E+00  0.00000000000E+00  0.45192335298E+03  0.15743378546E+04  0.15080798929E+04 0.  0.
        5    1    3    3  502    0  0.71897272761E+03 -0.18509170832E+03  0.36356101276E+03  0.82666766209E+03  0.46999998093E+01 0. -1.
       -5    1    3    3    0  502 -0.71897272761E+03  0.18509170832E+03  0.88362340217E+02  0.74767019247E+03  0.46999998093E+01 0.  1.
</event>
<event>
 5   0  0.1186664E-04  0.1500327E+04  0.7818609E-02  0.8884235E-01
       -2   -1    0    0    0  501  0.00000000000E+00  0.00000000000E+00  0.81076902922E+03  0.81076902923E+03  0.25500000920E-02 0.  1.
        2   -1    0    0  501    0  0.00000000000E+00  0.00000000000E+00 -0.69408873130E+03  0.69408873131E+03  0.25500000920E-02 0. -1.
    10030    2    1    2    0    0  0.00000000000E+00  0.00000000000E+00  0.11668029792E+03  0.15048577605E+04  0.15003274934E+04 0.  0.
        3    1    3    3  502    0  0.66471848037E+03  0.17328710342E+03 -0.24401086122E+03  0.72898586335E+03  0.10100000352E+00 0. -1.
       -3    1    3    3    0  502 -0.66471848037E+03 -0.17328710342E+03  0.36069115914E+03  0.77587189719E+03  0.10100000352E+00 0.  1.
</event>
<event>
 5   0  0.6509279E-05  0.1500227E+04  0.7818609E-02  0.8884302E-01
       -1   -1    0    0    0  501  0.00000000000E+00  0.00000000000E+00  0.41539942832E+03  0.41539942835E+03  0.50400001928E-02 0. -1.
        1   -1    0    0  501    0  0.00000000000E+00  0.00000000000E+00 -0.13545287546E+04  0.13545287546E+04  0.50400001928E-02 0.  1.
    10030    2    1    2    0    0  0.00000000000E+00  0.00000000000E+00 -0.93912932625E+03  0.17699281829E+04  0.15002272765E+04 0.  0.
        2    1    3    3  502    0  0.13992086938E+03  0.15960314514E+03  0.37923243004E+03  0.43458974864E+03  0.25500000920E-02 0. -1.
       -2    1    3    3    0  502 -0.13992086938E+03 -0.15960314514E+03 -0.13183617563E+04  0.13353384343E+04  0.25500000920E-02 0.  1.
</event>
<event>
 5   0  0.6668433E-05  0.1500595E+04  0.7818609E-02  0.8884058E-01
       -1   -1    0    0    0  501  0.00000000000E+00  0.00000000000E+00  0.86835417712E+03  0.86835417713E+03  0.50400001928E-02 0. -1.
        1   -1    0    0  501    0  0.00000000000E+00  0.00000000000E+00 -0.64829087520E+03  0.64829087522E+03  0.50400001928E-02 0.  1.
    10030    2    1    2    0    0  0.00000000000E+00  0.00000000000E+00  0.22006330192E+03  0.15166450523E+04  0.15005946681E+04 0.  0.
        1    1    3    3  502    0  0.56532630269E+03 -0.20732675211E+03  0.56244415944E+03  0.82396701583E+03  0.50400001928E-02 0. -1.
       -1    1    3    3    0  502 -0.56532630269E+03  0.20732675211E+03 -0.34238085752E+03  0.69267803652E+03  0.50400001928E-02 0.  1.
</event>
<event>
 5   0  0.1228286E-04  0.1499853E+04  0.7818609E-02  0.8884551E-01
        2   -1    0    0  501    0  0.00000000000E+00  0.00000000000E+00  0.35281457468E+03  0.35281457469E+03  0.25500000920E-02 0.  1.
       -2   -1    0    0    0  501  0.00000000000E+00  0.00000000000E+00 -0.15940094452E+04  0.15940094452E+04  0.25500000920E-02 0. -1.
    10030    2    1    2    0    0  0.00000000000E+00  0.00000000000E+00 -0.12411948705E+04  0.19468240199E+04  0.14998530121E+04 0.  0.
        2    1    3    3  502    0  0.37272992483E+03  0.19777421106E+02  0.22367893766E+03  0.43514481545E+03  0.25500000920E-02 0.  1.
       -2    1    3    3    0  502 -0.37272992483E+03 -0.19777421106E+02 -0.14648738081E+04  0.15116792044E+04  0.25500000920E-02 0. -1.
</event>
<event>
 5   0  0.1254487E-04  0.1499556E+04  0.7818609E-02  0.8884748E-01
        2   -1    0    0  501    0  0.00000000000E+00  0.00000000000E+00  0.16646332202E+04  0.16646332202E+04  0.25500000920E-02 0. -1.
       -2   -1    0    0    0  501  0.00000000000E+00  0.00000000000E+00 -0.33771230063E+03  0.33771230064E+03  0.25500000920E-02 0.  1.
    10030    2    1    2    0    0  0.00000000000E+00  0.00000000000E+00  0.13269209195E+04  0.20023455208E+04  0.14995560870E+04 0.  0.
        5    1    3    3  502    0  0.49610880914E+03  0.54102605711E+03  0.45958500087E+03  0.86606790034E+03  0.46999998093E+01 0.  1.
       -5    1    3    3    0  502 -0.49610880914E+03 -0.54102605711E+03  0.86733591865E+03  0.11362776205E+04  0.46999998093E+01 0. -1.
</event>
<event>
 5   0  0.6509279E-05  0.1501449E+04  0.7818609E-02  0.8883490E-01
       -1   -1    0    0    0  501  0.00000000000E+00  0.00000000000E+00  0.63305074176E+03  0.63305074178E+03  0.50400001928E-02 0.  1.
        1   -1    0    0  501    0  0.00000000000E+00  0.00000000000E+00 -0.89027143704E+03  0.89027143705E+03  0.50400001928E-02 0. -1.
    10030    2    1    2    0    0  0.00000000000E+00  0.00000000000E+00 -0.25722069528E+03  0.15233221788E+04  0.15014486253E+04 0.  0.
        2    1    3    3  502    0 -0.60265469452E+03 -0.34560328073E+03  0.16005650549E+03  0.71291822353E+03  0.25500000920E-02 0.  1.
       -2    1    3    3    0  502  0.60265469452E+03  0.34560328073E+03 -0.41727720077E+03  0.81040395530E+03  0.25500000920E-02 0. -1.
</event>
<event>
 5   0  0.6364378E-05  0.1499589E+04  0.7818609E-02  0.8884726E-01
        1   -1    0    0  501    0  0.00000000000E+00  0.00000000000E+00  0.16306087798E+04  0.16306087798E+04  0.50400001928E-02 0. -1.
       -1   -1    0    0    0  501  0.00000000000E+00  0.00000000000E+00 -0.34477429863E+03  0.34477429867E+03  0.50400001928E-02 0.  1.
    10030    2    1    2    0    0  0.00000000000E+00  0.00000000000E+00  0.12858344811E+04  0.19753830784E+04  0.14995892750E+04 0.  0.
        5    1    3    3  502    0 -0.67643791724E+03  0.93285355200E+02  0.10508486667E+04  0.12532260066E+04  0.46999998093E+01 0.  1.
       -5    1    3    3    0  502  0.67643791724E+03 -0.93285355200E+02  0.23498581440E+03  0.72215707179E+03  0.46999998093E+01 0. -1.
</event>
<event>
 5   0  0.1216921E-04  0.1500323E+04  0.7818609E-02  0.8884238E-01
        2   -1    0    0  501    0  0.00000000000E+00  0.00000000000E+00  0.13302936239E+04  0.13302936239E+04  0.25500000920E-02 0. -1.
       -2   -1    0    0    0  501  0.00000000000E+00  0.00000000000E+00 -0.42302120918E+03  0.42302120918E+03  0.25500000920E-02 0.  1.
    10030    2    1    2    0    0  0.00000000000E+00  0.00000000000E+00  0.90727241474E+03  0.17533148331E+04  0.15003231883E+04 0.  0.
        4    1    3    3  502    0 -0.36188974244E+03 -0.62415939210E+03  0.21356508966E+03  0.75242992554E+03  0.12699999809E+01 0.  1.
       -4    1    3    3    0  502  0.36188974244E+03  0.62415939210E+03  0.69370732507E+03  0.10008849076E+04  0.12699999809E+01 0. -1.
</event>
<event>
 5   0  0.6361716E-05  0.1496535E+04  0.7818609E-02  0.8886761E-01
        1   -1    0    0  501    0  0.00000000000E+00  0.00000000000E+00  0.13205207530E+04  0.13205207530E+04  0.50400001928E-02 0.  1.
       -1   -1    0    0    0  501  0.00000000000E+00  0.00000000000E+00 -0.42400235222E+03  0.42400235225E+03  0.50400001928E-02 0. -1.
    10030    2    1    2    0    0  0.00000000000E+00  0.00000000000E+00  0.89651840080E+03  0.17445231053E+04  0.14965345375E+04 0.  0.
        3    1    3    3  502    0  0.71529703833E+03  0.14043298600E+03  0.25135236259E+03  0.77107022831E+03  0.10100000352E+00 0. -1.
       -3    1    3    3    0  502 -0.71529703833E+03 -0.14043298600E+03  0.64516603821E+03  0.97345287696E+03  0.10100000352E+00 0.  1.
</event>
<event>
 5   0  0.6509279E-05  0.1499449E+04  0.7818609E-02  0.8884820E-01
        1   -1    0    0  501    0  0.00000000000E+00  0.00000000000E+00  0.80914268219E+03  0.80914268220E+03  0.50400001928E-02 0. -1.
       -1   -1    0    0    0  501  0.00000000000E+00  0.00000000000E+00 -0.69466936960E+03  0.69466936962E+03  0.50400001928E-02 0.  1.
    10030    2    1    2    0    0  0.00000000000E+00  0.00000000000E+00  0.11447331259E+03  0.15038120518E+04  0.14994487480E+04 0.  0.
        2    1    3    3  502    0  0.58145395175E+03 -0.43361856230E+03 -0.13298044009E+03  0.73742630345E+03  0.25500000920E-02 0.  1.
       -2    1    3    3    0  502 -0.58145395175E+03  0.43361856230E+03  0.24745375268E+03  0.76638574836E+03  0.25500000920E-02 0. -1.
</event>
<event>
 5   0  0.1228286E-04  0.1503741E+04  0.7818609E-02  0.8881969E-01
        2   -1    0    0  501    0  0.00000000000E+00  0.00000000000E+00  0.52667445959E+03  0.52667445960E+03  0.25500000920E-02 0. -1.
       -2   -1    0    0    0  501  0.00000000000E+00  0.00000000000E+00 -0.10733560628E+04  0.10733560628E+04  0.25500000920E-02 0.  1.
    10030    2    1    2    0    0  0.00000000000E+00  0.00000000000E+00 -0.54668160324E+03  0.16000305224E+04  0.15037409675E+04 0.  0.
        2    1    3    3  502    0  0.37449997099E+03  0.51261953712E+03 -0.70197617757E+03  0.94646688901E+03  0.25500000920E-02 0.  1.
       -2    1    3    3    0  502 -0.37449997099E+03 -0.51261953712E+03  0.15529457433E+03  0.65356363342E+03  0.25500000920E-02 0. -1.
</event>
<event>
 5   0  0.1254487E-04  0.1500431E+04  0.7818609E-02  0.8884166E-01
       -2   -1    0    0    0  501  0.00000000000E+00  0.00000000000E+00  0.71702259456E+03  0.71702259457E+03  0.25500000920E-02 0. -1.
        2   -1    0    0  501    0  0.00000000000E+00  0.00000000000E+00 -0.78494535401E+03  0.78494535401E+03  0.25500000920E-02 0.  1.
    10030    2    1    2    0    0  0.00000000000E+00  0.00000000000E+00 -0.67922759444E+02  0.15019679486E+04  0.15004313438E+04 0.  0.
        5    1    3    3  502    0  0.34269811402E+03 -0.56324562200E+03  0.32433511152E+03  0.73478090790E+03  0.46999998093E+01 0. -1.
       -5    1    3    3    0  502 -0.34269811402E+03  0.56324562200E+03 -0.39225787096E+03  0.76718704068E+03  0.46999998093E+01 0.  1.
</event>
<event>
 5   0  0.6542036E-05  0.1505864E+04  0.7818609E-02  0.8880563E-01
       -1   -1    0    0    0  501  0.00000000000E+00  0.00000000000E+00  0.10652894801E+04  0.10652894801E+04  0.50400001928E-02 0.  1.
        1   -1    0    0  501    0  0.00000000000E+00  0.00000000000E+00 -0.53216197137E+03  0.53216197139E+03  0.50400001928E-02 0. -1.
    10030    2    1    2    0    0  0.00000000000E+00  0.00000000000E+00  0.53312750873E+03  0.15974514515E+04  0.15058639379E+04 0.  0.
        4    1    3    3  502    0 -0.14705119044E+03 -0.30624782811E+03 -0.44623596346E+03  0.56083859783E+03  0.12699999809E+01 0. -1.
       -4    1    3    3    0  502  0.14705119044E+03  0.30624782811E+03  0.97936347219E+03  0.10366128537E+04  0.12699999809E+01 0.  1.
</event>
<event>
 5   0  0.1254487E-04  0.1497207E+04  0.7818609E-02  0.8886312E-01
       -2   -1    0    0    0  501  0.00000000000E+00  0.00000000000E+00  0.57275379731E+03  0.57275379731E+03  0.25500000920E-02 0.  1.
        2   -1    0    0  501    0  0.00000000000E+00  0.00000000000E+00 -0.97844404241E+03  0.97844404241E+03  0.25500000920E-02 0. -1.
    10030    2    1    2    0    0  0.00000000000E+00  0.00000000000E+00 -0.40569024510E+03  0.15511978397E+04  0.14972074549E+04 0.  0.
        5    1    3    3  502    0  0.10021648839E+03 -0.39336635211E+03  0.44880743923E+03  0.60516992574E+03  0.46999998093E+01 0.  1.
       -5    1    3    3    0  502 -0.10021648839E+03  0.39336635211E+03 -0.85449768433E+03  0.94602791399E+03  0.46999998093E+01 0. -1.
</event>
<event>
 5   0  0.6361716E-05  0.1503098E+04  0.7818609E-02  0.8882395E-01
       -1   -1    0    0    0  501  0.00000000000E+00  0.00000000000E+00  0.22784262890E+04  0.22784262890E+04  0.50400001928E-02 0. -1.
        1   -1    0    0  501    0  0.00000000000E+00  0.00000000000E+00 -0.24790176432E+03  0.24790176437E+03  0.50400001928E-02 0.  1.
    10030    2    1    2    0    0  0.00000000000E+00  0.00000000000E+00  0.20305245247E+04  0.25263280534E+04  0.15030979968E+04 0.  0.
        3    1    3    3  502    0  0.52922211544E+03  0.34464471167E+03  0.33053587414E+03  0.71281834927E+03  0.10100000352E+00 0.  1.
       -3    1    3    3    0  502 -0.52922211544E+03 -0.34464471167E+03  0.16999886506E+04  0.18135097041E+04  0.10100000352E+00 0. -1.
</event>
<event>
 5   0  0.1228286E-04  0.1499877E+04  0.7818609E-02  0.8884535E-01
       -2   -1    0    0    0  501  0.00000000000E+00  0.00000000000E+00  0.32753424709E+03  0.32753424710E+03  0.25500000920E-02 0.  1.
        2   -1    0    0  501    0  0.00000000000E+00  0.00000000000E+00 -0.17170954764E+04  0.17170954764E+04  0.25500000920E-02 0. -1.
    10030    2    1    2    0    0  0.00000000000E+00  0.00000000000E+00 -0.13895612293E+04  0.20446297235E+04  0.14998767603E+04 0.  0.
        2    1    3    3  502    0  0.59185275424E+03 -0.20202846542E+03 -0.12589906490E+04  0.14057605193E+04  0.25500000920E-02 0. -1.
       -2    1    3    3    0  502 -0.59185275424E+03  0.20202846542E+03 -0.13057058031E+03  0.63886920413E+03  0.25500000920E-02 0.  1.
</event>
<event>
 5   0  0.1186664E-04  0.1503587E+04  0.7818609E-02  0.8882071E-01
        2   -1    0    0  501    0  0.00000000000E+00  0.00000000000E+00  0.91190857911E+03  0.91190857911E+03  0.25500000920E-02 0.  1.
       -2   -1    0    0    0  501  0.00000000000E+00  0.00000000000E+00 -0.61979171093E+03  0.61979171093E+03  0.25500000920E-02 0. -1.
    10030    2    1    2    0    0  0.00000000000E+00  0.00000000000E+00  0.29211686818E+03  0.15317002900E+04  0.15035868827E+04 0.  0.
        3    1    3    3  502    0 -0.63080260165E+03  0.23247302774E+03  0.48885846930E+03  0.83122695101E+03  0.10100000352E+00 0. -1.
       -3    1    3    3    0  502  0.63080260165E+03 -0.23247302774E+03 -0.19674160113E+03  0.70047333903E+03  0.10100000352E+00 0.  1.
</event>
<event>
 5   0  0.1219810E-04  0.1510315E+04  0.7818609E-02  0.8877622E-01
        2   -1    0    0  501    0  0.00000000000E+00  0.00000000000E+00  0.96556805553E+03  0.96556805554E+03  0.25500000920E-02 0.  1.
       -2   -1    0    0    0  501  0.00000000000E+00  0.00000000000E+00 -0.59059824682E+03  0.59059824682E+03  0.25500000920E-02 0. -1.
    10030    2    1    2    0    0  0.00000000000E+00  0.00000000000E+00  0.37496980872E+03  0.15561663024E+04  0.15103149351E+04 0.  0.
        1    1    3    3  502    0  0.19476592461E+03 -0.52981343031E+03 -0.32936793488E+03  0.65354362737E+03  0.50400001928E-02 0. -1.
       -1    1    3    3    0  502 -0.19476592461E+03  0.52981343031E+03  0.70433774360E+03  0.90262267499E+03  0.50400001928E-02 0.  1.
</event>
<event>
 5   0  0.6668433E-05  0.1504597E+04  0.7818609E-02  0.8881402E-01
        1   -1    0    0  501    0  0.00000000000E+00  0.00000000000E+00  0.82524964481E+03  0.82524964483E+03  0.50400001928E-02 0. -1.
       -1   -1    0    0    0  501  0.00000000000E+00  0.00000000000E+00 -0.68579609230E+03  0.68579609232E+03  0.50400001928E-02 0.  1.
    10030    2    1    2    0    0  0.00000000000E+00  0.00000000000E+00  0.13945355251E+03  0.15110457371E+04  0.15045969316E+04 0.  0.
        1    1    3    3  502    0 -0.33905563385E+03 -0.80854042579E+01 -0.60466375818E+03  0.69328374934E+03  0.50400001928E-02 0.  1.
       -1    1    3    3    0  502  0.33905563385E+03  0.80854042579E+01  0.74411731070E+03  0.81776198781E+03  0.50400001928E-02 0. -1.
</event>
<event>
 5   0  0.1186664E-04  0.1500521E+04  0.7818609E-02  0.8884107E-01
       -2   -1    0    0    0  501  0.00000000000E+00  0.00000000000E+00  0.43270575869E+03  0.43270575870E+03  0.25500000920E-02 0. -1.
        2   -1    0    0  501    0  0.00000000000E+00  0.00000000000E+00 -0.13008628186E+04  0.13008628186E+04  0.25500000920E-02 0.  1.
    10030    2    1    2    0    0  0.00000000000E+00  0.00000000000E+00 -0.86815705989E+03  0.17335685773E+04  0.15005210200E+04 0.  0.
        3    1    3    3  502    0 -0.65028860282E+03 -0.97058800341E+02 -0.85158427766E+03  0.10758677753E+04  0.10100000352E+00 0.  1.
       -3    1    3    3    0  502  0.65028860282E+03  0.97058800341E+02 -0.16572782231E+02  0.65770080203E+03  0.10100000352E+00 0. -1.
</event>
<event>
 5   0  0.6542036E-05  0.1501528E+04  0.7818609E-02  0.8883437E-01
        1   -1    0    0  501    0  0.00000000000E+00  0.00000000000E+00  0.69873805121E+03  0.69873805122E+03  0.50400001928E-02 0. -1.
       -1   -1    0    0    0  501  0.00000000000E+00  0.00000000000E+00 -0.80666363212E+03  0.80666363214E+03  0.50400001928E-02 0.  1.
    10030    2    1    2    0    0  0.00000000000E+00  0.00000000000E+00 -0.10792558092E+03  0.15054016834E+04  0.15015279875E+04 0.  0.
        4    1    3    3  502    0 -0.41327223661E+03  0.13367685758E+03  0.55997433572E+03  0.70868632933E+03  0.12699999809E+01 0. -1.
       -4    1    3    3    0  502  0.41327223661E+03 -0.13367685758E+03 -0.66789991664E+03  0.79671535403E+03  0.12699999809E+01 0.  1.
</event>
<event>
 5   0  0.1254487E-04  0.1500813E+04  0.7818609E-02  0.8883912E-01
       -2   -1    0    0    0  501  0.00000000000E+00  0.00000000000E+00  0.76232576411E+03  0.76232576411E+03  0.25500000920E-02 0.  1.
        2   -1    0    0  501    0  0.00000000000E+00  0.00000000000E+00 -0.73867408210E+03  0.73867408211E+03  0.25500000920E-02 0. -1.
    10030    2    1    2    0    0  0.00000000000E+00  0.00000000000E+00  0.23651682006E+02  0.15009998462E+04  0.15008134915E+04 0.  0.
        5    1    3    3  502    0 -0.24730687236E+03 -0.53881203508E+03 -0.44824116467E+03  0.74325051629E+03  0.46999998093E+01 0. -1.
       -5    1    3    3    0  502  0.24730687236E+03  0.53881203508E+03  0.47189284668E+03  0.75774932993E+03  0.46999998093E+01 0.  1.
</event>
<event>
 5   0  0.6542036E-05  0.1500767E+04  0.7818609E-02  0.8883943E-01
       -1   -1    0    0    0  501  0.00000000000E+00  0.00000000000E+00  0.53857746329E+03  0.53857746331E+03  0.50400001928E-02 0. -1.
        1   -1    0    0  501    0  0.00000000000E+00  0.00000000000E+00 -0.10454860379E+04  0.10454860379E+04  0.50400001928E-02 0.  1.
    10030    2    1    2    0    0  0.00000000000E+00  0.00000000000E+00 -0.50690857461E+03  0.15840635012E+04  0.15007667616E+04 0.  0.
        4    1    3    3  502    0  0.31262647054E+03 -0.23778614649E+03  0.42140421986E+03  0.57607351177E+03  0.12699999809E+01 0. -1.
       -4    1    3    3    0  502 -0.31262647054E+03  0.23778614649E+03 -0.92831279447E+03  0.10079899894E+04  0.12699999809E+01 0.  1.
</event>
<event>
 5   0  0.6364378E-05  0.1500358E+04  0.7818609E-02  0.8884215E-01
       -1   -1    0    0    0  501  0.00000000000E+00  0.00000000000E+00  0.67008937109E+03  0.67008937111E+03  0.50400001928E-02 0. -1.
        1   -1    0    0  501    0  0.00000000000E+00  0.00000000000E+00 -0.83984139267E+03  0.83984139269E+03  0.50400001928E-02 0.  1.
    10030    2    1    2    0    0  0.00000000000E+00  0.00000000000E+00 -0.16975202158E+03  0.15099307638E+04  0.15003583447E+04 0.  0.
        5    1    3    3  502    0 -0.27318948544E+03 -0.62596693949E+03 -0.39714522186E+03  0.79007184580E+03  0.46999998093E+01 0. -1.
       -5    1    3    3    0  502  0.27318948544E+03  0.62596693949E+03  0.22739320027E+03  0.71985891800E+03  0.46999998093E+01 0.  1.
</event>
<event>
 5   0  0.1219810E-04  0.1502191E+04  0.7818609E-02  0.8882997E-01
       -2   -1    0    0    0  501  0.00000000000E+00  0.00000000000E+00  0.42671912759E+03  0.42671912760E+03  0.25500000920E-02 0.  1.
        2   -1    0    0  501    0  0.00000000000E+00  0.00000000000E+00 -0.13220516205E+04  0.13220516205E+04  0.25500000920E-02 0. -1.
    10030    2    1    2    0    0  0.00000000000E+00  0.00000000000E+00 -0.89533249291E+03  0.17487707481E+04  0.15021913515E+04 0.  0.
        1    1    3    3  502    0 -0.21709048822E+03  0.29374722509E+03 -0.12116949595E+04  0.12655514163E+04  0.50400001928E-02 0. -1.
       -1    1    3    3    0  502  0.21709048822E+03 -0.29374722509E+03  0.31636246662E+03  0.48321933181E+03  0.50400001928E-02 0.  1.
</event>
<event>
 5   0  0.1216921E-04  0.1500398E+04  0.7818609E-02  0.8884188E-01
        2   -1    0    0  501    0  0.00000000000E+00  0.00000000000E+00  0.20871096666E+04  0.20871096666E+04  0.25500000920E-02 0.  1.
       -2   -1    0    0    0  501  0.00000000000E+00  0.00000000000E+00 -0.26965468435E+03  0.26965468436E+03  0.25500000920E-02 0. -1.
    10030    2    1    2    0    0  0.00000000000E+00  0.00000000000E+00  0.18174549823E+04  0.23567643510E+04  0.15003984782E+04 0.  0.
        4    1    3    3  502    0 -0.21976518726E+02  0.24886358982E+03 -0.20239017128E+03  0.32152674546E+03  0.12699999809E+01 0. -1.
       -4    1    3    3    0  502  0.21976518726E+02 -0.24886358982E+03  0.20198451535E+04  0.20352376055E+04  0.12699999809E+01 0.  1.
</event>
<event>
 5   0  0.1186664E-04  0.1505986E+04  0.7818609E-02  0.8880482E-01
        2   -1    0    0  501    0  0.00000000000E+00  0.00000000000E+00  0.25759728980E+04  0.25759728980E+04  0.25500000920E-02 0. -1.
       -2   -1    0    0    0  501  0.00000000000E+00  0.00000000000E+00 -0.22011052401E+03  0.22011052403E+03  0.25500000920E-02 0.  1.
    10030    2    1    2    0    0  0.00000000000E+00  0.00000000000E+00  0.23558623740E+04  0.27960834220E+04  0.15059863803E+04 0.  0.
        3    1    3    3  502    0  0.47071089599E+03  0.21869255639E+03  0.16507418260E+03  0.54465096877E+03  0.10100000352E+00 0.  1.
       -3    1    3    3    0  502 -0.47071089599E+03 -0.21869255639E+03  0.21907881914E+04  0.22514324533E+04  0.10100000352E+00 0. -1.
</event>
<event>
 5   0  0.6542036E-05  0.1499287E+04  0.7818609E-02  0.8884927E-01
       -1   -1    0    0    0  501  0.00000000000E+00  0.00000000000E+00  0.66187092190E+03  0.66187092192E+03  0.50400001928E-02 0. -1.
        1   -1    0    0  501    0  0.00000000000E+00  0.00000000000E+00 -0.84905586843E+03  0.84905586845E+03  0.50400001928E-02 0.  1.
    10030    2    1    2    0    0  0.00000000000E+00  0.00000000000E+00 -0.18718494654E+03  0.15109267904E+04  0.14992870178E+04 0.  0.
        4    1    3    3  502    0  0.55353072708E+03 -0.29743679601E+03 -0.50554331074E+03  0.80649895560E+03  0.12699999809E+01 0.  1.
       -4    1    3    3    0  502 -0.55353072708E+03  0.29743679601E+03  0.31835836420E+03  0.70442783477E+03  0.12699999809E+01 0. -1.
</event>
<event>
 5   0  0.6509279E-05  0.1500407E+04  0.7818609E-02  0.8884182E-01
        1   -1    0    0  501    0  0.00000000000E+00  0.00000000000E+00  0.90972676683E+03  0.90972676685E+03  0.50400001928E-02 0. -1.
       -1   -1    0    0    0  501  0.00000000000E+00  0.00000000000E+00 -0.61865349306E+03  0.61865349308E+03  0.50400001928E-02 0.  1.
    10030    2    1    2    0    0  0.00000000000E+00  0.00000000000E+00  0.29107327377E+03  0.15283802599E+04  0.15004074674E+04 0.  0.
        2    1    3    3  502    0 -0.35341036955E+03  0.14627592849E+03  0.80294462119E+03  0.88939057858E+03  0.25500000920E-02 0. -1.
       -2    1    3    3    0  502  0.35341036955E+03 -0.14627592849E+03 -0.51187134742E+03  0.63898968135E+03  0.25500000920E-02 0.  1.
</event>
<event>
 5   0  0.1254487E-04  0.1493420E+04  0.7818609E-02  0.8888840E-01
       -2   -1    0    0    0  501  0.00000000000E+00  0.00000000000E+00  0.55566240920E+03  0.55566240920E+03  0.25500000920E-02 0. -1.
        2   -1    0    0  501    0  0.00000000000E+00  0.00000000000E+00 -0.10034434948E+04  0.10034434948E+04  0.25500000920E-02 0.  1.
    10030    2    1    2    0    0  0.00000000000E+00  0.00000000000E+00 -0.44778108559E+03  0.15591059040E+04  0.14934200077E+04 0.  0.
        5    1    3    3  502    0 -0.27640861181E+03 -0.40356200264E+03  0.36509544530E+03  0.61039395871E+03  0.46999998093E+01 0. -1.
       -5    1    3    3    0  502  0.27640861181E+03  0.40356200264E+03 -0.81287653089E+03  0.94871194528E+03  0.46999998093E+01 0.  1.
</event>
<event>
 5   0  0.6668433E-05  0.1496883E+04  0.7818609E-02  0.8886528E-01
       -1   -1    0    0    0  501  0.00000000000E+00  0.00000000000E+00  0.52295489385E+03  0.52295489388E+03  0.50400001928E-02 0.  1.
        1   -1    0    0  501    0  0.00000000000E+00  0.00000000000E+00 -0.10711526695E+04  0.10711526695E+04  0.50400001928E-02 0. -1.
    10030    2    1    2    0    0  0.00000000000E+00  0.00000000000E+00 -0.54819777566E+03  0.15941075634E+04  0.14968828018E+04 0.  0.
        1    1    3    3  502    0 -0.28630982545E+03  0.15714851085E+03  0.44306158249E+03  0.55042941102E+03  0.50400001928E-02 0.  1.
       -1    1    3    3    0  502  0.28630982545E+03 -0.15714851085E+03 -0.99125935815E+03  0.10436781524E+04  0.50400001928E-02 0. -1.
</event>
<event>
 5   0  0.1186664E-04  0.1502557E+04  0.7818609E-02  0.8882754E-01
        2   -1    0    0  501    0  0.00000000000E+00  0.00000000000E+00  0.65942547174E+03  0.65942547175E+03  0.25500000920E-02 0. -1.
       -2   -1    0    0    0  501  0.00000000000E+00  0.00000000000E+00 -0.85592599587E+03  0.85592599587E+03  0.25500000920E-02 0.  1.
    10030    2    1    2    0    0  0.00000000000E+00  0.00000000000E+00 -0.19650052412E+03  0.15153514676E+04  0.15025570254E+04 0.  0.
        3    1    3    3  502    0 -0.68615152622E+03 -0.30593616961E+03 -0.10259233798E+03  0.75823878483E+03  0.10100000352E+00 0. -1.
       -3    1    3    3    0  502  0.68615152622E+03  0.30593616961E+03 -0.93908186138E+02  0.75711268279E+03  0.10100000352E+00 0.  1.
</event>
<event>
 5   0  0.6509279E-05  0.1527853E+04  0.7818609E-02  0.8866140E-01
       -1   -1    0    0    0  501  0.00000000000E+00  0.00000000000E+00  0.59555689427E+03  0.59555689429E+03  0.50400001928E-02 0. -1.
        1   -1    0    0  501    0  0.00000000000E+00  0.00000000000E+00 -0.97989517975E+03  0.97989517976E+03  0.50400001928E-02 0.  1.
    10030    2    1    2    0    0  0.00000000000E+00  0.00000000000E+00 -0.38433828548E+03  0.15754520741E+04  0.15278525190E+04 0.  0.
        2    1    3    3  502    0 -0.75058935077E+03 -0.11130576964E+03 -0.10104178418E+03  0.76549512736E+03  0.25500000920E-02 0.  1.
       -2    1    3    3    0  502  0.75058935077E+03  0.11130576964E+03 -0.28329650130E+03  0.80995694670E+03  0.25500000920E-02 0. -1.
</event>
<event>
 5   0  0.6542036E-05  0.1496863E+04  0.7818609E-02  0.8886542E-01
        1   -1    0    0  501    0  0.00000000000E+00  0.00000000000E+00  0.79977584947E+03  0.79977584949E+03  0.50400001928E-02 0. -1.
       -1   -1    0    0    0  501  0.00000000000E+00  0.00000000000E+00 -0.70038335163E+03  0.70038335165E+03  0.50400001928E-02 0.  1.
    10030    2    1    2    0    0  0.00000000000E+00  0.00000000000E+00  0.99392497837E+02  0.15001592011E+04  0.14968629731E+04 0.  0.
        4    1    3    3  502    0 -0.48092316875E+03  0.57241596984E+03  0.14965349789E+02  0.74777851758E+03  0.12699999809E+01 0.  1.
       -4    1    3    3    0  502  0.48092316875E+03 -0.57241596984E+03  0.84427148047E+02  0.75238068356E+03  0.12699999809E+01 0. -1.
</event>
<event>
 5   0  0.4462875E-05  0.1500563E+04  0.7818609E-02  0.8884079E-01
        3   -1    0    0  501    0  0.00000000000E+00  0.00000000000E+00  0.88889697620E+03  0.88889698194E+03  0.10100000352E+00 0. -1.
       -3   -1    0    0    0  501  0.00000000000E+00  0.00000000000E+00 -0.63328159298E+03  0.63328160103E+03  0.10100000352E+00 0.  1.
    10030    2    1    2    0    0  0.00000000000E+00  0.00000000000E+00  0.25561538323E+03  0.15221785830E+04  0.15005626992E+04 0.  0.
        1    1    3    3  502    0 -0.16366014836E+03 -0.71775389980E+03  0.27469271724E+03  0.78575530146E+03  0.50400001928E-02 0.  1.
       -1    1    3    3    0  502  0.16366014836E+03  0.71775389980E+03 -0.19077334014E+02  0.73642328151E+03  0.50400001928E-02 0. -1.
</event>
<event>
 5   0  0.1216921E-04  0.1498894E+04  0.7818609E-02  0.8885189E-01
       -2   -1    0    0    0  501  0.00000000000E+00  0.00000000000E+00  0.33956946346E+03  0.33956946347E+03  0.25500000920E-02 0. -1.
        2   -1    0    0  501    0  0.00000000000E+00  0.00000000000E+00 -0.16540675117E+04  0.16540675117E+04  0.25500000920E-02 0.  1.
    10030    2    1    2    0    0  0.00000000000E+00  0.00000000000E+00 -0.13144980483E+04  0.19936369752E+04  0.14988940156E+04 0.  0.
        4    1    3    3  502    0  0.22469022296E+02 -0.74018292785E+03 -0.50389465769E+03  0.89570478540E+03  0.12699999809E+01 0.  1.
       -4    1    3    3    0  502 -0.22469022296E+02  0.74018292785E+03 -0.81060339057E+03  0.10979321898E+04  0.12699999809E+01 0. -1.
</event>
<event>
 5   0  0.6364378E-05  0.1499723E+04  0.7818609E-02  0.8884637E-01
        1   -1    0    0  501    0  0.00000000000E+00  0.00000000000E+00  0.13982876844E+04  0.13982876844E+04  0.50400001928E-02 0.  1.
       -1   -1    0    0    0  501  0.00000000000E+00  0.00000000000E+00 -0.40212940976E+03  0.40212940979E+03  0.50400001928E-02 0. -1.
    10030    2    1    2    0    0  0.00000000000E+00  0.00000000000E+00  0.99615827463E+03  0.18004170942E+04  0.14997234428E+04 0.  0.
        5    1    3    3  502    0 -0.37647819748E+03  0.55232011862E+03  0.90126257263E+02  0.67449105172E+03  0.46999998093E+01 0. -1.
       -5    1    3    3    0  502  0.37647819748E+03 -0.55232011862E+03  0.90603201737E+03  0.11259260425E+04  0.46999998093E+01 0.  1.
</event>
<event>
 5   0  0.1228286E-04  0.1495939E+04  0.7818609E-02  0.8887158E-01
        2   -1    0    0  501    0  0.00000000000E+00  0.00000000000E+00  0.78215793643E+03  0.78215793643E+03  0.25500000920E-02 0.  1.
       -2   -1    0    0    0  501  0.00000000000E+00  0.00000000000E+00 -0.71527509268E+03  0.71527509268E+03  0.25500000920E-02 0. -1.
    10030    2    1    2    0    0  0.00000000000E+00  0.00000000000E+00  0.66882843748E+02  0.14974330291E+04  0.14959386224E+04 0.  0.
        2    1    3    3  502    0 -0.70279184490E+03 -0.53300998862E+02 -0.21720983450E+03  0.73752117661E+03  0.25500000920E-02 0.  1.
       -2    1    3    3    0  502  0.70279184490E+03  0.53300998862E+02  0.28409267825E+03  0.75991185250E+03  0.25500000920E-02 0. -1.
</event>
<event>
 5   0  0.6542036E-05  0.1499976E+04  0.7818609E-02  0.8884469E-01
       -1   -1    0    0    0  501  0.00000000000E+00  0.00000000000E+00  0.72310621204E+03  0.72310621206E+03  0.50400001928E-02 0. -1.
        1   -1    0    0  501    0  0.00000000000E+00  0.00000000000E+00 -0.77786916432E+03  0.77786916433E+03  0.50400001928E-02 0.  1.
    10030    2    1    2    0    0  0.00000000000E+00  0.00000000000E+00 -0.54762952276E+02  0.15009753764E+04  0.14999760330E+04 0.  0.
        4    1    3    3  502    0  0.33581758335E+02 -0.73116036249E+03 -0.19106674463E+03  0.75645973057E+03  0.12699999809E+01 0. -1.
       -4    1    3    3    0  502 -0.33581758335E+02  0.73116036249E+03  0.13630379235E+03  0.74451564582E+03  0.12699999809E+01 0.  1.
</event>
<event>
 5   0  0.6668433E-05  0.1498070E+04  0.7818609E-02  0.8885737E-01
        1   -1    0    0  501    0  0.00000000000E+00  0.00000000000E+00  0.99000204129E+03  0.99000204130E+03  0.50400001928E-02 0. -1.
       -1   -1    0    0    0  501  0.00000000000E+00  0.00000000000E+00 -0.56671962748E+03  0.56671962750E+03  0.50400001928E-02 0.  1.
    10030    2    1    2    0    0  0.00000000000E+00  0.00000000000E+00  0.42328241381E+03  0.15567216688E+04  0.14980702094E+04 0.  0.
        1    1    3    3  502    0 -0.67012921789E+03 -0.55295972250E+01 -0.13604746987E+03  0.68382209616E+03  0.50400001928E-02 0.  1.
       -1    1    3    3    0  502  0.67012921789E+03  0.55295972250E+01  0.55932988368E+03  0.87289957264E+03  0.50400001928E-02 0. -1.
</event>
<event>
 5   0  0.1228286E-04  0.1500181E+04  0.7818609E-02  0.8884332E-01
       -2   -1    0    0    0  501  0.00000000000E+00  0.00000000000E+00  0.40855313314E+03  0.40855313315E+03  0.25500000920E-02 0. -1.
        2   -1    0    0  501    0  0.00000000000E+00  0.00000000000E+00 -0.13771425589E+04  0.13771425590E+04  0.25500000920E-02 0.  1.
    10030    2    1    2    0    0  0.00000000000E+00  0.00000000000E+00 -0.96858942581E+03  0.17856956921E+04  0.15001811987E+04 0.  0.
        2    1    3    3  502    0  0.44357772960E+03  0.53600218918E+03 -0.15063046001E+03  0.71186310797E+03  0.25500000920E-02 0. -1.
       -2    1    3    3    0  502 -0.44357772960E+03 -0.53600218918E+03 -0.81795896580E+03  0.10738325841E+04  0.25500000920E-02 0.  1.
</event>
<event>
 5   0  0.1219810E-04  0.1501373E+04  0.7818609E-02  0.8883541E-01
        2   -1    0    0  501    0  0.00000000000E+00  0.00000000000E+00  0.59741889217E+03  0.59741889218E+03  0.25500000920E-02 0.  1.
       -2   -1    0    0    0  501  0.00000000000E+00  0.00000000000E+00 -0.94327439753E+03  0.94327439754E+03  0.25500000920E-02 0. -1.
    10030    2    1    2    0    0  0.00000000000E+00  0.00000000000E+00 -0.34585550536E+03  0.15406932897E+04  0.15013726328E+04 0.  0.
        1    1    3    3  502    0  0.69370737944E+03  0.27439515393E+03 -0.25882981125E+03  0.78962997664E+03  0.50400001928E-02 0. -1.
       -1    1    3    3    0  502 -0.69370737944E+03 -0.27439515393E+03 -0.87025694108E+02  0.75106331308E+03  0.50400001928E-02 0.  1.
</event>
<event>
 5   0  0.6509279E-05  0.1500676E+04  0.7818609E-02  0.8884004E-01
        1   -1    0    0  501    0  0.00000000000E+00  0.00000000000E+00  0.43634088567E+03  0.43634088570E+03  0.50400001928E-02 0. -1.
       -1   -1    0    0    0  501  0.00000000000E+00  0.00000000000E+00 -0.12902915229E+04  0.12902915229E+04  0.50400001928E-02 0.  1.
    10030    2    1    2    0    0  0.00000000000E+00  0.00000000000E+00 -0.85395063725E+03  0.17266324086E+04  0.15006757757E+04 0.  0.
        2    1    3    3  502    0  0.24868472380E+03 -0.53051294076E+02 -0.12392063104E+04  0.12650260121E+04  0.25500000920E-02 0.  1.
       -2    1    3    3    0  502 -0.24868472380E+03  0.53051294076E+02  0.38525567310E+03  0.46160639653E+03  0.25500000920E-02 0. -1.
</event>
<event>
 5   0  0.6668433E-05  0.1507524E+04  0.7818609E-02  0.8879465E-01
       -1   -1    0    0    0  501  0.00000000000E+00  0.00000000000E+00  0.27983467256E+03  0.27983467260E+03  0.50400001928E-02 0.  1.
        1   -1    0    0  501    0  0.00000000000E+00  0.00000000000E+00 -0.20303326238E+04  0.20303326238E+04  0.50400001928E-02 0. -1.
    10030    2    1    2    0    0  0.00000000000E+00  0.00000000000E+00 -0.17504979513E+04  0.23101672964E+04  0.15075244144E+04 0.  0.
        1    1    3    3  502    0  0.34463207058E+03 -0.50188429526E+03 -0.19422748225E+03  0.63904884382E+03  0.50400001928E-02 0.  1.
       -1    1    3    3    0  502 -0.34463207058E+03  0.50188429526E+03 -0.15562704690E+04  0.16711184526E+04  0.50400001928E-02 0. -1.
</event>
<event>
 5   0  0.6668433E-05  0.1500647E+04  0.7818609E-02  0.8884023E-01
        1   -1    0    0  501    0  0.00000000000E+00  0.00000000000E+00  0.17020126956E+04  0.17020126956E+04  0.50400001928E-02 0. -1.
       -1   -1    0    0    0  501  0.00000000000E+00  0.00000000000E+00 -0.33077639310E+03  0.33077639314E+03  0.50400001928E-02 0.  1.
    10030    2    1    2    0    0  0.00000000000E+00  0.00000000000E+00  0.13712363025E+04  0.20327890888E+04  0.15006473543E+04 0.  0.
        1    1    3    3  502    0 -0.26365007630E+03  0.11745934960E+03 -0.25256661011E+03  0.38353351106E+03  0.50400001928E-02 0.  1.
       -1    1    3    3    0  502  0.26365007630E+03 -0.11745934960E+03  0.16238029126E+04  0.16492555777E+04  0.50400001928E-02 0. -1.
</event>
<event>
 5   0  0.1216921E-04  0.1496846E+04  0.7818609E-02  0.8886553E-01
        2   -1    0    0  501    0  0.00000000000E+00  0.00000000000E+00  0.24157658211E+03  0.24157658212E+03  0.25500000920E-02 0. -1.
       -2   -1    0    0    0  501  0.00000000000E+00  0.00000000000E+00 -0.23186719012E+04  0.23186719012E+04  0.25500000920E-02 0.  1.
    10030    2    1    2    0    0  0.00000000000E+00  0.00000000000E+00 -0.20770953191E+04  0.25602484833E+04  0.14968457942E+04 0.  0.
        4    1    3    3  502    0  0.59248411156E+03  0.34376148439E+03 -0.15543089166E+04  0.16985544447E+04  0.12699999809E+01 0.  1.
       -4    1    3    3    0  502 -0.59248411156E+03 -0.34376148439E+03 -0.52278640246E+03  0.86169403857E+03  0.12699999809E+01 0. -1.
</event>
<event>
 5   0  0.6361716E-05  0.1501332E+04  0.7818609E-02  0.8883567E-01
       -1   -1    0    0    0  501  0.00000000000E+00  0.00000000000E+00  0.68382203300E+03  0.68382203302E+03  0.50400001928E-02 0.  1.
        1   -1    0    0  501    0  0.00000000000E+00  0.00000000000E+00 -0.82404449145E+03  0.82404449146E+03  0.50400001928E-02 0. -1.
    10030    2    1    2    0    0  0.00000000000E+00  0.00000000000E+00 -0.14022245844E+03  0.15078665245E+04  0.15013324475E+04 0.  0.
        3    1    3    3  502    0  0.65009437139E+02  0.27695021783E+03 -0.76780868973E+03  0.81881490234E+03  0.10100000352E+00 0. -1.
       -3    1    3    3    0  502 -0.65009437139E+02 -0.27695021783E+03  0.62758623128E+03  0.68905162214E+03  0.10100000352E+00 0.  1.
</event>
<event>
 5   0  0.6668433E-05  0.1486713E+04  0.7818609E-02  0.8893337E-01
       -1   -1    0    0    0  501  0.00000000000E+00  0.00000000000E+00  0.51103319016E+03  0.51103319018E+03  0.50400001928E-02 0.  1.
        1   -1    0    0  501    0  0.00000000000E+00  0.00000000000E+00 -0.10812976872E+04  0.10812976872E+04  0.50400001928E-02 0. -1.
    10030    2    1    2    0    0  0.00000000000E+00  0.00000000000E+00 -0.57026449700E+03  0.15923308774E+04  0.14867131621E+04 0.  0.
        1    1    3    3  502    0 -0.85286659101E+02 -0.66216872745E+03  0.64948746846E+02  0.67079026348E+03  0.50400001928E-02 0.  1.
       -1    1    3    3    0  502  0.85286659101E+02  0.66216872745E+03 -0.63521324385E+03  0.92154061387E+03  0.50400001928E-02 0. -1.
</event>
<event>
 5   0  0.6668433E-05  0.1499709E+04  0.7818609E-02  0.8884647E-01
       -1   -1    0    0    0  501  0.00000000000E+00  0.00000000000E+00  0.60255162204E+03  0.60255162206E+03  0.50400001928E-02 0.  1.
        1   -1    0    0  501    0  0.00000000000E+00  0.00000000000E+00 -0.93316760076E+03  0.93316760078E+03  0.50400001928E-02 0. -1.
    10030    2    1    2    0    0  0.00000000000E+00  0.00000000000E+00 -0.33061597872E+03  0.15357192228E+04  0.14997088404E+04 0.  0.
        1    1    3    3  502    0 -0.52966975448E+03  0.50197614659E+03  0.11320060475E+02  0.72983439516E+03  0.50400001928E-02 0.  1.
       -1    1    3    3    0  502  0.52966975448E+03 -0.50197614659E+03 -0.34193603920E+03  0.80588482768E+03  0.50400001928E-02 0. -1.
</event>
<event>
 5   0  0.1216921E-04  0.1500672E+04  0.7818609E-02  0.8884006E-01
       -2   -1    0    0    0  501  0.00000000000E+00  0.00000000000E+00  0.71769135754E+03  0.71769135754E+03  0.25500000920E-02 0. -1.
        2   -1    0    0  501    0  0.00000000000E+00  0.00000000000E+00 -0.78446510180E+03  0.78446510180E+03  0.25500000920E-02 0.  1.
    10030    2    1    2    0    0  0.00000000000E+00  0.00000000000E+00 -0.66773744261E+02  0.15021564593E+04  0.15006716148E+04 0.  0.
        4    1    3    3  502    0  0.87147636626E+02  0.71999520385E+02 -0.77589138339E+03  0.78408398353E+03  0.12699999809E+01 0.  1.
       -4    1    3    3    0  502 -0.87147636626E+02 -0.71999520385E+02  0.70911763913E+03  0.71807247582E+03  0.12699999809E+01 0. -1.
</event>
<event>
 5   0  0.1186664E-04  0.1503702E+04  0.7818609E-02  0.8881995E-01
        2   -1    0    0  501    0  0.00000000000E+00  0.00000000000E+00  0.57486060121E+03  0.57486060122E+03  0.25500000920E-02 0.  1.
       -2   -1    0    0    0  501  0.00000000000E+00  0.00000000000E+00 -0.98333347527E+03  0.98333347528E+03  0.25500000920E-02 0. -1.
    10030    2    1    2    0    0  0.00000000000E+00  0.00000000000E+00 -0.40847287406E+03  0.15581940765E+04  0.15037016630E+04 0.  0.
        3    1    3    3  502    0  0.51376392377E+03  0.28888347547E+03  0.27944699097E+03  0.65230181874E+03  0.10100000352E+00 0.  1.
       -3    1    3    3    0  502 -0.51376392377E+03 -0.28888347547E+03 -0.68791986503E+03  0.90589225776E+03  0.10100000352E+00 0. -1.
</event>
<event>
 5   0  0.1254487E-04  0.1504784E+04  0.7818609E-02  0.8881278E-01
       -2   -1    0    0    0  501  0.00000000000E+00  0.00000000000E+00  0.26467827844E+03  0.26467827845E+03  0.25500000920E-02 0. -1.
        2   -1    0    0  501    0  0.00000000000E+00  0.00000000000E+00 -0.21387984124E+04  0.21387984124E+04  0.25500000920E-02 0.  1.
    10030    2    1    2    0    0  0.00000000000E+00  0.00000000000E+00 -0.18741201339E+04  0.24034766908E+04  0.15047836811E+04 0.  0.
        5    1    3    3  502    0  0.12255641091E+02  0.48566923988E+02  0.26198874784E+03  0.26677545022E+03  0.46999998093E+01 0. -1.
       -5    1    3    3    0  502 -0.12255641091E+02 -0.48566923988E+02 -0.21361088818E+04  0.21367012406E+04  0.46999998093E+01 0.  1.
</event>
<event>
 5   0  0.1186664E-04  0.1496116E+04  0.7818609E-02  0.8887040E-01
        2   -1    0    0  501    0  0.00000000000E+00  0.00000000000E+00  0.63493795832E+03  0.63493795832E+03  0.25500000920E-02 0. -1.
       -2   -1    0    0    0  501  0.00000000000E+00  0.00000000000E+00 -0.88133100600E+03  0.88133100600E+03  0.25500000920E-02 0.  1.
    10030    2    1    2    0    0  0.00000000000E+00  0.00000000000E+00 -0.24639304768E+03  0.15162689643E+04  0.14961156500E+04 0.  0.
        3    1    3    3  502    0  0.46199786185E+02  0.42131355632E+03  0.50150829581E+03  0.65662022049E+03  0.10100000352E+00 0. -1.
       -3    1    3    3    0  502 -0.46199786185E+02 -0.42131355632E+03 -0.74790134350E+03  0.85964874384E+03  0.10100000352E+00 0.  1.
</event>
<event>
 5   0  0.6364378E-05  0.1499913E+04  0.7818609E-02  0.8884511E-01
        1   -1    0    0  501    0  0.00000000000E+00  0.00000000000E+00  0.48626352176E+03  0.48626352178E+03  0.50400001928E-02 0. -1.
       -1   -1    0    0    0  501  0.00000000000E+00  0.00000000000E+00 -0.11566452345E+04  0.11566452345E+04  0.50400001928E-02 0.  1.
    10030    2    1    2    0    0  0.00000000000E+00  0.00000000000E+00 -0.67038171270E+03  0.16429087563E+04  0.14999125110E+04 0.  0.
        5    1    3    3  502    0  0.37234831218E+03 -0.27152263158E+03  0.31286007581E+03  0.55702003741E+03  0.46999998093E+01 0. -1.
       -5    1    3    3    0  502 -0.37234831218E+03  0.27152263158E+03 -0.98324178851E+03  0.10858887188E+04  0.46999998093E+01 0.  1.
</event>
<event>
 5   0  0.1254487E-04  0.1500363E+04  0.7818609E-02  0.8884212E-01
       -2   -1    0    0    0  501  0.00000000000E+00  0.00000000000E+00  0.47271039327E+03  0.47271039328E+03  0.25500000920E-02 0. -1.
        2   -1    0    0  501    0  0.00000000000E+00  0.00000000000E+00 -0.11905220450E+04  0.11905220450E+04  0.25500000920E-02 0.  1.
    10030    2    1    2    0    0  0.00000000000E+00  0.00000000000E+00 -0.71781165169E+03  0.16632324382E+04  0.15003628149E+04 0.  0.
        5    1    3    3  502    0  0.58231537266E+00  0.72148159328E+03 -0.58666980353E+03  0.92991374703E+03  0.46999998093E+01 0.  1.
       -5    1    3    3    0  502 -0.58231537266E+00 -0.72148159328E+03 -0.13114184816E+03  0.73331869121E+03  0.46999998093E+01 0. -1.
</event>
<event>
 5   0  0.1228286E-04  0.1493085E+04  0.7818609E-02  0.8889064E-01
        2   -1    0    0  501    0  0.00000000000E+00  0.00000000000E+00  0.11954662318E+04  0.11954662318E+04  0.25500000920E-02 0.  1.
       -2   -1    0    0    0  501  0.00000000000E+00  0.00000000000E+00 -0.46619959833E+03  0.46619959834E+03  0.25500000920E-02 0. -1.
    10030    2    1    2    0    0  0.00000000000E+00  0.00000000000E+00  0.72926663351E+03  0.16616658302E+04  0.14930852315E+04 0.  0.
        2    1    3    3  502    0  0.28119834625E+03  0.98429768251E+02  0.11264386137E+04  0.11651716096E+04  0.25500000920E-02 0.  1.
       -2    1    3    3    0  502 -0.28119834625E+03 -0.98429768251E+02 -0.39717198023E+03  0.49649422061E+03  0.25500000920E-02 0. -1.
</event>
<event>
 5   0  0.1254487E-04  0.1497991E+04  0.7818609E-02  0.8885790E-01
        2   -1    0    0  501    0  0.00000000000E+00  0.00000000000E+00  0.22148875733E+04  0.22148875733E+04  0.25500000920E-02 0. -1.
       -2   -1    0    0    0  501  0.00000000000E+00  0.00000000000E+00 -0.25328352751E+03  0.25328352752E+03  0.25500000920E-02 0.  1.
    10030    2    1    2    0    0  0.00000000000E+00  0.00000000000E+00  0.19616040457E+04  0.24681711008E+04  0.14979913719E+04 0.  0.
        5    1    3    3  502    0 -0.39607898229E+02  0.30535120043E+03 -0.14415377815E+03  0.34001550399E+03  0.46999998093E+01 0.  1.
       -5    1    3    3    0  502  0.39607898229E+02 -0.30535120043E+03  0.21057578239E+04  0.21281555968E+04  0.46999998093E+01 0. -1.
</event>
<event>
 5   0  0.6668433E-05  0.1500179E+04  0.7818609E-02  0.8884334E-01
        1   -1    0    0  501    0  0.00000000000E+00  0.00000000000E+00  0.12457882064E+04  0.12457882064E+04  0.50400001928E-02 0. -1.
       -1   -1    0    0    0  501  0.00000000000E+00  0.00000000000E+00 -0.45162936344E+03  0.45162936346E+03  0.50400001928E-02 0.  1.
    10030    2    1    2    0    0  0.00000000000E+00  0.00000000000E+00  0.79415884300E+03  0.16974175699E+04  0.15001793689E+04 0.  0.
        1    1    3    3  502    0  0.17991308657E+03 -0.55971693456E+03 -0.12997823704E+03  0.60211801806E+03  0.50400001928E-02 0.  1.
       -1    1    3    3    0  502 -0.17991308657E+03  0.55971693456E+03  0.92413708004E+03  0.10952995518E+04  0.50400001928E-02 0. -1.
</event>
<event>
 5   0  0.1228286E-04  0.1501373E+04  0.7818609E-02  0.8883540E-01
        2   -1    0    0  501    0  0.00000000000E+00  0.00000000000E+00  0.12271798925E+04  0.12271798925E+04  0.25500000920E-02 0.  1.
       -2   -1    0    0    0  501  0.00000000000E+00  0.00000000000E+00 -0.45920765299E+03  0.45920765300E+03  0.25500000920E-02 0. -1.
    10030    2    1    2    0    0  0.00000000000E+00  0.00000000000E+00  0.76797223953E+03  0.16863875455E+04  0.15013732357E+04 0.  0.
        2    1    3    3  502    0 -0.51550395294E+03 -0.49256233087E+03  0.12016230167E+03  0.72304975904E+03  0.25500000920E-02 0.  1.
       -2    1    3    3    0  502  0.51550395294E+03  0.49256233087E+03  0.64780993785E+03  0.96333778649E+03  0.25500000920E-02 0. -1.
</event>
<event>
 5   0  0.6364378E-05  0.1499097E+04  0.7818609E-02  0.8885054E-01
       -1   -1    0    0    0  501  0.00000000000E+00  0.00000000000E+00  0.80130535879E+03  0.80130535880E+03  0.50400001928E-02 0.  1.
        1   -1    0    0  501    0  0.00000000000E+00  0.00000000000E+00 -0.70113449378E+03  0.70113449379E+03  0.50400001928E-02 0. -1.
    10030    2    1    2    0    0  0.00000000000E+00  0.00000000000E+00  0.10017086501E+03  0.15024398526E+04  0.14990968309E+04 0.  0.
        5    1    3    3  502    0 -0.59500675399E+02 -0.45344192956E+03  0.64525382589E+03  0.79090107073E+03  0.46999998093E+01 0.  1.
       -5    1    3    3    0  502  0.59500675399E+02  0.45344192956E+03 -0.54508296088E+03  0.71153878187E+03  0.46999998093E+01 0. -1.
</event>
<event>
 5   0  0.6361716E-05  0.1499663E+04  0.7818609E-02  0.8884677E-01
        1   -1    0    0  501    0  0.00000000000E+00  0.00000000000E+00  0.20105080183E+04  0.20105080183E+04  0.50400001928E-02 0.  1.
       -1   -1    0    0    0  501  0.00000000000E+00  0.00000000000E+00 -0.27965422613E+03  0.27965422617E+03  0.50400001928E-02 0. -1.
    10030    2    1    2    0    0  0.00000000000E+00  0.00000000000E+00  0.17308537922E+04  0.22901622445E+04  0.14996627141E+04 0.  0.
        3    1    3    3  502    0  0.70846801032E+03  0.21548638196E+03  0.10453791744E+04  0.12810850600E+04  0.10100000352E+00 0.  1.
       -3    1    3    3    0  502 -0.70846801032E+03 -0.21548638196E+03  0.68547461780E+03  0.10090771845E+04  0.10100000352E+00 0. -1.
</event>
<event>
 5   0  0.1216921E-04  0.1499328E+04  0.7818609E-02  0.8884900E-01
       -2   -1    0    0    0  501  0.00000000000E+00  0.00000000000E+00  0.54039684723E+03  0.54039684724E+03  0.25500000920E-02 0.  1.
        2   -1    0    0  501    0  0.00000000000E+00  0.00000000000E+00 -0.10399689329E+04  0.10399689329E+04  0.25500000920E-02 0. -1.
    10030    2    1    2    0    0  0.00000000000E+00  0.00000000000E+00 -0.49957208564E+03  0.15803657801E+04  0.14993277594E+04 0.  0.
        4    1    3    3  502    0 -0.19502156507E+02  0.65334616077E+03  0.13714172847E+03  0.66787050128E+03  0.12699999809E+01 0.  1.
       -4    1    3    3    0  502  0.19502156507E+02 -0.65334616077E+03 -0.63671381411E+03  0.91249527882E+03  0.12699999809E+01 0. -1.
</event>
<event>
 5   0  0.6364378E-05  0.1502260E+04  0.7818609E-02  0.8882951E-01
        1   -1    0    0  501    0  0.00000000000E+00  0.00000000000E+00  0.74199003902E+03  0.74199003903E+03  0.50400001928E-02 0.  1.
       -1   -1    0    0    0  501  0.00000000000E+00  0.00000000000E+00 -0.76038268127E+03  0.76038268129E+03  0.50400001928E-02 0. -1.
    10030    2    1    2    0    0  0.00000000000E+00  0.00000000000E+00 -0.18392642254E+02  0.15023727203E+04  0.15022601311E+04 0.  0.
        5    1    3    3  502    0  0.48441949904E+02 -0.41664686702E+03  0.61393387931E+03  0.74355775329E+03  0.46999998093E+01 0.  1.
       -5    1    3    3    0  502 -0.48441949904E+02  0.41664686702E+03 -0.63232652157E+03  0.75881496703E+03  0.46999998093E+01 0. -1.
</event>
<event>
 5   0  0.6668433E-05  0.1497147E+04  0.7818609E-02  0.8886352E-01
       -1   -1    0    0    0  501  0.00000000000E+00  0.00000000000E+00  0.47635250954E+03  0.47635250957E+03  0.50400001928E-02 0. -1.
        1   -1    0    0  501    0  0.00000000000E+00  0.00000000000E+00 -0.11763601754E+04  0.11763601754E+04  0.50400001928E-02 0.  1.
    10030    2    1    2    0    0  0.00000000000E+00  0.00000000000E+00 -0.70000766582E+03  0.16527126849E+04  0.14971467820E+04 0.  0.
        1    1    3    3  502    0  0.70625934173E+03  0.20244143426E+03 -0.19165039885E+03  0.75928562972E+03  0.50400001928E-02 0.  1.
       -1    1    3    3    0  502 -0.70625934173E+03 -0.20244143426E+03 -0.50835726698E+03  0.89342705522E+03  0.50400001928E-02 0. -1.
</event>
<event>
 5   0  0.6364378E-05  0.1498606E+04  0.7818609E-02  0.8885381E-01
        1   -1    0    0  501    0  0.00000000000E+00  0.00000000000E+00  0.11697201057E+04  0.11697201057E+04  0.50400001928E-02 0.  1.
       -1   -1    0    0    0  501  0.00000000000E+00  0.00000000000E+00 -0.47999070768E+03  0.47999070771E+03  0.50400001928E-02 0. -1.
    10030    2    1    2    0    0  0.00000000000E+00  0.00000000000E+00  0.68972939801E+03  0.16497108134E+04  0.14986057271E+04 0.  0.
        5    1    3    3  502    0  0.27200997367E+03  0.30700458644E+03 -0.34541081108E+03  0.53625736385E+03  0.46999998093E+01 0. -1.
       -5    1    3    3    0  502 -0.27200997367E+03 -0.30700458644E+03  0.10351402091E+04  0.11134534496E+04  0.46999998093E+01 0.  1.
</event>
<event>
 5   0  0.1254487E-04  0.1499099E+04  0.7818609E-02  0.8885052E-01
        2   -1    0    0  501    0  0.00000000000E+00  0.00000000000E+00  0.18330268283E+04  0.18330268283E+04  0.25500000920E-02 0.  1.
       -2   -1    0    0    0  501  0.00000000000E+00  0.00000000000E+00 -0.30650107996E+03  0.30650107997E+03  0.25500000920E-02 0. -1.
    10030    2    1    2    0    0  0.00000000000E+00  0.00000000000E+00  0.15265257483E+04  0.21395279083E+04  0.14990993329E+04 0.  0.
        5    1    3    3  502    0 -0.33203618882E+03  0.67138533858E+03  0.80353720576E+03  0.10984991737E+04  0.46999998093E+01 0.  1.
       -5    1    3    3    0  502  0.33203618882E+03 -0.67138533858E+03  0.72298854257E+03  0.10410287346E+04  0.46999998093E+01 0. -1.
</event>
<event>
 5   0  0.6668433E-05  0.1505233E+04  0.7818609E-02  0.8880981E-01
        1   -1    0    0  501    0  0.00000000000E+00  0.00000000000E+00  0.66186364468E+03  0.66186364470E+03  0.50400001928E-02 0. -1.
       -1   -1    0    0    0  501  0.00000000000E+00  0.00000000000E+00 -0.85581269029E+03  0.85581269030E+03  0.50400001928E-02 0.  1.
    10030    2    1    2    0    0  0.00000000000E+00  0.00000000000E+00 -0.19394904561E+03  0.15176763350E+04  0.15052326151E+04 0.  0.
        1    1    3    3  502    0  0.33598141843E+02 -0.28466499093E+03 -0.79862135579E+03  0.84850401421E+03  0.50400001928E-02 0.  1.
       -1    1    3    3    0  502 -0.33598141843E+02  0.28466499093E+03  0.60467231017E+03  0.66917232079E+03  0.50400001928E-02 0. -1.
</event>
<event>
 5   0  0.4462875E-05  0.1457308E+04  0.7818609E-02  0.8913350E-01
        3   -1    0    0  501    0  0.00000000000E+00  0.00000000000E+00  0.11255287129E+04  0.11255287174E+04  0.10100000352E+00 0. -1.
       -3   -1    0    0    0  501  0.00000000000E+00  0.00000000000E+00 -0.47172204183E+03  0.47172205265E+03  0.10100000352E+00 0.  1.
    10030    2    1    2    0    0  0.00000000000E+00  0.00000000000E+00  0.65380667103E+03  0.15972507700E+04  0.14573080866E+04 0.  0.
        4    1    3    3  502    0 -0.35729391778E+03  0.28439982999E+03 -0.29541767315E+03  0.54388916287E+03  0.12699999809E+01 0.  1.
       -4    1    3    3    0  502  0.35729391778E+03 -0.28439982999E+03  0.94922434418E+03  0.10533616072E+04  0.12699999809E+01 0. -1.
</event>
<event>
 5   0  0.1254487E-04  0.1499548E+04  0.7818609E-02  0.8884754E-01
       -2   -1    0    0    0  501  0.00000000000E+00  0.00000000000E+00  0.81669484393E+03  0.81669484393E+03  0.25500000920E-02 0. -1.
        2   -1    0    0  501    0  0.00000000000E+00  0.00000000000E+00 -0.68833651389E+03  0.68833651389E+03  0.25500000920E-02 0.  1.
    10030    2    1    2    0    0  0.00000000000E+00  0.00000000000E+00  0.12835833004E+03  0.15050313578E+04  0.14995477742E+04 0.  0.
        5    1    3    3  502    0 -0.35462635152E+03  0.31638888972E+03 -0.51783537275E+03  0.70287789978E+03  0.46999998093E+01 0.  1.
       -5    1    3    3    0  502  0.35462635152E+03 -0.31638888972E+03  0.64619370279E+03  0.80215345805E+03  0.46999998093E+01 0. -1.
</event>
<event>
 5   0  0.6364378E-05  0.1510459E+04  0.7818609E-02  0.8877527E-01
        1   -1    0    0  501    0  0.00000000000E+00  0.00000000000E+00  0.11588600847E+04  0.11588600847E+04  0.50400001928E-02 0. -1.
       -1   -1    0    0    0  501  0.00000000000E+00  0.00000000000E+00 -0.49218357658E+03  0.49218357661E+03  0.50400001928E-02 0.  1.
    10030    2    1    2    0    0  0.00000000000E+00  0.00000000000E+00  0.66667650811E+03  0.16510436613E+04  0.15104594020E+04 0.  0.
        5    1    3    3  502    0  0.45515779247E+03  0.39062255827E+03  0.83495698842E+03  0.10280709419E+04  0.46999998093E+01 0. -1.
       -5    1    3    3    0  502 -0.45515779247E+03 -0.39062255827E+03 -0.16828048031E+03  0.62297271941E+03  0.46999998093E+01 0.  1.
</event>
<event>
 5   0  0.1216921E-04  0.1501473E+04  0.7818609E-02  0.8883474E-01
       -2   -1    0    0    0  501  0.00000000000E+00  0.00000000000E+00  0.23299367574E+03  0.23299367576E+03  0.25500000920E-02 0. -1.
        2   -1    0    0  501    0  0.00000000000E+00  0.00000000000E+00 -0.24189738132E+04  0.24189738132E+04  0.25500000920E-02 0.  1.
    10030    2    1    2    0    0  0.00000000000E+00  0.00000000000E+00 -0.21859801374E+04  0.26519674889E+04  0.15014734101E+04 0.  0.
        4    1    3    3  502    0  0.45375248740E+03  0.17988727117E+03 -0.21004507744E+04  0.21564196759E+04  0.12699999809E+01 0.  1.
       -4    1    3    3    0  502 -0.45375248740E+03 -0.17988727117E+03 -0.85529363043E+02  0.49554781302E+03  0.12699999809E+01 0. -1.
</event>
<event>
 5   0  0.6542036E-05  0.1502932E+04  0.7818609E-02  0.8882506E-01
        1   -1    0    0  501    0  0.00000000000E+00  0.00000000000E+00  0.10253673829E+04  0.10253673829E+04  0.50400001928E-02 0.  1.
       -1   -1    0    0    0  501  0.00000000000E+00  0.00000000000E+00 -0.55073052248E+03  0.55073052250E+03  0.50400001928E-02 0. -1.
    10030    2    1    2    0    0  0.00000000000E+00  0.00000000000E+00  0.47463686038E+03  0.15760979054E+04  0.15029319539E+04 0.  0.
        4    1    3    3  502    0 -0.45763162551E+03 -0.68902413571E+02 -0.38355565102E+03  0.60107470217E+03  0.12699999809E+01 0. -1.
       -4    1    3    3    0  502  0.45763162551E+03  0.68902413571E+02  0.85819251140E+03  0.97502320320E+03  0.12699999809E+01 0.  1.
</event>
<event>
 5   0  0.6509279E-05  0.1489507E+04  0.7818609E-02  0.8891461E-01
        1   -1    0    0  501    0  0.00000000000E+00  0.00000000000E+00  0.11540227556E+04  0.11540227556E+04  0.50400001928E-02 0. -1.
       -1   -1    0    0    0  501  0.00000000000E+00  0.00000000000E+00 -0.48062964721E+03  0.48062964724E+03  0.50400001928E-02 0.  1.
    10030    2    1    2    0    0  0.00000000000E+00  0.00000000000E+00  0.67339310842E+03  0.16346524029E+04  0.14895066968E+04 0.  0.
        2    1    3    3  502    0 -0.21899285131E+03  0.10959689778E+03  0.11085746789E+04  0.11353004746E+04  0.25500000920E-02 0. -1.
       -2    1    3    3    0  502  0.21899285131E+03 -0.10959689778E+03 -0.43518157051E+03  0.49935192825E+03  0.25500000920E-02 0.  1.
</event>
<event>
 5   0  0.6361716E-05  0.1498261E+04  0.7818609E-02  0.8885610E-01
        1   -1    0    0  501    0  0.00000000000E+00  0.00000000000E+00  0.87644260313E+03  0.87644260314E+03  0.50400001928E-02 0.  1.
       -1   -1    0    0    0  501  0.00000000000E+00  0.00000000000E+00 -0.64031137854E+03  0.64031137856E+03  0.50400001928E-02 0. -1.
    10030    2    1    2    0    0  0.00000000000E+00  0.00000000000E+00  0.23613122458E+03  0.15167539817E+04  0.14982605534E+04 0.  0.
        3    1    3    3  502    0 -0.27778018986E+03 -0.68237978873E+03  0.25535724308E+03  0.77975082029E+03  0.10100000352E+00 0.  1.
       -3    1    3    3    0  502  0.27778018986E+03  0.68237978873E+03 -0.19226018500E+02  0.73700316141E+03  0.10100000352E+00 0. -1.
</event>
<event>
 5   0  0.1186664E-04  0.1504958E+04  0.7818609E-02  0.8881163E-01
        2   -1    0    0  501    0  0.00000000000E+00  0.00000000000E+00  0.48965227566E+03  0.48965227566E+03  0.25500000920E-02 0.  1.
       -2   -1    0    0    0  501  0.00000000000E+00  0.00000000000E+00 -0.11563810503E+04  0.11563810503E+04  0.25500000920E-02 0. -1.
    10030    2    1    2    0    0  0.00000000000E+00  0.00000000000E+00 -0.66672877463E+03  0.16460333259E+04  0.15049579566E+04 0.  0.
        3    1    3    3  502    0  0.63937539320E+03  0.34099152005E+03 -0.55523062589E+03  0.91288398403E+03  0.10100000352E+00 0. -1.
       -3    1    3    3    0  502 -0.63937539320E+03 -0.34099152005E+03 -0.11149814873E+03  0.73314934191E+03  0.10100000352E+00 0.  1.
</event>
<event>
 5   0  0.6509279E-05  0.1499692E+04  0.7818609E-02  0.8884658E-01
        1   -1    0    0  501    0  0.00000000000E+00  0.00000000000E+00  0.10009641064E+04  0.10009641064E+04  0.50400001928E-02 0.  1.
       -1   -1    0    0    0  501  0.00000000000E+00  0.00000000000E+00 -0.56172762021E+03  0.56172762023E+03  0.50400001928E-02 0. -1.
    10030    2    1    2    0    0  0.00000000000E+00  0.00000000000E+00  0.43923648620E+03  0.15626917267E+04  0.14996922157E+04 0.  0.
        2    1    3    3  502    0 -0.56871031747E+03 -0.48868345290E+03  0.22495624493E+03  0.78284625213E+03  0.25500000920E-02 0.  1.
       -2    1    3    3    0  502  0.56871031747E+03  0.48868345290E+03  0.21428024127E+03  0.77984547453E+03  0.25500000920E-02 0. -1.
</event>
<event>
 5   0  0.6509279E-05  0.1503272E+04  0.7818609E-02  0.8882280E-01
       -1   -1    0    0    0  501  0.00000000000E+00  0.00000000000E+00  0.71752936471E+03  0.71752936473E+03  0.50400001928E-02 0. -1.
        1   -1    0    0  501    0  0.00000000000E+00  0.00000000000E+00 -0.78736413977E+03  0.78736413979E+03  0.50400001928E-02 0.  1.
    10030    2    1    2    0    0  0.00000000000E+00  0.00000000000E+00 -0.69834775058E+02  0.15048935045E+04  0.15032722854E+04 0.  0.
        2    1    3    3  502    0 -0.51227662910E+02 -0.46610943915E+03  0.55314664641E+03  0.72515756574E+03  0.25500000920E-02 0. -1.
       -2    1    3    3    0  502  0.51227662910E+02  0.46610943915E+03 -0.62298142147E+03  0.77973593877E+03  0.25500000920E-02 0.  1.
</event>
<event>
 5   0  0.1254487E-04  0.1500487E+04  0.7818609E-02  0.8884129E-01
        2   -1    0    0  501    0  0.00000000000E+00  0.00000000000E+00  0.93367165032E+03  0.93367165032E+03  0.25500000920E-02 0.  1.
       -2   -1    0    0    0  501  0.00000000000E+00  0.00000000000E+00 -0.60285118093E+03  0.60285118093E+03  0.25500000920E-02 0. -1.
    10030    2    1    2    0    0  0.00000000000E+00  0.00000000000E+00  0.33082046939E+03  0.15365228313E+04  0.15004866637E+04 0.  0.
        5    1    3    3  502    0 -0.36146369079E+03  0.11847314155E+03 -0.49676584828E+03  0.62569184352E+03  0.46999998093E+01 0. -1.
       -5    1    3    3    0  502  0.36146369079E+03 -0.11847314155E+03  0.82758631767E+03  0.91083098774E+03  0.46999998093E+01 0.  1.
</event>
<event>
 5   0  0.1216921E-04  0.1501360E+04  0.7818609E-02  0.8883549E-01
        2   -1    0    0  501    0  0.00000000000E+00  0.00000000000E+00  0.21902138665E+04  0.21902138666E+04  0.25500000920E-02 0.  1.
       -2   -1    0    0    0  501  0.00000000000E+00  0.00000000000E+00 -0.25729017084E+03  0.25729017085E+03  0.25500000920E-02 0. -1.
    10030    2    1    2    0    0  0.00000000000E+00  0.00000000000E+00  0.19329236957E+04  0.24475040374E+04  0.15013600500E+04 0.  0.
        4    1    3    3  502    0 -0.89465086694E+02 -0.68503038741E+03  0.48770641374E+03  0.84565347059E+03  0.12699999809E+01 0. -1.
       -4    1    3    3    0  502  0.89465086694E+02  0.68503038741E+03  0.14452172820E+04  0.16018505668E+04  0.12699999809E+01 0.  1.
</event>
<event>
 5   0  0.6509279E-05  0.1500866E+04  0.7818609E-02  0.8883878E-01
        1   -1    0    0  501    0  0.00000000000E+00  0.00000000000E+00  0.69881888911E+03  0.69881888913E+03  0.50400001928E-02 0.  1.
       -1   -1    0    0    0  501  0.00000000000E+00  0.00000000000E+00 -0.80585876186E+03  0.80585876188E+03  0.50400001928E-02 0. -1.
    10030    2    1    2    0    0  0.00000000000E+00  0.00000000000E+00 -0.10703987275E+03  0.15046776510E+04  0.15008655167E+04 0.  0.
        2    1    3    3  502    0 -0.12752960284E+03 -0.24237289690E+03  0.64692547001E+03  0.70251048711E+03  0.25500000920E-02 0.  1.
       -2    1    3    3    0  502  0.12752960284E+03  0.24237289690E+03 -0.75396534275E+03  0.80216716390E+03  0.25500000920E-02 0. -1.
</event>
<event>
 5   0  0.6361716E-05  0.1499264E+04  0.7818609E-02  0.8884942E-01
        1   -1    0    0  501    0  0.00000000000E+00  0.00000000000E+00  0.12992382903E+04  0.12992382903E+04  0.50400001928E-02 0.  1.
       -1   -1    0    0    0  501  0.00000000000E+00  0.00000000000E+00 -0.43252137838E+03  0.43252137841E+03  0.50400001928E-02 0. -1.
    10030    2    1    2    0    0  0.00000000000E+00  0.00000000000E+00  0.86671691193E+03  0.17317596687E+04  0.14992642678E+04 0.  0.
        3    1    3    3  502    0 -0.31942192999E+03  0.47780032184E+03  0.98926523197E+03  0.11441019300E+04  0.10100000352E+00 0.  1.
       -3    1    3    3    0  502  0.31942192999E+03 -0.47780032184E+03 -0.12254832004E+03  0.58765773870E+03  0.10100000352E+00 0. -1.
</event>
<event>
 5   0  0.6361716E-05  0.1489715E+04  0.7818609E-02  0.8891322E-01
       -1   -1    0    0    0  501  0.00000000000E+00  0.00000000000E+00  0.11404688322E+04  0.11404688322E+04  0.50400001928E-02 0.  1.
        1   -1    0    0  501    0  0.00000000000E+00  0.00000000000E+00 -0.48647742668E+03  0.48647742671E+03  0.50400001928E-02 0. -1.
    10030    2    1    2    0    0  0.00000000000E+00  0.00000000000E+00  0.65399140553E+03  0.16269462589E+04  0.14897145267E+04 0.  0.
        3    1    3    3  502    0  0.47442040051E+03  0.27493750803E+03  0.87756581753E+03  0.10347884441E+04  0.10100000352E+00 0.  1.
       -3    1    3    3    0  502 -0.47442040051E+03 -0.27493750803E+03 -0.22357441201E+03  0.59215781482E+03  0.10100000352E+00 0. -1.
</event>
<event>
 5   0  0.1228286E-04  0.1499067E+04  0.7818609E-02  0.8885073E-01
       -2   -1    0    0    0  501  0.00000000000E+00  0.00000000000E+00  0.30985492810E+03  0.30985492811E+03  0.25500000920E-02 0. -1.
        2   -1    0    0  501    0  0.00000000000E+00  0.00000000000E+00 -0.18131088894E+04  0.18131088894E+04  0.25500000920E-02 0.  1.
    10030    2    1    2    0    0  0.00000000000E+00  0.00000000000E+00 -0.15032539614E+04  0.21229638176E+04  0.14990673428E+04 0.  0.
        2    1    3    3  502    0 -0.15878678938E+03 -0.14941035825E+03 -0.17672078736E+04  0.17806067416E+04  0.25500000920E-02 0.  1.
       -2    1    3    3    0  502  0.15878678938E+03  0.14941035825E+03  0.26395391228E+03  0.34235707594E+03  0.25500000920E-02 0. -1.
</event>
<event>
 5   0  0.6668433E-05  0.1499484E+04  0.7818609E-02  0.8884796E-01
        1   -1    0    0  501    0  0.00000000000E+00  0.00000000000E+00  0.12017251106E+04  0.12017251106E+04  0.50400001928E-02 0. -1.
       -1   -1    0    0    0  501  0.00000000000E+00  0.00000000000E+00 -0.46775486889E+03  0.46775486891E+03  0.50400001928E-02 0.  1.
    10030    2    1    2    0    0  0.00000000000E+00  0.00000000000E+00  0.73397024168E+03  0.16694799795E+04  0.14994836065E+04 0.  0.
        1    1    3    3  502    0  0.11933794350E+03  0.69254110345E+03  0.76103406120E+02  0.70685674162E+03  0.50400001928E-02 0. -1.
       -1    1    3    3    0  502 -0.11933794350E+03 -0.69254110345E+03  0.65786683556E+03  0.96262323787E+03  0.50400001928E-02 0.  1.
</event>
<event>
 5   0  0.1254487E-04  0.1500348E+04  0.7818609E-02  0.8884222E-01
       -2   -1    0    0    0  501  0.00000000000E+00  0.00000000000E+00  0.58551396117E+03  0.58551396118E+03  0.25500000920E-02 0.  1.
        2   -1    0    0  501    0  0.00000000000E+00  0.00000000000E+00 -0.96113977497E+03  0.96113977497E+03  0.25500000920E-02 0. -1.
    10030    2    1    2    0    0  0.00000000000E+00  0.00000000000E+00 -0.37562581379E+03  0.15466537361E+04  0.15003476356E+04 0.  0.
        5    1    3    3  502    0 -0.39310695413E+03 -0.62422782346E+03 -0.32819674778E+03  0.80742098574E+03  0.46999998093E+01 0.  1.
       -5    1    3    3    0  502  0.39310695413E+03  0.62422782346E+03 -0.47429066015E+02  0.73923275040E+03  0.46999998093E+01 0. -1.
</event>
<event>
 5   0  0.6361716E-05  0.1498419E+04  0.7818609E-02  0.8885505E-01
        1   -1    0    0  501    0  0.00000000000E+00  0.00000000000E+00  0.96723155368E+03  0.96723155369E+03  0.50400001928E-02 0.  1.
       -1   -1    0    0    0  501  0.00000000000E+00  0.00000000000E+00 -0.58033113414E+03  0.58033113417E+03  0.50400001928E-02 0. -1.
    10030    2    1    2    0    0  0.00000000000E+00  0.00000000000E+00  0.38690041953E+03  0.15475626879E+04  0.14984186125E+04 0.  0.
        3    1    3    3  502    0  0.63583475222E+03  0.22795599750E+03  0.52821804314E+03  0.85747541086E+03  0.10100000352E+00 0.  1.
       -3    1    3    3    0  502 -0.63583475222E+03 -0.22795599750E+03 -0.14131762361E+03  0.69008727700E+03  0.10100000352E+00 0. -1.
</event>
<event>
 5   0  0.1228286E-04  0.1487073E+04  0.7818609E-02  0.8893095E-01
        2   -1    0    0  501    0  0.00000000000E+00  0.00000000000E+00  0.13314098380E+04  0.13314098380E+04  0.25500000920E-02 0. -1.
       -2   -1    0    0    0  501  0.00000000000E+00  0.00000000000E+00 -0.41523409283E+03  0.41523409284E+03  0.25500000920E-02 0.  1.
    10030    2    1    2    0    0  0.00000000000E+00  0.00000000000E+00  0.91617574521E+03  0.17466439309E+04  0.14870733086E+04 0.  0.
        2    1    3    3  502    0 -0.54690025959E+03  0.39622284923E+03  0.82343624281E+03  0.10649599458E+04  0.25500000920E-02 0. -1.
       -2    1    3    3    0  502  0.54690025959E+03 -0.39622284923E+03  0.92739502395E+02  0.68168398507E+03  0.25500000920E-02 0.  1.
</event>
<event>
 5   0  0.4462875E-05  0.1502777E+04  0.7818609E-02  0.8882609E-01
        3   -1    0    0  501    0  0.00000000000E+00  0.00000000000E+00  0.74263786809E+03  0.74263787496E+03  0.10100000352E+00 0.  1.
       -3   -1    0    0    0  501  0.00000000000E+00  0.00000000000E+00 -0.76024172624E+03  0.76024173295E+03  0.10100000352E+00 0. -1.
    10030    2    1    2    0    0  0.00000000000E+00  0.00000000000E+00 -0.17603858144E+02  0.15028796079E+04  0.15027765037E+04 0.  0.
        5    1    3    3  502    0 -0.39030924419E+03 -0.10828042558E+03  0.62408922717E+03  0.74402648483E+03  0.46999998093E+01 0.  1.
       -5    1    3    3    0  502  0.39030924419E+03  0.10828042558E+03 -0.64169308531E+03  0.75885312308E+03  0.46999998093E+01 0. -1.
</event>
<event>
 5   0  0.1254487E-04  0.1497534E+04  0.7818609E-02  0.8886095E-01
       -2   -1    0    0    0  501  0.00000000000E+00  0.00000000000E+00  0.39650988043E+03  0.39650988044E+03  0.25500000920E-02 0.  1.
        2   -1    0    0  501    0  0.00000000000E+00  0.00000000000E+00 -0.14139669220E+04  0.14139669220E+04  0.25500000920E-02 0. -1.
    10030    2    1    2    0    0  0.00000000000E+00  0.00000000000E+00 -0.10174570416E+04  0.18104768025E+04  0.14975337795E+04 0.  0.
        5    1    3    3  502    0  0.47370838039E+03  0.78034105472E+02  0.18592132875E+03  0.51485704982E+03  0.46999998093E+01 0.  1.
       -5    1    3    3    0  502 -0.47370838039E+03 -0.78034105472E+02 -0.12033783704E+04  0.12956197527E+04  0.46999998093E+01 0. -1.
</event>
<event>
 5   0  0.6668433E-05  0.1506981E+04  0.7818609E-02  0.8879824E-01
       -1   -1    0    0    0  501  0.00000000000E+00  0.00000000000E+00  0.45067597957E+03  0.45067597960E+03  0.50400001928E-02 0.  1.
        1   -1    0    0  501    0  0.00000000000E+00  0.00000000000E+00 -0.12597694629E+04  0.12597694629E+04  0.50400001928E-02 0. -1.
    10030    2    1    2    0    0  0.00000000000E+00  0.00000000000E+00 -0.80909348331E+03  0.17104454425E+04  0.15069808715E+04 0.  0.
        1    1    3    3  502    0 -0.97495259230E+01  0.10107192671E+03 -0.12519682437E+04  0.12560792454E+04  0.50400001928E-02 0. -1.
       -1    1    3    3    0  502  0.97495259230E+01 -0.10107192671E+03  0.44287476037E+03  0.45436619705E+03  0.50400001928E-02 0.  1.
</event>
<event>
 5   0  0.6542036E-05  0.1496433E+04  0.7818609E-02  0.8886828E-01
       -1   -1    0    0    0  501  0.00000000000E+00  0.00000000000E+00  0.14616867788E+04  0.14616867788E+04  0.50400001928E-02 0. -1.
        1   -1    0    0  501    0  0.00000000000E+00  0.00000000000E+00 -0.38300152163E+03  0.38300152166E+03  0.50400001928E-02 0.  1.
    10030    2    1    2    0    0  0.00000000000E+00  0.00000000000E+00  0.10786852572E+04  0.18446883005E+04  0.14964334405E+04 0.  0.
        4    1    3    3  502    0 -0.73299436912E+03 -0.67681034387E+02  0.70456976453E+03  0.10189610560E+04  0.12699999809E+01 0. -1.
       -4    1    3    3    0  502  0.73299436912E+03  0.67681034387E+02  0.37411549263E+03  0.82572724450E+03  0.12699999809E+01 0.  1.
</event>
<event>
 5   0  0.1186664E-04  0.1499119E+04  0.7818609E-02  0.8885039E-01
       -2   -1    0    0    0  501  0.00000000000E+00  0.00000000000E+00  0.25077813389E+03  0.25077813390E+03  0.25500000920E-02 0.  1.
        2   -1    0    0  501    0  0.00000000000E+00  0.00000000000E+00 -0.22403853842E+04  0.22403853842E+04  0.25500000920E-02 0. -1.
    10030    2    1    2    0    0  0.00000000000E+00  0.00000000000E+00 -0.19896072503E+04  0.24911635181E+04  0.14991192959E+04 0.  0.
        3    1    3    3  502    0  0.53329583343E+03  0.51424059935E+03 -0.11842127801E+04  0.13968563844E+04  0.10100000352E+00 0. -1.
       -3    1    3    3    0  502 -0.53329583343E+03 -0.51424059935E+03 -0.80539447022E+03  0.10943071337E+04  0.10100000352E+00 0.  1.
</event>
<event>
 5   0  0.6364378E-05  0.1497762E+04  0.7818609E-02  0.8885943E-01
        1   -1    0    0  501    0  0.00000000000E+00  0.00000000000E+00  0.47602113298E+03  0.47602113301E+03  0.50400001928E-02 0. -1.
       -1   -1    0    0    0  501  0.00000000000E+00  0.00000000000E+00 -0.11781460772E+04  0.11781460773E+04  0.50400001928E-02 0.  1.
    10030    2    1    2    0    0  0.00000000000E+00  0.00000000000E+00 -0.70212494426E+03  0.16541672103E+04  0.14977615705E+04 0.  0.
        5    1    3    3  502    0 -0.54516395202E+03 -0.50796669180E+03 -0.26866275450E+03  0.79210836394E+03  0.46999998093E+01 0. -1.
       -5    1    3    3    0  502  0.54516395202E+03  0.50796669180E+03 -0.43346218976E+03  0.86205884632E+03  0.46999998093E+01 0.  1.
</event>
<event>
 5   0  0.1219810E-04  0.1500416E+04  0.7818609E-02  0.8884176E-01
       -2   -1    0    0    0  501  0.00000000000E+00  0.00000000000E+00  0.24843958665E+03  0.24843958667E+03  0.25500000920E-02 0.  1.
        2   -1    0    0  501    0  0.00000000000E+00  0.00000000000E+00 -0.22653883823E+04  0.22653883823E+04  0.25500000920E-02 0. -1.
    10030    2    1    2    0    0  0.00000000000E+00  0.00000000000E+00 -0.20169487957E+04  0.25138279690E+04  0.15004161467E+04 0.  0.
        1    1    3    3  502    0 -0.15216913382E+03  0.28004286437E+03 -0.21463214028E+04  0.21698559895E+04  0.50400001928E-02 0. -1.
       -1    1    3    3    0  502  0.15216913382E+03 -0.28004286437E+03  0.12937260711E+03  0.34397197948E+03  0.50400001928E-02 0.  1.
</event>
<event>
 5   0  0.6668433E-05  0.1500827E+04  0.7818609E-02  0.8883903E-01
       -1   -1    0    0    0  501  0.00000000000E+00  0.00000000000E+00  0.55005663967E+03  0.55005663969E+03  0.50400001928E-02 0.  1.
        1   -1    0    0  501    0  0.00000000000E+00  0.00000000000E+00 -0.10237500277E+04  0.10237500277E+04  0.50400001928E-02 0. -1.
    10030    2    1    2    0    0  0.00000000000E+00  0.00000000000E+00 -0.47369338805E+03  0.15738066674E+04  0.15008271055E+04 0.  0.
        1    1    3    3  502    0  0.17531678518E+02 -0.73689939412E+03 -0.89320138805E+02  0.74249994211E+03  0.50400001928E-02 0.  1.
       -1    1    3    3    0  502 -0.17531678518E+02  0.73689939412E+03 -0.38437324925E+03  0.83130672532E+03  0.50400001928E-02 0. -1.
</event>
<event>
 5   0  0.1228286E-04  0.1500475E+04  0.7818609E-02  0.8884137E-01
        2   -1    0    0  501    0  0.00000000000E+00  0.00000000000E+00  0.14936944538E+04  0.14936944538E+04  0.25500000920E-02 0. -1.
       -2   -1    0    0    0  501  0.00000000000E+00  0.00000000000E+00 -0.37682176513E+03  0.37682176513E+03  0.25500000920E-02 0.  1.
    10030    2    1    2    0    0  0.00000000000E+00  0.00000000000E+00  0.11168726886E+04  0.18705162189E+04  0.15004753655E+04 0.  0.
        2    1    3    3  502    0  0.35043083322E+02  0.24471277921E+03 -0.32459027756E+03  0.40800883604E+03  0.25500000920E-02 0.  1.
       -2    1    3    3    0  502 -0.35043083322E+02 -0.24471277921E+03  0.14414629662E+04  0.14625073829E+04  0.25500000920E-02 0. -1.
</event>
<event>
 5   0  0.6361716E-05  0.1491408E+04  0.7818609E-02  0.8890187E-01
       -1   -1    0    0    0  501  0.00000000000E+00  0.00000000000E+00  0.54133140240E+03  0.54133140242E+03  0.50400001928E-02 0. -1.
        1   -1    0    0  501    0  0.00000000000E+00  0.00000000000E+00 -0.10272345447E+04  0.10272345447E+04  0.50400001928E-02 0.  1.
    10030    2    1    2    0    0  0.00000000000E+00  0.00000000000E+00 -0.48590314226E+03  0.15685659471E+04  0.14914078137E+04 0.  0.
        3    1    3    3  502    0  0.31152830768E+03  0.67396099271E+03 -0.17007763386E+03  0.76170842054E+03  0.10100000352E+00 0. -1.
       -3    1    3    3    0  502 -0.31152830768E+03 -0.67396099271E+03 -0.31582550840E+03  0.80685752655E+03  0.10100000352E+00 0.  1.
</event>
<event>
 5   0  0.1216921E-04  0.1493367E+04  0.7818609E-02  0.8888876E-01
       -2   -1    0    0    0  501  0.00000000000E+00  0.00000000000E+00  0.41651001858E+03  0.41651001858E+03  0.25500000920E-02 0. -1.
        2   -1    0    0  501    0  0.00000000000E+00  0.00000000000E+00 -0.13385895977E+04  0.13385895977E+04  0.25500000920E-02 0.  1.
    10030    2    1    2    0    0  0.00000000000E+00  0.00000000000E+00 -0.92207957914E+03  0.17550996163E+04  0.14933666371E+04 0.  0.
        4    1    3    3  502    0 -0.63652190211E+03  0.27568774505E+03 -0.13625315767E+03  0.70691611985E+03  0.12699999809E+01 0. -1.
       -4    1    3    3    0  502  0.63652190211E+03 -0.27568774505E+03 -0.78582642147E+03  0.10481834964E+04  0.12699999809E+01 0.  1.
</event>
<event>
 5   0  0.1219810E-04  0.1501180E+04  0.7818609E-02  0.8883669E-01
       -2   -1    0    0    0  501  0.00000000000E+00  0.00000000000E+00  0.65470594870E+03  0.65470594871E+03  0.25500000920E-02 0.  1.
        2   -1    0    0  501    0  0.00000000000E+00  0.00000000000E+00 -0.86051664803E+03  0.86051664804E+03  0.25500000920E-02 0. -1.
    10030    2    1    2    0    0  0.00000000000E+00  0.00000000000E+00 -0.20581069933E+03  0.15152225967E+04  0.15011800271E+04 0.  0.
        1    1    3    3  502    0 -0.42478011768E+03  0.61496698294E+03 -0.33246516181E+02  0.74814963032E+03  0.50400001928E-02 0. -1.
       -1    1    3    3    0  502  0.42478011768E+03 -0.61496698294E+03 -0.17256418315E+03  0.76707296642E+03  0.50400001928E-02 0.  1.
</event>
<event>
 5   0  0.6361716E-05  0.1500334E+04  0.7818609E-02  0.8884231E-01
        1   -1    0    0  501    0  0.00000000000E+00  0.00000000000E+00  0.12441161680E+04  0.12441161681E+04  0.50400001928E-02 0. -1.
       -1   -1    0    0    0  501  0.00000000000E+00  0.00000000000E+00 -0.45232937689E+03  0.45232937692E+03  0.50400001928E-02 0.  1.
    10030    2    1    2    0    0  0.00000000000E+00  0.00000000000E+00  0.79178679115E+03  0.16964455450E+04  0.15003336844E+04 0.  0.
        3    1    3    3  502    0  0.65279085970E+02  0.67641585679E+03  0.75515129276E+03  0.10159002193E+04  0.10100000352E+00 0.  1.
       -3    1    3    3    0  502 -0.65279085970E+02 -0.67641585679E+03  0.36635498386E+02  0.68054532569E+03  0.10100000352E+00 0. -1.
</event>
<event>
 5   0  0.6364378E-05  0.1511130E+04  0.7818609E-02  0.8877085E-01
        1   -1    0    0  501    0  0.00000000000E+00  0.00000000000E+00  0.15277934923E+04  0.15277934923E+04  0.50400001928E-02 0. -1.
       -1   -1    0    0    0  501  0.00000000000E+00  0.00000000000E+00 -0.37366182617E+03  0.37366182620E+03  0.50400001928E-02 0.  1.
    10030    2    1    2    0    0  0.00000000000E+00  0.00000000000E+00  0.11541316662E+04  0.19014553186E+04  0.15111295198E+04 0.  0.
        5    1    3    3  502    0 -0.50957272167E+02  0.27693881553E+03  0.14592811364E+04  0.14862083555E+04  0.46999998093E+01 0. -1.
       -5    1    3    3    0  502  0.50957272167E+02 -0.27693881553E+03 -0.30514947020E+03  0.41524696301E+03  0.46999998093E+01 0.  1.
</event>
<event>
 5   0  0.6361716E-05  0.1513872E+04  0.7818609E-02  0.8875280E-01
       -1   -1    0    0    0  501  0.00000000000E+00  0.00000000000E+00  0.56536769915E+03  0.56536769917E+03  0.50400001928E-02 0. -1.
        1   -1    0    0  501    0  0.00000000000E+00  0.00000000000E+00 -0.10134148160E+04  0.10134148160E+04  0.50400001928E-02 0.  1.
    10030    2    1    2    0    0  0.00000000000E+00  0.00000000000E+00 -0.44804711688E+03  0.15787825152E+04  0.15138718610E+04 0.  0.
        3    1    3    3  502    0  0.28196644559E+03  0.29433358917E+03  0.44114465276E+03  0.60062130582E+03  0.10100000352E+00 0. -1.
       -3    1    3    3    0  502 -0.28196644559E+03 -0.29433358917E+03 -0.88919176964E+03  0.97816120938E+03  0.10100000352E+00 0.  1.
</event>
<event>
 5   0  0.4462875E-05  0.1503145E+04  0.7818609E-02  0.8882364E-01
       -3   -1    0    0    0  501  0.00000000000E+00  0.00000000000E+00  0.62838353911E+03  0.62838354723E+03  0.10100000352E+00 0. -1.
        3   -1    0    0  501    0  0.00000000000E+00  0.00000000000E+00 -0.89891131428E+03  0.89891131996E+03  0.10100000352E+00 0.  1.
    10030    2    1    2    0    0  0.00000000000E+00  0.00000000000E+00 -0.27052777517E+03  0.15272948672E+04  0.15031448148E+04 0.  0.
        4    1    3    3  502    0  0.48743586306E+03  0.57178458359E+03 -0.11685821596E+03  0.76038726065E+03  0.12699999809E+01 0. -1.
       -4    1    3    3    0  502 -0.48743586306E+03 -0.57178458359E+03 -0.15366955922E+03  0.76690760653E+03  0.12699999809E+01 0.  1.
</event>
<event>
 5   0  0.1228286E-04  0.1503603E+04  0.7818609E-02  0.8882061E-01
        2   -1    0    0  501    0  0.00000000000E+00  0.00000000000E+00  0.13629792677E+04  0.13629792677E+04  0.25500000920E-02 0.  1.
       -2   -1    0    0    0  501  0.00000000000E+00  0.00000000000E+00 -0.41468381091E+03  0.41468381092E+03  0.25500000920E-02 0. -1.
    10030    2    1    2    0    0  0.00000000000E+00  0.00000000000E+00  0.94829545675E+03  0.17776630786E+04  0.15036029222E+04 0.  0.
        2    1    3    3  502    0 -0.50334890610E+03 -0.79915952264E+02 -0.17927250859E+03  0.54026411415E+03  0.25500000920E-02 0. -1.
       -2    1    3    3    0  502  0.50334890610E+03  0.79915952264E+02  0.11275679653E+04  0.12373989644E+04  0.25500000920E-02 0.  1.
</event>
<event>
 5   0  0.6361716E-05  0.1502477E+04  0.7818609E-02  0.8882807E-01
        1   -1    0    0  501    0  0.00000000000E+00  0.00000000000E+00  0.30968279636E+04  0.30968279636E+04  0.50400001928E-02 0. -1.
       -1   -1    0    0    0  501  0.00000000000E+00  0.00000000000E+00 -0.18223795172E+03  0.18223795179E+03  0.50400001928E-02 0.  1.
    10030    2    1    2    0    0  0.00000000000E+00  0.00000000000E+00  0.29145900119E+04  0.32790659154E+04  0.15024774009E+04 0.  0.
        3    1    3    3  502    0  0.21938089237E+03  0.26582001042E+03  0.49205191567E+00  0.34465708493E+03  0.10100000352E+00 0.  1.
       -3    1    3    3    0  502 -0.21938089237E+03 -0.26582001042E+03  0.29140979600E+04  0.29344088305E+04  0.10100000352E+00 0. -1.
</event>
<event>
 5   0  0.1219810E-04  0.1499618E+04  0.7818609E-02  0.8884707E-01
        2   -1    0    0  501    0  0.00000000000E+00  0.00000000000E+00  0.11603042877E+04  0.11603042877E+04  0.25500000920E-02 0.  1.
       -2   -1    0    0    0  501  0.00000000000E+00  0.00000000000E+00 -0.48453971010E+03  0.48453971010E+03  0.25500000920E-02 0. -1.
    10030    2    1    2    0    0  0.00000000000E+00  0.00000000000E+00  0.67576457756E+03  0.16448439978E+04  0.14996179556E+04 0.  0.
        1    1    3    3  502    0 -0.21139422954E+03  0.65853281776E+03  0.65551325397E+03  0.95291690010E+03  0.50400001928E-02 0.  1.
       -1    1    3    3    0  502  0.21139422954E+03 -0.65853281776E+03  0.20251323592E+02  0.69192709766E+03  0.50400001928E-02 0. -1.
</event>
<event>
 5   0  0.1216921E-04  0.1500297E+04  0.7818609E-02  0.8884255E-01
        2   -1    0    0  501    0  0.00000000000E+00  0.00000000000E+00  0.21630612964E+04  0.21630612964E+04  0.25500000920E-02 0.  1.
       -2   -1    0    0    0  501  0.00000000000E+00  0.00000000000E+00 -0.26015108412E+03  0.26015108413E+03  0.25500000920E-02 0. -1.
    10030    2    1    2    0    0  0.00000000000E+00  0.00000000000E+00  0.19029102123E+04  0.24232123806E+04  0.15002969590E+04 0.  0.
        4    1    3    3  502    0 -0.26813686752E+03 -0.49005373229E+03  0.14279433921E+03  0.57657772804E+03  0.12699999809E+01 0. -1.
       -4    1    3    3    0  502  0.26813686752E+03  0.49005373229E+03  0.17601158731E+04  0.18466346525E+04  0.12699999809E+01 0.  1.
</event>
<event>
 5   0  0.6364378E-05  0.1502529E+04  0.7818609E-02  0.8882773E-01
       -1   -1    0    0    0  501  0.00000000000E+00  0.00000000000E+00  0.51408998601E+03  0.51408998603E+03  0.50400001928E-02 0. -1.
        1   -1    0    0  501    0  0.00000000000E+00  0.00000000000E+00 -0.10978594053E+04  0.10978594053E+04  0.50400001928E-02 0.  1.
    10030    2    1    2    0    0  0.00000000000E+00  0.00000000000E+00 -0.58376941926E+03  0.16119493913E+04  0.15025292361E+04 0.  0.
        5    1    3    3  502    0  0.31356303060E+03  0.55008396124E+03  0.14186307643E+03  0.64889241098E+03  0.46999998093E+01 0. -1.
       -5    1    3    3    0  502 -0.31356303060E+03 -0.55008396124E+03 -0.72563249569E+03  0.96305698033E+03  0.46999998093E+01 0.  1.
</event>
<event>
 5   0  0.1186664E-04  0.1500495E+04  0.7818609E-02  0.8884124E-01
        2   -1    0    0  501    0  0.00000000000E+00  0.00000000000E+00  0.12633549827E+04  0.12633549827E+04  0.25500000920E-02 0.  1.
       -2   -1    0    0    0  501  0.00000000000E+00  0.00000000000E+00 -0.44553704419E+03  0.44553704420E+03  0.25500000920E-02 0. -1.
    10030    2    1    2    0    0  0.00000000000E+00  0.00000000000E+00  0.81781793853E+03  0.17088920269E+04  0.15004951780E+04 0.  0.
        3    1    3    3  502    0 -0.78326809878E+02 -0.41368107900E+03  0.11161231483E+04  0.11928948054E+04  0.10100000352E+00 0.  1.
       -3    1    3    3    0  502  0.78326809878E+02  0.41368107900E+03 -0.29830520979E+03  0.51599722156E+03  0.10100000352E+00 0. -1.
</event>
<event>
 5   0  0.1186664E-04  0.1496094E+04  0.7818609E-02  0.8887055E-01
        2   -1    0    0  501    0  0.00000000000E+00  0.00000000000E+00  0.64177954970E+03  0.64177954970E+03  0.25500000920E-02 0. -1.
       -2   -1    0    0    0  501  0.00000000000E+00  0.00000000000E+00 -0.87191045709E+03  0.87191045709E+03  0.25500000920E-02 0.  1.
    10030    2    1    2    0    0  0.00000000000E+00  0.00000000000E+00 -0.23013090739E+03  0.15136900068E+04  0.14960939817E+04 0.  0.
        3    1    3    3  502    0  0.51336029077E+03  0.50022655509E+03  0.10148194919E+03  0.72392264142E+03  0.10100000352E+00 0. -1.
       -3    1    3    3    0  502 -0.51336029077E+03 -0.50022655509E+03 -0.33161285658E+03  0.78976736537E+03  0.10100000352E+00 0.  1.
</event>
<event>
 5   0  0.6509279E-05  0.1498357E+04  0.7818609E-02  0.8885546E-01
       -1   -1    0    0    0  501  0.00000000000E+00  0.00000000000E+00  0.69010600284E+03  0.69010600286E+03  0.50400001928E-02 0.  1.
        1   -1    0    0  501    0  0.00000000000E+00  0.00000000000E+00 -0.81330767543E+03  0.81330767545E+03  0.50400001928E-02 0. -1.
    10030    2    1    2    0    0  0.00000000000E+00  0.00000000000E+00 -0.12320167259E+03  0.15034136783E+04  0.14983571123E+04 0.  0.
        2    1    3    3  502    0 -0.45025095239E+03  0.54119508930E+03  0.19548731664E+03  0.73063899143E+03  0.25500000920E-02 0.  1.
       -2    1    3    3    0  502  0.45025095239E+03 -0.54119508930E+03 -0.31868898924E+03  0.77277468688E+03  0.25500000920E-02 0. -1.
</event>
<event>
 5   0  0.6364378E-05  0.1498799E+04  0.7818609E-02  0.8885252E-01
       -1   -1    0    0    0  501  0.00000000000E+00  0.00000000000E+00  0.68964590779E+03  0.68964590780E+03  0.50400001928E-02 0.  1.
        1   -1    0    0  501    0  0.00000000000E+00  0.00000000000E+00 -0.81432992996E+03  0.81432992998E+03  0.50400001928E-02 0. -1.
    10030    2    1    2    0    0  0.00000000000E+00  0.00000000000E+00 -0.12468402218E+03  0.15039758378E+04  0.14987985906E+04 0.  0.
        5    1    3    3  502    0  0.25509773291E+03 -0.70158423329E+03 -0.12800445820E+03  0.75743152896E+03  0.46999998093E+01 0. -1.
       -5    1    3    3    0  502 -0.25509773291E+03  0.70158423329E+03  0.33204360247E+01  0.74654430882E+03  0.46999998093E+01 0.  1.
</event>
<event>
 5   0  0.6668433E-05  0.1501248E+04  0.7818609E-02  0.8883623E-01
        1   -1    0    0  501    0  0.00000000000E+00  0.00000000000E+00  0.12807725787E+04  0.12807725787E+04  0.50400001928E-02 0. -1.
       -1   -1    0    0    0  501  0.00000000000E+00  0.00000000000E+00 -0.43991936541E+03  0.43991936544E+03  0.50400001928E-02 0.  1.
    10030    2    1    2    0    0  0.00000000000E+00  0.00000000000E+00  0.84085321326E+03  0.17206919441E+04  0.15012483606E+04 0.  0.
        1    1    3    3  502    0  0.23089536777E+03 -0.73018405807E+01 -0.39816211370E+03  0.46032494669E+03  0.50400001928E-02 0.  1.
       -1    1    3    3    0  502 -0.23089536777E+03  0.73018405807E+01  0.12390153270E+04  0.12603669974E+04  0.50400001928E-02 0. -1.
</event>
<event>
 5   0  0.1254487E-04  0.1499905E+04  0.7818609E-02  0.8884516E-01
        2   -1    0    0  501    0  0.00000000000E+00  0.00000000000E+00  0.20576794203E+04  0.20576794203E+04  0.25500000920E-02 0. -1.
       -2   -1    0    0    0  501  0.00000000000E+00  0.00000000000E+00 -0.27333169899E+03  0.27333169900E+03  0.25500000920E-02 0.  1.
    10030    2    1    2    0    0  0.00000000000E+00  0.00000000000E+00  0.17843477213E+04  0.23310111193E+04  0.14999053463E+04 0.  0.
        5    1    3    3  502    0  0.45966912251E+03 -0.38922936667E+03  0.15865159795E+04  0.16970121523E+04  0.46999998093E+01 0. -1.
       -5    1    3    3    0  502 -0.45966912251E+03  0.38922936667E+03  0.19783174187E+03  0.63399896700E+03  0.46999998093E+01 0.  1.
</event>
<event>
 5   0  0.1186664E-04  0.1499874E+04  0.7818609E-02  0.8884537E-01
        2   -1    0    0  501    0  0.00000000000E+00  0.00000000000E+00  0.78080826547E+03  0.78080826548E+03  0.25500000920E-02 0.  1.
       -2   -1    0    0    0  501  0.00000000000E+00  0.00000000000E+00 -0.72028607664E+03  0.72028607664E+03  0.25500000920E-02 0. -1.
    10030    2    1    2    0    0  0.00000000000E+00  0.00000000000E+00  0.60522188840E+02  0.15010943421E+04  0.14998737576E+04 0.  0.
        3    1    3    3  502    0  0.43603370648E+03 -0.50903082892E+03  0.36693868273E+03  0.76412157742E+03  0.10100000352E+00 0.  1.
       -3    1    3    3    0  502 -0.43603370648E+03  0.50903082892E+03 -0.30641649390E+03  0.73697276470E+03  0.10100000352E+00 0. -1.
</event>
<event>
 5   0  0.1216921E-04  0.1499834E+04  0.7818609E-02  0.8884563E-01
       -2   -1    0    0    0  501  0.00000000000E+00  0.00000000000E+00  0.26170512104E+03  0.26170512105E+03  0.25500000920E-02 0.  1.
        2   -1    0    0  501    0  0.00000000000E+00  0.00000000000E+00 -0.21488906687E+04  0.21488906687E+04  0.25500000920E-02 0. -1.
    10030    2    1    2    0    0  0.00000000000E+00  0.00000000000E+00 -0.18871855477E+04  0.24105957897E+04  0.14998342476E+04 0.  0.
        4    1    3    3  502    0  0.47365327557E+03 -0.42828632354E+03 -0.31164333613E+03  0.71056300371E+03  0.12699999809E+01 0.  1.
       -4    1    3    3    0  502 -0.47365327557E+03  0.42828632354E+03 -0.15755422115E+04  0.17000327860E+04  0.12699999809E+01 0. -1.
</event>
<event>
 5   0  0.1186664E-04  0.1498698E+04  0.7818609E-02  0.8885319E-01
        2   -1    0    0  501    0  0.00000000000E+00  0.00000000000E+00  0.58173968614E+03  0.58173968615E+03  0.25500000920E-02 0.  1.
       -2   -1    0    0    0  501  0.00000000000E+00  0.00000000000E+00 -0.96525011386E+03  0.96525011386E+03  0.25500000920E-02 0. -1.
    10030    2    1    2    0    0  0.00000000000E+00  0.00000000000E+00 -0.38351042772E+03  0.15469898000E+04  0.14986984998E+04 0.  0.
        3    1    3    3  502    0 -0.36428374788E+03 -0.23501925153E+03 -0.82266810112E+03  0.92990295858E+03  0.10100000352E+00 0. -1.
       -3    1    3    3    0  502  0.36428374788E+03  0.23501925153E+03  0.43915767340E+03  0.61708684143E+03  0.10100000352E+00 0.  1.
</event>
<event>
 5   0  0.6364378E-05  0.1495596E+04  0.7818609E-02  0.8887387E-01
        1   -1    0    0  501    0  0.00000000000E+00  0.00000000000E+00  0.93664196000E+03  0.93664196002E+03  0.50400001928E-02 0.  1.
       -1   -1    0    0    0  501  0.00000000000E+00  0.00000000000E+00 -0.59702841439E+03  0.59702841441E+03  0.50400001928E-02 0. -1.
    10030    2    1    2    0    0  0.00000000000E+00  0.00000000000E+00  0.33961354561E+03  0.15336703744E+04  0.14955960207E+04 0.  0.
        5    1    3    3  502    0  0.52360187600E+03  0.33326077399E+03 -0.25789402769E+03  0.67212579741E+03  0.46999998093E+01 0. -1.
       -5    1    3    3    0  502 -0.52360187600E+03 -0.33326077399E+03  0.59750757330E+03  0.86154457702E+03  0.46999998093E+01 0.  1.
</event>
<event>
 5   0  0.6542036E-05  0.1498025E+04  0.7818609E-02  0.8885768E-01
       -1   -1    0    0    0  501  0.00000000000E+00  0.00000000000E+00  0.38052573486E+03  0.38052573489E+03  0.50400001928E-02 0. -1.
        1   -1    0    0  501    0  0.00000000000E+00  0.00000000000E+00 -0.14743272981E+04  0.14743272981E+04  0.50400001928E-02 0.  1.
    10030    2    1    2    0    0  0.00000000000E+00  0.00000000000E+00 -0.10938015633E+04  0.18548530330E+04  0.14980246708E+04 0.  0.
        4    1    3    3  502    0  0.48384706789E+03  0.22221148028E+02  0.16051757545E+03  0.51026392137E+03  0.12699999809E+01 0. -1.
       -4    1    3    3    0  502 -0.48384706789E+03 -0.22221148028E+02 -0.12543191387E+04  0.13445891117E+04  0.12699999809E+01 0.  1.
</event>
<event>
 5   0  0.6364378E-05  0.1497868E+04  0.7818609E-02  0.8885872E-01
       -1   -1    0    0    0  501  0.00000000000E+00  0.00000000000E+00  0.21128988354E+03  0.21128988360E+03  0.50400001928E-02 0.  1.
        1   -1    0    0  501    0  0.00000000000E+00  0.00000000000E+00 -0.26546558256E+04  0.26546558256E+04  0.50400001928E-02 0. -1.
    10030    2    1    2    0    0  0.00000000000E+00  0.00000000000E+00 -0.24433659420E+04  0.28659457092E+04  0.14978677115E+04 0.  0.
        5    1    3    3  502    0 -0.28769417020E+03 -0.51561927911E+03 -0.34019381876E+03  0.68145806978E+03  0.46999998093E+01 0.  1.
       -5    1    3    3    0  502  0.28769417020E+03  0.51561927911E+03 -0.21031721233E+04  0.21844876394E+04  0.46999998093E+01 0. -1.
</event>
<event>
 5   0  0.6542036E-05  0.1499255E+04  0.7818609E-02  0.8884949E-01
        1   -1    0    0  501    0  0.00000000000E+00  0.00000000000E+00  0.99204805951E+03  0.99204805952E+03  0.50400001928E-02 0. -1.
       -1   -1    0    0    0  501  0.00000000000E+00  0.00000000000E+00 -0.56644536759E+03  0.56644536761E+03  0.50400001928E-02 0.  1.
    10030    2    1    2    0    0  0.00000000000E+00  0.00000000000E+00  0.42560269192E+03  0.15584934271E+04  0.14992545184E+04 0.  0.
        4    1    3    3  502    0 -0.14211246524E+03 -0.39597221655E+03  0.85775939822E+03  0.95537570997E+03  0.12699999809E+01 0. -1.
       -4    1    3    3    0  502  0.14211246524E+03  0.39597221655E+03 -0.43215670630E+03  0.60311771716E+03  0.12699999809E+01 0.  1.
</event>
<event>
 5   0  0.1186664E-04  0.1500243E+04  0.7818609E-02  0.8884291E-01
       -2   -1    0    0    0  501  0.00000000000E+00  0.00000000000E+00  0.80554560758E+03  0.80554560758E+03  0.25500000920E-02 0.  1.
        2   -1    0    0  501    0  0.00000000000E+00  0.00000000000E+00 -0.69851109178E+03  0.69851109179E+03  0.25500000920E-02 0. -1.
    10030    2    1    2    0    0  0.00000000000E+00  0.00000000000E+00  0.10703451579E+03  0.15040566994E+04  0.15002433694E+04 0.  0.
        3    1    3    3  502    0  0.37436509026E+03 -0.60634881336E+03  0.28836559697E+03  0.76874106954E+03  0.10100000352E+00 0.  1.
       -3    1    3    3    0  502 -0.37436509026E+03  0.60634881336E+03 -0.18133108118E+03  0.73531562983E+03  0.10100000352E+00 0. -1.
</event>
<event>
 5   0  0.6361716E-05  0.1500982E+04  0.7818609E-02  0.8883800E-01
       -1   -1    0    0    0  501  0.00000000000E+00  0.00000000000E+00  0.50971981692E+03  0.50971981695E+03  0.50400001928E-02 0. -1.
        1   -1    0    0  501    0  0.00000000000E+00  0.00000000000E+00 -0.11049924054E+04  0.11049924054E+04  0.50400001928E-02 0.  1.
    10030    2    1    2    0    0  0.00000000000E+00  0.00000000000E+00 -0.59527258847E+03  0.16147122223E+04  0.15009817142E+04 0.  0.
        3    1    3    3  502    0  0.54305373896E+03 -0.15463316080E+02 -0.85464254641E+03  0.10126995457E+04  0.10100000352E+00 0.  1.
       -3    1    3    3    0  502 -0.54305373896E+03  0.15463316080E+02  0.25936995795E+03  0.60201267664E+03  0.10100000352E+00 0. -1.
</event>
<event>
 5   0  0.4462875E-05  0.1503624E+04  0.7818609E-02  0.8882046E-01
        4   -1    0    0  501    0  0.00000000000E+00  0.00000000000E+00  0.84058103978E+03  0.84058199918E+03  0.12699999809E+01 0.  1.
       -4   -1    0    0    0  501  0.00000000000E+00  0.00000000000E+00 -0.67241585050E+03  0.67241704983E+03  0.12699999809E+01 0. -1.
    10030    2    1    2    0    0  0.00000000000E+00  0.00000000000E+00  0.16816518929E+03  0.15129990490E+04  0.15036244848E+04 0.  0.
        1    1    3    3  502    0 -0.17794802105E+03  0.14730618810E+03 -0.63581977805E+03  0.67648459069E+03  0.50400001928E-02 0. -1.
       -1    1    3    3    0  502  0.17794802105E+03 -0.14730618810E+03  0.80398496734E+03  0.83651445832E+03  0.50400001928E-02 0.  1.
</event>
<event>
 5   0  0.1186664E-04  0.1500393E+04  0.7818609E-02  0.8884191E-01
       -2   -1    0    0    0  501  0.00000000000E+00  0.00000000000E+00  0.82058167178E+03  0.82058167178E+03  0.25500000920E-02 0.  1.
        2   -1    0    0  501    0  0.00000000000E+00  0.00000000000E+00 -0.68584881670E+03  0.68584881671E+03  0.25500000920E-02 0. -1.
    10030    2    1    2    0    0  0.00000000000E+00  0.00000000000E+00  0.13473285508E+03  0.15064304885E+04  0.15003932399E+04 0.  0.
        3    1    3    3  502    0  0.54830985480E+02 -0.43932599447E+03  0.67542795593E+03  0.80759934388E+03  0.10100000352E+00 0.  1.
       -3    1    3    3    0  502 -0.54830985480E+02  0.43932599447E+03 -0.54069510086E+03  0.69883114461E+03  0.10100000352E+00 0. -1.
</event>
<event>
 5   0  0.6361716E-05  0.1505170E+04  0.7818609E-02  0.8881022E-01
       -1   -1    0    0    0  501  0.00000000000E+00  0.00000000000E+00  0.12090222667E+04  0.12090222667E+04  0.50400001928E-02 0.  1.
        1   -1    0    0  501    0  0.00000000000E+00  0.00000000000E+00 -0.46846480360E+03  0.46846480363E+03  0.50400001928E-02 0. -1.
    10030    2    1    2    0    0  0.00000000000E+00  0.00000000000E+00  0.74055746310E+03  0.16774870703E+04  0.15051702611E+04 0.  0.
        3    1    3    3  502    0 -0.90423009814E+02  0.74632141776E+03  0.40908434817E+03  0.85587498703E+03  0.10100000352E+00 0. -1.
       -3    1    3    3    0  502  0.90423009814E+02 -0.74632141776E+03  0.33147311493E+03  0.82161208330E+03  0.10100000352E+00 0.  1.
</event>
<event>
 5   0  0.1216921E-04  0.1508739E+04  0.7818609E-02  0.8878662E-01
        2   -1    0    0  501    0  0.00000000000E+00  0.00000000000E+00  0.88613775455E+03  0.88613775456E+03  0.25500000920E-02 0. -1.
       -2   -1    0    0    0  501  0.00000000000E+00  0.00000000000E+00 -0.64219533822E+03  0.64219533823E+03  0.25500000920E-02 0.  1.
    10030    2    1    2    0    0  0.00000000000E+00  0.00000000000E+00  0.24394241633E+03  0.15283330928E+04  0.15087392551E+04 0.  0.
        4    1    3    3  502    0  0.14088594896E+02  0.56796163496E+03 -0.38075308733E+03  0.68392502053E+03  0.12699999809E+01 0.  1.
       -4    1    3    3    0  502 -0.14088594896E+02 -0.56796163496E+03  0.62469550366E+03  0.84440807226E+03  0.12699999809E+01 0. -1.
</event>
<event>
 5   0  0.4462875E-05  0.1481088E+04  0.7818609E-02  0.8897127E-01
       -4   -1    0    0    0  501  0.00000000000E+00  0.00000000000E+00  0.73024658878E+03  0.73024769314E+03  0.12699999809E+01 0. -1.
        4   -1    0    0  501    0  0.00000000000E+00  0.00000000000E+00 -0.75098457051E+03  0.75098564436E+03  0.12699999809E+01 0.  1.
    10030    2    1    2    0    0  0.00000000000E+00  0.00000000000E+00 -0.20737981721E+02  0.14812333375E+04  0.14810881595E+04 0.  0.
        5    1    3    3  502    0  0.49815321904E+03 -0.18413801222E+03 -0.52648159430E+03  0.74784249433E+03  0.46999998093E+01 0.  1.
       -5    1    3    3    0  502 -0.49815321904E+03  0.18413801222E+03  0.50574361258E+03  0.73339084317E+03  0.46999998093E+01 0. -1.
</event>
<event>
 5   0  0.6509279E-05  0.1500696E+04  0.7818609E-02  0.8883990E-01
        1   -1    0    0  501    0  0.00000000000E+00  0.00000000000E+00  0.79245411353E+03  0.79245411354E+03  0.50400001928E-02 0.  1.
       -1   -1    0    0    0  501  0.00000000000E+00  0.00000000000E+00 -0.71047882349E+03  0.71047882351E+03  0.50400001928E-02 0. -1.
    10030    2    1    2    0    0  0.00000000000E+00  0.00000000000E+00  0.81975290035E+02  0.15029329371E+04  0.15006956604E+04 0.  0.
        2    1    3    3  502    0 -0.47380955995E+03  0.29667071428E+03  0.54224641410E+03  0.77880689867E+03  0.25500000920E-02 0.  1.
       -2    1    3    3    0  502  0.47380955995E+03 -0.29667071428E+03 -0.46027112407E+03  0.72412603838E+03  0.25500000920E-02 0. -1.
</event>
<event>
 5   0  0.6542036E-05  0.1498377E+04  0.7818609E-02  0.8885533E-01
       -1   -1    0    0    0  501  0.00000000000E+00  0.00000000000E+00  0.92285088120E+03  0.92285088121E+03  0.50400001928E-02 0. -1.
        1   -1    0    0  501    0  0.00000000000E+00  0.00000000000E+00 -0.60820575818E+03  0.60820575820E+03  0.50400001928E-02 0.  1.
    10030    2    1    2    0    0  0.00000000000E+00  0.00000000000E+00  0.31464512301E+03  0.15310566394E+04  0.14983767482E+04 0.  0.
        4    1    3    3  502    0 -0.39362528821E+03  0.47580233742E+03  0.59078316079E+03  0.85460814868E+03  0.12699999809E+01 0. -1.
       -4    1    3    3    0  502  0.39362528821E+03 -0.47580233742E+03 -0.27613803778E+03  0.67644849073E+03  0.12699999809E+01 0.  1.
</event>
<event>
 5   0  0.6361716E-05  0.1502207E+04  0.7818609E-02  0.8882987E-01
        1   -1    0    0  501    0  0.00000000000E+00  0.00000000000E+00  0.51206562856E+03  0.51206562859E+03  0.50400001928E-02 0. -1.
       -1   -1    0    0    0  501  0.00000000000E+00  0.00000000000E+00 -0.11017264741E+04  0.11017264741E+04  0.50400001928E-02 0.  1.
    10030    2    1    2    0    0  0.00000000000E+00  0.00000000000E+00 -0.58966084550E+03  0.16137921027E+04  0.15022067228E+04 0.  0.
        3    1    3    3  502    0 -0.74553953476E+03  0.69015559736E+02 -0.23069752289E+03  0.78346263640E+03  0.10100000352E+00 0. -1.
       -3    1    3    3    0  502  0.74553953476E+03 -0.69015559736E+02 -0.35896332261E+03  0.83032946626E+03  0.10100000352E+00 0.  1.
</event>
<event>
 5   0  0.6364378E-05  0.1498733E+04  0.7818609E-02  0.8885296E-01
       -1   -1    0    0    0  501  0.00000000000E+00  0.00000000000E+00  0.66522357263E+03  0.66522357264E+03  0.50400001928E-02 0.  1.
        1   -1    0    0  501    0  0.00000000000E+00  0.00000000000E+00 -0.84415213901E+03  0.84415213902E+03  0.50400001928E-02 0. -1.
    10030    2    1    2    0    0  0.00000000000E+00  0.00000000000E+00 -0.17892856638E+03  0.15093757117E+04  0.14987326670E+04 0.  0.
        5    1    3    3  502    0  0.16920810728E+03 -0.55645713666E+03  0.38638645710E+03  0.69827824879E+03  0.46999998093E+01 0.  1.
       -5    1    3    3    0  502 -0.16920810728E+03  0.55645713666E+03 -0.56531502349E+03  0.81109746288E+03  0.46999998093E+01 0. -1.
</event>
<event>
 5   0  0.1186664E-04  0.1486236E+04  0.7818609E-02  0.8893658E-01
        2   -1    0    0  501    0  0.00000000000E+00  0.00000000000E+00  0.57627340504E+03  0.57627340505E+03  0.25500000920E-02 0. -1.
       -2   -1    0    0    0  501  0.00000000000E+00  0.00000000000E+00 -0.95826815936E+03  0.95826815937E+03  0.25500000920E-02 0.  1.
    10030    2    1    2    0    0  0.00000000000E+00  0.00000000000E+00 -0.38199475432E+03  0.15345415644E+04  0.14862361254E+04 0.  0.
        3    1    3    3  502    0  0.25276506840E+03 -0.16581334063E+03 -0.89191345424E+03  0.94175042543E+03  0.10100000352E+00 0.  1.
       -3    1    3    3    0  502 -0.25276506840E+03  0.16581334063E+03  0.50991869992E+03  0.59279113899E+03  0.10100000352E+00 0. -1.
</event>
<event>
 5   0  0.6668433E-05  0.1499772E+04  0.7818609E-02  0.8884604E-01
        1   -1    0    0  501    0  0.00000000000E+00  0.00000000000E+00  0.61855268372E+03  0.61855268374E+03  0.50400001928E-02 0. -1.
       -1   -1    0    0    0  501  0.00000000000E+00  0.00000000000E+00 -0.90910478219E+03  0.90910478220E+03  0.50400001928E-02 0.  1.
    10030    2    1    2    0    0  0.00000000000E+00  0.00000000000E+00 -0.29055209847E+03  0.15276574659E+04  0.14997722531E+04 0.  0.
        1    1    3    3  502    0 -0.63154311726E+03  0.12358896258E+03 -0.53741219848E+03  0.83841088479E+03  0.50400001928E-02 0.  1.
       -1    1    3    3    0  502  0.63154311726E+03 -0.12358896258E+03  0.24686010001E+03  0.68924658115E+03  0.50400001928E-02 0. -1.
</event>
<event>
 5   0  0.1219810E-04  0.1497098E+04  0.7818609E-02  0.8886385E-01
        2   -1    0    0  501    0  0.00000000000E+00  0.00000000000E+00  0.13647488500E+04  0.13647488501E+04  0.25500000920E-02 0. -1.
       -2   -1    0    0    0  501  0.00000000000E+00  0.00000000000E+00 -0.41057076504E+03  0.41057076504E+03  0.25500000920E-02 0.  1.
    10030    2    1    2    0    0  0.00000000000E+00  0.00000000000E+00  0.95417808501E+03  0.17753196151E+04  0.14970984997E+04 0.  0.
        1    1    3    3  502    0  0.11230887674E+02  0.74549466392E+03  0.55608373923E+03  0.93011695600E+03  0.50400001928E-02 0.  1.
       -1    1    3    3    0  502 -0.11230887674E+02 -0.74549466392E+03  0.39809434579E+03  0.84520265910E+03  0.50400001928E-02 0. -1.
</event>
<event>
 5   0  0.6361716E-05  0.1503843E+04  0.7818609E-02  0.8881901E-01
       -1   -1    0    0    0  501  0.00000000000E+00  0.00000000000E+00  0.77825744225E+03  0.77825744227E+03  0.50400001928E-02 0. -1.
        1   -1    0    0  501    0  0.00000000000E+00  0.00000000000E+00 -0.72647682359E+03  0.72647682361E+03  0.50400001928E-02 0.  1.
    10030    2    1    2    0    0  0.00000000000E+00  0.00000000000E+00  0.51780618658E+02  0.15047342659E+04  0.15038430697E+04 0.  0.
        3    1    3    3  502    0 -0.36215375425E+03 -0.56819949001E+03 -0.30804386336E+03  0.74087585608E+03  0.10100000352E+00 0.  1.
       -3    1    3    3    0  502  0.36215375425E+03  0.56819949001E+03  0.35982448202E+03  0.76385840980E+03  0.10100000352E+00 0. -1.
</event>
<event>
 5   0  0.6509279E-05  0.1497752E+04  0.7818609E-02  0.8885949E-01
        1   -1    0    0  501    0  0.00000000000E+00  0.00000000000E+00  0.97243221488E+03  0.97243221489E+03  0.50400001928E-02 0. -1.
       -1   -1    0    0    0  501  0.00000000000E+00  0.00000000000E+00 -0.57671424485E+03  0.57671424488E+03  0.50400001928E-02 0.  1.
    10030    2    1    2    0    0  0.00000000000E+00  0.00000000000E+00  0.39571797002E+03  0.15491464598E+04  0.14977523300E+04 0.  0.
        2    1    3    3  502    0 -0.32907354154E+03 -0.51347114464E+03  0.64736756658E+03  0.88939686214E+03  0.25500000920E-02 0. -1.
       -2    1    3    3    0  502  0.32907354154E+03  0.51347114464E+03 -0.25164959656E+03  0.65974959763E+03  0.25500000920E-02 0.  1.
</event>
<event>
 5   0  0.6364378E-05  0.1497144E+04  0.7818609E-02  0.8886354E-01
       -1   -1    0    0    0  501  0.00000000000E+00  0.00000000000E+00  0.28483665199E+03  0.28483665203E+03  0.50400001928E-02 0. -1.
        1   -1    0    0  501    0  0.00000000000E+00  0.00000000000E+00 -0.19673043314E+04  0.19673043314E+04  0.50400001928E-02 0.  1.
    10030    2    1    2    0    0  0.00000000000E+00  0.00000000000E+00 -0.16824676794E+04  0.22521409834E+04  0.14971444543E+04 0.  0.
        5    1    3    3  502    0  0.45086220586E+02 -0.74565075982E+03 -0.91354106403E+03  0.11800877885E+04  0.46999998093E+01 0.  1.
       -5    1    3    3    0  502 -0.45086220586E+02  0.74565075982E+03 -0.76892661538E+03  0.10720531949E+04  0.46999998093E+01 0. -1.
</event>
<event>
 5   0  0.1254487E-04  0.1498442E+04  0.7818609E-02  0.8885490E-01
        2   -1    0    0  501    0  0.00000000000E+00  0.00000000000E+00  0.81793212526E+03  0.81793212527E+03  0.25500000920E-02 0. -1.
       -2   -1    0    0    0  501  0.00000000000E+00  0.00000000000E+00 -0.68628170297E+03  0.68628170297E+03  0.25500000920E-02 0.  1.
    10030    2    1    2    0    0  0.00000000000E+00  0.00000000000E+00  0.13165042230E+03  0.15042138282E+04  0.14984416596E+04 0.  0.
        5    1    3    3  502    0 -0.12091739617E+03 -0.18996877269E+03  0.78314102103E+03  0.81488717017E+03  0.46999998093E+01 0. -1.
       -5    1    3    3    0  502  0.12091739617E+03  0.18996877269E+03 -0.65149059873E+03  0.68932665807E+03  0.46999998093E+01 0.  1.
</event>
<event>
 5   0  0.1254487E-04  0.1495958E+04  0.7818609E-02  0.8887146E-01
        2   -1    0    0  501    0  0.00000000000E+00  0.00000000000E+00  0.13095982216E+04  0.13095982216E+04  0.25500000920E-02 0. -1.
       -2   -1    0    0    0  501  0.00000000000E+00  0.00000000000E+00 -0.42720907509E+03  0.42720907510E+03  0.25500000920E-02 0.  1.
    10030    2    1    2    0    0  0.00000000000E+00  0.00000000000E+00  0.88238914649E+03  0.17368072967E+04  0.14959575462E+04 0.  0.
        5    1    3    3  502    0 -0.33173833020E+03  0.26965193434E+01 -0.33710233847E+03  0.47298802051E+03  0.46999998093E+01 0.  1.
       -5    1    3    3    0  502  0.33173833020E+03 -0.26965193434E+01  0.12194914850E+04  0.12638192762E+04  0.46999998093E+01 0. -1.
</event>
<event>
 5   0  0.1254487E-04  0.1501117E+04  0.7818609E-02  0.8883711E-01
       -2   -1    0    0    0  501  0.00000000000E+00  0.00000000000E+00  0.59907494487E+03  0.59907494488E+03  0.25500000920E-02 0.  1.
        2   -1    0    0  501    0  0.00000000000E+00  0.00000000000E+00 -0.94034598041E+03  0.94034598041E+03  0.25500000920E-02 0. -1.
    10030    2    1    2    0    0  0.00000000000E+00  0.00000000000E+00 -0.34127103554E+03  0.15394209253E+04  0.15011165396E+04 0.  0.
        5    1    3    3  502    0 -0.16222181493E+03  0.65698033318E+03  0.16226537923E+03  0.69591035250E+03  0.46999998093E+01 0.  1.
       -5    1    3    3    0  502  0.16222181493E+03 -0.65698033318E+03 -0.50353641477E+03  0.84351057279E+03  0.46999998093E+01 0. -1.
</event>
<event>
 5   0  0.6542036E-05  0.1500153E+04  0.7818609E-02  0.8884351E-01
        1   -1    0    0  501    0  0.00000000000E+00  0.00000000000E+00  0.17271826019E+04  0.17271826019E+04  0.50400001928E-02 0.  1.
       -1   -1    0    0    0  501  0.00000000000E+00  0.00000000000E+00 -0.32574148664E+03  0.32574148668E+03  0.50400001928E-02 0. -1.
    10030    2    1    2    0    0  0.00000000000E+00  0.00000000000E+00  0.14014411153E+04  0.20529240886E+04  0.15001533635E+04 0.  0.
        4    1    3    3  502    0 -0.73675545091E+02  0.43752958951E+03 -0.12690003990E+03  0.46148180968E+03  0.12699999809E+01 0. -1.
       -4    1    3    3    0  502  0.73675545091E+02 -0.43752958951E+03  0.15283411552E+04  0.15914422789E+04  0.12699999809E+01 0.  1.
</event>
<event>
 5   0  0.1228286E-04  0.1495249E+04  0.7818609E-02  0.8887618E-01
       -2   -1    0    0    0  501  0.00000000000E+00  0.00000000000E+00  0.58311580368E+03  0.58311580369E+03  0.25500000920E-02 0. -1.
        2   -1    0    0  501    0  0.00000000000E+00  0.00000000000E+00 -0.95854430169E+03  0.95854430169E+03  0.25500000920E-02 0.  1.
    10030    2    1    2    0    0  0.00000000000E+00  0.00000000000E+00 -0.37542849800E+03  0.15416601054E+04  0.14952489169E+04 0.  0.
        2    1    3    3  502    0 -0.39957562984E+03  0.40756721742E+03  0.31015126199E+03  0.64958873604E+03  0.25500000920E-02 0. -1.
       -2    1    3    3    0  502  0.39957562984E+03 -0.40756721742E+03 -0.68557975999E+03  0.89207136934E+03  0.25500000920E-02 0.  1.
</event>
<event>
 5   0  0.1186664E-04  0.1498108E+04  0.7818609E-02  0.8885712E-01
        2   -1    0    0  501    0  0.00000000000E+00  0.00000000000E+00  0.16959897397E+04  0.16959897397E+04  0.25500000920E-02 0.  1.
       -2   -1    0    0    0  501  0.00000000000E+00  0.00000000000E+00 -0.33082869424E+03  0.33082869425E+03  0.25500000920E-02 0. -1.
    10030    2    1    2    0    0  0.00000000000E+00  0.00000000000E+00  0.13651610454E+04  0.20268184339E+04  0.14981082351E+04 0.  0.
        3    1    3    3  502    0  0.56261713571E+03  0.32643052409E+03  0.11851440288E+04  0.13519102439E+04  0.10100000352E+00 0.  1.
       -3    1    3    3    0  502 -0.56261713571E+03 -0.32643052409E+03  0.18001701665E+03  0.67490819001E+03  0.10100000352E+00 0. -1.
</event>
<event>
 5   0  0.6361716E-05  0.1497545E+04  0.7818609E-02  0.8886087E-01
       -1   -1    0    0    0  501  0.00000000000E+00  0.00000000000E+00  0.10758527644E+04  0.10758527644E+04  0.50400001928E-02 0. -1.
        1   -1    0    0  501    0  0.00000000000E+00  0.00000000000E+00 -0.52113071270E+03  0.52113071272E+03  0.50400001928E-02 0.  1.
    10030    2    1    2    0    0  0.00000000000E+00  0.00000000000E+00  0.55472205168E+03  0.15969834771E+04  0.14975445474E+04 0.  0.
        3    1    3    3  502    0 -0.65726280998E+03  0.34945631371E+03  0.19108269319E+03  0.76852242804E+03  0.10100000352E+00 0.  1.
       -3    1    3    3    0  502  0.65726280998E+03 -0.34945631371E+03  0.36363935849E+03  0.82846104906E+03  0.10100000352E+00 0. -1.
</event>
<event>
 5   0  0.1186664E-04  0.1501259E+04  0.7818609E-02  0.8883616E-01
        2   -1    0    0  501    0  0.00000000000E+00  0.00000000000E+00  0.69940510658E+03  0.69940510658E+03  0.25500000920E-02 0. -1.
       -2   -1    0    0    0  501  0.00000000000E+00  0.00000000000E+00 -0.80560543138E+03  0.80560543138E+03  0.25500000920E-02 0.  1.
    10030    2    1    2    0    0  0.00000000000E+00  0.00000000000E+00 -0.10620032480E+03  0.15050105380E+04  0.15012588752E+04 0.  0.
        3    1    3    3  502    0 -0.40829475102E+02  0.15210845968E+03  0.68265524129E+03  0.70058705255E+03  0.10100000352E+00 0. -1.
       -3    1    3    3    0  502  0.40829475102E+02 -0.15210845968E+03 -0.78885556609E+03  0.80442348542E+03  0.10100000352E+00 0.  1.
</event>
<event>
 5   0  0.6668433E-05  0.1501113E+04  0.7818609E-02  0.8883713E-01
       -1   -1    0    0    0  501  0.00000000000E+00  0.00000000000E+00  0.77274416105E+03  0.77274416106E+03  0.50400001928E-02 0.  1.
        1   -1    0    0  501    0  0.00000000000E+00  0.00000000000E+00 -0.72900578323E+03  0.72900578325E+03  0.50400001928E-02 0. -1.
    10030    2    1    2    0    0  0.00000000000E+00  0.00000000000E+00  0.43738377814E+02  0.15017499443E+04  0.15011128704E+04 0.  0.
        1    1    3    3  502    0  0.46658569745E+03  0.97599692479E+02  0.60186263565E+03  0.76776724680E+03  0.50400001928E-02 0.  1.
       -1    1    3    3    0  502 -0.46658569745E+03 -0.97599692479E+02 -0.55812425784E+03  0.73398269752E+03  0.50400001928E-02 0. -1.
</event>
<event>
 5   0  0.1254487E-04  0.1499804E+04  0.7818609E-02  0.8884583E-01
       -2   -1    0    0    0  501  0.00000000000E+00  0.00000000000E+00  0.20981874070E+03  0.20981874071E+03  0.25500000920E-02 0. -1.
        2   -1    0    0  501    0  0.00000000000E+00  0.00000000000E+00 -0.26801853024E+04  0.26801853024E+04  0.25500000920E-02 0.  1.
    10030    2    1    2    0    0  0.00000000000E+00  0.00000000000E+00 -0.24703665617E+04  0.28900040431E+04  0.14998041272E+04 0.  0.
        5    1    3    3  502    0 -0.41682439599E+03 -0.71339488654E+02 -0.41893039104E+02  0.42498119541E+03  0.46999998093E+01 0. -1.
       -5    1    3    3    0  502  0.41682439599E+03  0.71339488654E+02 -0.24284735225E+04  0.24650228477E+04  0.46999998093E+01 0.  1.
</event>
<event>
 5   0  0.6361716E-05  0.1499467E+04  0.7818609E-02  0.8884808E-01
       -1   -1    0    0    0  501  0.00000000000E+00  0.00000000000E+00  0.99599942685E+03  0.99599942686E+03  0.50400001928E-02 0. -1.
        1   -1    0    0  501    0  0.00000000000E+00  0.00000000000E+00 -0.56435777143E+03  0.56435777145E+03  0.50400001928E-02 0.  1.
    10030    2    1    2    0    0  0.00000000000E+00  0.00000000000E+00  0.43164165542E+03  0.15603571983E+04  0.14994665944E+04 0.  0.
        3    1    3    3  502    0 -0.28009130295E+02  0.34340884465E+03  0.90873294129E+03  0.97185889652E+03  0.10100000352E+00 0. -1.
       -3    1    3    3    0  502  0.28009130295E+02 -0.34340884465E+03 -0.47709128587E+03  0.58849830179E+03  0.10100000352E+00 0.  1.
</event>
<event>
 5   0  0.1228286E-04  0.1498431E+04  0.7818609E-02  0.8885497E-01
       -2   -1    0    0    0  501  0.00000000000E+00  0.00000000000E+00  0.50427268026E+03  0.50427268026E+03  0.25500000920E-02 0. -1.
        2   -1    0    0  501    0  0.00000000000E+00  0.00000000000E+00 -0.11131351855E+04  0.11131351855E+04  0.25500000920E-02 0.  1.
    10030    2    1    2    0    0  0.00000000000E+00  0.00000000000E+00 -0.60886250521E+03  0.16174078657E+04  0.14984307304E+04 0.  0.
        2    1    3    3  502    0 -0.37646727325E+03 -0.50643195840E+03 -0.74038470014E+03  0.97281572795E+03  0.25500000920E-02 0.  1.
       -2    1    3    3    0  502  0.37646727325E+03  0.50643195840E+03  0.13152219494E+03  0.64459213778E+03  0.25500000920E-02 0. -1.
</event>
<event>
 5   0  0.6364378E-05  0.1499368E+04  0.7818609E-02  0.8884873E-01
       -1   -1    0    0    0  501  0.00000000000E+00  0.00000000000E+00  0.67034780697E+03  0.67034780699E+03  0.50400001928E-02 0. -1.
        1   -1    0    0  501    0  0.00000000000E+00  0.00000000000E+00 -0.83840972299E+03  0.83840972300E+03  0.50400001928E-02 0.  1.
    10030    2    1    2    0    0  0.00000000000E+00  0.00000000000E+00 -0.16806191602E+03  0.15087575300E+04  0.14993680258E+04 0.  0.
        5    1    3    3  502    0 -0.41007110105E+02  0.24225589462E+03 -0.79672793407E+03  0.83376674945E+03  0.46999998093E+01 0.  1.
       -5    1    3    3    0  502  0.41007110105E+02 -0.24225589462E+03  0.62866601806E+03  0.67499078054E+03  0.46999998093E+01 0. -1.
</event>
<event>
 5   0  0.6509279E-05  0.1502227E+04  0.7818609E-02  0.8882973E-01
       -1   -1    0    0    0  501  0.00000000000E+00  0.00000000000E+00  0.69413277144E+03  0.69413277146E+03  0.50400001928E-02 0.  1.
        1   -1    0    0  501    0  0.00000000000E+00  0.00000000000E+00 -0.81277149266E+03  0.81277149267E+03  0.50400001928E-02 0. -1.
    10030    2    1    2    0    0  0.00000000000E+00  0.00000000000E+00 -0.11863872122E+03  0.15069042641E+04  0.15022267855E+04 0.  0.
        2    1    3    3  502    0  0.18228076769E+03  0.25274324141E+03 -0.74486953078E+03  0.80742556452E+03  0.25500000920E-02 0. -1.
       -2    1    3    3    0  502 -0.18228076769E+03 -0.25274324141E+03  0.62623080956E+03  0.69947869961E+03  0.25500000920E-02 0.  1.
</event>
<event>
 5   0  0.6364378E-05  0.1486989E+04  0.7818609E-02  0.8893151E-01
       -1   -1    0    0    0  501  0.00000000000E+00  0.00000000000E+00  0.34409654623E+03  0.34409654626E+03  0.50400001928E-02 0.  1.
        1   -1    0    0  501    0  0.00000000000E+00  0.00000000000E+00 -0.16064801895E+04  0.16064801895E+04  0.50400001928E-02 0. -1.
    10030    2    1    2    0    0  0.00000000000E+00  0.00000000000E+00 -0.12623836433E+04  0.19505767358E+04  0.14869892869E+04 0.  0.
        5    1    3    3  502    0  0.27270428190E+03 -0.52350508610E+03 -0.12241563318E+04  0.13590459945E+04  0.46999998093E+01 0. -1.
       -5    1    3    3    0  502 -0.27270428190E+03  0.52350508610E+03 -0.38227311512E+02  0.59153074128E+03  0.46999998093E+01 0.  1.
</event>
<event>
 5   0  0.1254487E-04  0.1503930E+04  0.7818609E-02  0.8881844E-01
        2   -1    0    0  501    0  0.00000000000E+00  0.00000000000E+00  0.11634694639E+04  0.11634694639E+04  0.25500000920E-02 0.  1.
       -2   -1    0    0    0  501  0.00000000000E+00  0.00000000000E+00 -0.48600419648E+03  0.48600419649E+03  0.25500000920E-02 0. -1.
    10030    2    1    2    0    0  0.00000000000E+00  0.00000000000E+00  0.67746526739E+03  0.16494736604E+04  0.15039295754E+04 0.  0.
        5    1    3    3  502    0  0.14375778641E+03 -0.67549559839E+03  0.66495357917E+03  0.95872100063E+03  0.46999998093E+01 0. -1.
       -5    1    3    3    0  502 -0.14375778641E+03  0.67549559839E+03  0.12511688226E+02  0.69075265974E+03  0.46999998093E+01 0.  1.
</event>
<event>
 5   0  0.6364378E-05  0.1512843E+04  0.7818609E-02  0.8875957E-01
        1   -1    0    0  501    0  0.00000000000E+00  0.00000000000E+00  0.74975754575E+03  0.74975754576E+03  0.50400001928E-02 0. -1.
       -1   -1    0    0    0  501  0.00000000000E+00  0.00000000000E+00 -0.76314462612E+03  0.76314462613E+03  0.50400001928E-02 0.  1.
    10030    2    1    2    0    0  0.00000000000E+00  0.00000000000E+00 -0.13387080371E+02  0.15129021719E+04  0.15128429422E+04 0.  0.
        5    1    3    3  502    0 -0.73220391377E+02 -0.63183904665E+03 -0.41606215982E+03  0.76007342896E+03  0.46999998093E+01 0.  1.
       -5    1    3    3    0  502  0.73220391377E+02  0.63183904665E+03  0.40267507945E+03  0.75282874293E+03  0.46999998093E+01 0. -1.
</event>
<event>
 5   0  0.1219810E-04  0.1502676E+04  0.7818609E-02  0.8882675E-01
       -2   -1    0    0    0  501  0.00000000000E+00  0.00000000000E+00  0.33258099380E+03  0.33258099381E+03  0.25500000920E-02 0.  1.
        2   -1    0    0  501    0  0.00000000000E+00  0.00000000000E+00 -0.16973577403E+04  0.16973577404E+04  0.25500000920E-02 0. -1.
    10030    2    1    2    0    0  0.00000000000E+00  0.00000000000E+00 -0.13647767465E+04  0.20299387342E+04  0.15026761782E+04 0.  0.
        1    1    3    3  502    0  0.15478574722E+03 -0.31702256280E+03  0.21373345641E+03  0.41248505825E+03  0.50400001928E-02 0.  1.
       -1    1    3    3    0  502 -0.15478574722E+03  0.31702256280E+03 -0.15785102030E+04  0.16174536759E+04  0.50400001928E-02 0. -1.
</event>
<event>
 5   0  0.1254487E-04  0.1501911E+04  0.7818609E-02  0.8883183E-01
        2   -1    0    0  501    0  0.00000000000E+00  0.00000000000E+00  0.18224231661E+04  0.18224231661E+04  0.25500000920E-02 0. -1.
       -2   -1    0    0    0  501  0.00000000000E+00  0.00000000000E+00 -0.30944208933E+03  0.30944208934E+03  0.25500000920E-02 0.  1.
    10030    2    1    2    0    0  0.00000000000E+00  0.00000000000E+00  0.15129810768E+04  0.21318652554E+04  0.15019113585E+04 0.  0.
        5    1    3    3  502    0  0.41762551622E+03 -0.61920695504E+03  0.64577446700E+03  0.98735762375E+03  0.46999998093E+01 0.  1.
       -5    1    3    3    0  502 -0.41762551622E+03  0.61920695504E+03  0.86720660975E+03  0.11445076317E+04  0.46999998093E+01 0. -1.
</event>
<event>
 5   0  0.1254487E-04  0.1485169E+04  0.7818609E-02  0.8894376E-01
        2   -1    0    0  501    0  0.00000000000E+00  0.00000000000E+00  0.13295248194E+04  0.13295248194E+04  0.25500000920E-02 0.  1.
       -2   -1    0    0    0  501  0.00000000000E+00  0.00000000000E+00 -0.41475857393E+03  0.41475857394E+03  0.25500000920E-02 0. -1.
    10030    2    1    2    0    0  0.00000000000E+00  0.00000000000E+00  0.91476624550E+03  0.17442833934E+04  0.14851691057E+04 0.  0.
        5    1    3    3  502    0 -0.39269834661E+03  0.57922604269E+03  0.74910289847E+03  0.10251302563E+04  0.46999998093E+01 0.  1.
       -5    1    3    3    0  502  0.39269834661E+03 -0.57922604269E+03  0.16566334703E+03  0.71915313703E+03  0.46999998093E+01 0. -1.
</event>
<event>
 5   0  0.6364378E-05  0.1495659E+04  0.7818609E-02  0.8887344E-01
        1   -1    0    0  501    0  0.00000000000E+00  0.00000000000E+00  0.12563465738E+04  0.12563465738E+04  0.50400001928E-02 0.  1.
       -1   -1    0    0    0  501  0.00000000000E+00  0.00000000000E+00 -0.44513936186E+03  0.44513936189E+03  0.50400001928E-02 0. -1.
    10030    2    1    2    0    0  0.00000000000E+00  0.00000000000E+00  0.81120721194E+03  0.17014859357E+04  0.14956594695E+04 0.  0.
        5    1    3    3  502    0 -0.10583628745E+03  0.57209522986E+03 -0.12887364227E+03  0.59592346609E+03  0.46999998093E+01 0. -1.
       -5    1    3    3    0  502  0.10583628745E+03 -0.57209522986E+03  0.94008085421E+03  0.11055624696E+04  0.46999998093E+01 0.  1.
</event>
<event>
 5   0  0.6364378E-05  0.1499543E+04  0.7818609E-02  0.8884757E-01
       -1   -1    0    0    0  501  0.00000000000E+00  0.00000000000E+00  0.39258679548E+03  0.39258679551E+03  0.50400001928E-02 0.  1.
        1   -1    0    0  501    0  0.00000000000E+00  0.00000000000E+00 -0.14319320046E+04  0.14319320047E+04  0.50400001928E-02 0. -1.
    10030    2    1    2    0    0  0.00000000000E+00  0.00000000000E+00 -0.10393452092E+04  0.18245188002E+04  0.14995433933E+04 0.  0.
        5    1    3    3  502    0 -0.15509784250E+02  0.27962381804E+03 -0.13658858253E+04  0.13943085063E+04  0.46999998093E+01 0. -1.
       -5    1    3    3    0  502  0.15509784250E+02 -0.27962381804E+03  0.32654061609E+03  0.43021029390E+03  0.46999998093E+01 0.  1.
</event>
<event>
 5   0  0.1254487E-04  0.1502602E+04  0.7818609E-02  0.8882725E-01
        2   -1    0    0  501    0  0.00000000000E+00  0.00000000000E+00  0.22952056365E+04  0.22952056365E+04  0.25500000920E-02 0. -1.
       -2   -1    0    0    0  501  0.00000000000E+00  0.00000000000E+00 -0.24592693953E+03  0.24592693954E+03  0.25500000920E-02 0.  1.
    10030    2    1    2    0    0  0.00000000000E+00  0.00000000000E+00  0.20492786970E+04  0.25411325760E+04  0.15026016076E+04 0.  0.
        5    1    3    3  502    0 -0.56880486244E+03  0.46382295714E+03  0.75320971982E+03  0.10516737513E+04  0.46999998093E+01 0. -1.
       -5    1    3    3    0  502  0.56880486244E+03 -0.46382295714E+03  0.12960689772E+04  0.14894588248E+04  0.46999998093E+01 0.  1.
</event>
<event>
 5   0  0.6542036E-05  0.1498588E+04  0.7818609E-02  0.8885393E-01
       -1   -1    0    0    0  501  0.00000000000E+00  0.00000000000E+00  0.10406057491E+04  0.10406057491E+04  0.50400001928E-02 0.  1.
        1   -1    0    0  501    0  0.00000000000E+00  0.00000000000E+00 -0.53953300546E+03  0.53953300548E+03  0.50400001928E-02 0. -1.
    10030    2    1    2    0    0  0.00000000000E+00  0.00000000000E+00  0.50107274360E+03  0.15801387546E+04  0.14985875314E+04 0.  0.
        4    1    3    3  502    0  0.26250525135E+03  0.21118485779E+03 -0.45516165651E+03  0.56628773394E+03  0.12699999809E+01 0. -1.
       -4    1    3    3    0  502 -0.26250525135E+03 -0.21118485779E+03  0.95623440012E+03  0.10138510206E+04  0.12699999809E+01 0.  1.
</event>
<event>
 5   0  0.1219810E-04  0.1499924E+04  0.7818609E-02  0.8884503E-01
       -2   -1    0    0    0  501  0.00000000000E+00  0.00000000000E+00  0.94343898826E+03  0.94343898826E+03  0.25500000920E-02 0.  1.
        2   -1    0    0  501    0  0.00000000000E+00  0.00000000000E+00 -0.59616273579E+03  0.59616273580E+03  0.25500000920E-02 0. -1.
    10030    2    1    2    0    0  0.00000000000E+00  0.00000000000E+00  0.34727625247E+03  0.15396017241E+04  0.14999242225E+04 0.  0.
        1    1    3    3  502    0  0.22555567048E+03  0.56305340317E+03  0.62637101464E+03  0.87192037670E+03  0.50400001928E-02 0.  1.
       -1    1    3    3    0  502 -0.22555567048E+03 -0.56305340317E+03 -0.27909476217E+03  0.66768134735E+03  0.50400001928E-02 0. -1.
</event>
<event>
 5   0  0.6364378E-05  0.1498747E+04  0.7818609E-02  0.8885286E-01
        1   -1    0    0  501    0  0.00000000000E+00  0.00000000000E+00  0.12023952397E+04  0.12023952397E+04  0.50400001928E-02 0.  1.
       -1   -1    0    0    0  501  0.00000000000E+00  0.00000000000E+00 -0.46703513712E+03  0.46703513715E+03  0.50400001928E-02 0. -1.
    10030    2    1    2    0    0  0.00000000000E+00  0.00000000000E+00  0.73536010254E+03  0.16694303768E+04  0.14987472444E+04 0.  0.
        5    1    3    3  502    0 -0.58720801852E+03 -0.46488517015E+03  0.39512903436E+03  0.84680607120E+03  0.46999998093E+01 0.  1.
       -5    1    3    3    0  502  0.58720801852E+03  0.46488517015E+03  0.34023106819E+03  0.82262430562E+03  0.46999998093E+01 0. -1.
</event>
<event>
 5   0  0.6668433E-05  0.1500397E+04  0.7818609E-02  0.8884189E-01
        1   -1    0    0  501    0  0.00000000000E+00  0.00000000000E+00  0.13036621878E+04  0.13036621878E+04  0.50400001928E-02 0. -1.
       -1   -1    0    0    0  501  0.00000000000E+00  0.00000000000E+00 -0.43170551576E+03  0.43170551579E+03  0.50400001928E-02 0.  1.
    10030    2    1    2    0    0  0.00000000000E+00  0.00000000000E+00  0.87195667208E+03  0.17353677036E+04  0.15003974903E+04 0.  0.
        1    1    3    3  502    0 -0.28828024393E+03 -0.34945939808E+03  0.11275961916E+04  0.12151956802E+04  0.50400001928E-02 0. -1.
       -1    1    3    3    0  502  0.28828024393E+03  0.34945939808E+03 -0.25563951953E+03  0.52017202339E+03  0.50400001928E-02 0.  1.
</event>
<event>
 5   0  0.6668433E-05  0.1498101E+04  0.7818609E-02  0.8885717E-01
        1   -1    0    0  501    0  0.00000000000E+00  0.00000000000E+00  0.59157229550E+03  0.59157229552E+03  0.50400001928E-02 0. -1.
       -1   -1    0    0    0  501  0.00000000000E+00  0.00000000000E+00 -0.94844989296E+03  0.94844989297E+03  0.50400001928E-02 0.  1.
    10030    2    1    2    0    0  0.00000000000E+00  0.00000000000E+00 -0.35687759746E+03  0.15400221885E+04  0.14981010385E+04 0.  0.
        1    1    3    3  502    0 -0.53086109720E+03  0.30857418666E+03 -0.61944841394E+03  0.87220861653E+03  0.50400001928E-02 0.  1.
       -1    1    3    3    0  502  0.53086109720E+03 -0.30857418666E+03  0.26257081649E+03  0.66781357196E+03  0.50400001928E-02 0. -1.
</event>
<event>
 5   0  0.6542036E-05  0.1499741E+04  0.7818609E-02  0.8884625E-01
       -1   -1    0    0    0  501  0.00000000000E+00  0.00000000000E+00  0.55416204080E+03  0.55416204082E+03  0.50400001928E-02 0. -1.
        1   -1    0    0  501    0  0.00000000000E+00  0.00000000000E+00 -0.10146955672E+04  0.10146955672E+04  0.50400001928E-02 0.  1.
    10030    2    1    2    0    0  0.00000000000E+00  0.00000000000E+00 -0.46053352641E+03  0.15688576080E+04  0.14997409994E+04 0.  0.
        4    1    3    3  502    0  0.70288962835E+03 -0.77918098412E+02  0.30582406000E+02  0.70785729929E+03  0.12699999809E+01 0. -1.
       -4    1    3    3    0  502 -0.70288962835E+03  0.77918098412E+02 -0.49111593241E+03  0.86100030875E+03  0.12699999809E+01 0.  1.
</event>
<event>
 5   0  0.1216921E-04  0.1494919E+04  0.7818609E-02  0.8887839E-01
        2   -1    0    0  501    0  0.00000000000E+00  0.00000000000E+00  0.16278861734E+04  0.16278861734E+04  0.25500000920E-02 0.  1.
       -2   -1    0    0    0  501  0.00000000000E+00  0.00000000000E+00 -0.34320327518E+03  0.34320327519E+03  0.25500000920E-02 0. -1.
    10030    2    1    2    0    0  0.00000000000E+00  0.00000000000E+00  0.12846828982E+04  0.19710894486E+04  0.14949192170E+04 0.  0.
        4    1    3    3  502    0  0.65415418813E+02  0.51855988476E+03 -0.62189084639E+02  0.52635788799E+03  0.12699999809E+01 0. -1.
       -4    1    3    3    0  502 -0.65415418813E+02 -0.51855988476E+03  0.13468719829E+04  0.14447315606E+04  0.12699999809E+01 0.  1.
</event>
<event>
 5   0  0.1186664E-04  0.1499678E+04  0.7818609E-02  0.8884667E-01
       -2   -1    0    0    0  501  0.00000000000E+00  0.00000000000E+00  0.79946334589E+03  0.79946334589E+03  0.25500000920E-02 0. -1.
        2   -1    0    0  501    0  0.00000000000E+00  0.00000000000E+00 -0.70329527192E+03  0.70329527193E+03  0.25500000920E-02 0.  1.
    10030    2    1    2    0    0  0.00000000000E+00  0.00000000000E+00  0.96168073968E+02  0.15027586178E+04  0.14996783538E+04 0.  0.
        3    1    3    3  502    0  0.21473157730E+03  0.24920265649E+03 -0.62713019745E+03  0.70816940702E+03  0.10100000352E+00 0.  1.
       -3    1    3    3    0  502 -0.21473157730E+03 -0.24920265649E+03  0.72329827141E+03  0.79458921080E+03  0.10100000352E+00 0. -1.
</event>
<event>
 5   0  0.6668433E-05  0.1487330E+04  0.7818609E-02  0.8892922E-01
        1   -1    0    0  501    0  0.00000000000E+00  0.00000000000E+00  0.58731443047E+03  0.58731443050E+03  0.50400001928E-02 0. -1.
       -1   -1    0    0    0  501  0.00000000000E+00  0.00000000000E+00 -0.94163854309E+03  0.94163854311E+03  0.50400001928E-02 0.  1.
    10030    2    1    2    0    0  0.00000000000E+00  0.00000000000E+00 -0.35432411262E+03  0.15289529736E+04  0.14873303664E+04 0.  0.
        1    1    3    3  502    0 -0.89447828517E+02  0.29852751605E+03 -0.87127509317E+03  0.92533230780E+03  0.50400001928E-02 0.  1.
       -1    1    3    3    0  502  0.89447828517E+02 -0.29852751605E+03  0.51695098055E+03  0.60362066580E+03  0.50400001928E-02 0. -1.
</event>
<event>
 5   0  0.1254487E-04  0.1495453E+04  0.7818609E-02  0.8887482E-01
        2   -1    0    0  501    0  0.00000000000E+00  0.00000000000E+00  0.84664002945E+03  0.84664002946E+03  0.25500000920E-02 0.  1.
       -2   -1    0    0    0  501  0.00000000000E+00  0.00000000000E+00 -0.66036909412E+03  0.66036909412E+03  0.25500000920E-02 0. -1.
    10030    2    1    2    0    0  0.00000000000E+00  0.00000000000E+00  0.18627093534E+03  0.15070091236E+04  0.14954529873E+04 0.  0.
        5    1    3    3  502    0  0.45345821618E+03  0.59250671322E+03  0.14234168129E+03  0.75958660024E+03  0.46999998093E+01 0. -1.
       -5    1    3    3    0  502 -0.45345821618E+03 -0.59250671322E+03  0.43929254043E+02  0.74742252334E+03  0.46999998093E+01 0.  1.
</event>
<event>
 5   0  0.1186664E-04  0.1501512E+04  0.7818609E-02  0.8883448E-01
       -2   -1    0    0    0  501  0.00000000000E+00  0.00000000000E+00  0.75961764750E+03  0.75961764751E+03  0.25500000920E-02 0.  1.
        2   -1    0    0  501    0  0.00000000000E+00  0.00000000000E+00 -0.74199754605E+03  0.74199754605E+03  0.25500000920E-02 0. -1.
    10030    2    1    2    0    0  0.00000000000E+00  0.00000000000E+00  0.17620101457E+02  0.15016151936E+04  0.15015118120E+04 0.  0.
        3    1    3    3  502    0 -0.56061105150E+03  0.19873567664E+03 -0.44931951447E+03  0.74543185907E+03  0.10100000352E+00 0. -1.
       -3    1    3    3    0  502  0.56061105150E+03 -0.19873567664E+03  0.46693961593E+03  0.75618333449E+03  0.10100000352E+00 0.  1.
</event>
<event>
 5   0  0.1216921E-04  0.1499169E+04  0.7818609E-02  0.8885006E-01
       -2   -1    0    0    0  501  0.00000000000E+00  0.00000000000E+00  0.40473008826E+03  0.40473008827E+03  0.25500000920E-02 0.  1.
        2   -1    0    0  501    0  0.00000000000E+00  0.00000000000E+00 -0.13882756597E+04  0.13882756597E+04  0.25500000920E-02 0. -1.
    10030    2    1    2    0    0  0.00000000000E+00  0.00000000000E+00 -0.98354557145E+03  0.17930057480E+04  0.14991690102E+04 0.  0.
        4    1    3    3  502    0 -0.69861907504E+03  0.14313817034E+03 -0.76793782665E+03  0.10479920163E+04  0.12699999809E+01 0. -1.
       -4    1    3    3    0  502  0.69861907504E+03 -0.14313817034E+03 -0.21560774480E+03  0.74501373164E+03  0.12699999809E+01 0.  1.
</event>
<event>
 5   0  0.1228286E-04  0.1497556E+04  0.7818609E-02  0.8886080E-01
       -2   -1    0    0    0  501  0.00000000000E+00  0.00000000000E+00  0.76920537630E+03  0.76920537630E+03  0.25500000920E-02 0. -1.
        2   -1    0    0  501    0  0.00000000000E+00  0.00000000000E+00 -0.72889299136E+03  0.72889299137E+03  0.25500000920E-02 0.  1.
    10030    2    1    2    0    0  0.00000000000E+00  0.00000000000E+00  0.40312384933E+02  0.14980983677E+04  0.14975558857E+04 0.  0.
        2    1    3    3  502    0  0.40383075882E+03  0.28512357294E+03  0.58275984258E+03  0.76418830647E+03  0.25500000920E-02 0. -1.
       -2    1    3    3    0  502 -0.40383075882E+03 -0.28512357294E+03 -0.54244745764E+03  0.73391006120E+03  0.25500000920E-02 0.  1.
</event>
<event>
 5   0  0.1228286E-04  0.1504060E+04  0.7818609E-02  0.8881758E-01
       -2   -1    0    0    0  501  0.00000000000E+00  0.00000000000E+00  0.38912272218E+03  0.38912272219E+03  0.25500000920E-02 0.  1.
        2   -1    0    0  501    0  0.00000000000E+00  0.00000000000E+00 -0.14533945002E+04  0.14533945002E+04  0.25500000920E-02 0. -1.
    10030    2    1    2    0    0  0.00000000000E+00  0.00000000000E+00 -0.10642717780E+04  0.18425172224E+04  0.15040596056E+04 0.  0.
        2    1    3    3  502    0 -0.47717409055E+03 -0.15664712320E+03  0.15356919998E+03  0.52518276160E+03  0.25500000920E-02 0.  1.
       -2    1    3    3    0  502  0.47717409055E+03  0.15664712320E+03 -0.12178409780E+04  0.13173344608E+04  0.25500000920E-02 0. -1.
</event>
<event>
 5   0  0.1228286E-04  0.1497622E+04  0.7818609E-02  0.8886036E-01
        2   -1    0    0  501    0  0.00000000000E+00  0.00000000000E+00  0.13935771707E+04  0.13935771707E+04  0.25500000920E-02 0.  1.
       -2   -1    0    0    0  501  0.00000000000E+00  0.00000000000E+00 -0.40235866733E+03  0.40235866734E+03  0.25500000920E-02 0. -1.
    10030    2    1    2    0    0  0.00000000000E+00  0.00000000000E+00  0.99121850341E+03  0.17959358381E+04  0.14976219193E+04 0.  0.
        2    1    3    3  502    0 -0.67851899823E+03 -0.88159686966E+01  0.87530468220E+03  0.11075306041E+04  0.25500000920E-02 0.  1.
       -2    1    3    3    0  502  0.67851899823E+03  0.88159686966E+01  0.11591382120E+03  0.68840523401E+03  0.25500000920E-02 0. -1.
</event>
<event>
 5   0  0.1186664E-04  0.1505277E+04  0.7818609E-02  0.8880952E-01
        2   -1    0    0  501    0  0.00000000000E+00  0.00000000000E+00  0.20717709595E+04  0.20717709595E+04  0.25500000920E-02 0. -1.
       -2   -1    0    0    0  501  0.00000000000E+00  0.00000000000E+00 -0.27342043727E+03  0.27342043728E+03  0.25500000920E-02 0.  1.
    10030    2    1    2    0    0  0.00000000000E+00  0.00000000000E+00  0.17983505223E+04  0.23451913968E+04  0.15052767476E+04 0.  0.
        3    1    3    3  502    0 -0.55083129427E+03 -0.22830658112E+03  0.16147030166E+04  0.17212800038E+04  0.10100000352E+00 0. -1.
       -3    1    3    3    0  502  0.55083129427E+03  0.22830658112E+03  0.18364750570E+03  0.62391139297E+03  0.10100000352E+00 0.  1.
</event>
<event>
 5   0  0.1216921E-04  0.1498873E+04  0.7818609E-02  0.8885203E-01
       -2   -1    0    0    0  501  0.00000000000E+00  0.00000000000E+00  0.83988508989E+03  0.83988508989E+03  0.25500000920E-02 0.  1.
        2   -1    0    0  501    0  0.00000000000E+00  0.00000000000E+00 -0.66872808899E+03  0.66872808900E+03  0.25500000920E-02 0. -1.
    10030    2    1    2    0    0  0.00000000000E+00  0.00000000000E+00  0.17115700090E+03  0.15086131789E+04  0.14988725778E+04 0.  0.
        4    1    3    3  502    0 -0.52369876738E+03 -0.51868836258E+03  0.22194001576E+03  0.76977724046E+03  0.12699999809E+01 0. -1.
       -4    1    3    3    0  502  0.52369876738E+03  0.51868836258E+03 -0.50783014868E+02  0.73883593844E+03  0.12699999809E+01 0.  1.
</event>
<event>
 5   0  0.1219810E-04  0.1502406E+04  0.7818609E-02  0.8882855E-01
        2   -1    0    0  501    0  0.00000000000E+00  0.00000000000E+00  0.69045898137E+03  0.69045898137E+03  0.25500000920E-02 0. -1.
       -2   -1    0    0    0  501  0.00000000000E+00  0.00000000000E+00 -0.81729106106E+03  0.81729106106E+03  0.25500000920E-02 0.  1.
    10030    2    1    2    0    0  0.00000000000E+00  0.00000000000E+00 -0.12683207969E+03  0.15077500424E+04  0.15024060084E+04 0.  0.
        1    1    3    3  502    0  0.25764796326E+03 -0.65586036601E+03 -0.32467000930E+03  0.77585173045E+03  0.50400001928E-02 0.  1.
       -1    1    3    3    0  502 -0.25764796326E+03  0.65586036601E+03  0.19783792961E+03  0.73189831199E+03  0.50400001928E-02 0. -1.
</event>
<event>
 5   0  0.6668433E-05  0.1500303E+04  0.7818609E-02  0.8884251E-01
        1   -1    0    0  501    0  0.00000000000E+00  0.00000000000E+00  0.10355124501E+04  0.10355124501E+04  0.50400001928E-02 0. -1.
       -1   -1    0    0    0  501  0.00000000000E+00  0.00000000000E+00 -0.54342881184E+03  0.54342881186E+03  0.50400001928E-02 0.  1.
    10030    2    1    2    0    0  0.00000000000E+00  0.00000000000E+00  0.49208363824E+03  0.15789412619E+04  0.15003030366E+04 0.  0.
        1    1    3    3  502    0 -0.86615940627E+02  0.46153946314E+03  0.86168771437E+03  0.98133924528E+03  0.50400001928E-02 0. -1.
       -1    1    3    3    0  502  0.86615940627E+02 -0.46153946314E+03 -0.36960407613E+03  0.59760201667E+03  0.50400001928E-02 0.  1.
</event>
<event>
 5   0  0.6361716E-05  0.1498249E+04  0.7818609E-02  0.8885618E-01
        1   -1    0    0  501    0  0.00000000000E+00  0.00000000000E+00  0.85778713793E+03  0.85778713794E+03  0.50400001928E-02 0.  1.
       -1   -1    0    0    0  501  0.00000000000E+00  0.00000000000E+00 -0.65422679928E+03  0.65422679930E+03  0.50400001928E-02 0. -1.
    10030    2    1    2    0    0  0.00000000000E+00  0.00000000000E+00  0.20356033865E+03  0.15120139372E+04  0.14982487560E+04 0.  0.
        3    1    3    3  502    0 -0.23555472161E+03  0.10622870659E+03 -0.60782776054E+03  0.66047343751E+03  0.10100000352E+00 0. -1.
       -3    1    3    3    0  502  0.23555472161E+03 -0.10622870659E+03  0.81138809919E+03  0.85154049973E+03  0.10100000352E+00 0.  1.
</event>
<event>
 5   0  0.6668433E-05  0.1498499E+04  0.7818609E-02  0.8885452E-01
        1   -1    0    0  501    0  0.00000000000E+00  0.00000000000E+00  0.17850323742E+04  0.17850323742E+04  0.50400001928E-02 0.  1.
       -1   -1    0    0    0  501  0.00000000000E+00  0.00000000000E+00 -0.31449009765E+03  0.31449009769E+03  0.50400001928E-02 0. -1.
    10030    2    1    2    0    0  0.00000000000E+00  0.00000000000E+00  0.14705422765E+04  0.20995224719E+04  0.14984992569E+04 0.  0.
        1    1    3    3  502    0 -0.10332943445E+03 -0.74208954743E+03  0.73377698101E+03  0.10487147021E+04  0.50400001928E-02 0. -1.
       -1    1    3    3    0  502  0.10332943445E+03  0.74208954743E+03  0.73676529554E+03  0.10508077698E+04  0.50400001928E-02 0.  1.
</event>
<event>
 5   0  0.1216921E-04  0.1497731E+04  0.7818609E-02  0.8885963E-01
       -2   -1    0    0    0  501  0.00000000000E+00  0.00000000000E+00  0.41893117823E+03  0.41893117823E+03  0.25500000920E-02 0.  1.
        2   -1    0    0  501    0  0.00000000000E+00  0.00000000000E+00 -0.13386441759E+04  0.13386441759E+04  0.25500000920E-02 0. -1.
    10030    2    1    2    0    0  0.00000000000E+00  0.00000000000E+00 -0.91971299765E+03  0.17575753541E+04  0.14977313268E+04 0.  0.
        4    1    3    3  502    0  0.24707968895E+03 -0.30810063178E+03  0.28678660341E+03  0.48808046549E+03  0.12699999809E+01 0.  1.
       -4    1    3    3    0  502 -0.24707968895E+03  0.30810063178E+03 -0.12064996011E+04  0.12694948886E+04  0.12699999809E+01 0. -1.
</event>
<event>
 5   0  0.1228286E-04  0.1498607E+04  0.7818609E-02  0.8885379E-01
       -2   -1    0    0    0  501  0.00000000000E+00  0.00000000000E+00  0.47384799503E+03  0.47384799504E+03  0.25500000920E-02 0. -1.
        2   -1    0    0  501    0  0.00000000000E+00  0.00000000000E+00 -0.11848864976E+04  0.11848864976E+04  0.25500000920E-02 0.  1.
    10030    2    1    2    0    0  0.00000000000E+00  0.00000000000E+00 -0.71103850260E+03  0.16587344927E+04  0.14986074753E+04 0.  0.
        2    1    3    3  502    0 -0.53016966677E+03  0.52909827879E+03 -0.33253438489E+03  0.81951447902E+03  0.25500000920E-02 0.  1.
       -2    1    3    3    0  502  0.53016966677E+03 -0.52909827879E+03 -0.37850411771E+03  0.83922001365E+03  0.25500000920E-02 0. -1.
</event>
<event>
 5   0  0.1228286E-04  0.1493215E+04  0.7818609E-02  0.8888977E-01
        2   -1    0    0  501    0  0.00000000000E+00  0.00000000000E+00  0.15853565236E+04  0.15853565236E+04  0.25500000920E-02 0. -1.
       -2   -1    0    0    0  501  0.00000000000E+00  0.00000000000E+00 -0.35160731900E+03  0.35160731901E+03  0.25500000920E-02 0.  1.
    10030    2    1    2    0    0  0.00000000000E+00  0.00000000000E+00  0.12337492046E+04  0.19369638426E+04  0.14932152650E+04 0.  0.
        2    1    3    3  502    0  0.49358565061E+03  0.50286969065E+03  0.93703879205E+03  0.11724105160E+04  0.25500000920E-02 0. -1.
       -2    1    3    3    0  502 -0.49358565061E+03 -0.50286969065E+03  0.29671041253E+03  0.76455332657E+03  0.25500000920E-02 0.  1.
</event>
<event>
 5   0  0.1219810E-04  0.1497525E+04  0.7818609E-02  0.8886100E-01
       -2   -1    0    0    0  501  0.00000000000E+00  0.00000000000E+00  0.41267581403E+03  0.41267581404E+03  0.25500000920E-02 0.  1.
        2   -1    0    0  501    0  0.00000000000E+00  0.00000000000E+00 -0.13585619116E+04  0.13585619116E+04  0.25500000920E-02 0. -1.
    10030    2    1    2    0    0  0.00000000000E+00  0.00000000000E+00 -0.94588609756E+03  0.17712377256E+04  0.14975254826E+04 0.  0.
        1    1    3    3  502    0  0.64704161829E+03  0.32054550089E+03 -0.70722046888E+03  0.10107289773E+04  0.50400001928E-02 0. -1.
       -1    1    3    3    0  502 -0.64704161829E+03 -0.32054550089E+03 -0.23866562868E+03  0.76050874833E+03  0.50400001928E-02 0.  1.
</event>
<event>
 5   0  0.1254487E-04  0.1499644E+04  0.7818609E-02  0.8884689E-01
        2   -1    0    0  501    0  0.00000000000E+00  0.00000000000E+00  0.84298362697E+03  0.84298362697E+03  0.25500000920E-02 0.  1.
       -2   -1    0    0    0  501  0.00000000000E+00  0.00000000000E+00 -0.66695640794E+03  0.66695640795E+03  0.25500000920E-02 0. -1.
    10030    2    1    2    0    0  0.00000000000E+00  0.00000000000E+00  0.17602721903E+03  0.15099400349E+04  0.14996444003E+04 0.  0.
        5    1    3    3  502    0 -0.32836308873E+03  0.30525752799E+03 -0.51711731566E+03  0.68442449152E+03  0.46999998093E+01 0. -1.
       -5    1    3    3    0  502  0.32836308873E+03 -0.30525752799E+03  0.69314453469E+03  0.82551554340E+03  0.46999998093E+01 0.  1.
</event>
<event>
 5   0  0.6509279E-05  0.1504435E+04  0.7818609E-02  0.8881509E-01
       -1   -1    0    0    0  501  0.00000000000E+00  0.00000000000E+00  0.73285898144E+03  0.73285898146E+03  0.50400001928E-02 0.  1.
        1   -1    0    0  501    0  0.00000000000E+00  0.00000000000E+00 -0.77208689571E+03  0.77208689573E+03  0.50400001928E-02 0. -1.
    10030    2    1    2    0    0  0.00000000000E+00  0.00000000000E+00 -0.39227914274E+02  0.15049458772E+04  0.15044345330E+04 0.  0.
        2    1    3    3  502    0  0.56102816995E+03 -0.41381774617E+03 -0.30225747790E+03  0.75984032367E+03  0.25500000920E-02 0.  1.
       -2    1    3    3    0  502 -0.56102816995E+03  0.41381774617E+03  0.26302956363E+03  0.74510555351E+03  0.25500000920E-02 0. -1.
</event>
<event>
 5   0  0.6361716E-05  0.1504952E+04  0.7818609E-02  0.8881167E-01
       -1   -1    0    0    0  501  0.00000000000E+00  0.00000000000E+00  0.82766849076E+03  0.82766849078E+03  0.50400001928E-02 0.  1.
        1   -1    0    0  501    0  0.00000000000E+00  0.00000000000E+00 -0.68411435311E+03  0.68411435313E+03  0.50400001928E-02 0. -1.
    10030    2    1    2    0    0  0.00000000000E+00  0.00000000000E+00  0.14355413765E+03  0.15117828439E+04  0.15049516858E+04 0.  0.
        3    1    3    3  502    0  0.47791957638E+03 -0.99865670137E+02  0.64694884538E+03  0.81050792241E+03  0.10100000352E+00 0.  1.
       -3    1    3    3    0  502 -0.47791957638E+03  0.99865670137E+02 -0.50339470773E+03  0.70127492150E+03  0.10100000352E+00 0. -1.
</event>
<event>
 5   0  0.6668433E-05  0.1496631E+04  0.7818609E-02  0.8886697E-01
       -1   -1    0    0    0  501  0.00000000000E+00  0.00000000000E+00  0.85386166933E+03  0.85386166934E+03  0.50400001928E-02 0. -1.
        1   -1    0    0  501    0  0.00000000000E+00  0.00000000000E+00 -0.65581568993E+03  0.65581568994E+03  0.50400001928E-02 0.  1.
    10030    2    1    2    0    0  0.00000000000E+00  0.00000000000E+00  0.19804597940E+03  0.15096773593E+04  0.14966307224E+04 0.  0.
        1    1    3    3  502    0  0.59754218698E+03 -0.16148052379E+03 -0.32517024310E+03  0.69919118402E+03  0.50400001928E-02 0.  1.
       -1    1    3    3    0  502 -0.59754218698E+03  0.16148052379E+03  0.52321622250E+03  0.81048617527E+03  0.50400001928E-02 0. -1.
</event>
<event>
 5   0  0.6509279E-05  0.1505226E+04  0.7818609E-02  0.8880985E-01
        1   -1    0    0  501    0  0.00000000000E+00  0.00000000000E+00  0.22631426835E+04  0.22631426835E+04  0.50400001928E-02 0. -1.
       -1   -1    0    0    0  501  0.00000000000E+00  0.00000000000E+00 -0.25028300700E+03  0.25028300705E+03  0.50400001928E-02 0.  1.
    10030    2    1    2    0    0  0.00000000000E+00  0.00000000000E+00  0.20128596765E+04  0.25134256905E+04  0.15052257720E+04 0.  0.
        2    1    3    3  502    0 -0.26665557857E+03  0.20022627169E+03  0.21330565185E+04  0.21589640730E+04  0.25500000920E-02 0. -1.
       -2    1    3    3    0  502  0.26665557857E+03 -0.20022627169E+03 -0.12019684201E+03  0.35446161752E+03  0.25500000920E-02 0.  1.
</event>
<event>
 5   0  0.1186664E-04  0.1498210E+04  0.7818609E-02  0.8885644E-01
       -2   -1    0    0    0  501  0.00000000000E+00  0.00000000000E+00  0.26908332787E+03  0.26908332788E+03  0.25500000920E-02 0.  1.
        2   -1    0    0  501    0  0.00000000000E+00  0.00000000000E+00 -0.20854434105E+04  0.20854434105E+04  0.25500000920E-02 0. -1.
    10030    2    1    2    0    0  0.00000000000E+00  0.00000000000E+00 -0.18163600826E+04  0.23545267384E+04  0.14982096689E+04 0.  0.
        3    1    3    3  502    0 -0.63323732397E+03 -0.15205723928E+03 -0.14899697092E+04  0.16260752310E+04  0.10100000352E+00 0. -1.
       -3    1    3    3    0  502  0.63323732397E+03  0.15205723928E+03 -0.32639037344E+03  0.72845150735E+03  0.10100000352E+00 0.  1.
</event>
<event>
 5   0  0.6509279E-05  0.1502957E+04  0.7818609E-02  0.8882489E-01
       -1   -1    0    0    0  501  0.00000000000E+00  0.00000000000E+00  0.84012328529E+03  0.84012328530E+03  0.50400001928E-02 0.  1.
        1   -1    0    0  501    0  0.00000000000E+00  0.00000000000E+00 -0.67218704940E+03  0.67218704942E+03  0.50400001928E-02 0. -1.
    10030    2    1    2    0    0  0.00000000000E+00  0.00000000000E+00  0.16793623589E+03  0.15123103347E+04  0.15029570750E+04 0.  0.
        2    1    3    3  502    0 -0.95396849346E+02  0.60064240104E+03 -0.36019498098E+03  0.70683256654E+03  0.25500000920E-02 0. -1.
       -2    1    3    3    0  502  0.95396849346E+02 -0.60064240104E+03  0.52813121687E+03  0.80547776818E+03  0.25500000920E-02 0.  1.
</event>
<event>
 5   0  0.1254487E-04  0.1500400E+04  0.7818609E-02  0.8884187E-01
        2   -1    0    0  501    0  0.00000000000E+00  0.00000000000E+00  0.84715075276E+03  0.84715075277E+03  0.25500000920E-02 0.  1.
       -2   -1    0    0    0  501  0.00000000000E+00  0.00000000000E+00 -0.66434462957E+03  0.66434462957E+03  0.25500000920E-02 0. -1.
    10030    2    1    2    0    0  0.00000000000E+00  0.00000000000E+00  0.18280612320E+03  0.15114953823E+04  0.15004000174E+04 0.  0.
        5    1    3    3  502    0 -0.48940115868E+03 -0.45157476760E+03  0.43942075918E+03  0.79783830345E+03  0.46999998093E+01 0.  1.
       -5    1    3    3    0  502  0.48940115868E+03  0.45157476760E+03 -0.25661463598E+03  0.71365707889E+03  0.46999998093E+01 0. -1.
</event>
<event>
 5   0  0.1219810E-04  0.1497383E+04  0.7818609E-02  0.8886195E-01
       -2   -1    0    0    0  501  0.00000000000E+00  0.00000000000E+00  0.15790290480E+04  0.15790290480E+04  0.25500000920E-02 0.  1.
        2   -1    0    0  501    0  0.00000000000E+00  0.00000000000E+00 -0.35498969647E+03  0.35498969648E+03  0.25500000920E-02 0. -1.
    10030    2    1    2    0    0  0.00000000000E+00  0.00000000000E+00  0.12240393515E+04  0.19340187445E+04  0.14973831073E+04 0.  0.
        1    1    3    3  502    0  0.65220839261E+03  0.36721651694E+03  0.63495364514E+03  0.98152426827E+03  0.50400001928E-02 0.  1.
       -1    1    3    3    0  502 -0.65220839261E+03 -0.36721651694E+03  0.58908570637E+03  0.95249447620E+03  0.50400001928E-02 0. -1.
</event>
<event>
 5   0  0.6364378E-05  0.1506367E+04  0.7818609E-02  0.8880230E-01
       -1   -1    0    0    0  501  0.00000000000E+00  0.00000000000E+00  0.38899904840E+03  0.38899904844E+03  0.50400001928E-02 0. -1.
        1   -1    0    0  501    0  0.00000000000E+00  0.00000000000E+00 -0.14583214113E+04  0.14583214113E+04  0.50400001928E-02 0.  1.
    10030    2    1    2    0    0  0.00000000000E+00  0.00000000000E+00 -0.10693223629E+04  0.18473204597E+04  0.15063673407E+04 0.  0.
        5    1    3    3  502    0  0.21549602939E+03 -0.46525548899E+03  0.14189958256E+03  0.53203269660E+03  0.46999998093E+01 0. -1.
       -5    1    3    3    0  502 -0.21549602939E+03  0.46525548899E+03 -0.12112219455E+04  0.13152877631E+04  0.46999998093E+01 0.  1.
</event>
<event>
 5   0  0.6361716E-05  0.1494279E+04  0.7818609E-02  0.8888266E-01
       -1   -1    0    0    0  501  0.00000000000E+00  0.00000000000E+00  0.59940755096E+03  0.59940755098E+03  0.50400001928E-02 0. -1.
        1   -1    0    0  501    0  0.00000000000E+00  0.00000000000E+00 -0.93128197954E+03  0.93128197955E+03  0.50400001928E-02 0.  1.
    10030    2    1    2    0    0  0.00000000000E+00  0.00000000000E+00 -0.33187442858E+03  0.15306895305E+04  0.14942790243E+04 0.  0.
        3    1    3    3  502    0 -0.35704445966E+03  0.97333225015E+02 -0.83080001932E+03  0.90949611608E+03  0.10100000352E+00 0.  1.
       -3    1    3    3    0  502  0.35704445966E+03 -0.97333225015E+02  0.49892559074E+03  0.62119341445E+03  0.10100000352E+00 0. -1.
</event>
<event>
 5   0  0.6668433E-05  0.1498476E+04  0.7818609E-02  0.8885467E-01
       -1   -1    0    0    0  501  0.00000000000E+00  0.00000000000E+00  0.55025416108E+03  0.55025416110E+03  0.50400001928E-02 0. -1.
        1   -1    0    0  501    0  0.00000000000E+00  0.00000000000E+00 -0.10201784348E+04  0.10201784348E+04  0.50400001928E-02 0.  1.
    10030    2    1    2    0    0  0.00000000000E+00  0.00000000000E+00 -0.46992427370E+03  0.15704325959E+04  0.14984757973E+04 0.  0.
        1    1    3    3  502    0 -0.19887301556E+03 -0.34039594634E+03 -0.90268951320E+03  0.98502194588E+03  0.50400001928E-02 0.  1.
       -1    1    3    3    0  502  0.19887301556E+03  0.34039594634E+03  0.43276523950E+03  0.58541065001E+03  0.50400001928E-02 0. -1.
</event>
<event>
 5   0  0.6364378E-05  0.1502921E+04  0.7818609E-02  0.8882513E-01
        1   -1    0    0  501    0  0.00000000000E+00  0.00000000000E+00  0.21638780779E+04  0.21638780779E+04  0.50400001928E-02 0.  1.
       -1   -1    0    0    0  501  0.00000000000E+00  0.00000000000E+00 -0.26096335084E+03  0.26096335089E+03  0.50400001928E-02 0. -1.
    10030    2    1    2    0    0  0.00000000000E+00  0.00000000000E+00  0.19029147270E+04  0.24248414288E+04  0.15029209880E+04 0.  0.
        5    1    3    3  502    0 -0.52271395814E+03  0.53156785683E+03  0.79944866001E+03  0.10931306045E+04  0.46999998093E+01 0. -1.
       -5    1    3    3    0  502  0.52271395814E+03 -0.53156785683E+03  0.11034660670E+04  0.13317108243E+04  0.46999998093E+01 0.  1.
</event>
<event>
 5   0  0.1228286E-04  0.1504525E+04  0.7818609E-02  0.8881450E-01
       -2   -1    0    0    0  501  0.00000000000E+00  0.00000000000E+00  0.86043028910E+03  0.86043028910E+03  0.25500000920E-02 0. -1.
        2   -1    0    0  501    0  0.00000000000E+00  0.00000000000E+00 -0.65769264344E+03  0.65769264344E+03  0.25500000920E-02 0.  1.
    10030    2    1    2    0    0  0.00000000000E+00  0.00000000000E+00  0.20273764566E+03  0.15181229325E+04  0.15045247374E+04 0.  0.
        2    1    3    3  502    0 -0.71164400251E+01  0.42533855177E+03  0.72740782358E+03  0.84266581108E+03  0.25500000920E-02 0. -1.
       -2    1    3    3    0  502  0.71164400251E+01 -0.42533855177E+03 -0.52467017792E+03  0.67545712147E+03  0.25500000920E-02 0.  1.
</event>
<event>
 5   0  0.6509279E-05  0.1499475E+04  0.7818609E-02  0.8884802E-01
        1   -1    0    0  501    0  0.00000000000E+00  0.00000000000E+00  0.90014743587E+03  0.90014743589E+03  0.50400001928E-02 0.  1.
       -1   -1    0    0    0  501  0.00000000000E+00  0.00000000000E+00 -0.62446048286E+03  0.62446048288E+03  0.50400001928E-02 0. -1.
    10030    2    1    2    0    0  0.00000000000E+00  0.00000000000E+00  0.27568695301E+03  0.15246079188E+04  0.14994752448E+04 0.  0.
        2    1    3    3  502    0  0.74625524608E+03 -0.81318224189E+01  0.21076362624E+03  0.77548973236E+03  0.25500000920E-02 0. -1.
       -2    1    3    3    0  502 -0.74625524608E+03  0.81318224189E+01  0.64923326777E+02  0.74911818641E+03  0.25500000920E-02 0.  1.
</event>
<event>
 5   0  0.1254487E-04  0.1497185E+04  0.7818609E-02  0.8886327E-01
        2   -1    0    0  501    0  0.00000000000E+00  0.00000000000E+00  0.17364039155E+04  0.17364039155E+04  0.25500000920E-02 0.  1.
       -2   -1    0    0    0  501  0.00000000000E+00  0.00000000000E+00 -0.32273062799E+03  0.32273062800E+03  0.25500000920E-02 0. -1.
    10030    2    1    2    0    0  0.00000000000E+00  0.00000000000E+00  0.14136732875E+04  0.20591345435E+04  0.14971849934E+04 0.  0.
        5    1    3    3  502    0  0.56194935830E+03  0.94919108852E+02  0.39306291801E+02  0.57128258602E+03  0.46999998093E+01 0. -1.
       -5    1    3    3    0  502 -0.56194935830E+03 -0.94919108852E+02  0.13743669957E+04  0.14878519575E+04  0.46999998093E+01 0.  1.
</event>
<event>
 5   0  0.6668433E-05  0.1507872E+04  0.7818609E-02  0.8879235E-01
        1   -1    0    0  501    0  0.00000000000E+00  0.00000000000E+00  0.87860185054E+03  0.87860185055E+03  0.50400001928E-02 0. -1.
       -1   -1    0    0    0  501  0.00000000000E+00  0.00000000000E+00 -0.64695953843E+03  0.64695953845E+03  0.50400001928E-02 0.  1.
    10030    2    1    2    0    0  0.00000000000E+00  0.00000000000E+00  0.23164231211E+03  0.15255613890E+04  0.15078724717E+04 0.  0.
        1    1    3    3  502    0  0.86719673574E+02 -0.30822388068E+03  0.80639528707E+03  0.86763795527E+03  0.50400001928E-02 0. -1.
       -1    1    3    3    0  502 -0.86719673574E+02  0.30822388068E+03 -0.57475297495E+03  0.65792343373E+03  0.50400001928E-02 0.  1.
</event>
<event>
 5   0  0.1186664E-04  0.1502235E+04  0.7818609E-02  0.8882968E-01
        2   -1    0    0  501    0  0.00000000000E+00  0.00000000000E+00  0.13961046429E+04  0.13961046429E+04  0.25500000920E-02 0. -1.
       -2   -1    0    0    0  501  0.00000000000E+00  0.00000000000E+00 -0.40410818998E+03  0.40410818999E+03  0.25500000920E-02 0.  1.
    10030    2    1    2    0    0  0.00000000000E+00  0.00000000000E+00  0.99199645287E+03  0.18002128328E+04  0.15022347623E+04 0.  0.
        3    1    3    3  502    0 -0.43092782350E+03 -0.31740989544E+03 -0.13553620833E+03  0.55210316496E+03  0.10100000352E+00 0.  1.
       -3    1    3    3    0  502  0.43092782350E+03  0.31740989544E+03  0.11275326612E+04  0.12481096679E+04  0.10100000352E+00 0. -1.
</event>
<event>
 5   0  0.1254487E-04  0.1499564E+04  0.7818609E-02  0.8884743E-01
        2   -1    0    0  501    0  0.00000000000E+00  0.00000000000E+00  0.17669437695E+04  0.17669437695E+04  0.25500000920E-02 0.  1.
       -2   -1    0    0    0  501  0.00000000000E+00  0.00000000000E+00 -0.31816110187E+03  0.31816110188E+03  0.25500000920E-02 0. -1.
    10030    2    1    2    0    0  0.00000000000E+00  0.00000000000E+00  0.14487826676E+04  0.20851048714E+04  0.14995636387E+04 0.  0.
        5    1    3    3  502    0  0.20386420751E+03 -0.62121084688E+02  0.17239200550E+04  0.17370498237E+04  0.46999998093E+01 0.  1.
       -5    1    3    3    0  502 -0.20386420751E+03  0.62121084688E+02 -0.27513738734E+03  0.34805504762E+03  0.46999998093E+01 0. -1.
</event>
<event>
 5   0  0.1254487E-04  0.1496292E+04  0.7818609E-02  0.8886923E-01
        2   -1    0    0  501    0  0.00000000000E+00  0.00000000000E+00  0.12487358387E+04  0.12487358387E+04  0.25500000920E-02 0. -1.
       -2   -1    0    0    0  501  0.00000000000E+00  0.00000000000E+00 -0.44823117984E+03  0.44823117984E+03  0.25500000920E-02 0.  1.
    10030    2    1    2    0    0  0.00000000000E+00  0.00000000000E+00  0.80050465882E+03  0.16969670185E+04  0.14962918676E+04 0.  0.
        5    1    3    3  502    0  0.59012551510E+03  0.18227017991E+03  0.87904460108E+03  0.10743426096E+04  0.46999998093E+01 0. -1.
       -5    1    3    3    0  502 -0.59012551510E+03 -0.18227017991E+03 -0.78539942265E+02  0.62262440893E+03  0.46999998093E+01 0.  1.
</event>
<event>
 5   0  0.1186664E-04  0.1501522E+04  0.7818609E-02  0.8883442E-01
       -2   -1    0    0    0  501  0.00000000000E+00  0.00000000000E+00  0.32422181168E+03  0.32422181169E+03  0.25500000920E-02 0. -1.
        2   -1    0    0  501    0  0.00000000000E+00  0.00000000000E+00 -0.17384451913E+04  0.17384451913E+04  0.25500000920E-02 0.  1.
    10030    2    1    2    0    0  0.00000000000E+00  0.00000000000E+00 -0.14142233796E+04  0.20626670030E+04  0.15015216941E+04 0.  0.
        3    1    3    3  502    0  0.42407150868E+03 -0.61364889205E+03 -0.59022266035E+03  0.95119104610E+03  0.10100000352E+00 0.  1.
       -3    1    3    3    0  502 -0.42407150868E+03  0.61364889205E+03 -0.82400071929E+03  0.11114759569E+04  0.10100000352E+00 0. -1.
</event>
<event>
 5   0  0.6668433E-05  0.1497120E+04  0.7818609E-02  0.8886371E-01
       -1   -1    0    0    0  501  0.00000000000E+00  0.00000000000E+00  0.37339520580E+03  0.37339520583E+03  0.50400001928E-02 0.  1.
        1   -1    0    0  501    0  0.00000000000E+00  0.00000000000E+00 -0.15006668798E+04  0.15006668798E+04  0.50400001928E-02 0. -1.
    10030    2    1    2    0    0  0.00000000000E+00  0.00000000000E+00 -0.11272716740E+04  0.18740620856E+04  0.14971196592E+04 0.  0.
        1    1    3    3  502    0  0.56245979647E+03 -0.91600381099E+02 -0.11712194335E+04  0.13025001397E+04  0.50400001928E-02 0. -1.
       -1    1    3    3    0  502 -0.56245979647E+03  0.91600381099E+02  0.43947759500E+02  0.57156194595E+03  0.50400001928E-02 0.  1.
</event>
<event>
 5   0  0.6542036E-05  0.1502233E+04  0.7818609E-02  0.8882969E-01
        1   -1    0    0  501    0  0.00000000000E+00  0.00000000000E+00  0.40862423746E+03  0.40862423749E+03  0.50400001928E-02 0. -1.
       -1   -1    0    0    0  501  0.00000000000E+00  0.00000000000E+00 -0.13806715272E+04  0.13806715272E+04  0.50400001928E-02 0.  1.
    10030    2    1    2    0    0  0.00000000000E+00  0.00000000000E+00 -0.97204728975E+03  0.17892957647E+04  0.15022328049E+04 0.  0.
        4    1    3    3  502    0  0.16917813116E+03 -0.22132554600E+03  0.34481495257E+03  0.44328907249E+03  0.12699999809E+01 0. -1.
       -4    1    3    3    0  502 -0.16917813116E+03  0.22132554600E+03 -0.13168622423E+04  0.13460066922E+04  0.12699999809E+01 0.  1.
</event>
<event>
 5   0  0.6364378E-05  0.1494248E+04  0.7818609E-02  0.8888287E-01
       -1   -1    0    0    0  501  0.00000000000E+00  0.00000000000E+00  0.79162838812E+03  0.79162838814E+03  0.50400001928E-02 0.  1.
        1   -1    0    0  501    0  0.00000000000E+00  0.00000000000E+00 -0.70512127720E+03  0.70512127722E+03  0.50400001928E-02 0. -1.
    10030    2    1    2    0    0  0.00000000000E+00  0.00000000000E+00  0.86507110920E+02  0.14967496654E+04  0.14942476637E+04 0.  0.
        5    1    3    3  502    0  0.57061296496E+03 -0.37244300538E+03  0.35013067157E+03  0.76611130080E+03  0.46999998093E+01 0. -1.
       -5    1    3    3    0  502 -0.57061296496E+03  0.37244300538E+03 -0.26362356065E+03  0.73063836456E+03  0.46999998093E+01 0.  1.
</event>
<event>
 5   0  0.1228286E-04  0.1499269E+04  0.7818609E-02  0.8884939E-01
        2   -1    0    0  501    0  0.00000000000E+00  0.00000000000E+00  0.20958802653E+04  0.20958802653E+04  0.25500000920E-02 0. -1.
       -2   -1    0    0    0  501  0.00000000000E+00  0.00000000000E+00 -0.26812203868E+03  0.26812203869E+03  0.25500000920E-02 0.  1.
    10030    2    1    2    0    0  0.00000000000E+00  0.00000000000E+00  0.18277582267E+04  0.23640023040E+04  0.14992687412E+04 0.  0.
        2    1    3    3  502    0  0.78099670926E+02  0.22601302433E+03  0.20341299626E+04  0.20481372392E+04  0.25500000920E-02 0. -1.
       -2    1    3    3    0  502 -0.78099670926E+02 -0.22601302433E+03 -0.20637173596E+03  0.31586506483E+03  0.25500000920E-02 0.  1.
</event>
<event>
 5   0  0.6361716E-05  0.1498822E+04  0.7818609E-02  0.8885237E-01
        1   -1    0    0  501    0  0.00000000000E+00  0.00000000000E+00  0.13098787945E+04  0.13098787945E+04  0.50400001928E-02 0.  1.
       -1   -1    0    0    0  501  0.00000000000E+00  0.00000000000E+00 -0.42875493232E+03  0.42875493235E+03  0.50400001928E-02 0. -1.
    10030    2    1    2    0    0  0.00000000000E+00  0.00000000000E+00  0.88112386221E+03  0.17386337269E+04  0.14988221962E+04 0.  0.
        3    1    3    3  502    0  0.47185901201E+03 -0.97697974667E+02  0.11063465099E+04  0.12067304719E+04  0.10100000352E+00 0.  1.
       -3    1    3    3    0  502 -0.47185901201E+03  0.97697974667E+02 -0.22522264773E+03  0.53190325504E+03  0.10100000352E+00 0. -1.
</event>
<event>
 5   0  0.6542036E-05  0.1503134E+04  0.7818609E-02  0.8882372E-01
        1   -1    0    0  501    0  0.00000000000E+00  0.00000000000E+00  0.95729377635E+03  0.95729377636E+03  0.50400001928E-02 0.  1.
       -1   -1    0    0    0  501  0.00000000000E+00  0.00000000000E+00 -0.59005183777E+03  0.59005183779E+03  0.50400001928E-02 0. -1.
    10030    2    1    2    0    0  0.00000000000E+00  0.00000000000E+00  0.36724193858E+03  0.15473456142E+04  0.15031339954E+04 0.  0.
        4    1    3    3  502    0  0.15730914989E+03 -0.37344372680E+03  0.83520355616E+03  0.92831728350E+03  0.12699999809E+01 0.  1.
       -4    1    3    3    0  502 -0.15730914989E+03  0.37344372680E+03 -0.46796161758E+03  0.61902833065E+03  0.12699999809E+01 0. -1.
</event>
<event>
 5   0  0.1216921E-04  0.1501028E+04  0.7818609E-02  0.8883769E-01
       -2   -1    0    0    0  501  0.00000000000E+00  0.00000000000E+00  0.10077961276E+04  0.10077961276E+04  0.25500000920E-02 0. -1.
        2   -1    0    0  501    0  0.00000000000E+00  0.00000000000E+00 -0.55891418550E+03  0.55891418551E+03  0.25500000920E-02 0.  1.
    10030    2    1    2    0    0  0.00000000000E+00  0.00000000000E+00  0.44888194214E+03  0.15667103132E+04  0.15010283833E+04 0.  0.
        4    1    3    3  502    0 -0.10703374421E+03  0.17313105543E+03  0.97843552986E+03  0.99938395212E+03  0.12699999809E+01 0. -1.
       -4    1    3    3    0  502  0.10703374421E+03 -0.17313105543E+03 -0.52955358772E+03  0.56732636104E+03  0.12699999809E+01 0.  1.
</event>
<event>
 5   0  0.6542036E-05  0.1502637E+04  0.7818609E-02  0.8882701E-01
        1   -1    0    0  501    0  0.00000000000E+00  0.00000000000E+00  0.23051929228E+04  0.23051929228E+04  0.50400001928E-02 0. -1.
       -1   -1    0    0    0  501  0.00000000000E+00  0.00000000000E+00 -0.24487290672E+03  0.24487290677E+03  0.50400001928E-02 0.  1.
    10030    2    1    2    0    0  0.00000000000E+00  0.00000000000E+00  0.20603200160E+04  0.25500658295E+04  0.15026367380E+04 0.  0.
        4    1    3    3  502    0 -0.72885609106E+02  0.74699223915E+03  0.10881578221E+04  0.13218921197E+04  0.12699999809E+01 0. -1.
       -4    1    3    3    0  502  0.72885609106E+02 -0.74699223915E+03  0.97216219395E+03  0.12281737099E+04  0.12699999809E+01 0.  1.
</event>
<event>
 5   0  0.6542036E-05  0.1497216E+04  0.7818609E-02  0.8886307E-01
       -1   -1    0    0    0  501  0.00000000000E+00  0.00000000000E+00  0.64570167220E+03  0.64570167222E+03  0.50400001928E-02 0.  1.
        1   -1    0    0  501    0  0.00000000000E+00  0.00000000000E+00 -0.86791417399E+03  0.86791417400E+03  0.50400001928E-02 0. -1.
    10030    2    1    2    0    0  0.00000000000E+00  0.00000000000E+00 -0.22221250179E+03  0.15136158462E+04  0.14972155937E+04 0.  0.
        4    1    3    3  502    0 -0.19840440604E+03  0.28932029640E+03 -0.77966820478E+03  0.85495886725E+03  0.12699999809E+01 0. -1.
       -4    1    3    3    0  502  0.19840440604E+03 -0.28932029640E+03  0.55745570299E+03  0.65865697897E+03  0.12699999809E+01 0.  1.
</event>
<event>
 5   0  0.6668433E-05  0.1498813E+04  0.7818609E-02  0.8885243E-01
       -1   -1    0    0    0  501  0.00000000000E+00  0.00000000000E+00  0.92153626971E+03  0.92153626972E+03  0.50400001928E-02 0.  1.
        1   -1    0    0  501    0  0.00000000000E+00  0.00000000000E+00 -0.60942799759E+03  0.60942799761E+03  0.50400001928E-02 0. -1.
    10030    2    1    2    0    0  0.00000000000E+00  0.00000000000E+00  0.31210827212E+03  0.15309642673E+04  0.14988128683E+04 0.  0.
        1    1    3    3  502    0 -0.66893687194E+03  0.26487352058E+03  0.37025585436E+03  0.80915012097E+03  0.50400001928E-02 0.  1.
       -1    1    3    3    0  502  0.66893687194E+03 -0.26487352058E+03 -0.58147582244E+02  0.72181414636E+03  0.50400001928E-02 0. -1.
</event>
<event>
 5   0  0.1219810E-04  0.1505915E+04  0.7818609E-02  0.8880529E-01
        2   -1    0    0  501    0  0.00000000000E+00  0.00000000000E+00  0.10461021609E+04  0.10461021609E+04  0.25500000920E-02 0. -1.
       -2   -1    0    0    0  501  0.00000000000E+00  0.00000000000E+00 -0.54195916034E+03  0.54195916035E+03  0.25500000920E-02 0.  1.
    10030    2    1    2    0    0  0.00000000000E+00  0.00000000000E+00  0.50414300059E+03  0.15880613213E+04  0.15059145378E+04 0.  0.
        1    1    3    3  502    0  0.39481450805E+03  0.63596003432E+02 -0.42071260870E+03  0.58044986568E+03  0.50400001928E-02 0.  1.
       -1    1    3    3    0  502 -0.39481450805E+03 -0.63596003432E+02  0.92485560929E+03  0.10076114556E+04  0.50400001928E-02 0. -1.
</event>
<event>
 5   0  0.6361716E-05  0.1500345E+04  0.7818609E-02  0.8884224E-01
       -1   -1    0    0    0  501  0.00000000000E+00  0.00000000000E+00  0.76683657290E+03  0.76683657292E+03  0.50400001928E-02 0.  1.
        1   -1    0    0  501    0  0.00000000000E+00  0.00000000000E+00 -0.73387059628E+03  0.73387059630E+03  0.50400001928E-02 0. -1.
    10030    2    1    2    0    0  0.00000000000E+00  0.00000000000E+00  0.32965976624E+02  0.15007071692E+04  0.15003450444E+04 0.  0.
        3    1    3    3  502    0 -0.61575113829E+03  0.23807206294E+03  0.37284279410E+03  0.75818172675E+03  0.10100000352E+00 0.  1.
       -3    1    3    3    0  502  0.61575113829E+03 -0.23807206294E+03 -0.33987681747E+03  0.74252544247E+03  0.10100000352E+00 0. -1.
</event>
<event>
 5   0  0.1228286E-04  0.1493890E+04  0.7818609E-02  0.8888526E-01
       -2   -1    0    0    0  501  0.00000000000E+00  0.00000000000E+00  0.22559939337E+03  0.22559939338E+03  0.25500000920E-02 0. -1.
        2   -1    0    0  501    0  0.00000000000E+00  0.00000000000E+00 -0.24730853083E+04  0.24730853083E+04  0.25500000920E-02 0.  1.
    10030    2    1    2    0    0  0.00000000000E+00  0.00000000000E+00 -0.22474859149E+04  0.26986847017E+04  0.14938896148E+04 0.  0.
        2    1    3    3  502    0  0.40022191092E+03  0.23035574089E+03 -0.63159235876E+02  0.46607985842E+03  0.25500000920E-02 0. -1.
       -2    1    3    3    0  502 -0.40022191092E+03 -0.23035574089E+03 -0.21843266790E+04  0.22326048432E+04  0.25500000920E-02 0.  1.
</event>
<event>
 5   0  0.1186664E-04  0.1500633E+04  0.7818609E-02  0.8884032E-01
        2   -1    0    0  501    0  0.00000000000E+00  0.00000000000E+00  0.95196847621E+03  0.95196847622E+03  0.25500000920E-02 0. -1.
       -2   -1    0    0    0  501  0.00000000000E+00  0.00000000000E+00 -0.59137948287E+03  0.59137948288E+03  0.25500000920E-02 0.  1.
    10030    2    1    2    0    0  0.00000000000E+00  0.00000000000E+00  0.36058899334E+03  0.15433479591E+04  0.15006327001E+04 0.  0.
        3    1    3    3  502    0 -0.59954802592E+03  0.27108658133E+03  0.55115390283E+03  0.85832185383E+03  0.10100000352E+00 0. -1.
       -3    1    3    3    0  502  0.59954802592E+03 -0.27108658133E+03 -0.19056490949E+03  0.68502610526E+03  0.10100000352E+00 0.  1.
</event>
<event>
 5   0  0.6364378E-05  0.1500470E+04  0.7818609E-02  0.8884141E-01
       -1   -1    0    0    0  501  0.00000000000E+00  0.00000000000E+00  0.63117790003E+03  0.63117790005E+03  0.50400001928E-02 0.  1.
        1   -1    0    0  501    0  0.00000000000E+00  0.00000000000E+00 -0.89174924649E+03  0.89174924651E+03  0.50400001928E-02 0. -1.
    10030    2    1    2    0    0  0.00000000000E+00  0.00000000000E+00 -0.26057134647E+03  0.15229271466E+04  0.15004698155E+04 0.  0.
        5    1    3    3  502    0 -0.97527260054E+02  0.59060854750E+03  0.32869969786E+03  0.68293162483E+03  0.46999998093E+01 0.  1.
       -5    1    3    3    0  502  0.97527260054E+02 -0.59060854750E+03 -0.58927104433E+03  0.83999552172E+03  0.46999998093E+01 0. -1.
</event>
<event>
 5   0  0.1216921E-04  0.1500772E+04  0.7818609E-02  0.8883940E-01
        2   -1    0    0  501    0  0.00000000000E+00  0.00000000000E+00  0.85807146649E+03  0.85807146650E+03  0.25500000920E-02 0. -1.
       -2   -1    0    0    0  501  0.00000000000E+00  0.00000000000E+00 -0.65621445306E+03  0.65621445306E+03  0.25500000920E-02 0.  1.
    10030    2    1    2    0    0  0.00000000000E+00  0.00000000000E+00  0.20185701343E+03  0.15142859196E+04  0.15007716656E+04 0.  0.
        4    1    3    3  502    0  0.36212813765E+03 -0.57170101486E+03 -0.22617967817E+03  0.71353885542E+03  0.12699999809E+01 0.  1.
       -4    1    3    3    0  502 -0.36212813765E+03  0.57170101486E+03  0.42803669160E+03  0.80074706414E+03  0.12699999809E+01 0. -1.
</event>
<event>
 5   0  0.1216921E-04  0.1500409E+04  0.7818609E-02  0.8884181E-01
        2   -1    0    0  501    0  0.00000000000E+00  0.00000000000E+00  0.10689813462E+04  0.10689813462E+04  0.25500000920E-02 0.  1.
       -2   -1    0    0    0  501  0.00000000000E+00  0.00000000000E+00 -0.52648874626E+03  0.52648874626E+03  0.25500000920E-02 0. -1.
    10030    2    1    2    0    0  0.00000000000E+00  0.00000000000E+00  0.54249259996E+03  0.15954700925E+04  0.15004088093E+04 0.  0.
        4    1    3    3  502    0  0.10776628993E+03  0.17385840827E+03 -0.49626224200E+03  0.53676637852E+03  0.12699999809E+01 0. -1.
       -4    1    3    3    0  502 -0.10776628993E+03 -0.17385840827E+03  0.10387548420E+04  0.10587037140E+04  0.12699999809E+01 0.  1.
</event>
<event>
 5   0  0.1228286E-04  0.1492283E+04  0.7818609E-02  0.8889601E-01
       -2   -1    0    0    0  501  0.00000000000E+00  0.00000000000E+00  0.10040809738E+04  0.10040809739E+04  0.25500000920E-02 0.  1.
        2   -1    0    0  501    0  0.00000000000E+00  0.00000000000E+00 -0.55446417724E+03  0.55446417724E+03  0.25500000920E-02 0. -1.
    10030    2    1    2    0    0  0.00000000000E+00  0.00000000000E+00  0.44961679661E+03  0.15585451511E+04  0.14922827226E+04 0.  0.
        2    1    3    3  502    0 -0.16129595709E+03 -0.72642848911E+03  0.16748791369E+03  0.76273647927E+03  0.25500000920E-02 0. -1.
       -2    1    3    3    0  502  0.16129595709E+03  0.72642848911E+03  0.28212888292E+03  0.79580867183E+03  0.25500000920E-02 0.  1.
</event>
<event>
 5   0  0.6364378E-05  0.1491705E+04  0.7818609E-02  0.8889988E-01
       -1   -1    0    0    0  501  0.00000000000E+00  0.00000000000E+00  0.65143496150E+03  0.65143496152E+03  0.50400001928E-02 0.  1.
        1   -1    0    0  501    0  0.00000000000E+00  0.00000000000E+00 -0.85395503354E+03  0.85395503356E+03  0.50400001928E-02 0. -1.
    10030    2    1    2    0    0  0.00000000000E+00  0.00000000000E+00 -0.20252007204E+03  0.15053899951E+04  0.14917052851E+04 0.  0.
        5    1    3    3  502    0 -0.51804411435E+03  0.48400462716E+02 -0.64054216156E+03  0.82524460613E+03  0.46999998093E+01 0. -1.
       -5    1    3    3    0  502  0.51804411435E+03 -0.48400462716E+02  0.43802208952E+03  0.68014538895E+03  0.46999998093E+01 0.  1.
</event>
<event>
 5   0  0.1186664E-04  0.1500078E+04  0.7818609E-02  0.8884401E-01
       -2   -1    0    0    0  501  0.00000000000E+00  0.00000000000E+00  0.12930728276E+04  0.12930728276E+04  0.25500000920E-02 0. -1.
        2   -1    0    0  501    0  0.00000000000E+00  0.00000000000E+00 -0.43505538861E+03  0.43505538862E+03  0.25500000920E-02 0.  1.
    10030    2    1    2    0    0  0.00000000000E+00  0.00000000000E+00  0.85801743898E+03  0.17281282162E+04  0.15000777334E+04 0.  0.
        3    1    3    3  502    0 -0.14912904732E+02 -0.20446961255E+03 -0.40215059366E+03  0.45139265320E+03  0.10100000352E+00 0.  1.
       -3    1    3    3    0  502  0.14912904732E+02  0.20446961255E+03  0.12601680326E+04  0.12767355630E+04  0.10100000352E+00 0. -1.
</event>
<event>
 5   0  0.4462875E-05  0.1496664E+04  0.7818609E-02  0.8886674E-01
       -3   -1    0    0    0  501  0.00000000000E+00  0.00000000000E+00  0.38204773499E+03  0.38204774834E+03  0.10100000352E+00 0.  1.
        3   -1    0    0  501    0  0.00000000000E+00  0.00000000000E+00 -0.14657870248E+04  0.14657870282E+04  0.10100000352E+00 0. -1.
    10030    2    1    2    0    0  0.00000000000E+00  0.00000000000E+00 -0.10837392898E+04  0.18478347766E+04  0.14966637944E+04 0.  0.
        1    1    3    3  502    0  0.70795356137E+03 -0.48278333168E+02 -0.24847385655E+03  0.75184326819E+03  0.50400001928E-02 0.  1.
       -1    1    3    3    0  502 -0.70795356137E+03  0.48278333168E+02 -0.83526543321E+03  0.10959915084E+04  0.50400001928E-02 0. -1.
</event>
<event>
 5   0  0.6361716E-05  0.1499119E+04  0.7818609E-02  0.8885039E-01
        1   -1    0    0  501    0  0.00000000000E+00  0.00000000000E+00  0.67216178144E+03  0.67216178146E+03  0.50400001928E-02 0.  1.
       -1   -1    0    0    0  501  0.00000000000E+00  0.00000000000E+00 -0.83586929014E+03  0.83586929016E+03  0.50400001928E-02 0. -1.
    10030    2    1    2    0    0  0.00000000000E+00  0.00000000000E+00 -0.16370750870E+03  0.15080310716E+04  0.14991189294E+04 0.  0.
        3    1    3    3  502    0  0.64810399822E+03  0.23050092500E+02 -0.45994626101E+03  0.79506016910E+03  0.10100000352E+00 0. -1.
       -3    1    3    3    0  502 -0.64810399822E+03 -0.23050092500E+02  0.29623875231E+03  0.71297090252E+03  0.10100000352E+00 0.  1.
</event>
<event>
 5   0  0.4462875E-05  0.1503458E+04  0.7818609E-02  0.8882157E-01
       -3   -1    0    0    0  501  0.00000000000E+00  0.00000000000E+00  0.43380830903E+03  0.43380832079E+03  0.10100000352E+00 0.  1.
        3   -1    0    0  501    0  0.00000000000E+00  0.00000000000E+00 -0.13026402370E+04  0.13026402409E+04  0.10100000352E+00 0. -1.
    10030    2    1    2    0    0  0.00000000000E+00  0.00000000000E+00 -0.86883192792E+03  0.17364485617E+04  0.15034575778E+04 0.  0.
        3    1    3    3  502    0 -0.85194133387E+02  0.64577658824E+03 -0.10162668984E+01  0.65137276983E+03  0.10100000352E+00 0.  1.
       -3    1    3    3    0  502  0.85194133387E+02 -0.64577658824E+03 -0.86781566103E+03  0.10850757918E+04  0.10100000352E+00 0. -1.
</event>
<event>
 5   0  0.1216921E-04  0.1499943E+04  0.7818609E-02  0.8884491E-01
       -2   -1    0    0    0  501  0.00000000000E+00  0.00000000000E+00  0.46164249277E+03  0.46164249278E+03  0.25500000920E-02 0.  1.
        2   -1    0    0  501    0  0.00000000000E+00  0.00000000000E+00 -0.12183825318E+04  0.12183825318E+04  0.25500000920E-02 0. -1.
    10030    2    1    2    0    0  0.00000000000E+00  0.00000000000E+00 -0.75674003907E+03  0.16800250246E+04  0.14999428645E+04 0.  0.
        4    1    3    3  502    0  0.67896780713E+03  0.27950425381E+03 -0.54947031331E+03  0.91708186610E+03  0.12699999809E+01 0. -1.
       -4    1    3    3    0  502 -0.67896780713E+03 -0.27950425381E+03 -0.20726972576E+03  0.76294315852E+03  0.12699999809E+01 0.  1.
</event>
<event>
 5   0  0.6542036E-05  0.1497893E+04  0.7818609E-02  0.8885855E-01
       -1   -1    0    0    0  501  0.00000000000E+00  0.00000000000E+00  0.18974061990E+04  0.18974061990E+04  0.50400001928E-02 0.  1.
        1   -1    0    0  501    0  0.00000000000E+00  0.00000000000E+00 -0.29562522653E+03  0.29562522657E+03  0.50400001928E-02 0. -1.
    10030    2    1    2    0    0  0.00000000000E+00  0.00000000000E+00  0.16017809725E+04  0.21930314256E+04  0.14978933706E+04 0.  0.
        4    1    3    3  502    0  0.53297214197E+03 -0.52411129740E+03  0.86905374733E+03  0.11463018733E+04  0.12699999809E+01 0.  1.
       -4    1    3    3    0  502 -0.53297214197E+03  0.52411129740E+03  0.73272722519E+03  0.10467295523E+04  0.12699999809E+01 0. -1.
</event>
<event>
 5   0  0.6361716E-05  0.1500335E+04  0.7818609E-02  0.8884230E-01
        1   -1    0    0  501    0  0.00000000000E+00  0.00000000000E+00  0.10371750861E+04  0.10371750861E+04  0.50400001928E-02 0. -1.
       -1   -1    0    0    0  501  0.00000000000E+00  0.00000000000E+00 -0.54258065465E+03  0.54258065467E+03  0.50400001928E-02 0.  1.
    10030    2    1    2    0    0  0.00000000000E+00  0.00000000000E+00  0.49459443144E+03  0.15797557408E+04  0.15003348123E+04 0.  0.
        3    1    3    3  502    0  0.37351727611E+03  0.38270446930E+03 -0.30664418009E+03  0.61644831881E+03  0.10100000352E+00 0.  1.
       -3    1    3    3    0  502 -0.37351727611E+03 -0.38270446930E+03  0.80123861153E+03  0.96330742196E+03  0.10100000352E+00 0. -1.
</event>
<event>
 5   0  0.1228286E-04  0.1501192E+04  0.7818609E-02  0.8883661E-01
        2   -1    0    0  501    0  0.00000000000E+00  0.00000000000E+00  0.15171321056E+04  0.15171321056E+04  0.25500000920E-02 0.  1.
       -2   -1    0    0    0  501  0.00000000000E+00  0.00000000000E+00 -0.37135479158E+03  0.37135479159E+03  0.25500000920E-02 0. -1.
    10030    2    1    2    0    0  0.00000000000E+00  0.00000000000E+00  0.11457773140E+04  0.18884868972E+04  0.15011918956E+04 0.  0.
        2    1    3    3  502    0  0.61232026492E+03 -0.42571621899E+03  0.67980959334E+03  0.10091142102E+04  0.25500000920E-02 0. -1.
       -2    1    3    3    0  502 -0.61232026492E+03  0.42571621899E+03  0.46596772065E+03  0.87937268700E+03  0.25500000920E-02 0.  1.
</event>
<event>
 5   0  0.6361716E-05  0.1499468E+04  0.7818609E-02  0.8884806E-01
       -1   -1    0    0    0  501  0.00000000000E+00  0.00000000000E+00  0.73055173983E+03  0.73055173985E+03  0.50400001928E-02 0.  1.
        1   -1    0    0  501    0  0.00000000000E+00  0.00000000000E+00 -0.76942040523E+03  0.76942040525E+03  0.50400001928E-02 0. -1.
    10030    2    1    2    0    0  0.00000000000E+00  0.00000000000E+00 -0.38868665407E+02  0.14999721451E+04  0.14994684601E+04 0.  0.
        3    1    3    3  502    0 -0.49915753590E+03  0.51427593269E+03 -0.23965238149E+03  0.75569256629E+03  0.10100000352E+00 0. -1.
       -3    1    3    3    0  502  0.49915753590E+03 -0.51427593269E+03  0.20078371608E+03  0.74427957881E+03  0.10100000352E+00 0.  1.
</event>
<event>
 5   0  0.1219810E-04  0.1497323E+04  0.7818609E-02  0.8886235E-01
        2   -1    0    0  501    0  0.00000000000E+00  0.00000000000E+00  0.84329367203E+03  0.84329367203E+03  0.25500000920E-02 0.  1.
       -2   -1    0    0    0  501  0.00000000000E+00  0.00000000000E+00 -0.66464889263E+03  0.66464889263E+03  0.25500000920E-02 0. -1.
    10030    2    1    2    0    0  0.00000000000E+00  0.00000000000E+00  0.17864477940E+03  0.15079425647E+04  0.14973232187E+04 0.  0.
        1    1    3    3  502    0 -0.10641125493E+03  0.23915399107E+03  0.79570710939E+03  0.83765612908E+03  0.50400001928E-02 0.  1.
       -1    1    3    3    0  502  0.10641125493E+03 -0.23915399107E+03 -0.61706232999E+03  0.67028643559E+03  0.50400001928E-02 0. -1.
</event>
<event>
 5   0  0.1219810E-04  0.1502824E+04  0.7818609E-02  0.8882577E-01
       -2   -1    0    0    0  501  0.00000000000E+00  0.00000000000E+00  0.54061700675E+03  0.54061700675E+03  0.25500000920E-02 0.  1.
        2   -1    0    0  501    0  0.00000000000E+00  0.00000000000E+00 -0.10443994270E+04  0.10443994270E+04  0.25500000920E-02 0. -1.
    10030    2    1    2    0    0  0.00000000000E+00  0.00000000000E+00 -0.50378242028E+03  0.15850164338E+04  0.15028241309E+04 0.  0.
        1    1    3    3  502    0 -0.28932955212E+03  0.52267319386E+02 -0.98121399704E+03  0.10243165382E+04  0.50400001928E-02 0. -1.
       -1    1    3    3    0  502  0.28932955212E+03 -0.52267319386E+02  0.47743157676E+03  0.56069989559E+03  0.50400001928E-02 0.  1.
</event>
<event>
 5   0  0.1186664E-04  0.1493075E+04  0.7818609E-02  0.8889071E-01
        2   -1    0    0  501    0  0.00000000000E+00  0.00000000000E+00  0.17154470038E+04  0.17154470038E+04  0.25500000920E-02 0.  1.
       -2   -1    0    0    0  501  0.00000000000E+00  0.00000000000E+00 -0.32488222246E+03  0.32488222247E+03  0.25500000920E-02 0. -1.
    10030    2    1    2    0    0  0.00000000000E+00  0.00000000000E+00  0.13905647814E+04  0.20403292263E+04  0.14930749949E+04 0.  0.
        3    1    3    3  502    0  0.16024566772E+03 -0.57447998576E+03  0.81693995767E+02  0.60197993921E+03  0.10100000352E+00 0. -1.
       -3    1    3    3    0  502 -0.16024566772E+03  0.57447998576E+03  0.13088707856E+04  0.14383492871E+04  0.10100000352E+00 0.  1.
</event>
<event>
 5   0  0.1186664E-04  0.1500847E+04  0.7818609E-02  0.8883890E-01
        2   -1    0    0  501    0  0.00000000000E+00  0.00000000000E+00  0.21000792262E+04  0.21000792262E+04  0.25500000920E-02 0. -1.
       -2   -1    0    0    0  501  0.00000000000E+00  0.00000000000E+00 -0.26814974404E+03  0.26814974405E+03  0.25500000920E-02 0.  1.
    10030    2    1    2    0    0  0.00000000000E+00  0.00000000000E+00  0.18319294822E+04  0.23682289703E+04  0.15008473700E+04 0.  0.
        3    1    3    3  502    0 -0.29715863160E+03 -0.59347615666E+03  0.14685065604E+04  0.16115299343E+04  0.10100000352E+00 0. -1.
       -3    1    3    3    0  502  0.29715863160E+03  0.59347615666E+03  0.36342292178E+03  0.75669903603E+03  0.10100000352E+00 0.  1.
</event>
<event>
 5   0  0.1254487E-04  0.1498039E+04  0.7818609E-02  0.8885758E-01
       -2   -1    0    0    0  501  0.00000000000E+00  0.00000000000E+00  0.35146327423E+03  0.35146327424E+03  0.25500000920E-02 0.  1.
        2   -1    0    0  501    0  0.00000000000E+00  0.00000000000E+00 -0.15962697241E+04  0.15962697241E+04  0.25500000920E-02 0. -1.
    10030    2    1    2    0    0  0.00000000000E+00  0.00000000000E+00 -0.12448064498E+04  0.19477329983E+04  0.14980389632E+04 0.  0.
        5    1    3    3  502    0  0.13481173365E+03  0.26993928033E+03 -0.15137359353E+04  0.15435219436E+04  0.46999998093E+01 0. -1.
       -5    1    3    3    0  502 -0.13481173365E+03 -0.26993928033E+03  0.26892948546E+03  0.40421105470E+03  0.46999998093E+01 0.  1.
</event>
<event>
 5   0  0.6361716E-05  0.1500708E+04  0.7818609E-02  0.8883982E-01
        1   -1    0    0  501    0  0.00000000000E+00  0.00000000000E+00  0.96084851496E+03  0.96084851497E+03  0.50400001928E-02 0. -1.
       -1   -1    0    0    0  501  0.00000000000E+00  0.00000000000E+00 -0.58597261236E+03  0.58597261238E+03  0.50400001928E-02 0.  1.
    10030    2    1    2    0    0  0.00000000000E+00  0.00000000000E+00  0.37487590260E+03  0.15468211274E+04  0.15007077189E+04 0.  0.
        3    1    3    3  502    0 -0.17869264103E+03 -0.43947501342E+03  0.78664598852E+03  0.91863010447E+03  0.10100000352E+00 0. -1.
       -3    1    3    3    0  502  0.17869264103E+03  0.43947501342E+03 -0.41177008592E+03  0.62819102289E+03  0.10100000352E+00 0.  1.
</event>
<event>
 5   0  0.6542036E-05  0.1525812E+04  0.7818609E-02  0.8867468E-01
        1   -1    0    0  501    0  0.00000000000E+00  0.00000000000E+00  0.92934034122E+03  0.92934034123E+03  0.50400001928E-02 0.  1.
       -1   -1    0    0    0  501  0.00000000000E+00  0.00000000000E+00 -0.62627784660E+03  0.62627784662E+03  0.50400001928E-02 0. -1.
    10030    2    1    2    0    0  0.00000000000E+00  0.00000000000E+00  0.30306249462E+03  0.15556181879E+04  0.15258116105E+04 0.  0.
        4    1    3    3  502    0  0.81450756027E+01  0.42114006686E+03 -0.49697498494E+03  0.65146837739E+03  0.12699999809E+01 0. -1.
       -4    1    3    3    0  502 -0.81450756027E+01 -0.42114006686E+03  0.80003747956E+03  0.90414981047E+03  0.12699999809E+01 0.  1.
</event>
<event>
 5   0  0.1216921E-04  0.1499816E+04  0.7818609E-02  0.8884575E-01
        2   -1    0    0  501    0  0.00000000000E+00  0.00000000000E+00  0.24148947523E+04  0.24148947523E+04  0.25500000920E-02 0.  1.
       -2   -1    0    0    0  501  0.00000000000E+00  0.00000000000E+00 -0.23287232078E+03  0.23287232080E+03  0.25500000920E-02 0. -1.
    10030    2    1    2    0    0  0.00000000000E+00  0.00000000000E+00  0.21820224315E+04  0.26477670731E+04  0.14998161826E+04 0.  0.
        4    1    3    3  502    0  0.93621451035E+02  0.20136806483E+02  0.24040541529E+04  0.24059610242E+04  0.12699999809E+01 0.  1.
       -4    1    3    3    0  502 -0.93621451035E+02 -0.20136806483E+02 -0.22203172139E+03  0.24180604888E+03  0.12699999809E+01 0. -1.
</event>
<event>
 5   0  0.6361716E-05  0.1542240E+04  0.7818609E-02  0.8856839E-01
        1   -1    0    0  501    0  0.00000000000E+00  0.00000000000E+00  0.25303023691E+04  0.25303023691E+04  0.50400001928E-02 0. -1.
       -1   -1    0    0    0  501  0.00000000000E+00  0.00000000000E+00 -0.23500211259E+03  0.23500211265E+03  0.50400001928E-02 0.  1.
    10030    2    1    2    0    0  0.00000000000E+00  0.00000000000E+00  0.22953002565E+04  0.27653044817E+04  0.15422404512E+04 0.  0.
        3    1    3    3  502    0  0.11255747951E+03  0.65486462879E+03  0.44604626694E+03  0.80029628931E+03  0.10100000352E+00 0. -1.
       -3    1    3    3    0  502 -0.11255747951E+03 -0.65486462879E+03  0.18492539895E+04  0.19650081924E+04  0.10100000352E+00 0.  1.
</event>
<event>
 5   0  0.6509279E-05  0.1502217E+04  0.7818609E-02  0.8882980E-01
       -1   -1    0    0    0  501  0.00000000000E+00  0.00000000000E+00  0.79564825300E+03  0.79564825302E+03  0.50400001928E-02 0.  1.
        1   -1    0    0  501    0  0.00000000000E+00  0.00000000000E+00 -0.70906196778E+03  0.70906196779E+03  0.50400001928E-02 0. -1.
    10030    2    1    2    0    0  0.00000000000E+00  0.00000000000E+00  0.86586285225E+02  0.15047102208E+04  0.15022169164E+04 0.  0.
        2    1    3    3  502    0 -0.24692172424E+03  0.70055360340E+03 -0.68328913120E+02  0.74593198719E+03  0.25500000920E-02 0.  1.
       -2    1    3    3    0  502  0.24692172424E+03 -0.70055360340E+03  0.15491519835E+03  0.75877823362E+03  0.25500000920E-02 0. -1.
</event>
<event>
 5   0  0.6364378E-05  0.1498650E+04  0.7818609E-02  0.8885351E-01
        1   -1    0    0  501    0  0.00000000000E+00  0.00000000000E+00  0.14099874725E+04  0.14099874725E+04  0.50400001928E-02 0. -1.
       -1   -1    0    0    0  501  0.00000000000E+00  0.00000000000E+00 -0.39822176544E+03  0.39822176547E+03  0.50400001928E-02 0.  1.
    10030    2    1    2    0    0  0.00000000000E+00  0.00000000000E+00  0.10117657071E+04  0.18082092380E+04  0.14986496597E+04 0.  0.
        5    1    3    3  502    0 -0.41203621173E+02  0.66134577710E+03  0.92798823073E+03  0.11402895341E+04  0.46999998093E+01 0.  1.
       -5    1    3    3    0  502  0.41203621173E+02 -0.66134577710E+03  0.83777476350E+02  0.66791970387E+03  0.46999998093E+01 0. -1.
</event>
<event>
 5   0  0.6361716E-05  0.1501901E+04  0.7818609E-02  0.8883190E-01
        1   -1    0    0  501    0  0.00000000000E+00  0.00000000000E+00  0.19613797527E+04  0.19613797527E+04  0.50400001928E-02 0.  1.
       -1   -1    0    0    0  501  0.00000000000E+00  0.00000000000E+00 -0.28751519171E+03  0.28751519175E+03  0.50400001928E-02 0. -1.
    10030    2    1    2    0    0  0.00000000000E+00  0.00000000000E+00  0.16738645610E+04  0.22488949444E+04  0.15019007632E+04 0.  0.
        3    1    3    3  502    0  0.16733816731E+03  0.21691733573E+03 -0.21001590618E+03  0.34519832536E+03  0.10100000352E+00 0. -1.
       -3    1    3    3    0  502 -0.16733816731E+03 -0.21691733573E+03  0.18838804671E+04  0.19036966191E+04  0.10100000352E+00 0.  1.
</event>
<event>
 5   0  0.6364378E-05  0.1500420E+04  0.7818609E-02  0.8884173E-01
        1   -1    0    0  501    0  0.00000000000E+00  0.00000000000E+00  0.90675175747E+03  0.90675175748E+03  0.50400001928E-02 0.  1.
       -1   -1    0    0    0  501  0.00000000000E+00  0.00000000000E+00 -0.62069401596E+03  0.62069401598E+03  0.50400001928E-02 0. -1.
    10030    2    1    2    0    0  0.00000000000E+00  0.00000000000E+00  0.28605774151E+03  0.15274457735E+04  0.15004204609E+04 0.  0.
        5    1    3    3  502    0 -0.20323637317E+03  0.32107321597E+03  0.80151828760E+03  0.88704379191E+03  0.46999998093E+01 0.  1.
       -5    1    3    3    0  502  0.20323637317E+03 -0.32107321597E+03 -0.51546054610E+03  0.64040198156E+03  0.46999998093E+01 0. -1.
</event>
<event>
 5   0  0.6509279E-05  0.1498741E+04  0.7818609E-02  0.8885291E-01
       -1   -1    0    0    0  501  0.00000000000E+00  0.00000000000E+00  0.63749504676E+03  0.63749504678E+03  0.50400001928E-02 0. -1.
        1   -1    0    0  501    0  0.00000000000E+00  0.00000000000E+00 -0.88087882607E+03  0.88087882608E+03  0.50400001928E-02 0.  1.
    10030    2    1    2    0    0  0.00000000000E+00  0.00000000000E+00 -0.24338377931E+03  0.15183738729E+04  0.14987406559E+04 0.  0.
        2    1    3    3  502    0  0.36540137537E+03 -0.42425799493E+03  0.38287135838E+03  0.67830928673E+03  0.25500000920E-02 0. -1.
       -2    1    3    3    0  502 -0.36540137537E+03  0.42425799493E+03 -0.62625513769E+03  0.84006458613E+03  0.25500000920E-02 0.  1.
</event>
<event>
 5   0  0.6509279E-05  0.1502388E+04  0.7818609E-02  0.8882866E-01
        1   -1    0    0  501    0  0.00000000000E+00  0.00000000000E+00  0.90478826760E+03  0.90478826761E+03  0.50400001928E-02 0. -1.
       -1   -1    0    0    0  501  0.00000000000E+00  0.00000000000E+00 -0.62367376698E+03  0.62367376701E+03  0.50400001928E-02 0.  1.
    10030    2    1    2    0    0  0.00000000000E+00  0.00000000000E+00  0.28111450061E+03  0.15284620346E+04  0.15023883748E+04 0.  0.
        2    1    3    3  502    0 -0.38396493055E+03  0.44209951610E+03 -0.33815295118E+03  0.67618671122E+03  0.25500000920E-02 0.  1.
       -2    1    3    3    0  502  0.38396493055E+03 -0.44209951610E+03  0.61926745179E+03  0.85227532340E+03  0.25500000920E-02 0. -1.
</event>
<event>
 5   0  0.1254487E-04  0.1502959E+04  0.7818609E-02  0.8882487E-01
        2   -1    0    0  501    0  0.00000000000E+00  0.00000000000E+00  0.10018919256E+04  0.10018919256E+04  0.25500000920E-02 0.  1.
       -2   -1    0    0    0  501  0.00000000000E+00  0.00000000000E+00 -0.56365538564E+03  0.56365538565E+03  0.25500000920E-02 0. -1.
    10030    2    1    2    0    0  0.00000000000E+00  0.00000000000E+00  0.43823653995E+03  0.15655473112E+04  0.15029594535E+04 0.  0.
        5    1    3    3  502    0 -0.31465273638E+03 -0.67146132330E+03  0.34598097431E+03  0.81828575557E+03  0.46999998093E+01 0.  1.
       -5    1    3    3    0  502  0.31465273638E+03  0.67146132330E+03  0.92255565642E+02  0.74726155567E+03  0.46999998093E+01 0. -1.
</event>
<event>
 5   0  0.6361716E-05  0.1498584E+04  0.7818609E-02  0.8885395E-01
        1   -1    0    0  501    0  0.00000000000E+00  0.00000000000E+00  0.60208047614E+03  0.60208047616E+03  0.50400001928E-02 0. -1.
       -1   -1    0    0    0  501  0.00000000000E+00  0.00000000000E+00 -0.93249801226E+03  0.93249801228E+03  0.50400001928E-02 0.  1.
    10030    2    1    2    0    0  0.00000000000E+00  0.00000000000E+00 -0.33041753613E+03  0.15345784884E+04  0.14985844617E+04 0.  0.
        3    1    3    3  502    0  0.14510237366E+03  0.72410336056E+03 -0.35443087971E+02  0.73934876635E+03  0.10100000352E+00 0.  1.
       -3    1    3    3    0  502 -0.14510237366E+03 -0.72410336056E+03 -0.29497444816E+03  0.79522972208E+03  0.10100000352E+00 0. -1.
</event>
<event>
 5   0  0.1254487E-04  0.1497420E+04  0.7818609E-02  0.8886171E-01
       -2   -1    0    0    0  501  0.00000000000E+00  0.00000000000E+00  0.34719950760E+03  0.34719950761E+03  0.25500000920E-02 0. -1.
        2   -1    0    0  501    0  0.00000000000E+00  0.00000000000E+00 -0.16145367351E+04  0.16145367351E+04  0.25500000920E-02 0.  1.
    10030    2    1    2    0    0  0.00000000000E+00  0.00000000000E+00 -0.12673372275E+04  0.19617362427E+04  0.14974195931E+04 0.  0.
        5    1    3    3  502    0 -0.20207130588E+03 -0.17069656415E+03 -0.15512602150E+04  0.15736583092E+04  0.46999998093E+01 0.  1.
       -5    1    3    3    0  502  0.20207130588E+03  0.17069656415E+03  0.28392298744E+03  0.38807793350E+03  0.46999998093E+01 0. -1.
</event>
<event>
 5   0  0.6361716E-05  0.1501246E+04  0.7818609E-02  0.8883625E-01
        1   -1    0    0  501    0  0.00000000000E+00  0.00000000000E+00  0.13202467753E+04  0.13202467753E+04  0.50400001928E-02 0. -1.
       -1   -1    0    0    0  501  0.00000000000E+00  0.00000000000E+00 -0.42676487024E+03  0.42676487027E+03  0.50400001928E-02 0.  1.
    10030    2    1    2    0    0  0.00000000000E+00  0.00000000000E+00  0.89348190508E+03  0.17470116456E+04  0.15012460742E+04 0.  0.
        3    1    3    3  502    0 -0.50949366706E+03  0.55001452940E+03  0.48926255665E+03  0.89525283516E+03  0.10100000352E+00 0.  1.
       -3    1    3    3    0  502  0.50949366706E+03 -0.55001452940E+03  0.40421934842E+03  0.85175881044E+03  0.10100000352E+00 0. -1.
</event>
<event>
 5   0  0.1216921E-04  0.1499141E+04  0.7818609E-02  0.8885024E-01
        2   -1    0    0  501    0  0.00000000000E+00  0.00000000000E+00  0.51800533487E+03  0.51800533488E+03  0.25500000920E-02 0. -1.
       -2   -1    0    0    0  501  0.00000000000E+00  0.00000000000E+00 -0.10846531310E+04  0.10846531310E+04  0.25500000920E-02 0.  1.
    10030    2    1    2    0    0  0.00000000000E+00  0.00000000000E+00 -0.56664779615E+03  0.16026584659E+04  0.14991412320E+04 0.  0.
        4    1    3    3  502    0  0.60249106212E+03  0.40416857124E+03 -0.81880013749E+02  0.73010524136E+03  0.12699999809E+01 0. -1.
       -4    1    3    3    0  502 -0.60249106212E+03 -0.40416857124E+03 -0.48476778241E+03  0.87255322455E+03  0.12699999809E+01 0.  1.
</event>
<event>
 5   0  0.6542036E-05  0.1499411E+04  0.7818609E-02  0.8884845E-01
       -1   -1    0    0    0  501  0.00000000000E+00  0.00000000000E+00  0.57822191391E+03  0.57822191393E+03  0.50400001928E-02 0. -1.
        1   -1    0    0  501    0  0.00000000000E+00  0.00000000000E+00 -0.97204587169E+03  0.97204587170E+03  0.50400001928E-02 0.  1.
    10030    2    1    2    0    0  0.00000000000E+00  0.00000000000E+00 -0.39382395778E+03  0.15502677856E+04  0.14994108501E+04 0.  0.
        4    1    3    3  502    0 -0.49077359922E+03 -0.50509096912E+03  0.68869291097E+02  0.70761585973E+03  0.12699999809E+01 0. -1.
       -4    1    3    3    0  502  0.49077359922E+03  0.50509096912E+03 -0.46269324887E+03  0.84265192591E+03  0.12699999809E+01 0.  1.
</event>
<event>
 5   0  0.1216921E-04  0.1497495E+04  0.7818609E-02  0.8886121E-01
        2   -1    0    0  501    0  0.00000000000E+00  0.00000000000E+00  0.11128605805E+04  0.11128605805E+04  0.25500000920E-02 0.  1.
       -2   -1    0    0    0  501  0.00000000000E+00  0.00000000000E+00 -0.50376719310E+03  0.50376719311E+03  0.25500000920E-02 0. -1.
    10030    2    1    2    0    0  0.00000000000E+00  0.00000000000E+00  0.60909338742E+03  0.16166277736E+04  0.14974947759E+04 0.  0.
        4    1    3    3  502    0 -0.13062788904E+03 -0.60875842518E+03 -0.14443727145E+03  0.63915115889E+03  0.12699999809E+01 0. -1.
       -4    1    3    3    0  502  0.13062788904E+03  0.60875842518E+03  0.75353065887E+03  0.97747661475E+03  0.12699999809E+01 0.  1.
</event>
<event>
 5   0  0.1228286E-04  0.1504112E+04  0.7818609E-02  0.8881723E-01
       -2   -1    0    0    0  501  0.00000000000E+00  0.00000000000E+00  0.78196432799E+03  0.78196432800E+03  0.25500000920E-02 0. -1.
        2   -1    0    0  501    0  0.00000000000E+00  0.00000000000E+00 -0.72329184902E+03  0.72329184902E+03  0.25500000920E-02 0.  1.
    10030    2    1    2    0    0  0.00000000000E+00  0.00000000000E+00  0.58672478977E+02  0.15052561770E+04  0.15041122627E+04 0.  0.
        2    1    3    3  502    0 -0.16946760717E+03  0.64909255220E+03  0.36951830031E+03  0.76588784131E+03  0.25500000920E-02 0. -1.
       -2    1    3    3    0  502  0.16946760717E+03 -0.64909255220E+03 -0.31084582134E+03  0.73936833571E+03  0.25500000920E-02 0.  1.
</event>
<event>
 5   0  0.6668433E-05  0.1499805E+04  0.7818609E-02  0.8884582E-01
        1   -1    0    0  501    0  0.00000000000E+00  0.00000000000E+00  0.43668087627E+03  0.43668087630E+03  0.50400001928E-02 0. -1.
       -1   -1    0    0    0  501  0.00000000000E+00  0.00000000000E+00 -0.12877919657E+04  0.12877919657E+04  0.50400001928E-02 0.  1.
    10030    2    1    2    0    0  0.00000000000E+00  0.00000000000E+00 -0.85111108943E+03  0.17244728420E+04  0.14998054862E+04 0.  0.
        1    1    3    3  502    0  0.67596356518E+03 -0.22958265473E+03 -0.68955666787E+03  0.99253379541E+03  0.50400001928E-02 0.  1.
       -1    1    3    3    0  502 -0.67596356518E+03  0.22958265473E+03 -0.16155442156E+03  0.73193904661E+03  0.50400001928E-02 0. -1.
</event>
<event>
 5   0  0.4462875E-05  0.1498123E+04  0.7818609E-02  0.8885702E-01
       -3   -1    0    0    0  501  0.00000000000E+00  0.00000000000E+00  0.10852758111E+04  0.10852758158E+04  0.10100000352E+00 0.  1.
        3   -1    0    0  501    0  0.00000000000E+00  0.00000000000E+00 -0.51700542519E+03  0.51700543506E+03  0.10100000352E+00 0. -1.
    10030    2    1    2    0    0  0.00000000000E+00  0.00000000000E+00  0.56827038591E+03  0.16022812509E+04  0.14981234847E+04 0.  0.
        3    1    3    3  502    0 -0.25861635496E+03 -0.38432800237E+03  0.91370612838E+03  0.10244263427E+04  0.10100000352E+00 0.  1.
       -3    1    3    3    0  502  0.25861635496E+03  0.38432800237E+03 -0.34543574247E+03  0.57785490812E+03  0.10100000352E+00 0. -1.
</event>
<event>
 5   0  0.6668433E-05  0.1501358E+04  0.7818609E-02  0.8883550E-01
       -1   -1    0    0    0  501  0.00000000000E+00  0.00000000000E+00  0.45963910681E+03  0.45963910684E+03  0.50400001928E-02 0. -1.
        1   -1    0    0  501    0  0.00000000000E+00  0.00000000000E+00 -0.12260037038E+04  0.12260037038E+04  0.50400001928E-02 0.  1.
    10030    2    1    2    0    0  0.00000000000E+00  0.00000000000E+00 -0.76636459701E+03  0.16856428107E+04  0.15013583815E+04 0.  0.
        1    1    3    3  502    0 -0.29091437377E+03  0.64713833405E+03 -0.10793782960E+03  0.71768361508E+03  0.50400001928E-02 0. -1.
       -1    1    3    3    0  502  0.29091437377E+03 -0.64713833405E+03 -0.65842676741E+03  0.96795919559E+03  0.50400001928E-02 0.  1.
</event>
<event>
 5   0  0.1254487E-04  0.1495119E+04  0.7818609E-02  0.8887705E-01
        2   -1    0    0  501    0  0.00000000000E+00  0.00000000000E+00  0.15549428001E+04  0.15549428001E+04  0.25500000920E-02 0.  1.
       -2   -1    0    0    0  501  0.00000000000E+00  0.00000000000E+00 -0.35939909732E+03  0.35939909733E+03  0.25500000920E-02 0. -1.
    10030    2    1    2    0    0  0.00000000000E+00  0.00000000000E+00  0.11955437028E+04  0.19143418975E+04  0.14951187762E+04 0.  0.
        5    1    3    3  502    0  0.29115944578E+03  0.40025418567E+03  0.13150736323E+04  0.14051398452E+04  0.46999998093E+01 0.  1.
       -5    1    3    3    0  502 -0.29115944578E+03 -0.40025418567E+03 -0.11952992952E+03  0.50920205230E+03  0.46999998093E+01 0. -1.
</event>
<event>
 5   0  0.1186664E-04  0.1493433E+04  0.7818609E-02  0.8888831E-01
        2   -1    0    0  501    0  0.00000000000E+00  0.00000000000E+00  0.63442789790E+03  0.63442789790E+03  0.25500000920E-02 0. -1.
       -2   -1    0    0    0  501  0.00000000000E+00  0.00000000000E+00 -0.87887982565E+03  0.87887982566E+03  0.25500000920E-02 0.  1.
    10030    2    1    2    0    0  0.00000000000E+00  0.00000000000E+00 -0.24445192775E+03  0.15133077236E+04  0.14934334673E+04 0.  0.
        3    1    3    3  502    0 -0.46710134109E+03 -0.47813627905E+03 -0.45950360041E+03  0.81113595234E+03  0.10100000352E+00 0.  1.
       -3    1    3    3    0  502  0.46710134109E+03  0.47813627905E+03  0.21505167265E+03  0.70217177122E+03  0.10100000352E+00 0. -1.
</event>
<event>
 5   0  0.1254487E-04  0.1498981E+04  0.7818609E-02  0.8885131E-01
        2   -1    0    0  501    0  0.00000000000E+00  0.00000000000E+00  0.12693194917E+04  0.12693194917E+04  0.25500000920E-02 0.  1.
       -2   -1    0    0    0  501  0.00000000000E+00  0.00000000000E+00 -0.44254892860E+03  0.44254892861E+03  0.25500000920E-02 0. -1.
    10030    2    1    2    0    0  0.00000000000E+00  0.00000000000E+00  0.82677056308E+03  0.17118684203E+04  0.14989809620E+04 0.  0.
        5    1    3    3  502    0 -0.26534692661E+03 -0.68897451700E+03  0.26616186308E+03  0.78483062115E+03  0.46999998093E+01 0. -1.
       -5    1    3    3    0  502  0.26534692661E+03  0.68897451700E+03  0.56060870000E+03  0.92703779915E+03  0.46999998093E+01 0.  1.
</event>
<event>
 5   0  0.6509279E-05  0.1496425E+04  0.7818609E-02  0.8886834E-01
       -1   -1    0    0    0  501  0.00000000000E+00  0.00000000000E+00  0.10880932567E+04  0.10880932567E+04  0.50400001928E-02 0. -1.
        1   -1    0    0  501    0  0.00000000000E+00  0.00000000000E+00 -0.51449803298E+03  0.51449803301E+03  0.50400001928E-02 0.  1.
    10030    2    1    2    0    0  0.00000000000E+00  0.00000000000E+00  0.57359522374E+03  0.16025912897E+04  0.14964248599E+04 0.  0.
        2    1    3    3  502    0  0.45798431527E+02  0.15679637614E+03  0.10687641839E+04  0.10811750462E+04  0.25500000920E-02 0. -1.
       -2    1    3    3    0  502 -0.45798431527E+02 -0.15679637614E+03 -0.49516896013E+03  0.52141624350E+03  0.25500000920E-02 0.  1.
</event>
<event>
 5   0  0.1216921E-04  0.1497507E+04  0.7818609E-02  0.8886112E-01
       -2   -1    0    0    0  501  0.00000000000E+00  0.00000000000E+00  0.27933213925E+03  0.27933213926E+03  0.25500000920E-02 0.  1.
        2   -1    0    0  501    0  0.00000000000E+00  0.00000000000E+00 -0.20070434701E+04  0.20070434701E+04  0.25500000920E-02 0. -1.
    10030    2    1    2    0    0  0.00000000000E+00  0.00000000000E+00 -0.17277113308E+04  0.22863756094E+04  0.14975069230E+04 0.  0.
        4    1    3    3  502    0  0.49161648058E+03  0.13398592045E+03 -0.17014921728E+04  0.17761520819E+04  0.12699999809E+01 0. -1.
       -4    1    3    3    0  502 -0.49161648058E+03 -0.13398592045E+03 -0.26219158028E+02  0.51022352749E+03  0.12699999809E+01 0.  1.
</event>
<event>
 5   0  0.6361716E-05  0.1500072E+04  0.7818609E-02  0.8884405E-01
        1   -1    0    0  501    0  0.00000000000E+00  0.00000000000E+00  0.12414604545E+04  0.12414604545E+04  0.50400001928E-02 0.  1.
       -1   -1    0    0    0  501  0.00000000000E+00  0.00000000000E+00 -0.45313911343E+03  0.45313911346E+03  0.50400001928E-02 0. -1.
    10030    2    1    2    0    0  0.00000000000E+00  0.00000000000E+00  0.78832134104E+03  0.16945995679E+04  0.15000723846E+04 0.  0.
        3    1    3    3  502    0  0.67300585418E+01  0.73538553519E+03  0.22768307464E+03  0.76985503294E+03  0.10100000352E+00 0. -1.
       -3    1    3    3    0  502 -0.67300585418E+01 -0.73538553519E+03  0.56063826640E+03  0.92474453500E+03  0.10100000352E+00 0.  1.
</event>
<event>
 5   0  0.1186664E-04  0.1500674E+04  0.7818609E-02  0.8884005E-01
       -2   -1    0    0    0  501  0.00000000000E+00  0.00000000000E+00  0.25861779478E+03  0.25861779479E+03  0.25500000920E-02 0. -1.
        2   -1    0    0  501    0  0.00000000000E+00  0.00000000000E+00 -0.21769794884E+04  0.21769794884E+04  0.25500000920E-02 0.  1.
    10030    2    1    2    0    0  0.00000000000E+00  0.00000000000E+00 -0.19183616937E+04  0.24355972832E+04  0.15006740280E+04 0.  0.
        3    1    3    3  502    0  0.65826827909E+03  0.40488874466E+02 -0.15399552424E+04  0.16752368892E+04  0.10100000352E+00 0.  1.
       -3    1    3    3    0  502 -0.65826827909E+03 -0.40488874466E+02 -0.37840645126E+03  0.76036039400E+03  0.10100000352E+00 0. -1.
</event>
<event>
 5   0  0.6668433E-05  0.1496605E+04  0.7818609E-02  0.8886714E-01
       -1   -1    0    0    0  501  0.00000000000E+00  0.00000000000E+00  0.10179307890E+04  0.10179307890E+04  0.50400001928E-02 0. -1.
        1   -1    0    0  501    0  0.00000000000E+00  0.00000000000E+00 -0.55009284138E+03  0.55009284140E+03  0.50400001928E-02 0.  1.
    10030    2    1    2    0    0  0.00000000000E+00  0.00000000000E+00  0.46783794765E+03  0.15680236304E+04  0.14966047442E+04 0.  0.
        1    1    3    3  502    0 -0.25121540578E+03 -0.68279369277E+03  0.41731507582E+03  0.83873015894E+03  0.50400001928E-02 0. -1.
       -1    1    3    3    0  502  0.25121540578E+03  0.68279369277E+03  0.50522871832E+02  0.72929347151E+03  0.50400001928E-02 0.  1.
</event>
<event>
 5   0  0.1254487E-04  0.1508642E+04  0.7818609E-02  0.8878726E-01
       -2   -1    0    0    0  501  0.00000000000E+00  0.00000000000E+00  0.34253949066E+03  0.34253949067E+03  0.25500000920E-02 0.  1.
        2   -1    0    0  501    0  0.00000000000E+00  0.00000000000E+00 -0.16611231793E+04  0.16611231793E+04  0.25500000920E-02 0. -1.
    10030    2    1    2    0    0  0.00000000000E+00  0.00000000000E+00 -0.13185836886E+04  0.20036626699E+04  0.15086421547E+04 0.  0.
        5    1    3    3  502    0  0.42972708762E+03 -0.33244353092E+03 -0.13542368402E+04  0.14591653712E+04  0.46999998093E+01 0. -1.
       -5    1    3    3    0  502 -0.42972708762E+03  0.33244353092E+03  0.35653151647E+02  0.54449729872E+03  0.46999998093E+01 0.  1.
</event>
<event>
 5   0  0.6542036E-05  0.1498997E+04  0.7818609E-02  0.8885120E-01
        1   -1    0    0  501    0  0.00000000000E+00  0.00000000000E+00  0.10637795564E+04  0.10637795564E+04  0.50400001928E-02 0.  1.
       -1   -1    0    0    0  501  0.00000000000E+00  0.00000000000E+00 -0.52806813005E+03  0.52806813007E+03  0.50400001928E-02 0. -1.
    10030    2    1    2    0    0  0.00000000000E+00  0.00000000000E+00  0.53571142634E+03  0.15918476865E+04  0.14989971063E+04 0.  0.
        4    1    3    3  502    0  0.65444733352E+03 -0.28185631995E+03  0.51463364784E+03  0.87897309506E+03  0.12699999809E+01 0.  1.
       -4    1    3    3    0  502 -0.65444733352E+03  0.28185631995E+03  0.21077778495E+02  0.71287459142E+03  0.12699999809E+01 0. -1.
</event>
<event>
 5   0  0.1228286E-04  0.1499994E+04  0.7818609E-02  0.8884457E-01
       -2   -1    0    0    0  501  0.00000000000E+00  0.00000000000E+00  0.81307477074E+03  0.81307477074E+03  0.25500000920E-02 0.  1.
        2   -1    0    0  501    0  0.00000000000E+00  0.00000000000E+00 -0.69181299686E+03  0.69181299686E+03  0.25500000920E-02 0. -1.
    10030    2    1    2    0    0  0.00000000000E+00  0.00000000000E+00  0.12126177388E+03  0.15048877676E+04  0.14999942584E+04 0.  0.
        2    1    3    3  502    0 -0.45777923855E+02 -0.30501850246E+03  0.74650126326E+03  0.80771036963E+03  0.25500000920E-02 0.  1.
       -2    1    3    3    0  502  0.45777923855E+02  0.30501850246E+03 -0.62523948938E+03  0.69717739797E+03  0.25500000920E-02 0. -1.
</event>
<event>
 5   0  0.1186664E-04  0.1500376E+04  0.7818609E-02  0.8884203E-01
       -2   -1    0    0    0  501  0.00000000000E+00  0.00000000000E+00  0.52309274585E+03  0.52309274586E+03  0.25500000920E-02 0.  1.
        2   -1    0    0  501    0  0.00000000000E+00  0.00000000000E+00 -0.10758738683E+04  0.10758738683E+04  0.25500000920E-02 0. -1.
    10030    2    1    2    0    0  0.00000000000E+00  0.00000000000E+00 -0.55278112242E+03  0.15989666141E+04  0.15003757076E+04 0.  0.
        3    1    3    3  502    0 -0.32147300835E+03  0.67355305932E+03 -0.35729469744E+03  0.82745279614E+03  0.10100000352E+00 0. -1.
       -3    1    3    3    0  502  0.32147300835E+03 -0.67355305932E+03 -0.19548642498E+03  0.77151381800E+03  0.10100000352E+00 0.  1.
</event>
<event>
 5   0  0.6364378E-05  0.1503007E+04  0.7818609E-02  0.8882456E-01
        1   -1    0    0  501    0  0.00000000000E+00  0.00000000000E+00  0.87115595722E+03  0.87115595724E+03  0.50400001928E-02 0.  1.
       -1   -1    0    0    0  501  0.00000000000E+00  0.00000000000E+00 -0.64828491797E+03  0.64828491799E+03  0.50400001928E-02 0. -1.
    10030    2    1    2    0    0  0.00000000000E+00  0.00000000000E+00  0.22287103925E+03  0.15194408752E+04  0.15030066777E+04 0.  0.
        5    1    3    3  502    0  0.34613422671E+03 -0.17090022235E+02 -0.56266448582E+03  0.66084369208E+03  0.46999998093E+01 0. -1.
       -5    1    3    3    0  502 -0.34613422671E+03  0.17090022235E+02  0.78553552507E+03  0.85859718315E+03  0.46999998093E+01 0.  1.
</event>
<event>
 5   0  0.4462875E-05  0.1500702E+04  0.7818609E-02  0.8883986E-01
       -4   -1    0    0    0  501  0.00000000000E+00  0.00000000000E+00  0.49586937187E+03  0.49587099820E+03  0.12699999809E+01 0. -1.
        4   -1    0    0  501    0  0.00000000000E+00  0.00000000000E+00 -0.11354290187E+04  0.11354297290E+04  0.12699999809E+01 0.  1.
    10030    2    1    2    0    0  0.00000000000E+00  0.00000000000E+00 -0.63955964684E+03  0.16313007272E+04  0.15007016761E+04 0.  0.
        5    1    3    3  502    0  0.48223449018E+03 -0.11883533283E+03 -0.93116015937E+03  0.10553450963E+04  0.46999998093E+01 0.  1.
       -5    1    3    3    0  502 -0.48223449018E+03  0.11883533283E+03  0.29160051253E+03  0.57595563089E+03  0.46999998093E+01 0. -1.
</event>
<event>
 5   0  0.1219810E-04  0.1543257E+04  0.7818609E-02  0.8856186E-01
       -2   -1    0    0    0  501  0.00000000000E+00  0.00000000000E+00  0.26391455027E+03  0.26391455028E+03  0.25500000920E-02 0.  1.
        2   -1    0    0  501    0  0.00000000000E+00  0.00000000000E+00 -0.22560744420E+04  0.22560744420E+04  0.25500000920E-02 0. -1.
    10030    2    1    2    0    0  0.00000000000E+00  0.00000000000E+00 -0.19921598917E+04  0.25199889923E+04  0.15432574273E+04 0.  0.
        1    1    3    3  502    0 -0.27965920852E+03 -0.70959413171E+03 -0.11870511425E+04  0.14109654565E+04  0.50400001928E-02 0. -1.
       -1    1    3    3    0  502  0.27965920852E+03  0.70959413171E+03 -0.80510874924E+03  0.11090235357E+04  0.50400001928E-02 0.  1.
</event>
<event>
 5   0  0.1228286E-04  0.1494438E+04  0.7818609E-02  0.8888160E-01
        2   -1    0    0  501    0  0.00000000000E+00  0.00000000000E+00  0.11191892546E+04  0.11191892546E+04  0.25500000920E-02 0. -1.
       -2   -1    0    0    0  501  0.00000000000E+00  0.00000000000E+00 -0.49887574170E+03  0.49887574171E+03  0.25500000920E-02 0.  1.
    10030    2    1    2    0    0  0.00000000000E+00  0.00000000000E+00  0.62031351288E+03  0.16180649963E+04  0.14944381814E+04 0.  0.
        2    1    3    3  502    0 -0.72708670921E+03  0.17033939224E+03  0.28221956126E+03  0.79832228581E+03  0.25500000920E-02 0.  1.
       -2    1    3    3    0  502  0.72708670921E+03 -0.17033939224E+03  0.33809395161E+03  0.81974271048E+03  0.25500000920E-02 0. -1.
</event>
<event>
 5   0  0.6509279E-05  0.1497229E+04  0.7818609E-02  0.8886298E-01
        1   -1    0    0  501    0  0.00000000000E+00  0.00000000000E+00  0.75152712255E+03  0.75152712257E+03  0.50400001928E-02 0. -1.
       -1   -1    0    0    0  501  0.00000000000E+00  0.00000000000E+00 -0.74571314500E+03  0.74571314502E+03  0.50400001928E-02 0.  1.
    10030    2    1    2    0    0  0.00000000000E+00  0.00000000000E+00  0.58139775518E+01  0.14972402676E+04  0.14972289793E+04 0.  0.
        2    1    3    3  502    0  0.19361354043E+03  0.29405084400E+03 -0.65775792913E+03  0.74605468649E+03  0.25500000920E-02 0.  1.
       -2    1    3    3    0  502 -0.19361354043E+03 -0.29405084400E+03  0.66357190669E+03  0.75118558109E+03  0.25500000920E-02 0. -1.
</event>
<event>
 5   0  0.1216921E-04  0.1501875E+04  0.7818609E-02  0.8883207E-01
        2   -1    0    0  501    0  0.00000000000E+00  0.00000000000E+00  0.84871448213E+03  0.84871448213E+03  0.25500000920E-02 0. -1.
       -2   -1    0    0    0  501  0.00000000000E+00  0.00000000000E+00 -0.66442492602E+03  0.66442492602E+03  0.25500000920E-02 0.  1.
    10030    2    1    2    0    0  0.00000000000E+00  0.00000000000E+00  0.18428955611E+03  0.15131394082E+04  0.15018749043E+04 0.  0.
        4    1    3    3  502    0 -0.61574455611E+03 -0.30595824016E+03 -0.21203629809E+03  0.71952262487E+03  0.12699999809E+01 0.  1.
       -4    1    3    3    0  502  0.61574455611E+03  0.30595824016E+03  0.39632585420E+03  0.79361678328E+03  0.12699999809E+01 0. -1.
</event>
<event>
 5   0  0.1254487E-04  0.1500812E+04  0.7818609E-02  0.8883913E-01
       -2   -1    0    0    0  501  0.00000000000E+00  0.00000000000E+00  0.54042200880E+03  0.54042200881E+03  0.25500000920E-02 0.  1.
        2   -1    0    0  501    0  0.00000000000E+00  0.00000000000E+00 -0.10419801979E+04  0.10419801979E+04  0.25500000920E-02 0. -1.
    10030    2    1    2    0    0  0.00000000000E+00  0.00000000000E+00 -0.50155818912E+03  0.15824022067E+04  0.15008118226E+04 0.  0.
        5    1    3    3  502    0  0.69522645844E+03 -0.28219634463E+03 -0.26195417408E+03  0.79474315647E+03  0.46999998093E+01 0. -1.
       -5    1    3    3    0  502 -0.69522645844E+03  0.28219634463E+03 -0.23960401504E+03  0.78765905026E+03  0.46999998093E+01 0.  1.
</event>
<event>
 5   0  0.1216921E-04  0.1501767E+04  0.7818609E-02  0.8883279E-01
       -2   -1    0    0    0  501  0.00000000000E+00  0.00000000000E+00  0.48386275802E+03  0.48386275803E+03  0.25500000920E-02 0. -1.
        2   -1    0    0  501    0  0.00000000000E+00  0.00000000000E+00 -0.11652603628E+04  0.11652603628E+04  0.25500000920E-02 0.  1.
    10030    2    1    2    0    0  0.00000000000E+00  0.00000000000E+00 -0.68139760480E+03  0.16491231209E+04  0.15017670831E+04 0.  0.
        4    1    3    3  502    0 -0.27045362117E+03  0.98004309581E+02  0.42095331997E+03  0.50985617227E+03  0.12699999809E+01 0. -1.
       -4    1    3    3    0  502  0.27045362117E+03 -0.98004309581E+02 -0.11023509248E+04  0.11392669486E+04  0.12699999809E+01 0.  1.
</event>
<event>
 5   0  0.1228286E-04  0.1502786E+04  0.7818609E-02  0.8882602E-01
        2   -1    0    0  501    0  0.00000000000E+00  0.00000000000E+00  0.17259710414E+04  0.17259710414E+04  0.25500000920E-02 0.  1.
       -2   -1    0    0    0  501  0.00000000000E+00  0.00000000000E+00 -0.32711519838E+03  0.32711519839E+03  0.25500000920E-02 0. -1.
    10030    2    1    2    0    0  0.00000000000E+00  0.00000000000E+00  0.13988558430E+04  0.20530862398E+04  0.15027858925E+04 0.  0.
        2    1    3    3  502    0 -0.58685388090E+03 -0.14276372022E+03  0.88737225538E+02  0.61045331725E+03  0.25500000920E-02 0. -1.
       -2    1    3    3    0  502  0.58685388090E+03  0.14276372022E+03  0.13101186175E+04  0.14426329226E+04  0.25500000920E-02 0.  1.
</event>
<event>
 5   0  0.4462875E-05  0.1499366E+04  0.7818609E-02  0.8884875E-01
       -4   -1    0    0    0  501  0.00000000000E+00  0.00000000000E+00  0.16676319544E+04  0.16676324380E+04  0.12699999809E+01 0. -1.
        4   -1    0    0  501    0  0.00000000000E+00  0.00000000000E+00 -0.33701777981E+03  0.33702017270E+03  0.12699999809E+01 0.  1.
    10030    2    1    2    0    0  0.00000000000E+00  0.00000000000E+00  0.13306141746E+04  0.20046526107E+04  0.14993658686E+04 0.  0.
        4    1    3    3  502    0  0.15431261930E+03 -0.19511264027E+03  0.16108428871E+04  0.16299379579E+04  0.12699999809E+01 0. -1.
       -4    1    3    3    0  502 -0.15431261930E+03  0.19511264027E+03 -0.28022871244E+03  0.37471465283E+03  0.12699999809E+01 0.  1.
</event>
<event>
 5   0  0.6668433E-05  0.1501686E+04  0.7818609E-02  0.8883333E-01
       -1   -1    0    0    0  501  0.00000000000E+00  0.00000000000E+00  0.45612977438E+03  0.45612977441E+03  0.50400001928E-02 0.  1.
        1   -1    0    0  501    0  0.00000000000E+00  0.00000000000E+00 -0.12359747354E+04  0.12359747354E+04  0.50400001928E-02 0. -1.
    10030    2    1    2    0    0  0.00000000000E+00  0.00000000000E+00 -0.77984496106E+03  0.16921045099E+04  0.15016855560E+04 0.  0.
        1    1    3    3  502    0  0.32877309657E+03  0.50990715983E+03  0.10851177124E+03  0.61633746048E+03  0.50400001928E-02 0.  1.
       -1    1    3    3    0  502 -0.32877309657E+03 -0.50990715983E+03 -0.88835673230E+03  0.10757670494E+04  0.50400001928E-02 0. -1.
</event>
<event>
 5   0  0.1186664E-04  0.1497991E+04  0.7818609E-02  0.8885790E-01
        2   -1    0    0  501    0  0.00000000000E+00  0.00000000000E+00  0.15081849114E+04  0.15081849114E+04  0.25500000920E-02 0. -1.
       -2   -1    0    0    0  501  0.00000000000E+00  0.00000000000E+00 -0.37196665937E+03  0.37196665938E+03  0.25500000920E-02 0.  1.
    10030    2    1    2    0    0  0.00000000000E+00  0.00000000000E+00  0.11362182520E+04  0.18801515708E+04  0.14979913260E+04 0.  0.
        3    1    3    3  502    0  0.57207757102E+03  0.15768587425E+03  0.11417076013E+04  0.12867143581E+04  0.10100000352E+00 0. -1.
       -3    1    3    3    0  502 -0.57207757102E+03 -0.15768587425E+03 -0.54893493219E+01  0.59343721266E+03  0.10100000352E+00 0.  1.
</event>
<event>
 5   0  0.6668433E-05  0.1500282E+04  0.7818609E-02  0.8884265E-01
       -1   -1    0    0    0  501  0.00000000000E+00  0.00000000000E+00  0.53549944261E+03  0.53549944263E+03  0.50400001928E-02 0.  1.
        1   -1    0    0  501    0  0.00000000000E+00  0.00000000000E+00 -0.10508169086E+04  0.10508169086E+04  0.50400001928E-02 0. -1.
    10030    2    1    2    0    0  0.00000000000E+00  0.00000000000E+00 -0.51531746602E+03  0.15863163513E+04  0.15002824652E+04 0.  0.
        1    1    3    3  502    0 -0.27234852705E+03 -0.11933222520E+02  0.48127025482E+03  0.55311588314E+03  0.50400001928E-02 0.  1.
       -1    1    3    3    0  502  0.27234852705E+03  0.11933222520E+02 -0.99658772083E+03  0.10332004681E+04  0.50400001928E-02 0. -1.
</event>
<event>
 5   0  0.1228286E-04  0.1497644E+04  0.7818609E-02  0.8886021E-01
        2   -1    0    0  501    0  0.00000000000E+00  0.00000000000E+00  0.64554367959E+03  0.64554367959E+03  0.25500000920E-02 0. -1.
       -2   -1    0    0    0  501  0.00000000000E+00  0.00000000000E+00 -0.86862335181E+03  0.86862335181E+03  0.25500000920E-02 0.  1.
    10030    2    1    2    0    0  0.00000000000E+00  0.00000000000E+00 -0.22307967222E+03  0.15141670314E+04  0.14976439025E+04 0.  0.
        2    1    3    3  502    0 -0.12495772971E+01  0.42829997347E+03  0.50947783166E+03  0.66559003123E+03  0.25500000920E-02 0. -1.
       -2    1    3    3    0  502  0.12495772971E+01 -0.42829997347E+03 -0.73255750388E+03  0.84857700017E+03  0.25500000920E-02 0.  1.
</event>
<event>
 5   0  0.1254487E-04  0.1497395E+04  0.7818609E-02  0.8886187E-01
        2   -1    0    0  501    0  0.00000000000E+00  0.00000000000E+00  0.28829363841E+04  0.28829363841E+04  0.25500000920E-02 0. -1.
       -2   -1    0    0    0  501  0.00000000000E+00  0.00000000000E+00 -0.19443646072E+03  0.19443646073E+03  0.25500000920E-02 0.  1.
    10030    2    1    2    0    0  0.00000000000E+00  0.00000000000E+00  0.26884999233E+04  0.30773728448E+04  0.14973950007E+04 0.  0.
        5    1    3    3  502    0  0.33324724044E+03  0.50363615305E+02 -0.29685181809E+02  0.33836890671E+03  0.46999998093E+01 0.  1.
       -5    1    3    3    0  502 -0.33324724044E+03 -0.50363615305E+02  0.27181851051E+04  0.27390039381E+04  0.46999998093E+01 0. -1.
</event>
<event>
 5   0  0.6361716E-05  0.1494737E+04  0.7818609E-02  0.8887960E-01
        1   -1    0    0  501    0  0.00000000000E+00  0.00000000000E+00  0.25295616511E+04  0.25295616511E+04  0.50400001928E-02 0. -1.
       -1   -1    0    0    0  501  0.00000000000E+00  0.00000000000E+00 -0.22081280524E+03  0.22081280530E+03  0.50400001928E-02 0.  1.
    10030    2    1    2    0    0  0.00000000000E+00  0.00000000000E+00  0.23087488459E+04  0.27503744564E+04  0.14947369057E+04 0.  0.
        3    1    3    3  502    0 -0.27677889659E+03  0.38676893925E+03  0.22151738797E+04  0.22656548937E+04  0.10100000352E+00 0. -1.
       -3    1    3    3    0  502  0.27677889659E+03 -0.38676893925E+03  0.93574966188E+02  0.48471956270E+03  0.10100000352E+00 0.  1.
</event>
<event>
 5   0  0.6668433E-05  0.1518175E+04  0.7818609E-02  0.8872456E-01
       -1   -1    0    0    0  501  0.00000000000E+00  0.00000000000E+00  0.23508746143E+03  0.23508746148E+03  0.50400001928E-02 0. -1.
        1   -1    0    0  501    0  0.00000000000E+00  0.00000000000E+00 -0.24510629946E+04  0.24510629946E+04  0.50400001928E-02 0.  1.
    10030    2    1    2    0    0  0.00000000000E+00  0.00000000000E+00 -0.22159755332E+04  0.26861504561E+04  0.15181754540E+04 0.  0.
        1    1    3    3  502    0 -0.20465109638E+03  0.71052185014E+03 -0.80414304663E+03  0.10924144865E+04  0.50400001928E-02 0. -1.
       -1    1    3    3    0  502  0.20465109638E+03 -0.71052185014E+03 -0.14118324866E+04  0.15937359696E+04  0.50400001928E-02 0.  1.
</event>
<event>
 5   0  0.6364378E-05  0.1509649E+04  0.7818609E-02  0.8878062E-01
        1   -1    0    0  501    0  0.00000000000E+00  0.00000000000E+00  0.15281879337E+04  0.15281879337E+04  0.50400001928E-02 0.  1.
       -1   -1    0    0    0  501  0.00000000000E+00  0.00000000000E+00 -0.37283359029E+03  0.37283359032E+03  0.50400001928E-02 0. -1.
    10030    2    1    2    0    0  0.00000000000E+00  0.00000000000E+00  0.11553543434E+04  0.19010215240E+04  0.15096486929E+04 0.  0.
        5    1    3    3  502    0 -0.70657480449E+03  0.24461499662E+03  0.70764990764E+03  0.10295022743E+04  0.46999998093E+01 0.  1.
       -5    1    3    3    0  502  0.70657480449E+03 -0.24461499662E+03  0.44770443577E+03  0.87151924977E+03  0.46999998093E+01 0. -1.
</event>
<event>
 5   0  0.4462875E-05  0.1493904E+04  0.7818609E-02  0.8888517E-01
       -3   -1    0    0    0  501  0.00000000000E+00  0.00000000000E+00  0.14344548069E+04  0.14344548105E+04  0.10100000352E+00 0.  1.
        3   -1    0    0  501    0  0.00000000000E+00  0.00000000000E+00 -0.38895419139E+03  0.38895420450E+03  0.10100000352E+00 0. -1.
    10030    2    1    2    0    0  0.00000000000E+00  0.00000000000E+00  0.10455006155E+04  0.18234090150E+04  0.14939039122E+04 0.  0.
        1    1    3    3  502    0 -0.16008549541E+03 -0.68895993379E+03  0.81579829697E+03  0.10797314562E+04  0.50400001928E-02 0.  1.
       -1    1    3    3    0  502  0.16008549541E+03  0.68895993379E+03  0.22970231857E+03  0.74367755875E+03  0.50400001928E-02 0. -1.
</event>
<event>
 5   0  0.6361716E-05  0.1500453E+04  0.7818609E-02  0.8884152E-01
       -1   -1    0    0    0  501  0.00000000000E+00  0.00000000000E+00  0.48396262862E+03  0.48396262864E+03  0.50400001928E-02 0.  1.
        1   -1    0    0  501    0  0.00000000000E+00  0.00000000000E+00 -0.11629819988E+04  0.11629819988E+04  0.50400001928E-02 0. -1.
    10030    2    1    2    0    0  0.00000000000E+00  0.00000000000E+00 -0.67901937016E+03  0.16469446274E+04  0.15004530318E+04 0.  0.
        3    1    3    3  502    0 -0.74065889704E+03 -0.61356592272E+02 -0.22703815761E+03  0.77710138875E+03  0.10100000352E+00 0.  1.
       -3    1    3    3    0  502  0.74065889704E+03  0.61356592272E+02 -0.45198121255E+03  0.86984323868E+03  0.10100000352E+00 0. -1.
</event>
<event>
 5   0  0.1254487E-04  0.1497243E+04  0.7818609E-02  0.8886288E-01
        2   -1    0    0  501    0  0.00000000000E+00  0.00000000000E+00  0.77433737506E+03  0.77433737507E+03  0.25500000920E-02 0.  1.
       -2   -1    0    0    0  501  0.00000000000E+00  0.00000000000E+00 -0.72375979149E+03  0.72375979150E+03  0.25500000920E-02 0. -1.
    10030    2    1    2    0    0  0.00000000000E+00  0.00000000000E+00  0.50577583570E+02  0.14980971666E+04  0.14972431428E+04 0.  0.
        5    1    3    3  502    0 -0.37843075930E+03  0.49650385728E+03  0.43866636836E+03  0.76300471336E+03  0.46999998093E+01 0.  1.
       -5    1    3    3    0  502  0.37843075930E+03 -0.49650385728E+03 -0.38808878479E+03  0.73509245321E+03  0.46999998093E+01 0. -1.
</event>
<event>
 5   0  0.4462875E-05  0.1500473E+04  0.7818609E-02  0.8884138E-01
        3   -1    0    0  501    0  0.00000000000E+00  0.00000000000E+00  0.68436701735E+03  0.68436702480E+03  0.10100000352E+00 0. -1.
       -3   -1    0    0    0  501  0.00000000000E+00  0.00000000000E+00 -0.82244600489E+03  0.82244601109E+03  0.10100000352E+00 0.  1.
    10030    2    1    2    0    0  0.00000000000E+00  0.00000000000E+00 -0.13807898754E+03  0.15068130359E+04  0.15004731648E+04 0.  0.
        1    1    3    3  502    0 -0.19073295036E+03  0.71337854583E+03  0.64060785611E+02  0.74120968172E+03  0.50400001928E-02 0. -1.
       -1    1    3    3    0  502  0.19073295036E+03 -0.71337854583E+03 -0.20213977315E+03  0.76560335417E+03  0.50400001928E-02 0.  1.
</event>
<event>
 5   0  0.1254487E-04  0.1499917E+04  0.7818609E-02  0.8884508E-01
       -2   -1    0    0    0  501  0.00000000000E+00  0.00000000000E+00  0.39732912417E+03  0.39732912418E+03  0.25500000920E-02 0.  1.
        2   -1    0    0  501    0  0.00000000000E+00  0.00000000000E+00 -0.14155467372E+04  0.14155467372E+04  0.25500000920E-02 0. -1.
    10030    2    1    2    0    0  0.00000000000E+00  0.00000000000E+00 -0.10182176131E+04  0.18128758614E+04  0.14999172582E+04 0.  0.
        5    1    3    3  502    0 -0.67999121408E+03 -0.26224066179E+03 -0.72279617587E+03  0.10264573142E+04  0.46999998093E+01 0. -1.
       -5    1    3    3    0  502  0.67999121408E+03  0.26224066179E+03 -0.29542143719E+03  0.78641854726E+03  0.46999998093E+01 0.  1.
</event>
<event>
 5   0  0.6668433E-05  0.1498404E+04  0.7818609E-02  0.8885515E-01
       -1   -1    0    0    0  501  0.00000000000E+00  0.00000000000E+00  0.15470498051E+04  0.15470498051E+04  0.50400001928E-02 0. -1.
        1   -1    0    0  501    0  0.00000000000E+00  0.00000000000E+00 -0.36282188092E+03  0.36282188095E+03  0.50400001928E-02 0.  1.
    10030    2    1    2    0    0  0.00000000000E+00  0.00000000000E+00  0.11842279242E+04  0.19098716861E+04  0.14984038444E+04 0.  0.
        1    1    3    3  502    0 -0.32879367729E+03  0.28983140004E+03  0.13665825431E+04  0.14351499468E+04  0.50400001928E-02 0. -1.
       -1    1    3    3    0  502  0.32879367729E+03 -0.28983140004E+03 -0.18235461891E+03  0.47472173927E+03  0.50400001928E-02 0.  1.
</event>
<event>
 5   0  0.6364378E-05  0.1494928E+04  0.7818609E-02  0.8887833E-01
        1   -1    0    0  501    0  0.00000000000E+00  0.00000000000E+00  0.73243994711E+03  0.73243994713E+03  0.50400001928E-02 0.  1.
       -1   -1    0    0    0  501  0.00000000000E+00  0.00000000000E+00 -0.76279623195E+03  0.76279623197E+03  0.50400001928E-02 0. -1.
    10030    2    1    2    0    0  0.00000000000E+00  0.00000000000E+00 -0.30356284842E+02  0.14952361791E+04  0.14949280007E+04 0.  0.
        5    1    3    3  502    0 -0.29811642772E+02  0.62235700200E+02  0.72923218040E+03  0.73250507121E+03  0.46999998093E+01 0.  1.
       -5    1    3    3    0  502  0.29811642772E+02 -0.62235700200E+02 -0.75958846524E+03  0.76273110789E+03  0.46999998093E+01 0. -1.
</event>
<event>
 5   0  0.1186664E-04  0.1499655E+04  0.7818609E-02  0.8884682E-01
       -2   -1    0    0    0  501  0.00000000000E+00  0.00000000000E+00  0.12061927276E+04  0.12061927276E+04  0.25500000920E-02 0. -1.
        2   -1    0    0  501    0  0.00000000000E+00  0.00000000000E+00 -0.46612911054E+03  0.46612911055E+03  0.25500000920E-02 0.  1.
    10030    2    1    2    0    0  0.00000000000E+00  0.00000000000E+00  0.74006361701E+03  0.16723218381E+04  0.14996553514E+04 0.  0.
        3    1    3    3  502    0  0.16038883420E+03  0.12853037642E+03  0.11741664574E+04  0.11920199309E+04  0.10100000352E+00 0. -1.
       -3    1    3    3    0  502 -0.16038883420E+03 -0.12853037642E+03 -0.43410284040E+03  0.48030190718E+03  0.10100000352E+00 0.  1.
</event>
<event>
 5   0  0.1254487E-04  0.1510199E+04  0.7818609E-02  0.8877699E-01
        2   -1    0    0  501    0  0.00000000000E+00  0.00000000000E+00  0.80358984509E+03  0.80358984510E+03  0.25500000920E-02 0.  1.
       -2   -1    0    0    0  501  0.00000000000E+00  0.00000000000E+00 -0.70953499018E+03  0.70953499019E+03  0.25500000920E-02 0. -1.
    10030    2    1    2    0    0  0.00000000000E+00  0.00000000000E+00  0.94054854910E+02  0.15131248353E+04  0.15101988119E+04 0.  0.
        5    1    3    3  502    0  0.27271428766E+03 -0.67238274380E+03 -0.16237843710E+03  0.74354588540E+03  0.46999998093E+01 0.  1.
       -5    1    3    3    0  502 -0.27271428766E+03  0.67238274380E+03  0.25643329201E+03  0.76957894989E+03  0.46999998093E+01 0. -1.
</event>
<event>
 5   0  0.4462875E-05  0.1520956E+04  0.7818609E-02  0.8870636E-01
        3   -1    0    0  501    0  0.00000000000E+00  0.00000000000E+00  0.10158780278E+04  0.10158780328E+04  0.10100000352E+00 0. -1.
       -3   -1    0    0    0  501  0.00000000000E+00  0.00000000000E+00 -0.56928773692E+03  0.56928774587E+03  0.10100000352E+00 0.  1.
    10030    2    1    2    0    0  0.00000000000E+00  0.00000000000E+00  0.44659029091E+03  0.15851657787E+04  0.15209561657E+04 0.  0.
        3    1    3    3  502    0 -0.10805563398E+02  0.67282514377E+03 -0.14594451988E+03  0.68855664064E+03  0.10100000352E+00 0.  1.
       -3    1    3    3    0  502  0.10805563398E+02 -0.67282514377E+03  0.59253481078E+03  0.89660913808E+03  0.10100000352E+00 0. -1.
</event>
<event>
 5   0  0.1216921E-04  0.1495075E+04  0.7818609E-02  0.8887735E-01
       -2   -1    0    0    0  501  0.00000000000E+00  0.00000000000E+00  0.49444386629E+03  0.49444386630E+03  0.25500000920E-02 0. -1.
        2   -1    0    0  501    0  0.00000000000E+00  0.00000000000E+00 -0.11301828753E+04  0.11301828753E+04  0.25500000920E-02 0.  1.
    10030    2    1    2    0    0  0.00000000000E+00  0.00000000000E+00 -0.63573900900E+03  0.16246267416E+04  0.14950745673E+04 0.  0.
        4    1    3    3  502    0 -0.61651823620E+02  0.47719680655E+03 -0.93953800428E+03  0.10555808893E+04  0.12699999809E+01 0.  1.
       -4    1    3    3    0  502  0.61651823620E+02 -0.47719680655E+03  0.30379899528E+03  0.56904585226E+03  0.12699999809E+01 0. -1.
</event>
<event>
 5   0  0.6361716E-05  0.1490868E+04  0.7818609E-02  0.8890549E-01
       -1   -1    0    0    0  501  0.00000000000E+00  0.00000000000E+00  0.37301959453E+03  0.37301959457E+03  0.50400001928E-02 0. -1.
        1   -1    0    0  501    0  0.00000000000E+00  0.00000000000E+00 -0.14896580609E+04  0.14896580609E+04  0.50400001928E-02 0.  1.
    10030    2    1    2    0    0  0.00000000000E+00  0.00000000000E+00 -0.11166384664E+04  0.18626776555E+04  0.14908677284E+04 0.  0.
        3    1    3    3  502    0  0.71637396309E+03  0.14450766835E+03 -0.37470747974E+03  0.82126720791E+03  0.10100000352E+00 0.  1.
       -3    1    3    3    0  502 -0.71637396309E+03 -0.14450766835E+03 -0.74193098666E+03  0.10414104476E+04  0.10100000352E+00 0. -1.
</event>
<event>
 5   0  0.6542036E-05  0.1534040E+04  0.7818609E-02  0.8862127E-01
       -1   -1    0    0    0  501  0.00000000000E+00  0.00000000000E+00  0.79107952329E+03  0.79107952331E+03  0.50400001928E-02 0.  1.
        1   -1    0    0  501    0  0.00000000000E+00  0.00000000000E+00 -0.74369200067E+03  0.74369200069E+03  0.50400001928E-02 0. -1.
    10030    2    1    2    0    0  0.00000000000E+00  0.00000000000E+00  0.47387522617E+02  0.15347715240E+04  0.15340397823E+04 0.  0.
        4    1    3    3  502    0  0.38970300200E+03  0.19963954945E+03 -0.60636335033E+03  0.74793215267E+03  0.12699999809E+01 0. -1.
       -4    1    3    3    0  502 -0.38970300200E+03 -0.19963954945E+03  0.65375087295E+03  0.78683937132E+03  0.12699999809E+01 0.  1.
</event>
<event>
 5   0  0.6542036E-05  0.1498697E+04  0.7818609E-02  0.8885320E-01
       -1   -1    0    0    0  501  0.00000000000E+00  0.00000000000E+00  0.72971510869E+03  0.72971510870E+03  0.50400001928E-02 0.  1.
        1   -1    0    0  501    0  0.00000000000E+00  0.00000000000E+00 -0.76951006764E+03  0.76951006765E+03  0.50400001928E-02 0. -1.
    10030    2    1    2    0    0  0.00000000000E+00  0.00000000000E+00 -0.39794958951E+02  0.14992251764E+04  0.14986969309E+04 0.  0.
        4    1    3    3  502    0 -0.43443055801E+02  0.36990381780E+03 -0.67036153003E+03  0.76687830023E+03  0.12699999809E+01 0. -1.
       -4    1    3    3    0  502  0.43443055801E+02 -0.36990381780E+03  0.63056657108E+03  0.73234687613E+03  0.12699999809E+01 0.  1.
</event>
<event>
 5   0  0.6542036E-05  0.1502601E+04  0.7818609E-02  0.8882725E-01
        1   -1    0    0  501    0  0.00000000000E+00  0.00000000000E+00  0.78201972251E+03  0.78201972252E+03  0.50400001928E-02 0.  1.
       -1   -1    0    0    0  501  0.00000000000E+00  0.00000000000E+00 -0.72178840379E+03  0.72178840380E+03  0.50400001928E-02 0. -1.
    10030    2    1    2    0    0  0.00000000000E+00  0.00000000000E+00  0.60231318720E+02  0.15038081263E+04  0.15026014339E+04 0.  0.
        4    1    3    3  502    0  0.51894086408E+03 -0.17548330663E+03  0.54468529267E+03  0.77251387837E+03  0.12699999809E+01 0.  1.
       -4    1    3    3    0  502 -0.51894086408E+03  0.17548330663E+03 -0.48445397395E+03  0.73129424796E+03  0.12699999809E+01 0. -1.
</event>
<event>
 5   0  0.6668433E-05  0.1499213E+04  0.7818609E-02  0.8884976E-01
        1   -1    0    0  501    0  0.00000000000E+00  0.00000000000E+00  0.12330628144E+04  0.12330628144E+04  0.50400001928E-02 0. -1.
       -1   -1    0    0    0  501  0.00000000000E+00  0.00000000000E+00 -0.45570279530E+03  0.45570279532E+03  0.50400001928E-02 0.  1.
    10030    2    1    2    0    0  0.00000000000E+00  0.00000000000E+00  0.77736001907E+03  0.16887656097E+04  0.14992133555E+04 0.  0.
        1    1    3    3  502    0  0.23242884036E+03  0.26889821103E+03 -0.35475032338E+03  0.50217248599E+03  0.50400001928E-02 0.  1.
       -1    1    3    3    0  502 -0.23242884036E+03 -0.26889821103E+03  0.11321103424E+04  0.11865931237E+04  0.50400001928E-02 0. -1.
</event>
<event>
 5   0  0.6364378E-05  0.1500586E+04  0.7818609E-02  0.8884063E-01
        1   -1    0    0  501    0  0.00000000000E+00  0.00000000000E+00  0.10962429751E+04  0.10962429751E+04  0.50400001928E-02 0. -1.
       -1   -1    0    0    0  501  0.00000000000E+00  0.00000000000E+00 -0.51351721915E+03  0.51351721917E+03  0.50400001928E-02 0.  1.
    10030    2    1    2    0    0  0.00000000000E+00  0.00000000000E+00  0.58272575594E+03  0.16097601943E+04  0.15005860776E+04 0.  0.
        5    1    3    3  502    0  0.51888325067E+03 -0.40343059168E+03  0.67951836605E+03  0.94539059119E+03  0.46999998093E+01 0. -1.
       -5    1    3    3    0  502 -0.51888325067E+03  0.40343059168E+03 -0.96792610106E+02  0.66436960308E+03  0.46999998093E+01 0.  1.
</event>
<event>
 5   0  0.1216921E-04  0.1500207E+04  0.7818609E-02  0.8884315E-01
       -2   -1    0    0    0  501  0.00000000000E+00  0.00000000000E+00  0.22825429539E+03  0.22825429541E+03  0.25500000920E-02 0.  1.
        2   -1    0    0  501    0  0.00000000000E+00  0.00000000000E+00 -0.24650381131E+04  0.24650381131E+04  0.25500000920E-02 0. -1.
    10030    2    1    2    0    0  0.00000000000E+00  0.00000000000E+00 -0.22367838177E+04  0.26932924085E+04  0.15002073692E+04 0.  0.
        4    1    3    3  502    0 -0.31572956833E+03 -0.66389415626E+03 -0.85082100386E+03  0.11244281233E+04  0.12699999809E+01 0.  1.
       -4    1    3    3    0  502  0.31572956833E+03  0.66389415626E+03 -0.13859628138E+04  0.15688642852E+04  0.12699999809E+01 0. -1.
</event>
<event>
 5   0  0.6364378E-05  0.1497367E+04  0.7818609E-02  0.8886206E-01
        1   -1    0    0  501    0  0.00000000000E+00  0.00000000000E+00  0.93296719719E+03  0.93296719721E+03  0.50400001928E-02 0. -1.
       -1   -1    0    0    0  501  0.00000000000E+00  0.00000000000E+00 -0.60080020823E+03  0.60080020826E+03  0.50400001928E-02 0.  1.
    10030    2    1    2    0    0  0.00000000000E+00  0.00000000000E+00  0.33216698896E+03  0.15337674055E+04  0.14973668707E+04 0.  0.
        5    1    3    3  502    0 -0.97083960124E+02 -0.31968824567E+03 -0.52018789355E+03  0.61825836374E+03  0.46999998093E+01 0.  1.
       -5    1    3    3    0  502  0.97083960124E+02  0.31968824567E+03  0.85235488251E+03  0.91550904172E+03  0.46999998093E+01 0. -1.
</event>
<event>
 5   0  0.1216921E-04  0.1488474E+04  0.7818609E-02  0.8892154E-01
        2   -1    0    0  501    0  0.00000000000E+00  0.00000000000E+00  0.80916026106E+03  0.80916026107E+03  0.25500000920E-02 0.  1.
       -2   -1    0    0    0  501  0.00000000000E+00  0.00000000000E+00 -0.68452262041E+03  0.68452262042E+03  0.25500000920E-02 0. -1.
    10030    2    1    2    0    0  0.00000000000E+00  0.00000000000E+00  0.12463764065E+03  0.14936828815E+04  0.14884737179E+04 0.  0.
        4    1    3    3  502    0 -0.28921226041E+03 -0.16589096470E+03  0.73002200080E+03  0.80255671344E+03  0.12699999809E+01 0.  1.
       -4    1    3    3    0  502  0.28921226041E+03  0.16589096470E+03 -0.60538436015E+03  0.69112616804E+03  0.12699999809E+01 0. -1.
</event>
<event>
 5   0  0.6668433E-05  0.1500481E+04  0.7818609E-02  0.8884133E-01
        1   -1    0    0  501    0  0.00000000000E+00  0.00000000000E+00  0.19024113347E+04  0.19024113347E+04  0.50400001928E-02 0.  1.
       -1   -1    0    0    0  501  0.00000000000E+00  0.00000000000E+00 -0.29586693777E+03  0.29586693781E+03  0.50400001928E-02 0. -1.
    10030    2    1    2    0    0  0.00000000000E+00  0.00000000000E+00  0.16065443969E+04  0.21982782725E+04  0.15004807443E+04 0.  0.
        1    1    3    3  502    0  0.31846606047E+02 -0.63280263599E+03  0.21468103476E+03  0.66898529816E+03  0.50400001928E-02 0. -1.
       -1    1    3    3    0  502 -0.31846606047E+02  0.63280263599E+03  0.13918633621E+04  0.15292929743E+04  0.50400001928E-02 0.  1.
</event>
<event>
 5   0  0.1219810E-04  0.1502228E+04  0.7818609E-02  0.8882973E-01
       -2   -1    0    0    0  501  0.00000000000E+00  0.00000000000E+00  0.74752838163E+03  0.74752838164E+03  0.25500000920E-02 0.  1.
        2   -1    0    0  501    0  0.00000000000E+00  0.00000000000E+00 -0.75471672388E+03  0.75471672389E+03  0.25500000920E-02 0. -1.
    10030    2    1    2    0    0  0.00000000000E+00  0.00000000000E+00 -0.71883422509E+01  0.15022451055E+04  0.15022279071E+04 0.  0.
        1    1    3    3  502    0 -0.31541097769E+02 -0.51341387915E+03  0.54375432728E+03  0.74850345397E+03  0.50400001928E-02 0.  1.
       -1    1    3    3    0  502  0.31541097769E+02  0.51341387915E+03 -0.55094266953E+03  0.75374165155E+03  0.50400001928E-02 0. -1.
</event>
<event>
 5   0  0.6361716E-05  0.1497650E+04  0.7818609E-02  0.8886017E-01
        1   -1    0    0  501    0  0.00000000000E+00  0.00000000000E+00  0.12783237093E+04  0.12783237093E+04  0.50400001928E-02 0.  1.
       -1   -1    0    0    0  501  0.00000000000E+00  0.00000000000E+00 -0.43865153848E+03  0.43865153851E+03  0.50400001928E-02 0. -1.
    10030    2    1    2    0    0  0.00000000000E+00  0.00000000000E+00  0.83967217082E+03  0.17169752478E+04  0.14976497078E+04 0.  0.
        3    1    3    3  502    0  0.55636557369E+03  0.47875596785E+03  0.24983417770E+03  0.77534963397E+03  0.10100000352E+00 0. -1.
       -3    1    3    3    0  502 -0.55636557369E+03 -0.47875596785E+03  0.58983799312E+03  0.94162561386E+03  0.10100000352E+00 0.  1.
</event>
<event>
 5   0  0.1228286E-04  0.1500702E+04  0.7818609E-02  0.8883986E-01
       -2   -1    0    0    0  501  0.00000000000E+00  0.00000000000E+00  0.44519481748E+03  0.44519481749E+03  0.25500000920E-02 0.  1.
        2   -1    0    0  501    0  0.00000000000E+00  0.00000000000E+00 -0.12646747554E+04  0.12646747554E+04  0.25500000920E-02 0. -1.
    10030    2    1    2    0    0  0.00000000000E+00  0.00000000000E+00 -0.81947993796E+03  0.17098695729E+04  0.15007020316E+04 0.  0.
        2    1    3    3  502    0 -0.17951663186E+02  0.44366466663E+03 -0.10989150539E+04  0.11852320003E+04  0.25500000920E-02 0. -1.
       -2    1    3    3    0  502  0.17951663186E+02 -0.44366466663E+03  0.27943511598E+03  0.52463757269E+03  0.25500000920E-02 0.  1.
</event>
<event>
 5   0  0.6668433E-05  0.1499392E+04  0.7818609E-02  0.8884857E-01
        1   -1    0    0  501    0  0.00000000000E+00  0.00000000000E+00  0.15737402831E+04  0.15737402831E+04  0.50400001928E-02 0.  1.
       -1   -1    0    0    0  501  0.00000000000E+00  0.00000000000E+00 -0.35713909867E+03  0.35713909870E+03  0.50400001928E-02 0. -1.
    10030    2    1    2    0    0  0.00000000000E+00  0.00000000000E+00  0.12166011845E+04  0.19308793819E+04  0.14993921252E+04 0.  0.
        1    1    3    3  502    0 -0.68012574716E+03  0.22636724468E+03  0.32548512029E+03  0.78724438707E+03  0.50400001928E-02 0. -1.
       -1    1    3    3    0  502  0.68012574716E+03 -0.22636724468E+03  0.89111606419E+03  0.11436349948E+04  0.50400001928E-02 0.  1.
</event>
<event>
 5   0  0.6361716E-05  0.1499245E+04  0.7818609E-02  0.8884955E-01
       -1   -1    0    0    0  501  0.00000000000E+00  0.00000000000E+00  0.61490406815E+03  0.61490406817E+03  0.50400001928E-02 0. -1.
        1   -1    0    0  501    0  0.00000000000E+00  0.00000000000E+00 -0.91385607682E+03  0.91385607683E+03  0.50400001928E-02 0.  1.
    10030    2    1    2    0    0  0.00000000000E+00  0.00000000000E+00 -0.29895200867E+03  0.15287601450E+04  0.14992449024E+04 0.  0.
        3    1    3    3  502    0  0.74395921011E+03 -0.18916386541E+02 -0.57700384476E+02  0.74643317220E+03  0.10100000352E+00 0. -1.
       -3    1    3    3    0  502 -0.74395921011E+03  0.18916386541E+02 -0.24125162419E+03  0.78232697280E+03  0.10100000352E+00 0.  1.
</event>
<event>
 5   0  0.6668433E-05  0.1498027E+04  0.7818609E-02  0.8885766E-01
        1   -1    0    0  501    0  0.00000000000E+00  0.00000000000E+00  0.11188240271E+04  0.11188240271E+04  0.50400001928E-02 0.  1.
       -1   -1    0    0    0  501  0.00000000000E+00  0.00000000000E+00 -0.50143820615E+03  0.50143820618E+03  0.50400001928E-02 0. -1.
    10030    2    1    2    0    0  0.00000000000E+00  0.00000000000E+00  0.61738582091E+03  0.16202622333E+04  0.14980268531E+04 0.  0.
        1    1    3    3  502    0 -0.72264666600E+03 -0.11978507746E+03  0.13955357829E+03  0.74568215072E+03  0.50400001928E-02 0.  1.
       -1    1    3    3    0  502  0.72264666600E+03  0.11978507746E+03  0.47783224262E+03  0.87458008254E+03  0.50400001928E-02 0. -1.
</event>
<event>
 5   0  0.1254487E-04  0.1500034E+04  0.7818609E-02  0.8884430E-01
       -2   -1    0    0    0  501  0.00000000000E+00  0.00000000000E+00  0.27255091389E+03  0.27255091390E+03  0.25500000920E-02 0. -1.
        2   -1    0    0  501    0  0.00000000000E+00  0.00000000000E+00 -0.20639279674E+04  0.20639279674E+04  0.25500000920E-02 0.  1.
    10030    2    1    2    0    0  0.00000000000E+00  0.00000000000E+00 -0.17913770535E+04  0.23364788813E+04  0.15000339379E+04 0.  0.
        5    1    3    3  502    0 -0.12035314426E+03 -0.24854911059E+03  0.19045428142E+03  0.33549435617E+03  0.46999998093E+01 0. -1.
       -5    1    3    3    0  502  0.12035314426E+03  0.24854911059E+03 -0.19818313349E+04  0.20009845251E+04  0.46999998093E+01 0.  1.
</event>
<event>
 5   0  0.1186664E-04  0.1500715E+04  0.7818609E-02  0.8883977E-01
       -2   -1    0    0    0  501  0.00000000000E+00  0.00000000000E+00  0.45441104867E+03  0.45441104867E+03  0.25500000920E-02 0.  1.
        2   -1    0    0  501    0  0.00000000000E+00  0.00000000000E+00 -0.12390471543E+04  0.12390471543E+04  0.25500000920E-02 0. -1.
    10030    2    1    2    0    0  0.00000000000E+00  0.00000000000E+00 -0.78463610565E+03  0.16934582030E+04  0.15007154517E+04 0.  0.
        3    1    3    3  502    0 -0.64608901785E+03  0.10594873303E+03 -0.80597882733E+03  0.10383920422E+04  0.10100000352E+00 0. -1.
       -3    1    3    3    0  502  0.64608901785E+03 -0.10594873303E+03  0.21342721685E+02  0.65506616077E+03  0.10100000352E+00 0.  1.
</event>
<event>
 5   0  0.1219810E-04  0.1499636E+04  0.7818609E-02  0.8884695E-01
       -2   -1    0    0    0  501  0.00000000000E+00  0.00000000000E+00  0.41577605164E+03  0.41577605165E+03  0.25500000920E-02 0.  1.
        2   -1    0    0  501    0  0.00000000000E+00  0.00000000000E+00 -0.13522353060E+04  0.13522353060E+04  0.25500000920E-02 0. -1.
    10030    2    1    2    0    0  0.00000000000E+00  0.00000000000E+00 -0.93645925435E+03  0.17680113576E+04  0.14996360311E+04 0.  0.
        1    1    3    3  502    0 -0.73089741728E+02 -0.50788499493E+03 -0.11128285644E+04  0.12254291869E+04  0.50400001928E-02 0. -1.
       -1    1    3    3    0  502  0.73089741728E+02  0.50788499493E+03  0.17636931004E+03  0.54258217071E+03  0.50400001928E-02 0.  1.
</event>
<event>
 5   0  0.6509279E-05  0.1497932E+04  0.7818609E-02  0.8885829E-01
        1   -1    0    0  501    0  0.00000000000E+00  0.00000000000E+00  0.15613846067E+04  0.15613846067E+04  0.50400001928E-02 0.  1.
       -1   -1    0    0    0  501  0.00000000000E+00  0.00000000000E+00 -0.35926451320E+03  0.35926451324E+03  0.50400001928E-02 0. -1.
    10030    2    1    2    0    0  0.00000000000E+00  0.00000000000E+00  0.12021200935E+04  0.19206491200E+04  0.14979320154E+04 0.  0.
        2    1    3    3  502    0 -0.48563917508E+02 -0.74716990615E+03  0.62430849990E+03  0.97487559503E+03  0.25500000920E-02 0. -1.
       -2    1    3    3    0  502  0.48563917508E+02  0.74716990615E+03  0.57781159363E+03  0.94577352494E+03  0.25500000920E-02 0.  1.
</event>
<event>
 5   0  0.6668433E-05  0.1497256E+04  0.7818609E-02  0.8886280E-01
        1   -1    0    0  501    0  0.00000000000E+00  0.00000000000E+00  0.59240552894E+03  0.59240552897E+03  0.50400001928E-02 0.  1.
       -1   -1    0    0    0  501  0.00000000000E+00  0.00000000000E+00 -0.94604765069E+03  0.94604765070E+03  0.50400001928E-02 0. -1.
    10030    2    1    2    0    0  0.00000000000E+00  0.00000000000E+00 -0.35364212174E+03  0.15384531797E+04  0.14972559687E+04 0.  0.
        1    1    3    3  502    0 -0.66086245894E+03 -0.26912215970E+03  0.55855954107E+02  0.71574144362E+03  0.50400001928E-02 0.  1.
       -1    1    3    3    0  502  0.66086245894E+03  0.26912215970E+03 -0.40949807585E+03  0.82271173605E+03  0.50400001928E-02 0. -1.
</event>
<event>
 5   0  0.1254487E-04  0.1472765E+04  0.7818609E-02  0.8902768E-01
        2   -1    0    0  501    0  0.00000000000E+00  0.00000000000E+00  0.50964077157E+03  0.50964077157E+03  0.25500000920E-02 0. -1.
       -2   -1    0    0    0  501  0.00000000000E+00  0.00000000000E+00 -0.10640031045E+04  0.10640031045E+04  0.25500000920E-02 0.  1.
    10030    2    1    2    0    0  0.00000000000E+00  0.00000000000E+00 -0.55436233297E+03  0.15736438761E+04  0.14727652402E+04 0.  0.
        5    1    3    3  502    0  0.70679304693E+03 -0.15026883640E+03 -0.42866715266E+03  0.84018733158E+03  0.46999998093E+01 0.  1.
       -5    1    3    3    0  502 -0.70679304693E+03  0.15026883640E+03 -0.12569518031E+03  0.73345654454E+03  0.46999998093E+01 0. -1.
</event>
<event>
 5   0  0.6364378E-05  0.1495307E+04  0.7818609E-02  0.8887579E-01
       -1   -1    0    0    0  501  0.00000000000E+00  0.00000000000E+00  0.61453545897E+03  0.61453545899E+03  0.50400001928E-02 0.  1.
        1   -1    0    0  501    0  0.00000000000E+00  0.00000000000E+00 -0.90960741924E+03  0.90960741925E+03  0.50400001928E-02 0. -1.
    10030    2    1    2    0    0  0.00000000000E+00  0.00000000000E+00 -0.29507196027E+03  0.15241428782E+04  0.14953073435E+04 0.  0.
        5    1    3    3  502    0  0.15866310976E+03  0.49704450243E+03  0.39826820152E+03  0.65640450191E+03  0.46999998093E+01 0.  1.
       -5    1    3    3    0  502 -0.15866310976E+03 -0.49704450243E+03 -0.69334016179E+03  0.86773837632E+03  0.46999998093E+01 0. -1.
</event>
<event>
 5   0  0.6542036E-05  0.1499135E+04  0.7818609E-02  0.8885028E-01
       -1   -1    0    0    0  501  0.00000000000E+00  0.00000000000E+00  0.50369665262E+03  0.50369665264E+03  0.50400001928E-02 0.  1.
        1   -1    0    0  501    0  0.00000000000E+00  0.00000000000E+00 -0.11154565017E+04  0.11154565017E+04  0.50400001928E-02 0. -1.
    10030    2    1    2    0    0  0.00000000000E+00  0.00000000000E+00 -0.61175984908E+03  0.16191531544E+04  0.14991353589E+04 0.  0.
        4    1    3    3  502    0  0.10620666875E+02 -0.29682009019E+03  0.43742846651E+03  0.52873456547E+03  0.12699999809E+01 0.  1.
       -4    1    3    3    0  502 -0.10620666875E+02  0.29682009019E+03 -0.10491883156E+04  0.10904185889E+04  0.12699999809E+01 0. -1.
</event>
<event>
 5   0  0.1254487E-04  0.1499607E+04  0.7818609E-02  0.8884714E-01
        2   -1    0    0  501    0  0.00000000000E+00  0.00000000000E+00  0.70380657085E+03  0.70380657085E+03  0.25500000920E-02 0.  1.
       -2   -1    0    0    0  501  0.00000000000E+00  0.00000000000E+00 -0.79880634423E+03  0.79880634423E+03  0.25500000920E-02 0. -1.
    10030    2    1    2    0    0  0.00000000000E+00  0.00000000000E+00 -0.94999773380E+02  0.15026129151E+04  0.14996068203E+04 0.  0.
        5    1    3    3  502    0 -0.69882850822E+03  0.23085023429E+03  0.96070096380E+02  0.74222952514E+03  0.46999998093E+01 0.  1.
       -5    1    3    3    0  502  0.69882850822E+03 -0.23085023429E+03 -0.19106986976E+03  0.76038338994E+03  0.46999998093E+01 0. -1.
</event>
<event>
 5   0  0.4462875E-05  0.1504011E+04  0.7818609E-02  0.8881790E-01
        3   -1    0    0  501    0  0.00000000000E+00  0.00000000000E+00  0.12258055729E+04  0.12258055770E+04  0.10100000352E+00 0. -1.
       -3   -1    0    0    0  501  0.00000000000E+00  0.00000000000E+00 -0.46133937306E+03  0.46133938412E+03  0.10100000352E+00 0.  1.
    10030    2    1    2    0    0  0.00000000000E+00  0.00000000000E+00  0.76446619982E+03  0.16871449612E+04  0.15040111533E+04 0.  0.
        4    1    3    3  502    0  0.22301429265E+03 -0.66215399045E+03  0.70295083297E+02  0.70222951620E+03  0.12699999809E+01 0.  1.
       -4    1    3    3    0  502 -0.22301429265E+03  0.66215399045E+03  0.69417111652E+03  0.98491544495E+03  0.12699999809E+01 0. -1.
</event>
<event>
 5   0  0.1254487E-04  0.1499463E+04  0.7818609E-02  0.8884810E-01
        2   -1    0    0  501    0  0.00000000000E+00  0.00000000000E+00  0.10043324002E+04  0.10043324002E+04  0.25500000920E-02 0. -1.
       -2   -1    0    0    0  501  0.00000000000E+00  0.00000000000E+00 -0.55967278188E+03  0.55967278189E+03  0.25500000920E-02 0.  1.
    10030    2    1    2    0    0  0.00000000000E+00  0.00000000000E+00  0.44465961830E+03  0.15640051821E+04  0.14994632484E+04 0.  0.
        5    1    3    3  502    0 -0.27528801334E+03 -0.76878308545E+02  0.94525867889E+03  0.98753725228E+03  0.46999998093E+01 0. -1.
       -5    1    3    3    0  502  0.27528801334E+03  0.76878308545E+02 -0.50059906060E+03  0.57646792980E+03  0.46999998093E+01 0.  1.
</event>
<event>
 5   0  0.1216921E-04  0.1518786E+04  0.7818609E-02  0.8872056E-01
       -2   -1    0    0    0  501  0.00000000000E+00  0.00000000000E+00  0.81249756542E+03  0.81249756542E+03  0.25500000920E-02 0. -1.
        2   -1    0    0  501    0  0.00000000000E+00  0.00000000000E+00 -0.70975950753E+03  0.70975950754E+03  0.25500000920E-02 0.  1.
    10030    2    1    2    0    0  0.00000000000E+00  0.00000000000E+00  0.10273805788E+03  0.15222570730E+04  0.15187861889E+04 0.  0.
        4    1    3    3  502    0 -0.16866922316E+03  0.71254507735E+03  0.25309115319E+03  0.77474288562E+03  0.12699999809E+01 0.  1.
       -4    1    3    3    0  502  0.16866922316E+03 -0.71254507735E+03 -0.15035309531E+03  0.74751418734E+03  0.12699999809E+01 0. -1.
</event>
<event>
 5   0  0.1219810E-04  0.1499770E+04  0.7818609E-02  0.8884606E-01
        2   -1    0    0  501    0  0.00000000000E+00  0.00000000000E+00  0.84192088612E+03  0.84192088612E+03  0.25500000920E-02 0. -1.
       -2   -1    0    0    0  501  0.00000000000E+00  0.00000000000E+00 -0.66790996303E+03  0.66790996303E+03  0.25500000920E-02 0.  1.
    10030    2    1    2    0    0  0.00000000000E+00  0.00000000000E+00  0.17401092309E+03  0.15098308492E+04  0.14997697796E+04 0.  0.
        1    1    3    3  502    0 -0.54672673712E+02  0.68314933462E+03 -0.21941321746E+03  0.71960007967E+03  0.50400001928E-02 0.  1.
       -1    1    3    3    0  502  0.54672673712E+02 -0.68314933462E+03  0.39342414055E+03  0.79023076948E+03  0.50400001928E-02 0. -1.
</event>
<event>
 5   0  0.1219810E-04  0.1499785E+04  0.7818609E-02  0.8884596E-01
        2   -1    0    0  501    0  0.00000000000E+00  0.00000000000E+00  0.73251680777E+03  0.73251680778E+03  0.25500000920E-02 0.  1.
       -2   -1    0    0    0  501  0.00000000000E+00  0.00000000000E+00 -0.76768011319E+03  0.76768011319E+03  0.25500000920E-02 0. -1.
    10030    2    1    2    0    0  0.00000000000E+00  0.00000000000E+00 -0.35163305416E+02  0.15001969210E+04  0.14997847658E+04 0.  0.
        1    1    3    3  502    0 -0.36602154654E+02  0.45697740519E+03 -0.61118430226E+03  0.76401198808E+03  0.50400001928E-02 0. -1.
       -1    1    3    3    0  502  0.36602154654E+02 -0.45697740519E+03  0.57602099684E+03  0.73618493289E+03  0.50400001928E-02 0.  1.
</event>
<event>
 5   0  0.6509279E-05  0.1500934E+04  0.7818609E-02  0.8883832E-01
       -1   -1    0    0    0  501  0.00000000000E+00  0.00000000000E+00  0.42812402008E+03  0.42812402011E+03  0.50400001928E-02 0.  1.
        1   -1    0    0  501    0  0.00000000000E+00  0.00000000000E+00 -0.13155080201E+04  0.13155080201E+04  0.50400001928E-02 0. -1.
    10030    2    1    2    0    0  0.00000000000E+00  0.00000000000E+00 -0.88738399999E+03  0.17436320402E+04  0.15009338187E+04 0.  0.
        2    1    3    3  502    0 -0.57382589658E+03 -0.37596466896E+03 -0.79715188750E+03  0.10517018226E+04  0.25500000920E-02 0. -1.
       -2    1    3    3    0  502  0.57382589658E+03  0.37596466896E+03 -0.90232112496E+02  0.69193021760E+03  0.25500000920E-02 0.  1.
</event>
<event>
 5   0  0.1219810E-04  0.1500141E+04  0.7818609E-02  0.8884359E-01
        2   -1    0    0  501    0  0.00000000000E+00  0.00000000000E+00  0.17301462146E+04  0.17301462146E+04  0.25500000920E-02 0.  1.
       -2   -1    0    0    0  501  0.00000000000E+00  0.00000000000E+00 -0.32517812685E+03  0.32517812686E+03  0.25500000920E-02 0. -1.
    10030    2    1    2    0    0  0.00000000000E+00  0.00000000000E+00  0.14049680877E+04  0.20553243414E+04  0.15001409337E+04 0.  0.
        1    1    3    3  502    0  0.48250913578E+03  0.42986884800E+03  0.18076412779E+03  0.67102754229E+03  0.50400001928E-02 0. -1.
       -1    1    3    3    0  502 -0.48250913578E+03 -0.42986884800E+03  0.12242039599E+04  0.13842967992E+04  0.50400001928E-02 0.  1.
</event>
<event>
 5   0  0.6364378E-05  0.1500185E+04  0.7818609E-02  0.8884330E-01
        1   -1    0    0  501    0  0.00000000000E+00  0.00000000000E+00  0.95843979558E+03  0.95843979559E+03  0.50400001928E-02 0.  1.
       -1   -1    0    0    0  501  0.00000000000E+00  0.00000000000E+00 -0.58703627497E+03  0.58703627499E+03  0.50400001928E-02 0. -1.
    10030    2    1    2    0    0  0.00000000000E+00  0.00000000000E+00  0.37140352061E+03  0.15454760706E+04  0.15001852251E+04 0.  0.
        5    1    3    3  502    0  0.25349676045E+03  0.56671054375E+03  0.61935601319E+03  0.87695234137E+03  0.46999998093E+01 0.  1.
       -5    1    3    3    0  502 -0.25349676045E+03 -0.56671054375E+03 -0.24795249258E+03  0.66852372922E+03  0.46999998093E+01 0. -1.
</event>
<event>
 5   0  0.6361716E-05  0.1493658E+04  0.7818609E-02  0.8888681E-01
        1   -1    0    0  501    0  0.00000000000E+00  0.00000000000E+00  0.12970585549E+04  0.12970585549E+04  0.50400001928E-02 0.  1.
       -1   -1    0    0    0  501  0.00000000000E+00  0.00000000000E+00 -0.43001416091E+03  0.43001416094E+03  0.50400001928E-02 0. -1.
    10030    2    1    2    0    0  0.00000000000E+00  0.00000000000E+00  0.86704439402E+03  0.17270727159E+04  0.14936579879E+04 0.  0.
        3    1    3    3  502    0  0.42888353208E+03  0.90449805654E+02 -0.26564514076E+03  0.51253253794E+03  0.10100000352E+00 0. -1.
       -3    1    3    3    0  502 -0.42888353208E+03 -0.90449805654E+02  0.11326895348E+04  0.12145401779E+04  0.10100000352E+00 0.  1.
</event>
<event>
 5   0  0.1216921E-04  0.1542120E+04  0.7818609E-02  0.8856917E-01
       -2   -1    0    0    0  501  0.00000000000E+00  0.00000000000E+00  0.34925006757E+03  0.34925006758E+03  0.25500000920E-02 0.  1.
        2   -1    0    0  501    0  0.00000000000E+00  0.00000000000E+00 -0.17023150402E+04  0.17023150402E+04  0.25500000920E-02 0. -1.
    10030    2    1    2    0    0  0.00000000000E+00  0.00000000000E+00 -0.13530649726E+04  0.20515651078E+04  0.15421201546E+04 0.  0.
        4    1    3    3  502    0 -0.53297775933E+03  0.48427928117E+03 -0.10431416282E+04  0.12675716088E+04  0.12699999809E+01 0. -1.
       -4    1    3    3    0  502  0.53297775933E+03 -0.48427928117E+03 -0.30992334446E+03  0.78399349899E+03  0.12699999809E+01 0.  1.
</event>
<event>
 5   0  0.6668433E-05  0.1500588E+04  0.7818609E-02  0.8884062E-01
        1   -1    0    0  501    0  0.00000000000E+00  0.00000000000E+00  0.14467644032E+04  0.14467644032E+04  0.50400001928E-02 0. -1.
       -1   -1    0    0    0  501  0.00000000000E+00  0.00000000000E+00 -0.38910349305E+03  0.38910349309E+03  0.50400001928E-02 0.  1.
    10030    2    1    2    0    0  0.00000000000E+00  0.00000000000E+00  0.10576609102E+04  0.18358678963E+04  0.15005879954E+04 0.  0.
        1    1    3    3  502    0  0.22463470639E+03 -0.23944608274E+03 -0.29655208847E+03  0.44242323521E+03  0.50400001928E-02 0.  1.
       -1    1    3    3    0  502 -0.22463470639E+03  0.23944608274E+03  0.13542129986E+04  0.13934446611E+04  0.50400001928E-02 0. -1.
</event>
<event>
 5   0  0.1186664E-04  0.1500149E+04  0.7818609E-02  0.8884354E-01
       -2   -1    0    0    0  501  0.00000000000E+00  0.00000000000E+00  0.30908922750E+03  0.30908922751E+03  0.25500000920E-02 0. -1.
        2   -1    0    0  501    0  0.00000000000E+00  0.00000000000E+00 -0.18202244751E+04  0.18202244751E+04  0.25500000920E-02 0.  1.
    10030    2    1    2    0    0  0.00000000000E+00  0.00000000000E+00 -0.15111352477E+04  0.21293137027E+04  0.15001490285E+04 0.  0.
        3    1    3    3  502    0 -0.13816946669E+03  0.56220419970E+02 -0.17989582545E+04  0.18051322247E+04  0.10100000352E+00 0.  1.
       -3    1    3    3    0  502  0.13816946669E+03 -0.56220419970E+02  0.28782300685E+03  0.32418147791E+03  0.10100000352E+00 0. -1.
</event>
<event>
 5   0  0.1186664E-04  0.1502406E+04  0.7818609E-02  0.8882855E-01
        2   -1    0    0  501    0  0.00000000000E+00  0.00000000000E+00  0.11542096245E+04  0.11542096246E+04  0.25500000920E-02 0.  1.
       -2   -1    0    0    0  501  0.00000000000E+00  0.00000000000E+00 -0.48891081796E+03  0.48891081797E+03  0.25500000920E-02 0. -1.
    10030    2    1    2    0    0  0.00000000000E+00  0.00000000000E+00  0.66529880658E+03  0.16431204425E+04  0.15024055001E+04 0.  0.
        3    1    3    3  502    0 -0.66947110292E+03 -0.34062801159E+03  0.32247416311E+03  0.81744027060E+03  0.10100000352E+00 0. -1.
       -3    1    3    3    0  502  0.66947110292E+03  0.34062801159E+03  0.34282464347E+03  0.82568017192E+03  0.10100000352E+00 0.  1.
</event>
<event>
 5   0  0.1186664E-04  0.1493827E+04  0.7818609E-02  0.8888568E-01
        2   -1    0    0  501    0  0.00000000000E+00  0.00000000000E+00  0.11685399155E+04  0.11685399155E+04  0.25500000920E-02 0. -1.
       -2   -1    0    0    0  501  0.00000000000E+00  0.00000000000E+00 -0.47741607067E+03  0.47741607067E+03  0.25500000920E-02 0.  1.
    10030    2    1    2    0    0  0.00000000000E+00  0.00000000000E+00  0.69112384481E+03  0.16459559862E+04  0.14938269443E+04 0.  0.
        3    1    3    3  502    0 -0.40286187555E+03 -0.52500319544E+03 -0.36052442954E+02  0.66274115221E+03  0.10100000352E+00 0.  1.
       -3    1    3    3    0  502  0.40286187555E+03  0.52500319544E+03  0.72717628777E+03  0.98321483394E+03  0.10100000352E+00 0. -1.
</event>
<event>
 5   0  0.6509279E-05  0.1503154E+04  0.7818609E-02  0.8882358E-01
       -1   -1    0    0    0  501  0.00000000000E+00  0.00000000000E+00  0.49786180060E+03  0.49786180062E+03  0.50400001928E-02 0.  1.
        1   -1    0    0  501    0  0.00000000000E+00  0.00000000000E+00 -0.11345883855E+04  0.11345883856E+04  0.50400001928E-02 0. -1.
    10030    2    1    2    0    0  0.00000000000E+00  0.00000000000E+00 -0.63672658495E+03  0.16324501862E+04  0.15031543056E+04 0.  0.
        2    1    3    3  502    0 -0.33601761671E+03 -0.63270045840E+03 -0.56517949747E+03  0.91249414966E+03  0.25500000920E-02 0. -1.
       -2    1    3    3    0  502  0.33601761671E+03  0.63270045840E+03 -0.71547087481E+02  0.71995603652E+03  0.25500000920E-02 0.  1.
</event>
<event>
 5   0  0.1254487E-04  0.1498317E+04  0.7818609E-02  0.8885573E-01
       -2   -1    0    0    0  501  0.00000000000E+00  0.00000000000E+00  0.32329106584E+03  0.32329106585E+03  0.25500000920E-02 0. -1.
        2   -1    0    0  501    0  0.00000000000E+00  0.00000000000E+00 -0.17360157649E+04  0.17360157649E+04  0.25500000920E-02 0.  1.
    10030    2    1    2    0    0  0.00000000000E+00  0.00000000000E+00 -0.14127246990E+04  0.20593068307E+04  0.14983169050E+04 0.  0.
        5    1    3    3  502    0  0.24542537997E+02 -0.53240592225E+03 -0.14299331079E+04  0.15260370852E+04  0.46999998093E+01 0.  1.
       -5    1    3    3    0  502 -0.24542537997E+02  0.53240592225E+03  0.17208408855E+02  0.53326974558E+03  0.46999998093E+01 0. -1.
</event>
<event>
 5   0  0.1254487E-04  0.1503840E+04  0.7818609E-02  0.8881903E-01
       -2   -1    0    0    0  501  0.00000000000E+00  0.00000000000E+00  0.69479242717E+03  0.69479242718E+03  0.25500000920E-02 0. -1.
        2   -1    0    0  501    0  0.00000000000E+00  0.00000000000E+00 -0.81374527618E+03  0.81374527619E+03  0.25500000920E-02 0.  1.
    10030    2    1    2    0    0  0.00000000000E+00  0.00000000000E+00 -0.11895284901E+03  0.15085377034E+04  0.15038404909E+04 0.  0.
        5    1    3    3  502    0 -0.47255295052E+02 -0.24850461495E+03  0.65081317406E+03  0.69826032688E+03  0.46999998093E+01 0. -1.
       -5    1    3    3    0  502  0.47255295052E+02  0.24850461495E+03 -0.76976602308E+03  0.81027737648E+03  0.46999998093E+01 0.  1.
</event>
<event>
 5   0  0.1216921E-04  0.1500141E+04  0.7818609E-02  0.8884359E-01
        2   -1    0    0  501    0  0.00000000000E+00  0.00000000000E+00  0.56903440459E+03  0.56903440460E+03  0.25500000920E-02 0.  1.
       -2   -1    0    0    0  501  0.00000000000E+00  0.00000000000E+00 -0.98870268136E+03  0.98870268137E+03  0.25500000920E-02 0. -1.
    10030    2    1    2    0    0  0.00000000000E+00  0.00000000000E+00 -0.41966827677E+03  0.15577370860E+04  0.15001411155E+04 0.  0.
        4    1    3    3  502    0 -0.12181323658E+03 -0.67063672714E+03  0.11525464912E+03  0.69128672158E+03  0.12699999809E+01 0.  1.
       -4    1    3    3    0  502  0.12181323658E+03  0.67063672714E+03 -0.53492292590E+03  0.86645036438E+03  0.12699999809E+01 0. -1.
</event>
<event>
 5   0  0.1216921E-04  0.1500055E+04  0.7818609E-02  0.8884416E-01
        2   -1    0    0  501    0  0.00000000000E+00  0.00000000000E+00  0.57446839275E+03  0.57446839275E+03  0.25500000920E-02 0. -1.
       -2   -1    0    0    0  501  0.00000000000E+00  0.00000000000E+00 -0.97923774622E+03  0.97923774623E+03  0.25500000920E-02 0.  1.
    10030    2    1    2    0    0  0.00000000000E+00  0.00000000000E+00 -0.40476935347E+03  0.15537061390E+04  0.15000548446E+04 0.  0.
        4    1    3    3  502    0  0.61817568554E+03  0.42456092999E+03 -0.18985405285E+03  0.77358860885E+03  0.12699999809E+01 0. -1.
       -4    1    3    3    0  502 -0.61817568554E+03 -0.42456092999E+03 -0.21491530063E+03  0.78011753013E+03  0.12699999809E+01 0.  1.
</event>
<event>
 5   0  0.6542036E-05  0.1511833E+04  0.7818609E-02  0.8876622E-01
       -1   -1    0    0    0  501  0.00000000000E+00  0.00000000000E+00  0.40840744972E+03  0.40840744975E+03  0.50400001928E-02 0.  1.
        1   -1    0    0  501    0  0.00000000000E+00  0.00000000000E+00 -0.13991162454E+04  0.13991162454E+04  0.50400001928E-02 0. -1.
    10030    2    1    2    0    0  0.00000000000E+00  0.00000000000E+00 -0.99070879564E+03  0.18075236951E+04  0.15118326596E+04 0.  0.
        4    1    3    3  502    0 -0.48126644779E+02  0.45004643777E+02 -0.13956750092E+04  0.13972300942E+04  0.12699999809E+01 0. -1.
       -4    1    3    3    0  502  0.48126644779E+02 -0.45004643777E+02  0.40496621358E+03  0.41029360090E+03  0.12699999809E+01 0.  1.
</event>
<event>
 5   0  0.1186664E-04  0.1503036E+04  0.7818609E-02  0.8882436E-01
       -2   -1    0    0    0  501  0.00000000000E+00  0.00000000000E+00  0.61292429209E+03  0.61292429209E+03  0.25500000920E-02 0. -1.
        2   -1    0    0  501    0  0.00000000000E+00  0.00000000000E+00 -0.92145089079E+03  0.92145089079E+03  0.25500000920E-02 0.  1.
    10030    2    1    2    0    0  0.00000000000E+00  0.00000000000E+00 -0.30852659870E+03  0.15343751829E+04  0.15030364399E+04 0.  0.
        3    1    3    3  502    0  0.10877173619E+03  0.34039843333E+03  0.52063937968E+03  0.63148060769E+03  0.10100000352E+00 0. -1.
       -3    1    3    3    0  502 -0.10877173619E+03 -0.34039843333E+03 -0.82916597838E+03  0.90289457519E+03  0.10100000352E+00 0.  1.
</event>
<event>
 5   0  0.6542036E-05  0.1503476E+04  0.7818609E-02  0.8882145E-01
        1   -1    0    0  501    0  0.00000000000E+00  0.00000000000E+00  0.15537416884E+04  0.15537416884E+04  0.50400001928E-02 0. -1.
       -1   -1    0    0    0  501  0.00000000000E+00  0.00000000000E+00 -0.36370914164E+03  0.36370914167E+03  0.50400001928E-02 0.  1.
    10030    2    1    2    0    0  0.00000000000E+00  0.00000000000E+00  0.11900325468E+04  0.19174508301E+04  0.15034760468E+04 0.  0.
        4    1    3    3  502    0  0.39058490180E+03 -0.35222921124E+03 -0.89983519247E+02  0.53359219391E+03  0.12699999809E+01 0.  1.
       -4    1    3    3    0  502 -0.39058490180E+03  0.35222921124E+03  0.12800160660E+04  0.13838586362E+04  0.12699999809E+01 0. -1.
</event>
<event>
 5   0  0.1219810E-04  0.1500197E+04  0.7818609E-02  0.8884322E-01
       -2   -1    0    0    0  501  0.00000000000E+00  0.00000000000E+00  0.56756531244E+03  0.56756531245E+03  0.25500000920E-02 0. -1.
        2   -1    0    0  501    0  0.00000000000E+00  0.00000000000E+00 -0.99133631111E+03  0.99133631111E+03  0.25500000920E-02 0.  1.
    10030    2    1    2    0    0  0.00000000000E+00  0.00000000000E+00 -0.42377099866E+03  0.15589016236E+04  0.15001974579E+04 0.  0.
        1    1    3    3  502    0  0.45406015195E+03  0.58806091821E+03 -0.10458880943E+03  0.75028333594E+03  0.50400001928E-02 0. -1.
       -1    1    3    3    0  502 -0.45406015195E+03 -0.58806091821E+03 -0.31918218924E+03  0.80861828761E+03  0.50400001928E-02 0.  1.
</event>
<event>
 5   0  0.1228286E-04  0.1503504E+04  0.7818609E-02  0.8882126E-01
        2   -1    0    0  501    0  0.00000000000E+00  0.00000000000E+00  0.63897510106E+03  0.63897510107E+03  0.25500000920E-02 0.  1.
       -2   -1    0    0    0  501  0.00000000000E+00  0.00000000000E+00 -0.88443379595E+03  0.88443379596E+03  0.25500000920E-02 0. -1.
    10030    2    1    2    0    0  0.00000000000E+00  0.00000000000E+00 -0.24545869489E+03  0.15234088970E+04  0.15035041392E+04 0.  0.
        2    1    3    3  502    0 -0.15550486124E+03 -0.41553744052E+03 -0.73762266844E+03  0.86077890735E+03  0.25500000920E-02 0. -1.
       -2    1    3    3    0  502  0.15550486124E+03  0.41553744052E+03  0.49216397355E+03  0.66262998967E+03  0.25500000920E-02 0.  1.
</event>
<event>
 5   0  0.6668433E-05  0.1508722E+04  0.7818609E-02  0.8878674E-01
        1   -1    0    0  501    0  0.00000000000E+00  0.00000000000E+00  0.13839404480E+04  0.13839404480E+04  0.50400001928E-02 0. -1.
       -1   -1    0    0    0  501  0.00000000000E+00  0.00000000000E+00 -0.41118840222E+03  0.41118840225E+03  0.50400001928E-02 0.  1.
    10030    2    1    2    0    0  0.00000000000E+00  0.00000000000E+00  0.97275204578E+03  0.17951288503E+04  0.15087216597E+04 0.  0.
        1    1    3    3  502    0 -0.59824586409E+03  0.12687804653E+03 -0.39126960077E+02  0.61280263676E+03  0.50400001928E-02 0.  1.
       -1    1    3    3    0  502  0.59824586409E+03 -0.12687804653E+03  0.10118790059E+04  0.11823262135E+04  0.50400001928E-02 0. -1.
</event>
<event>
 5   0  0.6509279E-05  0.1498054E+04  0.7818609E-02  0.8885748E-01
        1   -1    0    0  501    0  0.00000000000E+00  0.00000000000E+00  0.61229690506E+03  0.61229690508E+03  0.50400001928E-02 0.  1.
       -1   -1    0    0    0  501  0.00000000000E+00  0.00000000000E+00 -0.91629035360E+03  0.91629035361E+03  0.50400001928E-02 0. -1.
    10030    2    1    2    0    0  0.00000000000E+00  0.00000000000E+00 -0.30399344854E+03  0.15285872587E+04  0.14980544018E+04 0.  0.
        2    1    3    3  502    0  0.20154511387E+03 -0.29718076222E+03 -0.82274142548E+03  0.89768607629E+03  0.25500000920E-02 0. -1.
       -2    1    3    3    0  502 -0.20154511387E+03  0.29718076222E+03  0.51874797695E+03  0.63090118240E+03  0.25500000920E-02 0.  1.
</event>
<event>
 5   0  0.1216921E-04  0.1503309E+04  0.7818609E-02  0.8882256E-01
       -2   -1    0    0    0  501  0.00000000000E+00  0.00000000000E+00  0.62549240967E+03  0.62549240968E+03  0.25500000920E-02 0.  1.
        2   -1    0    0  501    0  0.00000000000E+00  0.00000000000E+00 -0.90326305909E+03  0.90326305909E+03  0.25500000920E-02 0. -1.
    10030    2    1    2    0    0  0.00000000000E+00  0.00000000000E+00 -0.27777064941E+03  0.15287554688E+04  0.15033086009E+04 0.  0.
        4    1    3    3  502    0 -0.59214078659E+03 -0.32097244530E+03  0.20042194382E+03  0.70272654016E+03  0.12699999809E+01 0.  1.
       -4    1    3    3    0  502  0.59214078659E+03  0.32097244530E+03 -0.47819259323E+03  0.82602892861E+03  0.12699999809E+01 0. -1.
</event>
<event>
 5   0  0.1216921E-04  0.1497434E+04  0.7818609E-02  0.8886161E-01
        2   -1    0    0  501    0  0.00000000000E+00  0.00000000000E+00  0.92553935473E+03  0.92553935473E+03  0.25500000920E-02 0. -1.
       -2   -1    0    0    0  501  0.00000000000E+00  0.00000000000E+00 -0.60567649070E+03  0.60567649071E+03  0.25500000920E-02 0.  1.
    10030    2    1    2    0    0  0.00000000000E+00  0.00000000000E+00  0.31986286403E+03  0.15312158454E+04  0.14974343770E+04 0.  0.
        4    1    3    3  502    0  0.32151816562E+03  0.42776026891E+03 -0.37554527463E+03  0.65374968045E+03  0.12699999809E+01 0.  1.
       -4    1    3    3    0  502 -0.32151816562E+03 -0.42776026891E+03  0.69540813866E+03  0.87746616499E+03  0.12699999809E+01 0. -1.
</event>
<event>
 5   0  0.6542036E-05  0.1497124E+04  0.7818609E-02  0.8886368E-01
        1   -1    0    0  501    0  0.00000000000E+00  0.00000000000E+00  0.10865375753E+04  0.10865375753E+04  0.50400001928E-02 0. -1.
       -1   -1    0    0    0  501  0.00000000000E+00  0.00000000000E+00 -0.51571613855E+03  0.51571613857E+03  0.50400001928E-02 0.  1.
    10030    2    1    2    0    0  0.00000000000E+00  0.00000000000E+00  0.57082143673E+03  0.16022537139E+04  0.14971238596E+04 0.  0.
        4    1    3    3  502    0  0.12707886788E+03 -0.35599575125E+03 -0.40607256362E+03  0.55477793161E+03  0.12699999809E+01 0.  1.
       -4    1    3    3    0  502 -0.12707886788E+03  0.35599575125E+03  0.97689400035E+03  0.10474757822E+04  0.12699999809E+01 0. -1.
</event>
<event>
 5   0  0.6509279E-05  0.1501439E+04  0.7818609E-02  0.8883497E-01
       -1   -1    0    0    0  501  0.00000000000E+00  0.00000000000E+00  0.46056954915E+03  0.46056954918E+03  0.50400001928E-02 0.  1.
        1   -1    0    0  501    0  0.00000000000E+00  0.00000000000E+00 -0.12236583559E+04  0.12236583559E+04  0.50400001928E-02 0. -1.
    10030    2    1    2    0    0  0.00000000000E+00  0.00000000000E+00 -0.76308880675E+03  0.16842279051E+04  0.15014390128E+04 0.  0.
        2    1    3    3  502    0 -0.17518139643E+03  0.12995983602E+03 -0.11873285661E+04  0.12071980800E+04  0.25500000920E-02 0. -1.
       -2    1    3    3    0  502  0.17518139643E+03 -0.12995983602E+03  0.42423975930E+03  0.47702982507E+03  0.25500000920E-02 0.  1.
</event>
<event>
 5   0  0.1254487E-04  0.1501468E+04  0.7818609E-02  0.8883477E-01
        2   -1    0    0  501    0  0.00000000000E+00  0.00000000000E+00  0.11021470597E+04  0.11021470597E+04  0.25500000920E-02 0. -1.
       -2   -1    0    0    0  501  0.00000000000E+00  0.00000000000E+00 -0.51136701940E+03  0.51136701940E+03  0.25500000920E-02 0.  1.
    10030    2    1    2    0    0  0.00000000000E+00  0.00000000000E+00  0.59078004026E+03  0.16135140791E+04  0.15014681573E+04 0.  0.
        5    1    3    3  502    0  0.21167981403E+03  0.54529841343E+03 -0.21027848272E+03  0.62160906819E+03  0.46999998093E+01 0.  1.
       -5    1    3    3    0  502 -0.21167981403E+03 -0.54529841343E+03  0.80105852298E+03  0.99190501087E+03  0.46999998093E+01 0. -1.
</event>
<event>
 5   0  0.4462875E-05  0.1501785E+04  0.7818609E-02  0.8883266E-01
       -4   -1    0    0    0  501  0.00000000000E+00  0.00000000000E+00  0.68763508857E+03  0.68763626135E+03  0.12699999809E+01 0. -1.
        4   -1    0    0  501    0  0.00000000000E+00  0.00000000000E+00 -0.81996729434E+03  0.81996827785E+03  0.12699999809E+01 0.  1.
    10030    2    1    2    0    0  0.00000000000E+00  0.00000000000E+00 -0.13233220577E+03  0.15076045392E+04  0.15017854820E+04 0.  0.
        1    1    3    3  502    0 -0.29006651494E+03  0.52860083515E+03 -0.51542948026E+03  0.79323702332E+03  0.50400001928E-02 0.  1.
       -1    1    3    3    0  502  0.29006651494E+03 -0.52860083515E+03  0.38309727449E+03  0.71436751589E+03  0.50400001928E-02 0. -1.
</event>
<event>
 5   0  0.6364378E-05  0.1495920E+04  0.7818609E-02  0.8887171E-01
       -1   -1    0    0    0  501  0.00000000000E+00  0.00000000000E+00  0.40806625713E+03  0.40806625716E+03  0.50400001928E-02 0. -1.
        1   -1    0    0  501    0  0.00000000000E+00  0.00000000000E+00 -0.13709637845E+04  0.13709637846E+04  0.50400001928E-02 0.  1.
    10030    2    1    2    0    0  0.00000000000E+00  0.00000000000E+00 -0.96289752742E+03  0.17790300417E+04  0.14959198645E+04 0.  0.
        5    1    3    3  502    0  0.30298022934E+03 -0.29872657593E+03 -0.12129975202E+04  0.12854647644E+04  0.46999998093E+01 0.  1.
       -5    1    3    3    0  502 -0.30298022934E+03  0.29872657593E+03  0.25009999281E+03  0.49356527728E+03  0.46999998093E+01 0. -1.
</event>
<event>
 5   0  0.1228286E-04  0.1500729E+04  0.7818609E-02  0.8883968E-01
        2   -1    0    0  501    0  0.00000000000E+00  0.00000000000E+00  0.77430706129E+03  0.77430706130E+03  0.25500000920E-02 0. -1.
       -2   -1    0    0    0  501  0.00000000000E+00  0.00000000000E+00 -0.72716259496E+03  0.72716259496E+03  0.25500000920E-02 0.  1.
    10030    2    1    2    0    0  0.00000000000E+00  0.00000000000E+00  0.47144466336E+02  0.15014696563E+04  0.15007293320E+04 0.  0.
        2    1    3    3  502    0  0.78577133314E+02  0.36087493773E+03  0.67707287014E+03  0.77125401655E+03  0.25500000920E-02 0. -1.
       -2    1    3    3    0  502 -0.78577133314E+02 -0.36087493773E+03 -0.62992840380E+03  0.73021563971E+03  0.25500000920E-02 0.  1.
</event>
<event>
 5   0  0.6542036E-05  0.1498693E+04  0.7818609E-02  0.8885323E-01
       -1   -1    0    0    0  501  0.00000000000E+00  0.00000000000E+00  0.43746215298E+03  0.43746215301E+03  0.50400001928E-02 0. -1.
        1   -1    0    0  501    0  0.00000000000E+00  0.00000000000E+00 -0.12835854711E+04  0.12835854711E+04  0.50400001928E-02 0.  1.
    10030    2    1    2    0    0  0.00000000000E+00  0.00000000000E+00 -0.84612331810E+03  0.17210476241E+04  0.14986928488E+04 0.  0.
        4    1    3    3  502    0 -0.28398379536E+03 -0.31681459692E+03 -0.11314276110E+04  0.12087796890E+04  0.12699999809E+01 0.  1.
       -4    1    3    3    0  502  0.28398379536E+03  0.31681459692E+03  0.28530429289E+03  0.51226793506E+03  0.12699999809E+01 0. -1.
</event>
<event>
 5   0  0.1186664E-04  0.1499108E+04  0.7818609E-02  0.8885047E-01
       -2   -1    0    0    0  501  0.00000000000E+00  0.00000000000E+00  0.31108312367E+03  0.31108312368E+03  0.25500000920E-02 0. -1.
        2   -1    0    0  501    0  0.00000000000E+00  0.00000000000E+00 -0.18060476794E+04  0.18060476794E+04  0.25500000920E-02 0.  1.
    10030    2    1    2    0    0  0.00000000000E+00  0.00000000000E+00 -0.14949645558E+04  0.21171308031E+04  0.14991076727E+04 0.  0.
        3    1    3    3  502    0  0.25074085327E+03 -0.40764403197E+03  0.67217486669E+02  0.48328338789E+03  0.10100000352E+00 0. -1.
       -3    1    3    3    0  502 -0.25074085327E+03  0.40764403197E+03 -0.15621820424E+04  0.16338474152E+04  0.10100000352E+00 0.  1.
</event>
<event>
 5   0  0.4462875E-05  0.1501325E+04  0.7818609E-02  0.8883572E-01
        4   -1    0    0  501    0  0.00000000000E+00  0.00000000000E+00  0.82229846963E+03  0.82229945036E+03  0.12699999809E+01 0. -1.
       -4   -1    0    0    0  501  0.00000000000E+00  0.00000000000E+00 -0.68526525238E+03  0.68526642922E+03  0.12699999809E+01 0.  1.
    10030    2    1    2    0    0  0.00000000000E+00  0.00000000000E+00  0.13703321725E+03  0.15075658796E+04  0.15013250077E+04 0.  0.
        5    1    3    3  502    0  0.57497985241E+03 -0.47705094271E+03  0.14156977982E+03  0.76042325396E+03  0.46999998093E+01 0. -1.
       -5    1    3    3    0  502 -0.57497985241E+03  0.47705094271E+03 -0.45365625618E+01  0.74714262561E+03  0.46999998093E+01 0.  1.
</event>
<event>
 5   0  0.1228286E-04  0.1500377E+04  0.7818609E-02  0.8884202E-01
       -2   -1    0    0    0  501  0.00000000000E+00  0.00000000000E+00  0.38655984878E+03  0.38655984879E+03  0.25500000920E-02 0.  1.
        2   -1    0    0  501    0  0.00000000000E+00  0.00000000000E+00 -0.14558757508E+04  0.14558757508E+04  0.25500000920E-02 0. -1.
    10030    2    1    2    0    0  0.00000000000E+00  0.00000000000E+00 -0.10693159020E+04  0.18424355996E+04  0.15003774326E+04 0.  0.
        2    1    3    3  502    0 -0.54455605164E+03 -0.26502446978E+03  0.89979308729E+01  0.60568987587E+03  0.25500000920E-02 0. -1.
       -2    1    3    3    0  502  0.54455605164E+03  0.26502446978E+03 -0.10783138329E+04  0.12367457237E+04  0.25500000920E-02 0.  1.
</event>
<event>
 5   0  0.6361716E-05  0.1506085E+04  0.7818609E-02  0.8880417E-01
        1   -1    0    0  501    0  0.00000000000E+00  0.00000000000E+00  0.48821254260E+03  0.48821254263E+03  0.50400001928E-02 0.  1.
       -1   -1    0    0    0  501  0.00000000000E+00  0.00000000000E+00 -0.11615282534E+04  0.11615282534E+04  0.50400001928E-02 0. -1.
    10030    2    1    2    0    0  0.00000000000E+00  0.00000000000E+00 -0.67331571079E+03  0.16497407960E+04  0.15060845420E+04 0.  0.
        3    1    3    3  502    0 -0.41402980524E+03 -0.27012499202E+03  0.28557850999E+03  0.57091443011E+03  0.10100000352E+00 0.  1.
       -3    1    3    3    0  502  0.41402980524E+03  0.27012499202E+03 -0.95889422078E+03  0.10788263659E+04  0.10100000352E+00 0. -1.
</event>
<event>
 5   0  0.1228286E-04  0.1500990E+04  0.7818609E-02  0.8883795E-01
        2   -1    0    0  501    0  0.00000000000E+00  0.00000000000E+00  0.78030820907E+03  0.78030820907E+03  0.25500000920E-02 0. -1.
       -2   -1    0    0    0  501  0.00000000000E+00  0.00000000000E+00 -0.72182040582E+03  0.72182040582E+03  0.25500000920E-02 0.  1.
    10030    2    1    2    0    0  0.00000000000E+00  0.00000000000E+00  0.58487803251E+02  0.15021286149E+04  0.15009895245E+04 0.  0.
        2    1    3    3  502    0  0.42590147898E+03  0.48113542094E+03  0.41729972811E+03  0.76617388768E+03  0.25500000920E-02 0. -1.
       -2    1    3    3    0  502 -0.42590147898E+03 -0.48113542094E+03 -0.35881192485E+03  0.73595472721E+03  0.25500000920E-02 0.  1.
</event>
<event>
 5   0  0.6364378E-05  0.1499345E+04  0.7818609E-02  0.8884889E-01
       -1   -1    0    0    0  501  0.00000000000E+00  0.00000000000E+00  0.60542262315E+03  0.60542262317E+03  0.50400001928E-02 0. -1.
        1   -1    0    0  501    0  0.00000000000E+00  0.00000000000E+00 -0.92829194791E+03  0.92829194793E+03  0.50400001928E-02 0.  1.
    10030    2    1    2    0    0  0.00000000000E+00  0.00000000000E+00 -0.32286932477E+03  0.15337145711E+04  0.14993451186E+04 0.  0.
        5    1    3    3  502    0 -0.30735943919E+03 -0.64493021361E+03 -0.39375767804E+03  0.81576467458E+03  0.46999998093E+01 0.  1.
       -5    1    3    3    0  502  0.30735943919E+03  0.64493021361E+03  0.70888353270E+02  0.71794989652E+03  0.46999998093E+01 0. -1.
</event>
<event>
 5   0  0.6542036E-05  0.1514839E+04  0.7818609E-02  0.8874644E-01
       -1   -1    0    0    0  501  0.00000000000E+00  0.00000000000E+00  0.25719420818E+03  0.25719420823E+03  0.50400001928E-02 0. -1.
        1   -1    0    0  501    0  0.00000000000E+00  0.00000000000E+00 -0.22305505090E+04  0.22305505090E+04  0.50400001928E-02 0.  1.
    10030    2    1    2    0    0  0.00000000000E+00  0.00000000000E+00 -0.19733563008E+04  0.24877447172E+04  0.15148394925E+04 0.  0.
        4    1    3    3  502    0  0.17736568035E+03 -0.38311975847E+03 -0.20193956545E+04  0.20630559266E+04  0.12699999809E+01 0.  1.
       -4    1    3    3    0  502 -0.17736568035E+03  0.38311975847E+03  0.46039353696E+02  0.42468879063E+03  0.12699999809E+01 0. -1.
</event>
<event>
 5   0  0.1186664E-04  0.1496442E+04  0.7818609E-02  0.8886823E-01
        2   -1    0    0  501    0  0.00000000000E+00  0.00000000000E+00  0.22170431940E+04  0.22170431940E+04  0.25500000920E-02 0. -1.
       -2   -1    0    0    0  501  0.00000000000E+00  0.00000000000E+00 -0.25251400518E+03  0.25251400520E+03  0.25500000920E-02 0.  1.
    10030    2    1    2    0    0  0.00000000000E+00  0.00000000000E+00  0.19645291888E+04  0.24695571992E+04  0.14964417217E+04 0.  0.
        3    1    3    3  502    0  0.26282160920E+03 -0.69039611821E+03  0.11783117115E+04  0.13907337984E+04  0.10100000352E+00 0. -1.
       -3    1    3    3    0  502 -0.26282160920E+03  0.69039611821E+03  0.78621747729E+03  0.10788234008E+04  0.10100000352E+00 0.  1.
</event>
<event>
 5   0  0.6361716E-05  0.1503088E+04  0.7818609E-02  0.8882402E-01
       -1   -1    0    0    0  501  0.00000000000E+00  0.00000000000E+00  0.37924703963E+03  0.37924703967E+03  0.50400001928E-02 0. -1.
        1   -1    0    0  501    0  0.00000000000E+00  0.00000000000E+00 -0.14893147753E+04  0.14893147753E+04  0.50400001928E-02 0.  1.
    10030    2    1    2    0    0  0.00000000000E+00  0.00000000000E+00 -0.11100677356E+04  0.18685618150E+04  0.15030877814E+04 0.  0.
        3    1    3    3  502    0 -0.41303027618E+03 -0.37201949006E+03  0.73741051558E+02  0.56074081616E+03  0.10100000352E+00 0.  1.
       -3    1    3    3    0  502  0.41303027618E+03  0.37201949006E+03 -0.11838087872E+04  0.13078209988E+04  0.10100000352E+00 0. -1.
</event>
<event>
 5   0  0.6509279E-05  0.1497676E+04  0.7818609E-02  0.8886000E-01
       -1   -1    0    0    0  501  0.00000000000E+00  0.00000000000E+00  0.33305276253E+03  0.33305276257E+03  0.50400001928E-02 0. -1.
        1   -1    0    0  501    0  0.00000000000E+00  0.00000000000E+00 -0.16836928980E+04  0.16836928980E+04  0.50400001928E-02 0.  1.
    10030    2    1    2    0    0  0.00000000000E+00  0.00000000000E+00 -0.13506401355E+04  0.20167456606E+04  0.14976762948E+04 0.  0.
        2    1    3    3  502    0 -0.71883033661E+03 -0.20808123442E+03 -0.71204299815E+03  0.10329666423E+04  0.25500000920E-02 0. -1.
       -2    1    3    3    0  502  0.71883033661E+03  0.20808123442E+03 -0.63859713735E+03  0.98377901827E+03  0.25500000920E-02 0.  1.
</event>
<event>
 5   0  0.6509279E-05  0.1500135E+04  0.7818609E-02  0.8884363E-01
       -1   -1    0    0    0  501  0.00000000000E+00  0.00000000000E+00  0.70546963664E+03  0.70546963665E+03  0.50400001928E-02 0.  1.
        1   -1    0    0  501    0  0.00000000000E+00  0.00000000000E+00 -0.79748496849E+03  0.79748496850E+03  0.50400001928E-02 0. -1.
    10030    2    1    2    0    0  0.00000000000E+00  0.00000000000E+00 -0.92015331849E+02  0.15029546052E+04  0.15001352352E+04 0.  0.
        2    1    3    3  502    0 -0.13331117471E+03  0.61051970597E+03  0.36961564118E+03  0.72603161287E+03  0.25500000920E-02 0.  1.
       -2    1    3    3    0  502  0.13331117471E+03 -0.61051970597E+03 -0.46163097302E+03  0.77692299229E+03  0.25500000920E-02 0. -1.
</event>
<event>
 5   0  0.1216921E-04  0.1499600E+04  0.7818609E-02  0.8884719E-01
        2   -1    0    0  501    0  0.00000000000E+00  0.00000000000E+00  0.25295183487E+04  0.25295183487E+04  0.25500000920E-02 0. -1.
       -2   -1    0    0    0  501  0.00000000000E+00  0.00000000000E+00 -0.22225565701E+03  0.22225565703E+03  0.25500000920E-02 0.  1.
    10030    2    1    2    0    0  0.00000000000E+00  0.00000000000E+00  0.23072626917E+04  0.27517740058E+04  0.14995996300E+04 0.  0.
        4    1    3    3  502    0 -0.72343419819E+02 -0.33058142697E+03  0.23814140973E+04  0.24053383059E+04  0.12699999809E+01 0. -1.
       -4    1    3    3    0  502  0.72343419819E+02  0.33058142697E+03 -0.74151405603E+02  0.34643569981E+03  0.12699999809E+01 0.  1.
</event>
<event>
 5   0  0.6668433E-05  0.1499821E+04  0.7818609E-02  0.8884572E-01
       -1   -1    0    0    0  501  0.00000000000E+00  0.00000000000E+00  0.72952698736E+03  0.72952698738E+03  0.50400001928E-02 0. -1.
        1   -1    0    0  501    0  0.00000000000E+00  0.00000000000E+00 -0.77086357811E+03  0.77086357813E+03  0.50400001928E-02 0.  1.
    10030    2    1    2    0    0  0.00000000000E+00  0.00000000000E+00 -0.41336590753E+02  0.15003905655E+04  0.14998210344E+04 0.  0.
        1    1    3    3  502    0 -0.44068499103E+03  0.37177756139E+03  0.45903852653E+03  0.73697909423E+03  0.50400001928E-02 0. -1.
       -1    1    3    3    0  502  0.44068499103E+03 -0.37177756139E+03 -0.50037511728E+03  0.76341147128E+03  0.50400001928E-02 0.  1.
</event>
<event>
 5   0  0.6668433E-05  0.1499090E+04  0.7818609E-02  0.8885059E-01
       -1   -1    0    0    0  501  0.00000000000E+00  0.00000000000E+00  0.44230015742E+03  0.44230015745E+03  0.50400001928E-02 0.  1.
        1   -1    0    0  501    0  0.00000000000E+00  0.00000000000E+00 -0.12702175075E+04  0.12702175075E+04  0.50400001928E-02 0. -1.
    10030    2    1    2    0    0  0.00000000000E+00  0.00000000000E+00 -0.82791735004E+03  0.17125176649E+04  0.14990895951E+04 0.  0.
        1    1    3    3  502    0 -0.67098548050E+03  0.18436757870E+03 -0.73219582697E+03  0.10101107109E+04  0.50400001928E-02 0. -1.
       -1    1    3    3    0  502  0.67098548050E+03 -0.18436757870E+03 -0.95721523077E+02  0.70240695407E+03  0.50400001928E-02 0.  1.
</event>
<event>
 5   0  0.1254487E-04  0.1499191E+04  0.7818609E-02  0.8884991E-01
       -2   -1    0    0    0  501  0.00000000000E+00  0.00000000000E+00  0.11398432848E+04  0.11398432848E+04  0.25500000920E-02 0. -1.
        2   -1    0    0  501    0  0.00000000000E+00  0.00000000000E+00 -0.49295697440E+03  0.49295697440E+03  0.25500000920E-02 0.  1.
    10030    2    1    2    0    0  0.00000000000E+00  0.00000000000E+00  0.64688631043E+03  0.16328002592E+04  0.14991913780E+04 0.  0.
        5    1    3    3  502    0 -0.53299615787E+03  0.50902747368E+03  0.47228946588E+03  0.87537038038E+03  0.46999998093E+01 0.  1.
       -5    1    3    3    0  502  0.53299615787E+03 -0.50902747368E+03  0.17459684456E+03  0.75742987886E+03  0.46999998093E+01 0. -1.
</event>
<event>
 5   0  0.1219810E-04  0.1500217E+04  0.7818609E-02  0.8884308E-01
        2   -1    0    0  501    0  0.00000000000E+00  0.00000000000E+00  0.10571088874E+04  0.10571088874E+04  0.25500000920E-02 0.  1.
       -2   -1    0    0    0  501  0.00000000000E+00  0.00000000000E+00 -0.53226596191E+03  0.53226596191E+03  0.25500000920E-02 0. -1.
    10030    2    1    2    0    0  0.00000000000E+00  0.00000000000E+00  0.52484292546E+03  0.15893748493E+04  0.15002174226E+04 0.  0.
        1    1    3    3  502    0  0.39495491270E+02 -0.35759826614E+03 -0.43489468343E+03  0.56441987870E+03  0.50400001928E-02 0. -1.
       -1    1    3    3    0  502 -0.39495491270E+02  0.35759826614E+03  0.95973760889E+03  0.10249549706E+04  0.50400001928E-02 0.  1.
</event>
<event>
 5   0  0.1219810E-04  0.1499146E+04  0.7818609E-02  0.8885021E-01
        2   -1    0    0  501    0  0.00000000000E+00  0.00000000000E+00  0.18034382642E+04  0.18034382642E+04  0.25500000920E-02 0. -1.
       -2   -1    0    0    0  501  0.00000000000E+00  0.00000000000E+00 -0.31154903093E+03  0.31154903094E+03  0.25500000920E-02 0.  1.
    10030    2    1    2    0    0  0.00000000000E+00  0.00000000000E+00  0.14918892333E+04  0.21149872952E+04  0.14991456815E+04 0.  0.
        1    1    3    3  502    0  0.59273561067E+03 -0.30364834642E+03  0.26066060795E+03  0.71517954039E+03  0.50400001928E-02 0.  1.
       -1    1    3    3    0  502 -0.59273561067E+03  0.30364834642E+03  0.12312286253E+04  0.13998077548E+04  0.50400001928E-02 0. -1.
</event>
<event>
 5   0  0.6361716E-05  0.1501854E+04  0.7818609E-02  0.8883221E-01
       -1   -1    0    0    0  501  0.00000000000E+00  0.00000000000E+00  0.46670687470E+03  0.46670687472E+03  0.50400001928E-02 0.  1.
        1   -1    0    0  501    0  0.00000000000E+00  0.00000000000E+00 -0.12082344881E+04  0.12082344882E+04  0.50400001928E-02 0. -1.
    10030    2    1    2    0    0  0.00000000000E+00  0.00000000000E+00 -0.74152761345E+03  0.16749413629E+04  0.15018539768E+04 0.  0.
        3    1    3    3  502    0  0.60319801318E+02  0.36875659980E+02  0.46298696526E+03  0.46835374764E+03  0.10100000352E+00 0.  1.
       -3    1    3    3    0  502 -0.60319801318E+02 -0.36875659980E+02 -0.12045145787E+04  0.12065876152E+04  0.10100000352E+00 0. -1.
</event>
<event>
 5   0  0.1254487E-04  0.1501760E+04  0.7818609E-02  0.8883283E-01
        2   -1    0    0  501    0  0.00000000000E+00  0.00000000000E+00  0.10894694332E+04  0.10894694332E+04  0.25500000920E-02 0. -1.
       -2   -1    0    0    0  501  0.00000000000E+00  0.00000000000E+00 -0.51751874521E+03  0.51751874522E+03  0.25500000920E-02 0.  1.
    10030    2    1    2    0    0  0.00000000000E+00  0.00000000000E+00  0.57195068798E+03  0.16069881784E+04  0.15017601060E+04 0.  0.
        5    1    3    3  502    0  0.30394645086E+03 -0.68527900716E+03  0.33147535454E+03  0.81968821104E+03  0.46999998093E+01 0. -1.
       -5    1    3    3    0  502 -0.30394645086E+03  0.68527900716E+03  0.24047533343E+03  0.78729996738E+03  0.46999998093E+01 0.  1.
</event>
<event>
 5   0  0.1228286E-04  0.1492914E+04  0.7818609E-02  0.8889179E-01
        2   -1    0    0  501    0  0.00000000000E+00  0.00000000000E+00  0.27726900595E+04  0.27726900595E+04  0.25500000920E-02 0. -1.
       -2   -1    0    0    0  501  0.00000000000E+00  0.00000000000E+00 -0.20095934752E+03  0.20095934754E+03  0.25500000920E-02 0.  1.
    10030    2    1    2    0    0  0.00000000000E+00  0.00000000000E+00  0.25717307120E+04  0.29736494071E+04  0.14929139095E+04 0.  0.
        2    1    3    3  502    0 -0.52607302418E+03  0.67710394929E+02  0.23970145947E+03  0.58206040411E+03  0.25500000920E-02 0.  1.
       -2    1    3    3    0  502  0.52607302418E+03 -0.67710394929E+02  0.23320292525E+04  0.23915890030E+04  0.25500000920E-02 0. -1.
</event>
<event>
 5   0  0.6364378E-05  0.1499748E+04  0.7818609E-02  0.8884620E-01
        1   -1    0    0  501    0  0.00000000000E+00  0.00000000000E+00  0.15545334641E+04  0.15545334641E+04  0.50400001928E-02 0. -1.
       -1   -1    0    0    0  501  0.00000000000E+00  0.00000000000E+00 -0.36172339735E+03  0.36172339738E+03  0.50400001928E-02 0.  1.
    10030    2    1    2    0    0  0.00000000000E+00  0.00000000000E+00  0.11928100668E+04  0.19162568615E+04  0.14997481468E+04 0.  0.
        5    1    3    3  502    0  0.46427455823E+03 -0.35134485486E+03  0.12001796527E+04  0.13339592802E+04  0.46999998093E+01 0. -1.
       -5    1    3    3    0  502 -0.46427455823E+03  0.35134485486E+03 -0.73695858884E+01  0.58229758135E+03  0.46999998093E+01 0.  1.
</event>
<event>
 5   0  0.1219810E-04  0.1494984E+04  0.7818609E-02  0.8887796E-01
        2   -1    0    0  501    0  0.00000000000E+00  0.00000000000E+00  0.84608352199E+03  0.84608352199E+03  0.25500000920E-02 0. -1.
       -2   -1    0    0    0  501  0.00000000000E+00  0.00000000000E+00 -0.66038860914E+03  0.66038860914E+03  0.25500000920E-02 0.  1.
    10030    2    1    2    0    0  0.00000000000E+00  0.00000000000E+00  0.18569491286E+03  0.15064721311E+04  0.14949835053E+04 0.  0.
        1    1    3    3  502    0 -0.21882236820E+03 -0.20287307628E+02 -0.62710021138E+03  0.66449189522E+03  0.50400001928E-02 0.  1.
       -1    1    3    3    0  502  0.21882236820E+03  0.20287307628E+02  0.81279512423E+03  0.84198023592E+03  0.50400001928E-02 0. -1.
</event>
<event>
 5   0  0.1216921E-04  0.1502942E+04  0.7818609E-02  0.8882499E-01
       -2   -1    0    0    0  501  0.00000000000E+00  0.00000000000E+00  0.35017620334E+03  0.35017620335E+03  0.25500000920E-02 0. -1.
        2   -1    0    0  501    0  0.00000000000E+00  0.00000000000E+00 -0.16126408337E+04  0.16126408337E+04  0.25500000920E-02 0.  1.
    10030    2    1    2    0    0  0.00000000000E+00  0.00000000000E+00 -0.12624646304E+04  0.19628170371E+04  0.15029417081E+04 0.  0.
        4    1    3    3  502    0 -0.28700574848E+03  0.39901968570E+03 -0.13735984275E+04  0.14588911070E+04  0.12699999809E+01 0.  1.
       -4    1    3    3    0  502  0.28700574848E+03 -0.39901968570E+03  0.11113379710E+03  0.50392593006E+03  0.12699999809E+01 0. -1.
</event>
<event>
 5   0  0.1219810E-04  0.1506541E+04  0.7818609E-02  0.8880115E-01
       -2   -1    0    0    0  501  0.00000000000E+00  0.00000000000E+00  0.66691916170E+03  0.66691916171E+03  0.25500000920E-02 0.  1.
        2   -1    0    0  501    0  0.00000000000E+00  0.00000000000E+00 -0.85080299037E+03  0.85080299037E+03  0.25500000920E-02 0. -1.
    10030    2    1    2    0    0  0.00000000000E+00  0.00000000000E+00 -0.18388382866E+03  0.15177221521E+04  0.15065414924E+04 0.  0.
        1    1    3    3  502    0 -0.56393483962E+03  0.34058138134E+03  0.27600644506E+03  0.71428127401E+03  0.50400001928E-02 0.  1.
       -1    1    3    3    0  502  0.56393483962E+03 -0.34058138134E+03 -0.45989027373E+03  0.80344087807E+03  0.50400001928E-02 0. -1.
</event>
<event>
 5   0  0.1228286E-04  0.1499894E+04  0.7818609E-02  0.8884523E-01
        2   -1    0    0  501    0  0.00000000000E+00  0.00000000000E+00  0.77240208017E+03  0.77240208017E+03  0.25500000920E-02 0. -1.
       -2   -1    0    0    0  501  0.00000000000E+00  0.00000000000E+00 -0.72814500174E+03  0.72814500174E+03  0.25500000920E-02 0.  1.
    10030    2    1    2    0    0  0.00000000000E+00  0.00000000000E+00  0.44257078431E+02  0.15005470819E+04  0.14998942816E+04 0.  0.
        2    1    3    3  502    0 -0.18206905565E+03  0.66433688674E+03  0.31878428005E+03  0.75902309407E+03  0.25500000920E-02 0. -1.
       -2    1    3    3    0  502  0.18206905565E+03 -0.66433688674E+03 -0.27452720162E+03  0.74152398784E+03  0.25500000920E-02 0.  1.
</event>
<event>
 5   0  0.6509279E-05  0.1499818E+04  0.7818609E-02  0.8884574E-01
        1   -1    0    0  501    0  0.00000000000E+00  0.00000000000E+00  0.96519500382E+03  0.96519500383E+03  0.50400001928E-02 0.  1.
       -1   -1    0    0    0  501  0.00000000000E+00  0.00000000000E+00 -0.58264221290E+03  0.58264221292E+03  0.50400001928E-02 0. -1.
    10030    2    1    2    0    0  0.00000000000E+00  0.00000000000E+00  0.38255279092E+03  0.15478372168E+04  0.14998177928E+04 0.  0.
        2    1    3    3  502    0 -0.46209720443E+03  0.54206894001E+00  0.80080377651E+03  0.92456519979E+03  0.25500000920E-02 0.  1.
       -2    1    3    3    0  502  0.46209720443E+03 -0.54206894001E+00 -0.41825098559E+03  0.62327201697E+03  0.25500000920E-02 0. -1.
</event>
<event>
 5   0  0.6509279E-05  0.1499848E+04  0.7818609E-02  0.8884554E-01
        1   -1    0    0  501    0  0.00000000000E+00  0.00000000000E+00  0.12148832740E+04  0.12148832740E+04  0.50400001928E-02 0. -1.
       -1   -1    0    0    0  501  0.00000000000E+00  0.00000000000E+00 -0.46291386446E+03  0.46291386449E+03  0.50400001928E-02 0.  1.
    10030    2    1    2    0    0  0.00000000000E+00  0.00000000000E+00  0.75196940954E+03  0.16777971385E+04  0.14998484074E+04 0.  0.
        2    1    3    3  502    0 -0.71074425056E+03  0.23820933176E+03  0.40062628239E+03  0.84994264135E+03  0.25500000920E-02 0. -1.
       -2    1    3    3    0  502  0.71074425056E+03 -0.23820933176E+03  0.35134312715E+03  0.82785449715E+03  0.25500000920E-02 0.  1.
</event>
<event>
 5   0  0.1219810E-04  0.1504904E+04  0.7818609E-02  0.8881198E-01
        2   -1    0    0  501    0  0.00000000000E+00  0.00000000000E+00  0.11944487999E+04  0.11944487999E+04  0.25500000920E-02 0.  1.
       -2   -1    0    0    0  501  0.00000000000E+00  0.00000000000E+00 -0.47401299455E+03  0.47401299456E+03  0.25500000920E-02 0. -1.
    10030    2    1    2    0    0  0.00000000000E+00  0.00000000000E+00  0.72043580532E+03  0.16684617944E+04  0.15049043192E+04 0.  0.
        1    1    3    3  502    0  0.62214937707E+03 -0.32592196035E+03  0.65954029680E+03  0.96347723105E+03  0.50400001928E-02 0. -1.
       -1    1    3    3    0  502 -0.62214937707E+03  0.32592196035E+03  0.60895508523E+02  0.70498456339E+03  0.50400001928E-02 0.  1.
</event>
<event>
 5   0  0.6361716E-05  0.1495576E+04  0.7818609E-02  0.8887400E-01
        1   -1    0    0  501    0  0.00000000000E+00  0.00000000000E+00  0.11186818710E+04  0.11186818710E+04  0.50400001928E-02 0. -1.
       -1   -1    0    0    0  501  0.00000000000E+00  0.00000000000E+00 -0.49986259986E+03  0.49986259989E+03  0.50400001928E-02 0.  1.
    10030    2    1    2    0    0  0.00000000000E+00  0.00000000000E+00  0.61881927115E+03  0.16185444709E+04  0.14955764487E+04 0.  0.
        3    1    3    3  502    0 -0.13984824117E+03  0.10681818484E+03  0.10959540654E+04  0.11099923327E+04  0.10100000352E+00 0. -1.
       -3    1    3    3    0  502  0.13984824117E+03 -0.10681818484E+03 -0.47713479422E+03  0.50855213816E+03  0.10100000352E+00 0.  1.
</event>
<event>
 5   0  0.6364378E-05  0.1500523E+04  0.7818609E-02  0.8884105E-01
        1   -1    0    0  501    0  0.00000000000E+00  0.00000000000E+00  0.13404592651E+04  0.13404592651E+04  0.50400001928E-02 0.  1.
       -1   -1    0    0    0  501  0.00000000000E+00  0.00000000000E+00 -0.41992475256E+03  0.41992475259E+03  0.50400001928E-02 0. -1.
    10030    2    1    2    0    0  0.00000000000E+00  0.00000000000E+00  0.92053451254E+03  0.17603840177E+04  0.15005226093E+04 0.  0.
        5    1    3    3  502    0 -0.64386933795E+02  0.20196530239E+03 -0.38404326120E+03  0.43868778999E+03  0.46999998093E+01 0. -1.
       -5    1    3    3    0  502  0.64386933795E+02 -0.20196530239E+03  0.13045777737E+04  0.13216962277E+04  0.46999998093E+01 0.  1.
</event>
<event>
 5   0  0.1186664E-04  0.1500983E+04  0.7818609E-02  0.8883800E-01
       -2   -1    0    0    0  501  0.00000000000E+00  0.00000000000E+00  0.79351177649E+03  0.79351177649E+03  0.25500000920E-02 0. -1.
        2   -1    0    0  501    0  0.00000000000E+00  0.00000000000E+00 -0.70980312033E+03  0.70980312034E+03  0.25500000920E-02 0.  1.
    10030    2    1    2    0    0  0.00000000000E+00  0.00000000000E+00  0.83708656160E+02  0.15033148968E+04  0.15009825249E+04 0.  0.
        3    1    3    3  502    0 -0.73204445212E+03  0.27912840463E+02  0.20510736204E+03  0.76074782071E+03  0.10100000352E+00 0. -1.
       -3    1    3    3    0  502  0.73204445212E+03 -0.27912840463E+02 -0.12139870588E+03  0.74256707612E+03  0.10100000352E+00 0.  1.
</event>
<event>
 5   0  0.6542036E-05  0.1499261E+04  0.7818609E-02  0.8884945E-01
       -1   -1    0    0    0  501  0.00000000000E+00  0.00000000000E+00  0.53430351970E+03  0.53430351973E+03  0.50400001928E-02 0.  1.
        1   -1    0    0  501    0  0.00000000000E+00  0.00000000000E+00 -0.10517351727E+04  0.10517351727E+04  0.50400001928E-02 0. -1.
    10030    2    1    2    0    0  0.00000000000E+00  0.00000000000E+00 -0.51743165302E+03  0.15860386925E+04  0.14992608907E+04 0.  0.
        4    1    3    3  502    0 -0.65718558927E+03 -0.23232035324E+03 -0.55050398887E+03  0.88821275601E+03  0.12699999809E+01 0. -1.
       -4    1    3    3    0  502  0.65718558927E+03  0.23232035324E+03  0.33072335856E+02  0.69782593644E+03  0.12699999809E+01 0.  1.
</event>
<event>
 5   0  0.1228286E-04  0.1501396E+04  0.7818609E-02  0.8883525E-01
        2   -1    0    0  501    0  0.00000000000E+00  0.00000000000E+00  0.14347783993E+04  0.14347783993E+04  0.25500000920E-02 0.  1.
       -2   -1    0    0    0  501  0.00000000000E+00  0.00000000000E+00 -0.39277667687E+03  0.39277667687E+03  0.25500000920E-02 0. -1.
    10030    2    1    2    0    0  0.00000000000E+00  0.00000000000E+00  0.10420017224E+04  0.18275550761E+04  0.15013960060E+04 0.  0.
        2    1    3    3  502    0 -0.66206683581E+02  0.43749661379E+03  0.12591735662E+04  0.13346552671E+04  0.25500000920E-02 0.  1.
       -2    1    3    3    0  502  0.66206683581E+02 -0.43749661379E+03 -0.21717184382E+03  0.49289980907E+03  0.25500000920E-02 0. -1.
</event>
<event>
 5   0  0.6668433E-05  0.1500369E+04  0.7818609E-02  0.8884208E-01
        1   -1    0    0  501    0  0.00000000000E+00  0.00000000000E+00  0.18011904666E+04  0.18011904666E+04  0.50400001928E-02 0. -1.
       -1   -1    0    0    0  501  0.00000000000E+00  0.00000000000E+00 -0.31244694666E+03  0.31244694670E+03  0.50400001928E-02 0.  1.
    10030    2    1    2    0    0  0.00000000000E+00  0.00000000000E+00  0.14887435199E+04  0.21136374133E+04  0.15003685703E+04 0.  0.
        1    1    3    3  502    0  0.25911753225E+03  0.28699186707E+03 -0.16125572196E+03  0.41893870097E+03  0.50400001928E-02 0.  1.
       -1    1    3    3    0  502 -0.25911753225E+03 -0.28699186707E+03  0.16499992419E+04  0.16946987123E+04  0.50400001928E-02 0. -1.
</event>
<event>
 5   0  0.6668433E-05  0.1499079E+04  0.7818609E-02  0.8885066E-01
       -1   -1    0    0    0  501  0.00000000000E+00  0.00000000000E+00  0.56518365427E+03  0.56518365429E+03  0.50400001928E-02 0.  1.
        1   -1    0    0  501    0  0.00000000000E+00  0.00000000000E+00 -0.99402985671E+03  0.99402985672E+03  0.50400001928E-02 0. -1.
    10030    2    1    2    0    0  0.00000000000E+00  0.00000000000E+00 -0.42884620243E+03  0.15592135110E+04  0.14990789531E+04 0.  0.
        1    1    3    3  502    0  0.34371058563E+03  0.66210274535E+03 -0.29009036330E+03  0.80041828501E+03  0.50400001928E-02 0. -1.
       -1    1    3    3    0  502 -0.34371058563E+03 -0.66210274535E+03 -0.13875583913E+03  0.75879522600E+03  0.50400001928E-02 0.  1.
</event>
<event>
 5   0  0.1254487E-04  0.1512335E+04  0.7818609E-02  0.8876291E-01
       -2   -1    0    0    0  501  0.00000000000E+00  0.00000000000E+00  0.35775984943E+03  0.35775984944E+03  0.25500000920E-02 0. -1.
        2   -1    0    0  501    0  0.00000000000E+00  0.00000000000E+00 -0.15982494826E+04  0.15982494826E+04  0.25500000920E-02 0.  1.
    10030    2    1    2    0    0  0.00000000000E+00  0.00000000000E+00 -0.12404896332E+04  0.19560093321E+04  0.15123352727E+04 0.  0.
        5    1    3    3  502    0  0.53743277088E+03  0.10059349803E+03 -0.12957932038E+04  0.14064334865E+04  0.46999998093E+01 0.  1.
       -5    1    3    3    0  502 -0.53743277088E+03 -0.10059349803E+03  0.55303570608E+02  0.54957584552E+03  0.46999998093E+01 0. -1.
</event>
<event>
 5   0  0.6361716E-05  0.1497895E+04  0.7818609E-02  0.8885854E-01
        1   -1    0    0  501    0  0.00000000000E+00  0.00000000000E+00  0.19545819153E+04  0.19545819153E+04  0.50400001928E-02 0.  1.
       -1   -1    0    0    0  501  0.00000000000E+00  0.00000000000E+00 -0.28697828507E+03  0.28697828512E+03  0.50400001928E-02 0. -1.
    10030    2    1    2    0    0  0.00000000000E+00  0.00000000000E+00  0.16676036302E+04  0.22415602004E+04  0.14978952782E+04 0.  0.
        3    1    3    3  502    0  0.51891111633E+02  0.74114534039E+03  0.97524389401E+03  0.12260056142E+04  0.10100000352E+00 0.  1.
       -3    1    3    3    0  502 -0.51891111633E+02 -0.74114534039E+03  0.69235973617E+03  0.10155545862E+04  0.10100000352E+00 0. -1.
</event>
<event>
 5   0  0.6364378E-05  0.1499661E+04  0.7818609E-02  0.8884679E-01
        1   -1    0    0  501    0  0.00000000000E+00  0.00000000000E+00  0.22552915991E+04  0.22552915991E+04  0.50400001928E-02 0.  1.
       -1   -1    0    0    0  501  0.00000000000E+00  0.00000000000E+00 -0.24930059048E+03  0.24930059053E+03  0.50400001928E-02 0. -1.
    10030    2    1    2    0    0  0.00000000000E+00  0.00000000000E+00  0.20059910086E+04  0.25045921896E+04  0.14996606649E+04 0.  0.
        5    1    3    3  502    0  0.34624962784E+03  0.39251611625E+02  0.21118174963E+04  0.21403795741E+04  0.46999998093E+01 0.  1.
       -5    1    3    3    0  502 -0.34624962784E+03 -0.39251611625E+02 -0.10582648767E+03  0.36421261549E+03  0.46999998093E+01 0. -1.
</event>
<event>
 5   0  0.1228286E-04  0.1500098E+04  0.7818609E-02  0.8884388E-01
       -2   -1    0    0    0  501  0.00000000000E+00  0.00000000000E+00  0.35339604618E+03  0.35339604619E+03  0.25500000920E-02 0. -1.
        2   -1    0    0  501    0  0.00000000000E+00  0.00000000000E+00 -0.15919063417E+04  0.15919063417E+04  0.25500000920E-02 0.  1.
    10030    2    1    2    0    0  0.00000000000E+00  0.00000000000E+00 -0.12385102955E+04  0.19453023878E+04  0.15000978729E+04 0.  0.
        2    1    3    3  502    0  0.36743238215E+03  0.64793521457E+03 -0.73339280591E+03  0.10453189013E+04  0.25500000920E-02 0. -1.
       -2    1    3    3    0  502 -0.36743238215E+03 -0.64793521457E+03 -0.50511748956E+03  0.89998348651E+03  0.25500000920E-02 0.  1.
</event>
<event>
 5   0  0.1216921E-04  0.1500124E+04  0.7818609E-02  0.8884370E-01
       -2   -1    0    0    0  501  0.00000000000E+00  0.00000000000E+00  0.46754144283E+03  0.46754144284E+03  0.25500000920E-02 0. -1.
        2   -1    0    0  501    0  0.00000000000E+00  0.00000000000E+00 -0.12033011226E+04  0.12033011226E+04  0.25500000920E-02 0.  1.
    10030    2    1    2    0    0  0.00000000000E+00  0.00000000000E+00 -0.73575967972E+03  0.16708425654E+04  0.15001241855E+04 0.  0.
        4    1    3    3  502    0  0.43065615380E+03 -0.44741117498E+03 -0.83640580045E+03  0.10417378549E+04  0.12699999809E+01 0.  1.
       -4    1    3    3    0  502 -0.43065615380E+03  0.44741117498E+03  0.10064612073E+03  0.62910471054E+03  0.12699999809E+01 0. -1.
</event>
<event>
 5   0  0.6361716E-05  0.1502178E+04  0.7818609E-02  0.8883006E-01
        1   -1    0    0  501    0  0.00000000000E+00  0.00000000000E+00  0.97743118025E+03  0.97743118027E+03  0.50400001928E-02 0.  1.
       -1   -1    0    0    0  501  0.00000000000E+00  0.00000000000E+00 -0.57716061180E+03  0.57716061182E+03  0.50400001928E-02 0. -1.
    10030    2    1    2    0    0  0.00000000000E+00  0.00000000000E+00  0.40027056846E+03  0.15545917921E+04  0.15021781226E+04 0.  0.
        3    1    3    3  502    0 -0.50287133566E+03 -0.55784205801E+03  0.19163744872E+03  0.77510790465E+03  0.10100000352E+00 0. -1.
       -3    1    3    3    0  502  0.50287133566E+03  0.55784205801E+03  0.20863311974E+03  0.77948388743E+03  0.10100000352E+00 0.  1.
</event>
<event>
 5   0  0.1228286E-04  0.1496686E+04  0.7818609E-02  0.8886660E-01
        2   -1    0    0  501    0  0.00000000000E+00  0.00000000000E+00  0.20801914041E+04  0.20801914041E+04  0.25500000920E-02 0.  1.
       -2   -1    0    0    0  501  0.00000000000E+00  0.00000000000E+00 -0.26921432970E+03  0.26921432971E+03  0.25500000920E-02 0. -1.
    10030    2    1    2    0    0  0.00000000000E+00  0.00000000000E+00  0.18109770744E+04  0.23494057338E+04  0.14966861187E+04 0.  0.
        2    1    3    3  502    0  0.33368443752E+03  0.63151758255E+03  0.55498463041E+03  0.90452623008E+03  0.25500000920E-02 0. -1.
       -2    1    3    3    0  502 -0.33368443752E+03 -0.63151758255E+03  0.12559924440E+04  0.14448795037E+04  0.25500000920E-02 0.  1.
</event>
<event>
 5   0  0.1216921E-04  0.1498223E+04  0.7818609E-02  0.8885636E-01
       -2   -1    0    0    0  501  0.00000000000E+00  0.00000000000E+00  0.57896902425E+03  0.57896902425E+03  0.25500000920E-02 0. -1.
        2   -1    0    0  501    0  0.00000000000E+00  0.00000000000E+00 -0.96925345706E+03  0.96925345706E+03  0.25500000920E-02 0.  1.
    10030    2    1    2    0    0  0.00000000000E+00  0.00000000000E+00 -0.39028443281E+03  0.15482224813E+04  0.14982225846E+04 0.  0.
        4    1    3    3  502    0  0.26230685137E+03  0.24636128254E+03  0.48379814989E+03  0.60296022136E+03  0.12699999809E+01 0. -1.
       -4    1    3    3    0  502 -0.26230685137E+03 -0.24636128254E+03 -0.87408258270E+03  0.94526225995E+03  0.12699999809E+01 0.  1.
</event>
<event>
 5   0  0.1186664E-04  0.1500804E+04  0.7818609E-02  0.8883918E-01
        2   -1    0    0  501    0  0.00000000000E+00  0.00000000000E+00  0.12162415640E+04  0.12162415640E+04  0.25500000920E-02 0.  1.
       -2   -1    0    0    0  501  0.00000000000E+00  0.00000000000E+00 -0.46298656334E+03  0.46298656335E+03  0.25500000920E-02 0. -1.
    10030    2    1    2    0    0  0.00000000000E+00  0.00000000000E+00  0.75325500067E+03  0.16792281274E+04  0.15008044535E+04 0.  0.
        3    1    3    3  502    0 -0.22258580814E+03  0.23901913689E+02  0.11780085840E+04  0.11990913133E+04  0.10100000352E+00 0.  1.
       -3    1    3    3    0  502  0.22258580814E+03 -0.23901913689E+02 -0.42475358333E+03  0.48013681406E+03  0.10100000352E+00 0. -1.
</event>
<event>
 5   0  0.6364378E-05  0.1500026E+04  0.7818609E-02  0.8884435E-01
       -1   -1    0    0    0  501  0.00000000000E+00  0.00000000000E+00  0.62961716527E+03  0.62961716529E+03  0.50400001928E-02 0.  1.
        1   -1    0    0  501    0  0.00000000000E+00  0.00000000000E+00 -0.89343160476E+03  0.89343160478E+03  0.50400001928E-02 0. -1.
    10030    2    1    2    0    0  0.00000000000E+00  0.00000000000E+00 -0.26381443949E+03  0.15230487701E+04  0.15000264989E+04 0.  0.
        5    1    3    3  502    0 -0.23254097562E+03  0.18908834573E+03  0.56615320120E+03  0.64061005694E+03  0.46999998093E+01 0.  1.
       -5    1    3    3    0  502  0.23254097562E+03 -0.18908834573E+03 -0.82996764069E+03  0.88243871313E+03  0.46999998093E+01 0. -1.
</event>
<event>
 5   0  0.1228286E-04  0.1500260E+04  0.7818609E-02  0.8884280E-01
       -2   -1    0    0    0  501  0.00000000000E+00  0.00000000000E+00  0.10886223069E+04  0.10886223069E+04  0.25500000920E-02 0. -1.
        2   -1    0    0  501    0  0.00000000000E+00  0.00000000000E+00 -0.51688753289E+03  0.51688753290E+03  0.25500000920E-02 0.  1.
    10030    2    1    2    0    0  0.00000000000E+00  0.00000000000E+00  0.57173477401E+03  0.16055098398E+04  0.15002603754E+04 0.  0.
        2    1    3    3  502    0 -0.61325436178E+02 -0.25192010863E+03 -0.46741071484E+03  0.53450661980E+03  0.25500000920E-02 0.  1.
       -2    1    3    3    0  502  0.61325436178E+02  0.25192010863E+03  0.10391454889E+04  0.10710032200E+04  0.25500000920E-02 0. -1.
</event>
<event>
 5   0  0.4462875E-05  0.1499531E+04  0.7818609E-02  0.8884765E-01
        3   -1    0    0  501    0  0.00000000000E+00  0.00000000000E+00  0.77237612018E+03  0.77237612679E+03  0.10100000352E+00 0.  1.
       -3   -1    0    0    0  501  0.00000000000E+00  0.00000000000E+00 -0.72781673034E+03  0.72781673735E+03  0.10100000352E+00 0. -1.
    10030    2    1    2    0    0  0.00000000000E+00  0.00000000000E+00  0.44559389840E+02  0.15001928641E+04  0.14995309568E+04 0.  0.
        1    1    3    3  502    0  0.30667738542E+03  0.17270660416E+01  0.70675584855E+03  0.77042704455E+03  0.50400001928E-02 0.  1.
       -1    1    3    3    0  502 -0.30667738542E+03 -0.17270660416E+01 -0.66219645871E+03  0.72976581959E+03  0.50400001928E-02 0. -1.
</event>
<event>
 5   0  0.6542036E-05  0.1484329E+04  0.7818609E-02  0.8894941E-01
        1   -1    0    0  501    0  0.00000000000E+00  0.00000000000E+00  0.10255584205E+04  0.10255584205E+04  0.50400001928E-02 0. -1.
       -1   -1    0    0    0  501  0.00000000000E+00  0.00000000000E+00 -0.53708142957E+03  0.53708142960E+03  0.50400001928E-02 0.  1.
    10030    2    1    2    0    0  0.00000000000E+00  0.00000000000E+00  0.48847699089E+03  0.15626398501E+04  0.14843293201E+04 0.  0.
        4    1    3    3  502    0 -0.39029954857E+03  0.25276469379E+03  0.85318703283E+03  0.97167559089E+03  0.12699999809E+01 0. -1.
       -4    1    3    3    0  502  0.39029954857E+03 -0.25276469379E+03 -0.36471004194E+03  0.59096425918E+03  0.12699999809E+01 0.  1.
</event>
<event>
 5   0  0.1228286E-04  0.1497959E+04  0.7818609E-02  0.8885811E-01
        2   -1    0    0  501    0  0.00000000000E+00  0.00000000000E+00  0.15005816996E+04  0.15005816996E+04  0.25500000920E-02 0.  1.
       -2   -1    0    0    0  501  0.00000000000E+00  0.00000000000E+00 -0.37383543094E+03  0.37383543095E+03  0.25500000920E-02 0. -1.
    10030    2    1    2    0    0  0.00000000000E+00  0.00000000000E+00  0.11267462687E+04  0.18744171305E+04  0.14979594205E+04 0.  0.
        2    1    3    3  502    0 -0.50045904054E+02 -0.74501687354E+03  0.63650674029E+03  0.98117050752E+03  0.25500000920E-02 0. -1.
       -2    1    3    3    0  502  0.50045904054E+02  0.74501687354E+03  0.49023952836E+03  0.89324662303E+03  0.25500000920E-02 0.  1.
</event>
<event>
 5   0  0.6364378E-05  0.1500373E+04  0.7818609E-02  0.8884205E-01
        1   -1    0    0  501    0  0.00000000000E+00  0.00000000000E+00  0.64288289563E+03  0.64288289565E+03  0.50400001928E-02 0. -1.
       -1   -1    0    0    0  501  0.00000000000E+00  0.00000000000E+00 -0.87539967508E+03  0.87539967510E+03  0.50400001928E-02 0.  1.
    10030    2    1    2    0    0  0.00000000000E+00  0.00000000000E+00 -0.23251677945E+03  0.15182825707E+04  0.15003725910E+04 0.  0.
        5    1    3    3  502    0 -0.44203290053E+03  0.30217632376E+03  0.41542161492E+03  0.67771736287E+03  0.46999998093E+01 0. -1.
       -5    1    3    3    0  502  0.44203290053E+03 -0.30217632376E+03 -0.64793839437E+03  0.84056520788E+03  0.46999998093E+01 0.  1.
</event>
<event>
 5   0  0.6364378E-05  0.1499748E+04  0.7818609E-02  0.8884621E-01
        1   -1    0    0  501    0  0.00000000000E+00  0.00000000000E+00  0.61485403530E+03  0.61485403532E+03  0.50400001928E-02 0. -1.
       -1   -1    0    0    0  501  0.00000000000E+00  0.00000000000E+00 -0.91454384905E+03  0.91454384906E+03  0.50400001928E-02 0.  1.
    10030    2    1    2    0    0  0.00000000000E+00  0.00000000000E+00 -0.29968981375E+03  0.15293978844E+04  0.14997479469E+04 0.  0.
        5    1    3    3  502    0  0.59593663406E+03 -0.20704857070E+03  0.26348195963E+03  0.68370638106E+03  0.46999998093E+01 0. -1.
       -5    1    3    3    0  502 -0.59593663406E+03  0.20704857070E+03 -0.56317177339E+03  0.84569150332E+03  0.46999998093E+01 0.  1.
</event>
<event>
 5   0  0.6361716E-05  0.1495783E+04  0.7818609E-02  0.8887262E-01
       -1   -1    0    0    0  501  0.00000000000E+00  0.00000000000E+00  0.37368630235E+03  0.37368630238E+03  0.50400001928E-02 0.  1.
        1   -1    0    0  501    0  0.00000000000E+00  0.00000000000E+00 -0.14968223974E+04  0.14968223974E+04  0.50400001928E-02 0. -1.
    10030    2    1    2    0    0  0.00000000000E+00  0.00000000000E+00 -0.11231360950E+04  0.18705086998E+04  0.14957834429E+04 0.  0.
        3    1    3    3  502    0 -0.67777758213E+03 -0.46492434463E+02 -0.95263943375E+03  0.11700708945E+04  0.10100000352E+00 0. -1.
       -3    1    3    3    0  502  0.67777758213E+03  0.46492434463E+02 -0.17049666129E+03  0.70043780524E+03  0.10100000352E+00 0.  1.
</event>
<event>
 5   0  0.6509279E-05  0.1500544E+04  0.7818609E-02  0.8884092E-01
        1   -1    0    0  501    0  0.00000000000E+00  0.00000000000E+00  0.11128217995E+04  0.11128217995E+04  0.50400001928E-02 0. -1.
       -1   -1    0    0    0  501  0.00000000000E+00  0.00000000000E+00 -0.50583814419E+03  0.50583814422E+03  0.50400001928E-02 0.  1.
    10030    2    1    2    0    0  0.00000000000E+00  0.00000000000E+00  0.60698365532E+03  0.16186599437E+04  0.15005435201E+04 0.  0.
        2    1    3    3  502    0 -0.14159119064E+03 -0.34814118072E+03  0.10039575215E+04  0.10719986250E+04  0.25500000920E-02 0. -1.
       -2    1    3    3    0  502  0.14159119064E+03  0.34814118072E+03 -0.39697386618E+03  0.54666131875E+03  0.25500000920E-02 0.  1.
</event>
<event>
 5   0  0.1254487E-04  0.1500576E+04  0.7818609E-02  0.8884070E-01
        2   -1    0    0  501    0  0.00000000000E+00  0.00000000000E+00  0.29516637964E+03  0.29516637965E+03  0.25500000920E-02 0. -1.
       -2   -1    0    0    0  501  0.00000000000E+00  0.00000000000E+00 -0.19071692262E+04  0.19071692262E+04  0.25500000920E-02 0.  1.
    10030    2    1    2    0    0  0.00000000000E+00  0.00000000000E+00 -0.16120028466E+04  0.22023356058E+04  0.15005762038E+04 0.  0.
        5    1    3    3  502    0  0.60343454424E+03  0.29970685464E+02 -0.14588687276E+04  0.15790350046E+04  0.46999998093E+01 0.  1.
       -5    1    3    3    0  502 -0.60343454424E+03 -0.29970685464E+02 -0.15313411891E+03  0.62330060127E+03  0.46999998093E+01 0. -1.
</event>
<event>
 5   0  0.6542036E-05  0.1500449E+04  0.7818609E-02  0.8884154E-01
        1   -1    0    0  501    0  0.00000000000E+00  0.00000000000E+00  0.62950492630E+03  0.62950492632E+03  0.50400001928E-02 0.  1.
       -1   -1    0    0    0  501  0.00000000000E+00  0.00000000000E+00 -0.89409447827E+03  0.89409447828E+03  0.50400001928E-02 0. -1.
    10030    2    1    2    0    0  0.00000000000E+00  0.00000000000E+00 -0.26458955197E+03  0.15235994046E+04  0.15004491043E+04 0.  0.
        4    1    3    3  502    0  0.72664248719E+03  0.15492176535E+03 -0.23794432673E+03  0.78014689200E+03  0.12699999809E+01 0. -1.
       -4    1    3    3    0  502 -0.72664248719E+03 -0.15492176535E+03 -0.26645225235E+02  0.74345251260E+03  0.12699999809E+01 0.  1.
</event>
<event>
 5   0  0.6364378E-05  0.1501067E+04  0.7818609E-02  0.8883744E-01
        1   -1    0    0  501    0  0.00000000000E+00  0.00000000000E+00  0.14031302044E+04  0.14031302044E+04  0.50400001928E-02 0. -1.
       -1   -1    0    0    0  501  0.00000000000E+00  0.00000000000E+00 -0.40145993969E+03  0.40145993972E+03  0.50400001928E-02 0.  1.
    10030    2    1    2    0    0  0.00000000000E+00  0.00000000000E+00  0.10016702647E+04  0.18045901441E+04  0.15010670435E+04 0.  0.
        5    1    3    3  502    0  0.64020203829E+03  0.27516155407E+03  0.83595920007E+03  0.10883117223E+04  0.46999998093E+01 0. -1.
       -5    1    3    3    0  502 -0.64020203829E+03 -0.27516155407E+03  0.16571106462E+03  0.71627842184E+03  0.46999998093E+01 0.  1.
</event>
<event>
 5   0  0.1228286E-04  0.1499872E+04  0.7818609E-02  0.8884538E-01
       -2   -1    0    0    0  501  0.00000000000E+00  0.00000000000E+00  0.17746310045E+04  0.17746310045E+04  0.25500000920E-02 0. -1.
        2   -1    0    0  501    0  0.00000000000E+00  0.00000000000E+00 -0.31691311395E+03  0.31691311396E+03  0.25500000920E-02 0.  1.
    10030    2    1    2    0    0  0.00000000000E+00  0.00000000000E+00  0.14577178905E+04  0.20915441184E+04  0.14998717782E+04 0.  0.
        2    1    3    3  502    0  0.11822556639E+03  0.46178985341E+03  0.15361865394E+04  0.16084452857E+04  0.25500000920E-02 0. -1.
       -2    1    3    3    0  502 -0.11822556639E+03 -0.46178985341E+03 -0.78468648930E+02  0.48309883267E+03  0.25500000920E-02 0.  1.
</event>
<event>
 5   0  0.6509279E-05  0.1500467E+04  0.7818609E-02  0.8884142E-01
        1   -1    0    0  501    0  0.00000000000E+00  0.00000000000E+00  0.86701583743E+03  0.86701583744E+03  0.50400001928E-02 0.  1.
       -1   -1    0    0    0  501  0.00000000000E+00  0.00000000000E+00 -0.64918125726E+03  0.64918125727E+03  0.50400001928E-02 0. -1.
    10030    2    1    2    0    0  0.00000000000E+00  0.00000000000E+00  0.21783458017E+03  0.15161970947E+04  0.15004671692E+04 0.  0.
        2    1    3    3  502    0  0.49956886257E+03 -0.10170591576E+03 -0.44725011204E+03  0.67819304367E+03  0.25500000920E-02 0. -1.
       -2    1    3    3    0  502 -0.49956886257E+03  0.10170591576E+03  0.66508469222E+03  0.83800405105E+03  0.25500000920E-02 0.  1.
</event>
<event>
 5   0  0.1254487E-04  0.1500967E+04  0.7818609E-02  0.8883810E-01
        2   -1    0    0  501    0  0.00000000000E+00  0.00000000000E+00  0.48384478434E+03  0.48384478434E+03  0.25500000920E-02 0.  1.
       -2   -1    0    0    0  501  0.00000000000E+00  0.00000000000E+00 -0.11640623567E+04  0.11640623567E+04  0.25500000920E-02 0. -1.
    10030    2    1    2    0    0  0.00000000000E+00  0.00000000000E+00 -0.68021757240E+03  0.16479071411E+04  0.15009670216E+04 0.  0.
        5    1    3    3  502    0  0.57690095694E+03 -0.45523322382E+03 -0.17305732157E+03  0.75499862830E+03  0.46999998093E+01 0. -1.
       -5    1    3    3    0  502 -0.57690095694E+03  0.45523322382E+03 -0.50716025082E+03  0.89290851278E+03  0.46999998093E+01 0.  1.
</event>
<event>
 5   0  0.6668433E-05  0.1499703E+04  0.7818609E-02  0.8884650E-01
       -1   -1    0    0    0  501  0.00000000000E+00  0.00000000000E+00  0.57846783118E+03  0.57846783120E+03  0.50400001928E-02 0.  1.
        1   -1    0    0  501    0  0.00000000000E+00  0.00000000000E+00 -0.97201173233E+03  0.97201173234E+03  0.50400001928E-02 0. -1.
    10030    2    1    2    0    0  0.00000000000E+00  0.00000000000E+00 -0.39354390115E+03  0.15504795635E+04  0.14997033289E+04 0.  0.
        1    1    3    3  502    0  0.16912253421E+03 -0.27482270540E+03 -0.89655494344E+03  0.95285923284E+03  0.50400001928E-02 0. -1.
       -1    1    3    3    0  502 -0.16912253421E+03  0.27482270540E+03  0.50301104229E+03  0.59762033070E+03  0.50400001928E-02 0.  1.
</event>
<event>
 5   0  0.1186664E-04  0.1500237E+04  0.7818609E-02  0.8884296E-01
       -2   -1    0    0    0  501  0.00000000000E+00  0.00000000000E+00  0.10607054627E+04  0.10607054627E+04  0.25500000920E-02 0.  1.
        2   -1    0    0  501    0  0.00000000000E+00  0.00000000000E+00 -0.53047484637E+03  0.53047484638E+03  0.25500000920E-02 0. -1.
    10030    2    1    2    0    0  0.00000000000E+00  0.00000000000E+00  0.53023061636E+03  0.15911803091E+04  0.15002367379E+04 0.  0.
        3    1    3    3  502    0 -0.24172437266E+03 -0.30890904085E+03  0.94326688544E+03  0.10215712874E+04  0.10100000352E+00 0.  1.
       -3    1    3    3    0  502  0.24172437266E+03  0.30890904085E+03 -0.41303626908E+03  0.56960902173E+03  0.10100000352E+00 0. -1.
</event>
<event>
 5   0  0.1254487E-04  0.1488461E+04  0.7818609E-02  0.8892163E-01
        2   -1    0    0  501    0  0.00000000000E+00  0.00000000000E+00  0.15358938141E+04  0.15358938141E+04  0.25500000920E-02 0.  1.
       -2   -1    0    0    0  501  0.00000000000E+00  0.00000000000E+00 -0.36062313666E+03  0.36062313667E+03  0.25500000920E-02 0. -1.
    10030    2    1    2    0    0  0.00000000000E+00  0.00000000000E+00  0.11752706775E+04  0.18965169508E+04  0.14884607416E+04 0.  0.
        5    1    3    3  502    0  0.44481910444E+02  0.41739934013E+03 -0.19537497794E+03  0.46302734422E+03  0.46999998093E+01 0. -1.
       -5    1    3    3    0  502 -0.44481910444E+02 -0.41739934013E+03  0.13706456554E+04  0.14334896066E+04  0.46999998093E+01 0.  1.
</event>
<event>
 5   0  0.6668433E-05  0.1461146E+04  0.7818609E-02  0.8910710E-01
        1   -1    0    0  501    0  0.00000000000E+00  0.00000000000E+00  0.15934927720E+04  0.15934927720E+04  0.50400001928E-02 0. -1.
       -1   -1    0    0    0  501  0.00000000000E+00  0.00000000000E+00 -0.33494775562E+03  0.33494775566E+03  0.50400001928E-02 0.  1.
    10030    2    1    2    0    0  0.00000000000E+00  0.00000000000E+00  0.12585450164E+04  0.19284405276E+04  0.14611458895E+04 0.  0.
        1    1    3    3  502    0 -0.73076156079E+02 -0.58352177085E+03  0.57168544364E+02  0.59085194773E+03  0.50400001928E-02 0.  1.
       -1    1    3    3    0  502  0.73076156079E+02  0.58352177085E+03  0.12013764720E+04  0.13375885799E+04  0.50400001928E-02 0. -1.
</event>
<event>
 5   0  0.1228286E-04  0.1499187E+04  0.7818609E-02  0.8884994E-01
        2   -1    0    0  501    0  0.00000000000E+00  0.00000000000E+00  0.87926326160E+03  0.87926326160E+03  0.25500000920E-02 0.  1.
       -2   -1    0    0    0  501  0.00000000000E+00  0.00000000000E+00 -0.63904653474E+03  0.63904653475E+03  0.25500000920E-02 0. -1.
    10030    2    1    2    0    0  0.00000000000E+00  0.00000000000E+00  0.24021672685E+03  0.15183097963E+04  0.14991866334E+04 0.  0.
        2    1    3    3  502    0 -0.11687467117E+03  0.65144511369E+03  0.47652026626E+03  0.81554398353E+03  0.25500000920E-02 0.  1.
       -2    1    3    3    0  502  0.11687467117E+03 -0.65144511369E+03 -0.23630353941E+03  0.70276581281E+03  0.25500000920E-02 0. -1.
</event>
<event>
 5   0  0.1254487E-04  0.1498093E+04  0.7818609E-02  0.8885722E-01
        2   -1    0    0  501    0  0.00000000000E+00  0.00000000000E+00  0.70147297634E+03  0.70147297634E+03  0.25500000920E-02 0. -1.
       -2   -1    0    0    0  501  0.00000000000E+00  0.00000000000E+00 -0.79984618721E+03  0.79984618721E+03  0.25500000920E-02 0.  1.
    10030    2    1    2    0    0  0.00000000000E+00  0.00000000000E+00 -0.98373210872E+02  0.15013191636E+04  0.14980927682E+04 0.  0.
        5    1    3    3  502    0  0.36688347161E+03 -0.45859705278E+03  0.41671641025E+03  0.72013151238E+03  0.46999998093E+01 0. -1.
       -5    1    3    3    0  502 -0.36688347161E+03  0.45859705278E+03 -0.51508962112E+03  0.78118765117E+03  0.46999998093E+01 0.  1.
</event>
<event>
 5   0  0.6509279E-05  0.1494112E+04  0.7818609E-02  0.8888378E-01
       -1   -1    0    0    0  501  0.00000000000E+00  0.00000000000E+00  0.11278430578E+04  0.11278430578E+04  0.50400001928E-02 0. -1.
        1   -1    0    0  501    0  0.00000000000E+00  0.00000000000E+00 -0.49483179526E+03  0.49483179529E+03  0.50400001928E-02 0.  1.
    10030    2    1    2    0    0  0.00000000000E+00  0.00000000000E+00  0.63301126254E+03  0.16226748531E+04  0.14941119170E+04 0.  0.
        2    1    3    3  502    0  0.67347552050E+03  0.69911731726E+02  0.65931747412E+03  0.94506955227E+03  0.25500000920E-02 0. -1.
       -2    1    3    3    0  502 -0.67347552050E+03 -0.69911731726E+02 -0.26306211578E+02  0.67760530083E+03  0.25500000920E-02 0.  1.
</event>
<event>
 5   0  0.1254487E-04  0.1495587E+04  0.7818609E-02  0.8887393E-01
        2   -1    0    0  501    0  0.00000000000E+00  0.00000000000E+00  0.11233817935E+04  0.11233817935E+04  0.25500000920E-02 0.  1.
       -2   -1    0    0    0  501  0.00000000000E+00  0.00000000000E+00 -0.49777840462E+03  0.49777840463E+03  0.25500000920E-02 0. -1.
    10030    2    1    2    0    0  0.00000000000E+00  0.00000000000E+00  0.62560338890E+03  0.16211601982E+04  0.14955871047E+04 0.  0.
        5    1    3    3  502    0 -0.26447782902E+03 -0.60915610114E+03 -0.59793617663E+02  0.66679610400E+03  0.46999998093E+01 0. -1.
       -5    1    3    3    0  502  0.26447782902E+03  0.60915610114E+03  0.68539700656E+03  0.95436409415E+03  0.46999998093E+01 0.  1.
</event>
<event>
 5   0  0.6542036E-05  0.1497732E+04  0.7818609E-02  0.8885963E-01
        1   -1    0    0  501    0  0.00000000000E+00  0.00000000000E+00  0.61329316256E+03  0.61329316258E+03  0.50400001928E-02 0.  1.
       -1   -1    0    0    0  501  0.00000000000E+00  0.00000000000E+00 -0.91440777363E+03  0.91440777364E+03  0.50400001928E-02 0. -1.
    10030    2    1    2    0    0  0.00000000000E+00  0.00000000000E+00 -0.30111461107E+03  0.15277009362E+04  0.14977316654E+04 0.  0.
        4    1    3    3  502    0 -0.45760772882E+03  0.56935045193E+03 -0.31888565845E+03  0.79702851057E+03  0.12699999809E+01 0. -1.
       -4    1    3    3    0  502  0.45760772882E+03 -0.56935045193E+03  0.17771047386E+02  0.73067242566E+03  0.12699999809E+01 0.  1.
</event>
<event>
 5   0  0.6364378E-05  0.1498027E+04  0.7818609E-02  0.8885766E-01
        1   -1    0    0  501    0  0.00000000000E+00  0.00000000000E+00  0.10227102144E+04  0.10227102144E+04  0.50400001928E-02 0.  1.
       -1   -1    0    0    0  501  0.00000000000E+00  0.00000000000E+00 -0.54856293904E+03  0.54856293906E+03  0.50400001928E-02 0. -1.
    10030    2    1    2    0    0  0.00000000000E+00  0.00000000000E+00  0.47414727534E+03  0.15712731534E+04  0.14980265966E+04 0.  0.
        5    1    3    3  502    0  0.23162597865E+03 -0.36717439601E+03  0.87727042712E+03  0.97882231450E+03  0.46999998093E+01 0.  1.
       -5    1    3    3    0  502 -0.23162597865E+03  0.36717439601E+03 -0.40312315178E+03  0.59245083895E+03  0.46999998093E+01 0. -1.
</event>
<event>
 5   0  0.6364378E-05  0.1500275E+04  0.7818609E-02  0.8884270E-01
       -1   -1    0    0    0  501  0.00000000000E+00  0.00000000000E+00  0.99760721332E+03  0.99760721333E+03  0.50400001928E-02 0. -1.
        1   -1    0    0  501    0  0.00000000000E+00  0.00000000000E+00 -0.56405630922E+03  0.56405630924E+03  0.50400001928E-02 0.  1.
    10030    2    1    2    0    0  0.00000000000E+00  0.00000000000E+00  0.43355090410E+03  0.15616635226E+04  0.15002754985E+04 0.  0.
        5    1    3    3  502    0 -0.60296781064E+02 -0.69293670795E+03  0.50913732680E+03  0.86199761634E+03  0.46999998093E+01 0. -1.
       -5    1    3    3    0  502  0.60296781064E+02  0.69293670795E+03 -0.75586422704E+02  0.69966590622E+03  0.46999998093E+01 0.  1.
</event>
<event>
 5   0  0.4462875E-05  0.1500656E+04  0.7818609E-02  0.8884017E-01
        3   -1    0    0  501    0  0.00000000000E+00  0.00000000000E+00  0.17051053345E+04  0.17051053375E+04  0.10100000352E+00 0. -1.
       -3   -1    0    0    0  501  0.00000000000E+00  0.00000000000E+00 -0.33018005586E+03  0.33018007130E+03  0.10100000352E+00 0.  1.
    10030    2    1    2    0    0  0.00000000000E+00  0.00000000000E+00  0.13749252786E+04  0.20352854088E+04  0.15006555812E+04 0.  0.
        1    1    3    3  502    0  0.43284588750E+03  0.31454120374E+03 -0.25963339322E+02  0.53569191349E+03  0.50400001928E-02 0.  1.
       -1    1    3    3    0  502 -0.43284588750E+03 -0.31454120374E+03  0.14008886179E+04  0.14995934953E+04  0.50400001928E-02 0. -1.
</event>
<event>
 5   0  0.1186664E-04  0.1496768E+04  0.7818609E-02  0.8886605E-01
       -2   -1    0    0    0  501  0.00000000000E+00  0.00000000000E+00  0.31879213147E+03  0.31879213148E+03  0.25500000920E-02 0. -1.
        2   -1    0    0  501    0  0.00000000000E+00  0.00000000000E+00 -0.17568775514E+04  0.17568775514E+04  0.25500000920E-02 0.  1.
    10030    2    1    2    0    0  0.00000000000E+00  0.00000000000E+00 -0.14380854199E+04  0.20756696829E+04  0.14967681709E+04 0.  0.
        3    1    3    3  502    0 -0.65344117587E+03  0.34171789322E+03 -0.54187132240E+03  0.91508525784E+03  0.10100000352E+00 0.  1.
       -3    1    3    3    0  502  0.65344117587E+03 -0.34171789322E+03 -0.89621409753E+03  0.11605844251E+04  0.10100000352E+00 0. -1.
</event>
<event>
 5   0  0.6364378E-05  0.1501318E+04  0.7818609E-02  0.8883577E-01
        1   -1    0    0  501    0  0.00000000000E+00  0.00000000000E+00  0.16618335651E+04  0.16618335651E+04  0.50400001928E-02 0.  1.
       -1   -1    0    0    0  501  0.00000000000E+00  0.00000000000E+00 -0.33907675079E+03  0.33907675083E+03  0.50400001928E-02 0. -1.
    10030    2    1    2    0    0  0.00000000000E+00  0.00000000000E+00  0.13227568143E+04  0.20009103159E+04  0.15013182549E+04 0.  0.
        5    1    3    3  502    0 -0.15322959521E+03  0.72795603179E+03  0.79510596369E+03  0.10888594384E+04  0.46999998093E+01 0. -1.
       -5    1    3    3    0  502  0.15322959521E+03 -0.72795603179E+03  0.52765085060E+03  0.91205087753E+03  0.46999998093E+01 0.  1.
</event>
<event>
 5   0  0.6364378E-05  0.1497940E+04  0.7818609E-02  0.8885824E-01
       -1   -1    0    0    0  501  0.00000000000E+00  0.00000000000E+00  0.54414828414E+03  0.54414828416E+03  0.50400001928E-02 0.  1.
        1   -1    0    0  501    0  0.00000000000E+00  0.00000000000E+00 -0.10308885000E+04  0.10308885000E+04  0.50400001928E-02 0. -1.
    10030    2    1    2    0    0  0.00000000000E+00  0.00000000000E+00 -0.48674021588E+03  0.15750367842E+04  0.14979401970E+04 0.  0.
        5    1    3    3  502    0  0.24974388309E+03 -0.51835305966E+03  0.26075632315E+03  0.63172608911E+03  0.46999998093E+01 0.  1.
       -5    1    3    3    0  502 -0.24974388309E+03  0.51835305966E+03 -0.74749653903E+03  0.94331069508E+03  0.46999998093E+01 0. -1.
</event>
<event>
 5   0  0.1186664E-04  0.1501990E+04  0.7818609E-02  0.8883131E-01
       -2   -1    0    0    0  501  0.00000000000E+00  0.00000000000E+00  0.30953070587E+03  0.30953070588E+03  0.25500000920E-02 0. -1.
        2   -1    0    0  501    0  0.00000000000E+00  0.00000000000E+00 -0.18220918984E+04  0.18220918984E+04  0.25500000920E-02 0.  1.
    10030    2    1    2    0    0  0.00000000000E+00  0.00000000000E+00 -0.15125611925E+04  0.21316226043E+04  0.15019898688E+04 0.  0.
        3    1    3    3  502    0 -0.47327938289E+03  0.31896896921E+03 -0.14490166513E+04  0.15573643901E+04  0.10100000352E+00 0.  1.
       -3    1    3    3    0  502  0.47327938289E+03 -0.31896896921E+03 -0.63544541178E+02  0.57425821413E+03  0.10100000352E+00 0. -1.
</event>
<event>
 5   0  0.1219810E-04  0.1500762E+04  0.7818609E-02  0.8883946E-01
       -2   -1    0    0    0  501  0.00000000000E+00  0.00000000000E+00  0.13212044841E+04  0.13212044841E+04  0.25500000920E-02 0.  1.
        2   -1    0    0  501    0  0.00000000000E+00  0.00000000000E+00 -0.42618057054E+03  0.42618057054E+03  0.25500000920E-02 0. -1.
    10030    2    1    2    0    0  0.00000000000E+00  0.00000000000E+00  0.89502391356E+03  0.17473850546E+04  0.15007620475E+04 0.  0.
        1    1    3    3  502    0  0.62349754970E+03 -0.18842937217E+03  0.13703630186E+02  0.65149260340E+03  0.50400001928E-02 0. -1.
       -1    1    3    3    0  502 -0.62349754970E+03  0.18842937217E+03  0.88132028337E+03  0.10958924512E+04  0.50400001928E-02 0.  1.
</event>
<event>
 5   0  0.1216921E-04  0.1501666E+04  0.7818609E-02  0.8883346E-01
        2   -1    0    0  501    0  0.00000000000E+00  0.00000000000E+00  0.78242751858E+03  0.78242751859E+03  0.25500000920E-02 0. -1.
       -2   -1    0    0    0  501  0.00000000000E+00  0.00000000000E+00 -0.72051445782E+03  0.72051445782E+03  0.25500000920E-02 0.  1.
    10030    2    1    2    0    0  0.00000000000E+00  0.00000000000E+00  0.61913060762E+02  0.15029419764E+04  0.15016661937E+04 0.  0.
        4    1    3    3  502    0 -0.70467339643E+03 -0.15549635287E+03 -0.17659615769E+03  0.74292094277E+03  0.12699999809E+01 0.  1.
       -4    1    3    3    0  502  0.70467339643E+03  0.15549635287E+03  0.23850921845E+03  0.76002103364E+03  0.12699999809E+01 0. -1.
</event>
<event>
 5   0  0.6509279E-05  0.1503736E+04  0.7818609E-02  0.8881972E-01
        1   -1    0    0  501    0  0.00000000000E+00  0.00000000000E+00  0.63258887536E+03  0.63258887538E+03  0.50400001928E-02 0. -1.
       -1   -1    0    0    0  501  0.00000000000E+00  0.00000000000E+00 -0.89363846109E+03  0.89363846111E+03  0.50400001928E-02 0.  1.
    10030    2    1    2    0    0  0.00000000000E+00  0.00000000000E+00 -0.26104958573E+03  0.15262273365E+04  0.15037363454E+04 0.  0.
        2    1    3    3  502    0  0.90723450963E+02 -0.70831242722E+03 -0.36934933263E+03  0.80396279057E+03  0.25500000920E-02 0.  1.
       -2    1    3    3    0  502 -0.90723450963E+02  0.70831242722E+03  0.10829974690E+03  0.72226454592E+03  0.25500000920E-02 0. -1.
</event>
<event>
 5   0  0.4462875E-05  0.1500126E+04  0.7818609E-02  0.8884369E-01
        4   -1    0    0  501    0  0.00000000000E+00  0.00000000000E+00  0.13121030328E+04  0.13121036474E+04  0.12699999809E+01 0.  1.
       -4   -1    0    0    0  501  0.00000000000E+00  0.00000000000E+00 -0.42877138406E+03  0.42877326490E+03  0.12699999809E+01 0. -1.
    10030    2    1    2    0    0  0.00000000000E+00  0.00000000000E+00  0.88333164870E+03  0.17408769123E+04  0.15001258688E+04 0.  0.
        4    1    3    3  502    0 -0.73257025233E+03  0.19135249011E+02  0.25610591128E+03  0.77628421538E+03  0.12699999809E+01 0. -1.
       -4    1    3    3    0  502  0.73257025233E+03 -0.19135249011E+02  0.62722573743E+03  0.96459269691E+03  0.12699999809E+01 0.  1.
</event>
<event>
 5   0  0.6542036E-05  0.1496605E+04  0.7818609E-02  0.8886713E-01
       -1   -1    0    0    0  501  0.00000000000E+00  0.00000000000E+00  0.52138806408E+03  0.52138806410E+03  0.50400001928E-02 0. -1.
        1   -1    0    0  501    0  0.00000000000E+00  0.00000000000E+00 -0.10739734537E+04  0.10739734537E+04  0.50400001928E-02 0.  1.
    10030    2    1    2    0    0  0.00000000000E+00  0.00000000000E+00 -0.55258538966E+03  0.15953615179E+04  0.14966054122E+04 0.  0.
        4    1    3    3  502    0 -0.48381075537E+03 -0.39566883006E+03 -0.71494158264E+03  0.94961557989E+03  0.12699999809E+01 0.  1.
       -4    1    3    3    0  502  0.48381075537E+03  0.39566883006E+03  0.16235619299E+03  0.64574593796E+03  0.12699999809E+01 0. -1.
</event>
<event>
 5   0  0.1219810E-04  0.1497819E+04  0.7818609E-02  0.8885905E-01
       -2   -1    0    0    0  501  0.00000000000E+00  0.00000000000E+00  0.58448517626E+03  0.58448517627E+03  0.25500000920E-02 0. -1.
        2   -1    0    0  501    0  0.00000000000E+00  0.00000000000E+00 -0.95958823242E+03  0.95958823243E+03  0.25500000920E-02 0.  1.
    10030    2    1    2    0    0  0.00000000000E+00  0.00000000000E+00 -0.37510305616E+03  0.15440734087E+04  0.14978185433E+04 0.  0.
        1    1    3    3  502    0  0.26895420887E+03  0.68296981457E+03 -0.34073705915E+03  0.80925019468E+03  0.50400001928E-02 0. -1.
       -1    1    3    3    0  502 -0.26895420887E+03 -0.68296981457E+03 -0.34365997014E+02  0.73482321402E+03  0.50400001928E-02 0.  1.
</event>
<event>
 5   0  0.4462875E-05  0.1497384E+04  0.7818609E-02  0.8886195E-01
       -4   -1    0    0    0  501  0.00000000000E+00  0.00000000000E+00  0.89244845973E+03  0.89244936336E+03  0.12699999809E+01 0.  1.
        4   -1    0    0  501    0  0.00000000000E+00  0.00000000000E+00 -0.62808981091E+03  0.62809109488E+03  0.12699999809E+01 0. -1.
    10030    2    1    2    0    0  0.00000000000E+00  0.00000000000E+00  0.26435864882E+03  0.15205404582E+04  0.14973836482E+04 0.  0.
        4    1    3    3  502    0  0.52674893458E+03 -0.43425975667E+02  0.67065111990E+03  0.85388804476E+03  0.12699999809E+01 0.  1.
       -4    1    3    3    0  502 -0.52674893458E+03  0.43425975667E+02 -0.40629247108E+03  0.66665241349E+03  0.12699999809E+01 0. -1.
</event>
<event>
 5   0  0.1228286E-04  0.1498722E+04  0.7818609E-02  0.8885303E-01
       -2   -1    0    0    0  501  0.00000000000E+00  0.00000000000E+00  0.15878768669E+04  0.15878768669E+04  0.25500000920E-02 0. -1.
        2   -1    0    0  501    0  0.00000000000E+00  0.00000000000E+00 -0.35364327567E+03  0.35364327568E+03  0.25500000920E-02 0.  1.
    10030    2    1    2    0    0  0.00000000000E+00  0.00000000000E+00  0.12342335912E+04  0.19415201425E+04  0.14987220911E+04 0.  0.
        2    1    3    3  502    0 -0.23275113468E+03 -0.36308755800E+03 -0.17674839542E+03  0.46609619261E+03  0.25500000920E-02 0.  1.
       -2    1    3    3    0  502  0.23275113468E+03  0.36308755800E+03  0.14109819866E+04  0.14754239499E+04  0.25500000920E-02 0. -1.
</event>
<event>
 5   0  0.6668433E-05  0.1501371E+04  0.7818609E-02  0.8883542E-01
       -1   -1    0    0    0  501  0.00000000000E+00  0.00000000000E+00  0.32062459323E+03  0.32062459327E+03  0.50400001928E-02 0. -1.
        1   -1    0    0  501    0  0.00000000000E+00  0.00000000000E+00 -0.17575970298E+04  0.17575970298E+04  0.50400001928E-02 0.  1.
    10030    2    1    2    0    0  0.00000000000E+00  0.00000000000E+00 -0.14369724365E+04  0.20782216231E+04  0.15013711504E+04 0.  0.
        1    1    3    3  502    0 -0.36288239924E+03  0.30370262795E+03 -0.15251526238E+04  0.15968749005E+04  0.50400001928E-02 0.  1.
       -1    1    3    3    0  502  0.36288239924E+03 -0.30370262795E+03  0.88180187231E+02  0.48134672259E+03  0.50400001928E-02 0. -1.
</event>
<event>
 5   0  0.6542036E-05  0.1485680E+04  0.7818609E-02  0.8894032E-01
       -1   -1    0    0    0  501  0.00000000000E+00  0.00000000000E+00  0.48736382720E+03  0.48736382723E+03  0.50400001928E-02 0. -1.
        1   -1    0    0  501    0  0.00000000000E+00  0.00000000000E+00 -0.11322366906E+04  0.11322366906E+04  0.50400001928E-02 0.  1.
    10030    2    1    2    0    0  0.00000000000E+00  0.00000000000E+00 -0.64487286342E+03  0.16196005179E+04  0.14856799209E+04 0.  0.
        4    1    3    3  502    0 -0.33371578056E+02 -0.64744844314E+02  0.48346019930E+03  0.48891812637E+03  0.12699999809E+01 0. -1.
       -4    1    3    3    0  502  0.33371578056E+02  0.64744844314E+02 -0.11283330627E+04  0.11306823915E+04  0.12699999809E+01 0.  1.
</event>
<event>
 5   0  0.1228286E-04  0.1499011E+04  0.7818609E-02  0.8885111E-01
        2   -1    0    0  501    0  0.00000000000E+00  0.00000000000E+00  0.13526463457E+04  0.13526463457E+04  0.25500000920E-02 0. -1.
       -2   -1    0    0    0  501  0.00000000000E+00  0.00000000000E+00 -0.41530352097E+03  0.41530352098E+03  0.25500000920E-02 0.  1.
    10030    2    1    2    0    0  0.00000000000E+00  0.00000000000E+00  0.93734282476E+03  0.17679498667E+04  0.14990113942E+04 0.  0.
        2    1    3    3  502    0  0.46807297343E+03  0.11930387487E+03 -0.20723793053E+03  0.52561704963E+03  0.25500000920E-02 0.  1.
       -2    1    3    3    0  502 -0.46807297343E+03 -0.11930387487E+03  0.11445807553E+04  0.12423328171E+04  0.25500000920E-02 0. -1.
</event>
<event>
 5   0  0.1254487E-04  0.1500260E+04  0.7818609E-02  0.8884280E-01
       -2   -1    0    0    0  501  0.00000000000E+00  0.00000000000E+00  0.29808957252E+03  0.29808957253E+03  0.25500000920E-02 0. -1.
        2   -1    0    0  501    0  0.00000000000E+00  0.00000000000E+00 -0.18876704861E+04  0.18876704861E+04  0.25500000920E-02 0.  1.
    10030    2    1    2    0    0  0.00000000000E+00  0.00000000000E+00 -0.15895809136E+04  0.21857600587E+04  0.15002598286E+04 0.  0.
        5    1    3    3  502    0  0.41572087207E+03 -0.10659524689E+03 -0.16911064570E+04  0.17447204730E+04  0.46999998093E+01 0.  1.
       -5    1    3    3    0  502 -0.41572087207E+03  0.10659524689E+03  0.10152554339E+03  0.44103958563E+03  0.46999998093E+01 0. -1.
</event>
<event>
 5   0  0.6668433E-05  0.1524595E+04  0.7818609E-02  0.8868260E-01
       -1   -1    0    0    0  501  0.00000000000E+00  0.00000000000E+00  0.95821488555E+03  0.95821488556E+03  0.50400001928E-02 0.  1.
        1   -1    0    0  501    0  0.00000000000E+00  0.00000000000E+00 -0.60643745547E+03  0.60643745549E+03  0.50400001928E-02 0. -1.
    10030    2    1    2    0    0  0.00000000000E+00  0.00000000000E+00  0.35177743008E+03  0.15646523411E+04  0.15245948931E+04 0.  0.
        1    1    3    3  502    0  0.35940302360E+03 -0.39063695395E+03  0.73737383415E+03  0.90856366562E+03  0.50400001928E-02 0.  1.
       -1    1    3    3    0  502 -0.35940302360E+03  0.39063695395E+03 -0.38559640408E+03  0.65608867543E+03  0.50400001928E-02 0. -1.
</event>
<event>
 5   0  0.6509279E-05  0.1501517E+04  0.7818609E-02  0.8883445E-01
        1   -1    0    0  501    0  0.00000000000E+00  0.00000000000E+00  0.93006832590E+03  0.93006832592E+03  0.50400001928E-02 0.  1.
       -1   -1    0    0    0  501  0.00000000000E+00  0.00000000000E+00 -0.60601827052E+03  0.60601827054E+03  0.50400001928E-02 0. -1.
    10030    2    1    2    0    0  0.00000000000E+00  0.00000000000E+00  0.32405005538E+03  0.15360865965E+04  0.15015170973E+04 0.  0.
        2    1    3    3  502    0 -0.91318253906E+02 -0.65486670669E+03  0.52580858733E+03  0.84478642125E+03  0.25500000920E-02 0.  1.
       -2    1    3    3    0  502  0.91318253906E+02  0.65486670669E+03 -0.20175853195E+03  0.69130017521E+03  0.25500000920E-02 0. -1.
</event>
<event>
 5   0  0.1216921E-04  0.1499526E+04  0.7818609E-02  0.8884768E-01
       -2   -1    0    0    0  501  0.00000000000E+00  0.00000000000E+00  0.10831598319E+04  0.10831598319E+04  0.25500000920E-02 0.  1.
        2   -1    0    0  501    0  0.00000000000E+00  0.00000000000E+00 -0.51898548966E+03  0.51898548966E+03  0.25500000920E-02 0. -1.
    10030    2    1    2    0    0  0.00000000000E+00  0.00000000000E+00  0.56417434225E+03  0.16021453216E+04  0.14995255726E+04 0.  0.
        4    1    3    3  502    0 -0.64833131952E+03  0.35094844358E+03  0.13619861666E+03  0.74969993064E+03  0.12699999809E+01 0.  1.
       -4    1    3    3    0  502  0.64833131952E+03 -0.35094844358E+03  0.42797572559E+03  0.85244539093E+03  0.12699999809E+01 0. -1.
</event>
<event>
 5   0  0.4462875E-05  0.1498410E+04  0.7818609E-02  0.8885511E-01
       -3   -1    0    0    0  501  0.00000000000E+00  0.00000000000E+00  0.40205463004E+03  0.40205464273E+03  0.10100000352E+00 0.  1.
        3   -1    0    0  501    0  0.00000000000E+00  0.00000000000E+00 -0.13960996478E+04  0.13960996514E+04  0.10100000352E+00 0. -1.
    10030    2    1    2    0    0  0.00000000000E+00  0.00000000000E+00 -0.99404501773E+03  0.17981542942E+04  0.14984102804E+04 0.  0.
        4    1    3    3  502    0  0.44172101581E+03  0.18065953849E+03 -0.11900933017E+04  0.12822164421E+04  0.12699999809E+01 0. -1.
       -4    1    3    3    0  502 -0.44172101581E+03 -0.18065953849E+03  0.19604828398E+03  0.51593785208E+03  0.12699999809E+01 0.  1.
</event>
<event>
 5   0  0.1216921E-04  0.1518713E+04  0.7818609E-02  0.8872103E-01
       -2   -1    0    0    0  501  0.00000000000E+00  0.00000000000E+00  0.48907620344E+03  0.48907620345E+03  0.25500000920E-02 0.  1.
        2   -1    0    0  501    0  0.00000000000E+00  0.00000000000E+00 -0.11790035212E+04  0.11790035212E+04  0.25500000920E-02 0. -1.
    10030    2    1    2    0    0  0.00000000000E+00  0.00000000000E+00 -0.68992731776E+03  0.16680797247E+04  0.15187133581E+04 0.  0.
        4    1    3    3  502    0  0.25404187814E+03 -0.61639913316E+03 -0.74421944314E+03  0.99917433897E+03  0.12699999809E+01 0. -1.
       -4    1    3    3    0  502 -0.25404187814E+03  0.61639913316E+03  0.54292125377E+02  0.66890538568E+03  0.12699999809E+01 0.  1.
</event>
<event>
 5   0  0.1216921E-04  0.1497906E+04  0.7818609E-02  0.8885847E-01
       -2   -1    0    0    0  501  0.00000000000E+00  0.00000000000E+00  0.61238218519E+03  0.61238218520E+03  0.25500000920E-02 0. -1.
        2   -1    0    0  501    0  0.00000000000E+00  0.00000000000E+00 -0.91598133329E+03  0.91598133329E+03  0.25500000920E-02 0.  1.
    10030    2    1    2    0    0  0.00000000000E+00  0.00000000000E+00 -0.30359914810E+03  0.15283635185E+04  0.14979060725E+04 0.  0.
        4    1    3    3  502    0  0.49475175718E+03 -0.29874296867E+03 -0.63782792381E+03  0.86072802665E+03  0.12699999809E+01 0.  1.
       -4    1    3    3    0  502 -0.49475175718E+03  0.29874296867E+03  0.33422877571E+03  0.66763549185E+03  0.12699999809E+01 0. -1.
</event>
<event>
 5   0  0.1254487E-04  0.1500431E+04  0.7818609E-02  0.8884166E-01
        2   -1    0    0  501    0  0.00000000000E+00  0.00000000000E+00  0.11964797971E+04  0.11964797971E+04  0.25500000920E-02 0. -1.
       -2   -1    0    0    0  501  0.00000000000E+00  0.00000000000E+00 -0.47039959467E+03  0.47039959467E+03  0.25500000920E-02 0.  1.
    10030    2    1    2    0    0  0.00000000000E+00  0.00000000000E+00  0.72608020245E+03  0.16668793918E+04  0.15004314201E+04 0.  0.
        5    1    3    3  502    0 -0.37029890089E+03  0.19926760759E+03  0.10532263500E+04  0.11340796664E+04  0.46999998093E+01 0. -1.
       -5    1    3    3    0  502  0.37029890089E+03 -0.19926760759E+03 -0.32714614760E+03  0.53279972534E+03  0.46999998093E+01 0.  1.
</event>
<event>
 5   0  0.6509279E-05  0.1501637E+04  0.7818609E-02  0.8883365E-01
        1   -1    0    0  501    0  0.00000000000E+00  0.00000000000E+00  0.88601614537E+03  0.88601614539E+03  0.50400001928E-02 0.  1.
       -1   -1    0    0    0  501  0.00000000000E+00  0.00000000000E+00 -0.63625110508E+03  0.63625110510E+03  0.50400001928E-02 0. -1.
    10030    2    1    2    0    0  0.00000000000E+00  0.00000000000E+00  0.24976504029E+03  0.15222672505E+04  0.15016374418E+04 0.  0.
        2    1    3    3  502    0  0.46166450803E+03  0.59210649524E+03  0.12704060701E+03  0.76148771199E+03  0.25500000920E-02 0.  1.
       -2    1    3    3    0  502 -0.46166450803E+03 -0.59210649524E+03  0.12272443327E+03  0.76077953850E+03  0.25500000920E-02 0. -1.
</event>
<event>
 5   0  0.6668433E-05  0.1501829E+04  0.7818609E-02  0.8883238E-01
       -1   -1    0    0    0  501  0.00000000000E+00  0.00000000000E+00  0.39181763091E+03  0.39181763094E+03  0.50400001928E-02 0. -1.
        1   -1    0    0  501    0  0.00000000000E+00  0.00000000000E+00 -0.14391194439E+04  0.14391194439E+04  0.50400001928E-02 0.  1.
    10030    2    1    2    0    0  0.00000000000E+00  0.00000000000E+00 -0.10473018130E+04  0.18309370748E+04  0.15018287134E+04 0.  0.
        1    1    3    3  502    0 -0.54857340017E+03 -0.15634302259E+03 -0.11190305471E+04  0.12560275799E+04  0.50400001928E-02 0.  1.
       -1    1    3    3    0  502  0.54857340017E+03  0.15634302259E+03  0.71728734089E+02  0.57490949497E+03  0.50400001928E-02 0. -1.
</event>
<event>
 5   0  0.4462875E-05  0.1499970E+04  0.7818609E-02  0.8884473E-01
       -3   -1    0    0    0  501  0.00000000000E+00  0.00000000000E+00  0.13022386965E+04  0.13022387005E+04  0.10100000352E+00 0. -1.
        3   -1    0    0  501    0  0.00000000000E+00  0.00000000000E+00 -0.43193090427E+03  0.43193091608E+03  0.10100000352E+00 0.  1.
    10030    2    1    2    0    0  0.00000000000E+00  0.00000000000E+00  0.87030779228E+03  0.17341696165E+04  0.14999695349E+04 0.  0.
        2    1    3    3  502    0 -0.45993069905E+03  0.42554245720E+03 -0.41329409962E+02  0.62795760282E+03  0.25500000920E-02 0.  1.
       -2    1    3    3    0  502  0.45993069905E+03 -0.42554245720E+03  0.91163720224E+03  0.11062120137E+04  0.25500000920E-02 0. -1.
</event>
<event>
 5   0  0.1219810E-04  0.1508128E+04  0.7818609E-02  0.8879066E-01
       -2   -1    0    0    0  501  0.00000000000E+00  0.00000000000E+00  0.46831004731E+03  0.46831004732E+03  0.25500000920E-02 0.  1.
        2   -1    0    0  501    0  0.00000000000E+00  0.00000000000E+00 -0.12141791530E+04  0.12141791530E+04  0.25500000920E-02 0. -1.
    10030    2    1    2    0    0  0.00000000000E+00  0.00000000000E+00 -0.74586910568E+03  0.16824892003E+04  0.15081277089E+04 0.  0.
        1    1    3    3  502    0 -0.18529360849E+03  0.43024527154E+03  0.28628658318E+03  0.54900339048E+03  0.50400001928E-02 0.  1.
       -1    1    3    3    0  502  0.18529360849E+03 -0.43024527154E+03 -0.10321556889E+04  0.11334858098E+04  0.50400001928E-02 0. -1.
</event>
<event>
 5   0  0.4462875E-05  0.1498559E+04  0.7818609E-02  0.8885412E-01
       -4   -1    0    0    0  501  0.00000000000E+00  0.00000000000E+00  0.90590945959E+03  0.90591034980E+03  0.12699999809E+01 0. -1.
        4   -1    0    0  501    0  0.00000000000E+00  0.00000000000E+00 -0.61972867467E+03  0.61972997596E+03  0.12699999809E+01 0.  1.
    10030    2    1    2    0    0  0.00000000000E+00  0.00000000000E+00  0.28618078492E+03  0.15256403258E+04  0.14985589618E+04 0.  0.
        4    1    3    3  502    0 -0.69196920489E+03 -0.27021698226E+03  0.24273422320E+03  0.78151142924E+03  0.12699999809E+01 0.  1.
       -4    1    3    3    0  502  0.69196920489E+03  0.27021698226E+03  0.43446561720E+02  0.74412889652E+03  0.12699999809E+01 0. -1.
</event>
<event>
 5   0  0.1216921E-04  0.1505162E+04  0.7818609E-02  0.8881027E-01
       -2   -1    0    0    0  501  0.00000000000E+00  0.00000000000E+00  0.36622668068E+03  0.36622668069E+03  0.25500000920E-02 0.  1.
        2   -1    0    0  501    0  0.00000000000E+00  0.00000000000E+00 -0.15465234946E+04  0.15465234946E+04  0.25500000920E-02 0. -1.
    10030    2    1    2    0    0  0.00000000000E+00  0.00000000000E+00 -0.11802968140E+04  0.19127501753E+04  0.15051620060E+04 0.  0.
        4    1    3    3  502    0  0.46430071883E+03 -0.34855466389E+03 -0.11986861048E+04  0.13318841924E+04  0.12699999809E+01 0. -1.
       -4    1    3    3    0  502 -0.46430071883E+03  0.34855466389E+03  0.18389290826E+02  0.58086598295E+03  0.12699999809E+01 0.  1.
</event>
<event>
 5   0  0.6364378E-05  0.1492955E+04  0.7818609E-02  0.8889151E-01
       -1   -1    0    0    0  501  0.00000000000E+00  0.00000000000E+00  0.57338696842E+03  0.57338696844E+03  0.50400001928E-02 0.  1.
        1   -1    0    0  501    0  0.00000000000E+00  0.00000000000E+00 -0.97182010563E+03  0.97182010564E+03  0.50400001928E-02 0. -1.
    10030    2    1    2    0    0  0.00000000000E+00  0.00000000000E+00 -0.39843313721E+03  0.15452070741E+04  0.14929554370E+04 0.  0.
        5    1    3    3  502    0  0.17515985543E+03 -0.31621462725E+03 -0.87517001583E+03  0.94689878659E+03  0.46999998093E+01 0. -1.
       -5    1    3    3    0  502 -0.17515985543E+03  0.31621462725E+03  0.47673687862E+03  0.59830828749E+03  0.46999998093E+01 0.  1.
</event>
<event>
 5   0  0.6361716E-05  0.1499001E+04  0.7818609E-02  0.8885117E-01
       -1   -1    0    0    0  501  0.00000000000E+00  0.00000000000E+00  0.36767145332E+03  0.36767145335E+03  0.50400001928E-02 0. -1.
        1   -1    0    0  501    0  0.00000000000E+00  0.00000000000E+00 -0.15278622871E+04  0.15278622871E+04  0.50400001928E-02 0.  1.
    10030    2    1    2    0    0  0.00000000000E+00  0.00000000000E+00 -0.11601908337E+04  0.18955337404E+04  0.14990014644E+04 0.  0.
        3    1    3    3  502    0 -0.16187372341E+03 -0.61035643332E+03 -0.69542304976E+02  0.63527491719E+03  0.10100000352E+00 0.  1.
       -3    1    3    3    0  502  0.16187372341E+03  0.61035643332E+03 -0.10906485288E+04  0.12602588232E+04  0.10100000352E+00 0. -1.
</event>
<event>
 5   0  0.6509279E-05  0.1503292E+04  0.7818609E-02  0.8882267E-01
        1   -1    0    0  501    0  0.00000000000E+00  0.00000000000E+00  0.50602404037E+03  0.50602404040E+03  0.50400001928E-02 0.  1.
       -1   -1    0    0    0  501  0.00000000000E+00  0.00000000000E+00 -0.11164915612E+04  0.11164915612E+04  0.50400001928E-02 0. -1.
    10030    2    1    2    0    0  0.00000000000E+00  0.00000000000E+00 -0.61046752080E+03  0.16225156016E+04  0.15032918158E+04 0.  0.
        2    1    3    3  502    0  0.47106462661E+03  0.11650442282E+03  0.31430849239E+03  0.57815654573E+03  0.25500000920E-02 0.  1.
       -2    1    3    3    0  502 -0.47106462661E+03 -0.11650442282E+03 -0.92477601319E+03  0.10443590559E+04  0.25500000920E-02 0. -1.
</event>
<event>
 5   0  0.6509279E-05  0.1500727E+04  0.7818609E-02  0.8883970E-01
        1   -1    0    0  501    0  0.00000000000E+00  0.00000000000E+00  0.96803910933E+03  0.96803910934E+03  0.50400001928E-02 0. -1.
       -1   -1    0    0    0  501  0.00000000000E+00  0.00000000000E+00 -0.58163496349E+03  0.58163496351E+03  0.50400001928E-02 0.  1.
    10030    2    1    2    0    0  0.00000000000E+00  0.00000000000E+00  0.38640414584E+03  0.15496740728E+04  0.15007270132E+04 0.  0.
        2    1    3    3  502    0  0.68830549090E+03  0.17582070259E+03  0.44267657338E+03  0.83704236266E+03  0.25500000920E-02 0. -1.
       -2    1    3    3    0  502 -0.68830549090E+03 -0.17582070259E+03 -0.56272427536E+02  0.71263171019E+03  0.25500000920E-02 0.  1.
</event>
<event>
 5   0  0.6364378E-05  0.1467680E+04  0.7818609E-02  0.8906234E-01
       -1   -1    0    0    0  501  0.00000000000E+00  0.00000000000E+00  0.21143835599E+03  0.21143835605E+03  0.50400001928E-02 0. -1.
        1   -1    0    0  501    0  0.00000000000E+00  0.00000000000E+00 -0.25469421569E+04  0.25469421569E+04  0.50400001928E-02 0.  1.
    10030    2    1    2    0    0  0.00000000000E+00  0.00000000000E+00 -0.23355038009E+04  0.27583805129E+04  0.14676801593E+04 0.  0.
        5    1    3    3  502    0 -0.54020200503E+03 -0.17279210941E+03 -0.29261442501E+03  0.63821674299E+03  0.46999998093E+01 0. -1.
       -5    1    3    3    0  502  0.54020200503E+03  0.17279210941E+03 -0.20428893759E+04  0.21201637699E+04  0.46999998093E+01 0.  1.
</event>
<event>
 5   0  0.1219810E-04  0.1499033E+04  0.7818609E-02  0.8885096E-01
        2   -1    0    0  501    0  0.00000000000E+00  0.00000000000E+00  0.71722630215E+03  0.71722630216E+03  0.25500000920E-02 0.  1.
       -2   -1    0    0    0  501  0.00000000000E+00  0.00000000000E+00 -0.78326013065E+03  0.78326013065E+03  0.25500000920E-02 0. -1.
    10030    2    1    2    0    0  0.00000000000E+00  0.00000000000E+00 -0.66033828498E+02  0.15004864328E+04  0.14990327110E+04 0.  0.
        1    1    3    3  502    0  0.44684610313E+02  0.21514349907E+03  0.68426110072E+03  0.71867704400E+03  0.50400001928E-02 0.  1.
       -1    1    3    3    0  502 -0.44684610313E+02 -0.21514349907E+03 -0.75029492922E+03  0.78180938881E+03  0.50400001928E-02 0. -1.
</event>
<event>
 5   0  0.6542036E-05  0.1499466E+04  0.7818609E-02  0.8884808E-01
       -1   -1    0    0    0  501  0.00000000000E+00  0.00000000000E+00  0.49211517334E+03  0.49211517337E+03  0.50400001928E-02 0.  1.
        1   -1    0    0  501    0  0.00000000000E+00  0.00000000000E+00 -0.11422116866E+04  0.11422116866E+04  0.50400001928E-02 0. -1.
    10030    2    1    2    0    0  0.00000000000E+00  0.00000000000E+00 -0.65009651323E+03  0.16343268599E+04  0.14994661746E+04 0.  0.
        4    1    3    3  502    0 -0.81027428166E+02 -0.72381930758E+03 -0.51885603121E+03  0.89425557206E+03  0.12699999809E+01 0. -1.
       -4    1    3    3    0  502  0.81027428166E+02  0.72381930758E+03 -0.13124048202E+03  0.74007128789E+03  0.12699999809E+01 0.  1.
</event>
<event>
 5   0  0.6668433E-05  0.1502620E+04  0.7818609E-02  0.8882713E-01
       -1   -1    0    0    0  501  0.00000000000E+00  0.00000000000E+00  0.12196293047E+04  0.12196293047E+04  0.50400001928E-02 0. -1.
        1   -1    0    0  501    0  0.00000000000E+00  0.00000000000E+00 -0.46281806842E+03  0.46281806845E+03  0.50400001928E-02 0.  1.
    10030    2    1    2    0    0  0.00000000000E+00  0.00000000000E+00  0.75681123632E+03  0.16824473732E+04  0.15026196845E+04 0.  0.
        1    1    3    3  502    0  0.88431731726E+02 -0.71999728729E+03  0.59738808810E+03  0.93972804189E+03  0.50400001928E-02 0. -1.
       -1    1    3    3    0  502 -0.88431731726E+02  0.71999728729E+03  0.15942314822E+03  0.74271933130E+03  0.50400001928E-02 0.  1.
</event>
<event>
 5   0  0.1216921E-04  0.1502008E+04  0.7818609E-02  0.8883119E-01
       -2   -1    0    0    0  501  0.00000000000E+00  0.00000000000E+00  0.66466901743E+03  0.66466901744E+03  0.25500000920E-02 0. -1.
        2   -1    0    0  501    0  0.00000000000E+00  0.00000000000E+00 -0.84855265531E+03  0.84855265531E+03  0.25500000920E-02 0.  1.
    10030    2    1    2    0    0  0.00000000000E+00  0.00000000000E+00 -0.18388363787E+03  0.15132216727E+04  0.15020075361E+04 0.  0.
        4    1    3    3  502    0  0.78863270380E+02 -0.51734537413E+03  0.45072565483E+03  0.69066698226E+03  0.12699999809E+01 0. -1.
       -4    1    3    3    0  502 -0.78863270380E+02  0.51734537413E+03 -0.63460929271E+03  0.82255469049E+03  0.12699999809E+01 0.  1.
</event>
<event>
 5   0  0.6364378E-05  0.1496163E+04  0.7818609E-02  0.8887009E-01
       -1   -1    0    0    0  501  0.00000000000E+00  0.00000000000E+00  0.49646637260E+03  0.49646637262E+03  0.50400001928E-02 0.  1.
        1   -1    0    0  501    0  0.00000000000E+00  0.00000000000E+00 -0.11272180046E+04  0.11272180046E+04  0.50400001928E-02 0. -1.
    10030    2    1    2    0    0  0.00000000000E+00  0.00000000000E+00 -0.63075163200E+03  0.16236843772E+04  0.14961628707E+04 0.  0.
        5    1    3    3  502    0  0.15675577924E+03 -0.65750752486E+03 -0.66318428170E+03  0.94695512093E+03  0.46999998093E+01 0. -1.
       -5    1    3    3    0  502 -0.15675577924E+03  0.65750752486E+03  0.32432649699E+02  0.67672925630E+03  0.46999998093E+01 0.  1.
</event>
<event>
 5   0  0.6364378E-05  0.1492632E+04  0.7818609E-02  0.8889367E-01
       -1   -1    0    0    0  501  0.00000000000E+00  0.00000000000E+00  0.44369279352E+03  0.44369279354E+03  0.50400001928E-02 0.  1.
        1   -1    0    0  501    0  0.00000000000E+00  0.00000000000E+00 -0.12553450518E+04  0.12553450518E+04  0.50400001928E-02 0. -1.
    10030    2    1    2    0    0  0.00000000000E+00  0.00000000000E+00 -0.81165225832E+03  0.16990378454E+04  0.14926319746E+04 0.  0.
        5    1    3    3  502    0 -0.60075090534E+03 -0.16533495339E+03 -0.87339340144E+03  0.10728818298E+04  0.46999998093E+01 0.  1.
       -5    1    3    3    0  502  0.60075090534E+03  0.16533495339E+03  0.61741143126E+02  0.62615601557E+03  0.46999998093E+01 0. -1.
</event>
<event>
 5   0  0.6542036E-05  0.1496393E+04  0.7818609E-02  0.8886855E-01
        1   -1    0    0  501    0  0.00000000000E+00  0.00000000000E+00  0.10677326457E+04  0.10677326457E+04  0.50400001928E-02 0. -1.
       -1   -1    0    0    0  501  0.00000000000E+00  0.00000000000E+00 -0.52428682285E+03  0.52428682288E+03  0.50400001928E-02 0.  1.
    10030    2    1    2    0    0  0.00000000000E+00  0.00000000000E+00  0.54344582288E+03  0.15920194686E+04  0.14963932057E+04 0.  0.
        4    1    3    3  502    0  0.42369664294E+03 -0.53413633050E+03  0.59959901428E+03  0.90793229683E+03  0.12699999809E+01 0. -1.
       -4    1    3    3    0  502 -0.42369664294E+03  0.53413633050E+03 -0.56153191403E+02  0.68408717179E+03  0.12699999809E+01 0.  1.
</event>
<event>
 5   0  0.1219810E-04  0.1499237E+04  0.7818609E-02  0.8884961E-01
        2   -1    0    0  501    0  0.00000000000E+00  0.00000000000E+00  0.11941937361E+04  0.11941937361E+04  0.25500000920E-02 0.  1.
       -2   -1    0    0    0  501  0.00000000000E+00  0.00000000000E+00 -0.47054991087E+03  0.47054991088E+03  0.25500000920E-02 0. -1.
    10030    2    1    2    0    0  0.00000000000E+00  0.00000000000E+00  0.72364382519E+03  0.16647436469E+04  0.14992368139E+04 0.  0.
        1    1    3    3  502    0  0.29411369349E+03  0.31226723426E+03  0.10444335006E+04  0.11290947823E+04  0.50400001928E-02 0.  1.
       -1    1    3    3    0  502 -0.29411369349E+03 -0.31226723426E+03 -0.32078967540E+03  0.53564886461E+03  0.50400001928E-02 0. -1.
</event>
<event>
 5   0  0.6542036E-05  0.1501759E+04  0.7818609E-02  0.8883284E-01
       -1   -1    0    0    0  501  0.00000000000E+00  0.00000000000E+00  0.40859530919E+03  0.40859530922E+03  0.50400001928E-02 0.  1.
        1   -1    0    0  501    0  0.00000000000E+00  0.00000000000E+00 -0.13798983031E+04  0.13798983031E+04  0.50400001928E-02 0. -1.
    10030    2    1    2    0    0  0.00000000000E+00  0.00000000000E+00 -0.97130299391E+03  0.17884936123E+04  0.15017589338E+04 0.  0.
        4    1    3    3  502    0  0.53854943540E+03 -0.36241206447E+03 -0.36178398575E+02  0.65014497480E+03  0.12699999809E+01 0.  1.
       -4    1    3    3    0  502 -0.53854943540E+03  0.36241206447E+03 -0.93512459534E+03  0.11383486375E+04  0.12699999809E+01 0. -1.
</event>
<event>
 5   0  0.1219810E-04  0.1479723E+04  0.7818609E-02  0.8898050E-01
        2   -1    0    0  501    0  0.00000000000E+00  0.00000000000E+00  0.85307158755E+03  0.85307158755E+03  0.25500000920E-02 0. -1.
       -2   -1    0    0    0  501  0.00000000000E+00  0.00000000000E+00 -0.64167564965E+03  0.64167564966E+03  0.25500000920E-02 0.  1.
    10030    2    1    2    0    0  0.00000000000E+00  0.00000000000E+00  0.21139593789E+03  0.14947472372E+04  0.14797233054E+04 0.  0.
        1    1    3    3  502    0  0.36854012513E+03 -0.33036613493E+03 -0.44982352968E+03  0.66880850385E+03  0.50400001928E-02 0.  1.
       -1    1    3    3    0  502 -0.36854012513E+03  0.33036613493E+03  0.66121946758E+03  0.82593873336E+03  0.50400001928E-02 0. -1.
</event>
<event>
 5   0  0.1186664E-04  0.1538765E+04  0.7818609E-02  0.8859076E-01
        2   -1    0    0  501    0  0.00000000000E+00  0.00000000000E+00  0.11616914533E+04  0.11616914533E+04  0.25500000920E-02 0. -1.
       -2   -1    0    0    0  501  0.00000000000E+00  0.00000000000E+00 -0.50955822075E+03  0.50955822076E+03  0.25500000920E-02 0.  1.
    10030    2    1    2    0    0  0.00000000000E+00  0.00000000000E+00  0.65213323259E+03  0.16712496741E+04  0.15387649983E+04 0.  0.
        3    1    3    3  502    0  0.38434082383E+03 -0.48402964908E+03  0.82371628331E+03  0.10298111942E+04  0.10100000352E+00 0. -1.
       -3    1    3    3    0  502 -0.38434082383E+03  0.48402964908E+03 -0.17158305071E+03  0.64143847994E+03  0.10100000352E+00 0.  1.
</event>
<event>
 5   0  0.1186664E-04  0.1499840E+04  0.7818609E-02  0.8884559E-01
        2   -1    0    0  501    0  0.00000000000E+00  0.00000000000E+00  0.22762551064E+04  0.22762551064E+04  0.25500000920E-02 0.  1.
       -2   -1    0    0    0  501  0.00000000000E+00  0.00000000000E+00 -0.24706381489E+03  0.24706381490E+03  0.25500000920E-02 0. -1.
    10030    2    1    2    0    0  0.00000000000E+00  0.00000000000E+00  0.20291912916E+04  0.25233189213E+04  0.14998403519E+04 0.  0.
        3    1    3    3  502    0 -0.47912304147E+03  0.42235400106E+03  0.35343825907E+03  0.72997287912E+03  0.10100000352E+00 0. -1.
       -3    1    3    3    0  502  0.47912304147E+03 -0.42235400106E+03  0.16757530325E+04  0.17933460422E+04  0.10100000352E+00 0.  1.
</event>
<event>
 5   0  0.6668433E-05  0.1499373E+04  0.7818609E-02  0.8884870E-01
       -1   -1    0    0    0  501  0.00000000000E+00  0.00000000000E+00  0.89936346413E+03  0.89936346415E+03  0.50400001928E-02 0.  1.
        1   -1    0    0  501    0  0.00000000000E+00  0.00000000000E+00 -0.62491959002E+03  0.62491959004E+03  0.50400001928E-02 0. -1.
    10030    2    1    2    0    0  0.00000000000E+00  0.00000000000E+00  0.27444387411E+03  0.15242830542E+04  0.14993729987E+04 0.  0.
        1    1    3    3  502    0  0.88201697427E+02 -0.69993806608E+03  0.39508336171E+03  0.80856892007E+03  0.50400001928E-02 0.  1.
       -1    1    3    3    0  502 -0.88201697427E+02  0.69993806608E+03 -0.12063948760E+03  0.71571413412E+03  0.50400001928E-02 0. -1.
</event>
<event>
 5   0  0.6364378E-05  0.1499080E+04  0.7818609E-02  0.8885065E-01
       -1   -1    0    0    0  501  0.00000000000E+00  0.00000000000E+00  0.49056339029E+03  0.49056339032E+03  0.50400001928E-02 0. -1.
        1   -1    0    0  501    0  0.00000000000E+00  0.00000000000E+00 -0.11452343172E+04  0.11452343172E+04  0.50400001928E-02 0.  1.
    10030    2    1    2    0    0  0.00000000000E+00  0.00000000000E+00 -0.65467092692E+03  0.16357977075E+04  0.14990797569E+04 0.  0.
        5    1    3    3  502    0  0.24491324675E+03  0.70622481722E+03 -0.38761826870E+03  0.84202494210E+03  0.46999998093E+01 0. -1.
       -5    1    3    3    0  502 -0.24491324675E+03 -0.70622481722E+03 -0.26705265822E+03  0.79377276544E+03  0.46999998093E+01 0.  1.
</event>
<event>
 5   0  0.1186664E-04  0.1499828E+04  0.7818609E-02  0.8884568E-01
        2   -1    0    0  501    0  0.00000000000E+00  0.00000000000E+00  0.13140633902E+04  0.13140633902E+04  0.25500000920E-02 0.  1.
       -2   -1    0    0    0  501  0.00000000000E+00  0.00000000000E+00 -0.42796316805E+03  0.42796316806E+03  0.25500000920E-02 0. -1.
    10030    2    1    2    0    0  0.00000000000E+00  0.00000000000E+00  0.88610022214E+03  0.17420265583E+04  0.14998276321E+04 0.  0.
        3    1    3    3  502    0 -0.22495584130E+03  0.71304353755E+03  0.51012022795E+03  0.90512920301E+03  0.10100000352E+00 0.  1.
       -3    1    3    3    0  502  0.22495584130E+03 -0.71304353755E+03  0.37597999420E+03  0.83689735525E+03  0.10100000352E+00 0. -1.
</event>
<event>
 5   0  0.6364378E-05  0.1498978E+04  0.7818609E-02  0.8885133E-01
        1   -1    0    0  501    0  0.00000000000E+00  0.00000000000E+00  0.93774354420E+03  0.93774354421E+03  0.50400001928E-02 0.  1.
       -1   -1    0    0    0  501  0.00000000000E+00  0.00000000000E+00 -0.59902701896E+03  0.59902701898E+03  0.50400001928E-02 0. -1.
    10030    2    1    2    0    0  0.00000000000E+00  0.00000000000E+00  0.33871652524E+03  0.15367705632E+04  0.14989779449E+04 0.  0.
        5    1    3    3  502    0 -0.68361458812E+03 -0.50971898106E+02 -0.14123975327E+03  0.69992699432E+03  0.46999998093E+01 0.  1.
       -5    1    3    3    0  502  0.68361458812E+03  0.50971898106E+02  0.47995627851E+03  0.83684356887E+03  0.46999998093E+01 0. -1.
</event>
<event>
 5   0  0.1228286E-04  0.1500563E+04  0.7818609E-02  0.8884079E-01
        2   -1    0    0  501    0  0.00000000000E+00  0.00000000000E+00  0.11707908721E+04  0.11707908721E+04  0.25500000920E-02 0.  1.
       -2   -1    0    0    0  501  0.00000000000E+00  0.00000000000E+00 -0.48080495948E+03  0.48080495948E+03  0.25500000920E-02 0. -1.
    10030    2    1    2    0    0  0.00000000000E+00  0.00000000000E+00  0.68998591259E+03  0.16515958316E+04  0.15005626382E+04 0.  0.
        2    1    3    3  502    0 -0.67065274725E+03  0.23251164236E+03  0.77452586938E+02  0.71402778269E+03  0.25500000920E-02 0. -1.
       -2    1    3    3    0  502  0.67065274725E+03 -0.23251164236E+03  0.61253332566E+03  0.93756804887E+03  0.25500000920E-02 0.  1.
</event>
<event>
 5   0  0.6361716E-05  0.1536176E+04  0.7818609E-02  0.8860747E-01
       -1   -1    0    0    0  501  0.00000000000E+00  0.00000000000E+00  0.80617868040E+03  0.80617868041E+03  0.50400001928E-02 0.  1.
        1   -1    0    0  501    0  0.00000000000E+00  0.00000000000E+00 -0.73179682999E+03  0.73179683000E+03  0.50400001928E-02 0. -1.
    10030    2    1    2    0    0  0.00000000000E+00  0.00000000000E+00  0.74381850412E+02  0.15379755104E+04  0.15361757748E+04 0.  0.
        3    1    3    3  502    0 -0.66747043164E+03 -0.15918898148E+03 -0.30832364368E+03  0.75227746769E+03  0.10100000352E+00 0. -1.
       -3    1    3    3    0  502  0.66747043164E+03  0.15918898148E+03  0.38270549409E+03  0.78569804273E+03  0.10100000352E+00 0.  1.
</event>
<event>
 5   0  0.6361716E-05  0.1499744E+04  0.7818609E-02  0.8884623E-01
       -1   -1    0    0    0  501  0.00000000000E+00  0.00000000000E+00  0.10652599705E+04  0.10652599705E+04  0.50400001928E-02 0. -1.
        1   -1    0    0  501    0  0.00000000000E+00  0.00000000000E+00 -0.52786010236E+03  0.52786010238E+03  0.50400001928E-02 0.  1.
    10030    2    1    2    0    0  0.00000000000E+00  0.00000000000E+00  0.53739986818E+03  0.15931200729E+04  0.14997442944E+04 0.  0.
        3    1    3    3  502    0 -0.67132744053E+02  0.61911025807E+03 -0.17504547444E+03  0.64687343839E+03  0.10100000352E+00 0.  1.
       -3    1    3    3    0  502  0.67132744053E+02 -0.61911025807E+03  0.71244534262E+03  0.94624663454E+03  0.10100000352E+00 0. -1.
</event>
<event>
 5   0  0.6542036E-05  0.1500461E+04  0.7818609E-02  0.8884146E-01
        1   -1    0    0  501    0  0.00000000000E+00  0.00000000000E+00  0.17470311593E+04  0.17470311593E+04  0.50400001928E-02 0.  1.
       -1   -1    0    0    0  501  0.00000000000E+00  0.00000000000E+00 -0.32217278126E+03  0.32217278130E+03  0.50400001928E-02 0. -1.
    10030    2    1    2    0    0  0.00000000000E+00  0.00000000000E+00  0.14248583781E+04  0.20692039406E+04  0.15004611126E+04 0.  0.
        4    1    3    3  502    0  0.19269421506E+03 -0.46952893777E+03 -0.49492801271E+02  0.50994081440E+03  0.12699999809E+01 0. -1.
       -4    1    3    3    0  502 -0.19269421506E+03  0.46952893777E+03  0.14743511793E+04  0.15592631262E+04  0.12699999809E+01 0.  1.
</event>
<event>
 5   0  0.1216921E-04  0.1498490E+04  0.7818609E-02  0.8885458E-01
        2   -1    0    0  501    0  0.00000000000E+00  0.00000000000E+00  0.21604194858E+04  0.21604194858E+04  0.25500000920E-02 0.  1.
       -2   -1    0    0    0  501  0.00000000000E+00  0.00000000000E+00 -0.25984221219E+03  0.25984221220E+03  0.25500000920E-02 0. -1.
    10030    2    1    2    0    0  0.00000000000E+00  0.00000000000E+00  0.19005772736E+04  0.24202616980E+04  0.14984901447E+04 0.  0.
        4    1    3    3  502    0  0.27517514436E+03  0.41965619247E+03  0.18488806136E+04  0.19157749910E+04  0.12699999809E+01 0.  1.
       -4    1    3    3    0  502 -0.27517514436E+03 -0.41965619247E+03  0.51696659990E+02  0.50448670696E+03  0.12699999809E+01 0. -1.
</event>
<event>
 5   0  0.6361716E-05  0.1500721E+04  0.7818609E-02  0.8883974E-01
       -1   -1    0    0    0  501  0.00000000000E+00  0.00000000000E+00  0.12104410309E+04  0.12104410309E+04  0.50400001928E-02 0. -1.
        1   -1    0    0  501    0  0.00000000000E+00  0.00000000000E+00 -0.46515327046E+03  0.46515327049E+03  0.50400001928E-02 0.  1.
    10030    2    1    2    0    0  0.00000000000E+00  0.00000000000E+00  0.74528776040E+03  0.16755943014E+04  0.15007206325E+04 0.  0.
        3    1    3    3  502    0 -0.57637032844E+03 -0.46309202750E+03  0.51555757794E+03  0.90136374889E+03  0.10100000352E+00 0. -1.
       -3    1    3    3    0  502  0.57637032844E+03  0.46309202750E+03  0.22973018246E+03  0.77423055247E+03  0.10100000352E+00 0.  1.
</event>
<event>
 5   0  0.6364378E-05  0.1499038E+04  0.7818609E-02  0.8885093E-01
       -1   -1    0    0    0  501  0.00000000000E+00  0.00000000000E+00  0.11083028849E+04  0.11083028849E+04  0.50400001928E-02 0.  1.
        1   -1    0    0  501    0  0.00000000000E+00  0.00000000000E+00 -0.50688216580E+03  0.50688216583E+03  0.50400001928E-02 0. -1.
    10030    2    1    2    0    0  0.00000000000E+00  0.00000000000E+00  0.60142071905E+03  0.16151850507E+04  0.14990383139E+04 0.  0.
        5    1    3    3  502    0 -0.34701562790E+03 -0.27504407369E+03  0.95228591371E+03  0.10502093315E+04  0.46999998093E+01 0.  1.
       -5    1    3    3    0  502  0.34701562790E+03  0.27504407369E+03 -0.35086519466E+03  0.56497571921E+03  0.46999998093E+01 0. -1.
</event>
<event>
 5   0  0.6542036E-05  0.1497334E+04  0.7818609E-02  0.8886228E-01
        1   -1    0    0  501    0  0.00000000000E+00  0.00000000000E+00  0.88678129618E+03  0.88678129619E+03  0.50400001928E-02 0. -1.
       -1   -1    0    0    0  501  0.00000000000E+00  0.00000000000E+00 -0.63206375269E+03  0.63206375271E+03  0.50400001928E-02 0.  1.
    10030    2    1    2    0    0  0.00000000000E+00  0.00000000000E+00  0.25471754349E+03  0.15188450489E+04  0.14973340494E+04 0.  0.
        4    1    3    3  502    0  0.55708484041E+03 -0.47906549951E+03  0.27313638982E+03  0.78387012481E+03  0.12699999809E+01 0.  1.
       -4    1    3    3    0  502 -0.55708484041E+03  0.47906549951E+03 -0.18418846325E+02  0.73497492409E+03  0.12699999809E+01 0. -1.
</event>
<event>
 5   0  0.1228286E-04  0.1495839E+04  0.7818609E-02  0.8887225E-01
       -2   -1    0    0    0  501  0.00000000000E+00  0.00000000000E+00  0.35519075568E+03  0.35519075569E+03  0.25500000920E-02 0. -1.
        2   -1    0    0  501    0  0.00000000000E+00  0.00000000000E+00 -0.15748820265E+04  0.15748820265E+04  0.25500000920E-02 0.  1.
    10030    2    1    2    0    0  0.00000000000E+00  0.00000000000E+00 -0.12196912708E+04  0.19300727822E+04  0.14958389447E+04 0.  0.
        2    1    3    3  502    0 -0.54464574159E+03 -0.34669083807E+03 -0.12268466643E+03  0.65717961656E+03  0.25500000920E-02 0. -1.
       -2    1    3    3    0  502  0.54464574159E+03  0.34669083807E+03 -0.10970066044E+04  0.12728931656E+04  0.25500000920E-02 0.  1.
</event>
<event>
 5   0  0.1216921E-04  0.1497320E+04  0.7818609E-02  0.8886237E-01
       -2   -1    0    0    0  501  0.00000000000E+00  0.00000000000E+00  0.84588708174E+03  0.84588708174E+03  0.25500000920E-02 0. -1.
        2   -1    0    0  501    0  0.00000000000E+00  0.00000000000E+00 -0.66260863224E+03  0.66260863225E+03  0.25500000920E-02 0.  1.
    10030    2    1    2    0    0  0.00000000000E+00  0.00000000000E+00  0.18327844950E+03  0.15084957140E+04  0.14973203829E+04 0.  0.
        4    1    3    3  502    0 -0.22999520301E+03  0.17992681533E+03 -0.60286717140E+03  0.66986707005E+03  0.12699999809E+01 0.  1.
       -4    1    3    3    0  502  0.22999520301E+03 -0.17992681533E+03  0.78614562090E+03  0.83862864394E+03  0.12699999809E+01 0. -1.
</event>
<event>
 5   0  0.1216921E-04  0.1499424E+04  0.7818609E-02  0.8884836E-01
        2   -1    0    0  501    0  0.00000000000E+00  0.00000000000E+00  0.66826351842E+03  0.66826351842E+03  0.25500000920E-02 0. -1.
       -2   -1    0    0    0  501  0.00000000000E+00  0.00000000000E+00 -0.84108792414E+03  0.84108792414E+03  0.25500000920E-02 0.  1.
    10030    2    1    2    0    0  0.00000000000E+00  0.00000000000E+00 -0.17282440572E+03  0.15093514426E+04  0.14994243902E+04 0.  0.
        4    1    3    3  502    0  0.56453996684E+03 -0.43067824609E+03 -0.32858268040E+03  0.78240482908E+03  0.12699999809E+01 0. -1.
       -4    1    3    3    0  502 -0.56453996684E+03  0.43067824609E+03  0.15575827468E+03  0.72694661348E+03  0.12699999809E+01 0.  1.
</event>
<event>
 5   0  0.6542036E-05  0.1500795E+04  0.7818609E-02  0.8883924E-01
        1   -1    0    0  501    0  0.00000000000E+00  0.00000000000E+00  0.13926235564E+04  0.13926235564E+04  0.50400001928E-02 0. -1.
       -1   -1    0    0    0  501  0.00000000000E+00  0.00000000000E+00 -0.40434238188E+03  0.40434238191E+03  0.50400001928E-02 0.  1.
    10030    2    1    2    0    0  0.00000000000E+00  0.00000000000E+00  0.98828117452E+03  0.17969659383E+04  0.15007954236E+04 0.  0.
        4    1    3    3  502    0  0.66137219437E+03 -0.17288590967E+03  0.12355897551E+03  0.69467341290E+03  0.12699999809E+01 0.  1.
       -4    1    3    3    0  502 -0.66137219437E+03  0.17288590967E+03  0.86472219901E+03  0.11022925254E+04  0.12699999809E+01 0. -1.
</event>
<event>
 5   0  0.1228286E-04  0.1504914E+04  0.7818609E-02  0.8881192E-01
       -2   -1    0    0    0  501  0.00000000000E+00  0.00000000000E+00  0.56575537540E+03  0.56575537541E+03  0.25500000920E-02 0.  1.
        2   -1    0    0  501    0  0.00000000000E+00  0.00000000000E+00 -0.10007710679E+04  0.10007710679E+04  0.25500000920E-02 0. -1.
    10030    2    1    2    0    0  0.00000000000E+00  0.00000000000E+00 -0.43501569248E+03  0.15665264433E+04  0.15049140988E+04 0.  0.
        2    1    3    3  502    0 -0.48131185946E+02  0.13624169057E+03  0.55117824926E+03  0.56980336237E+03  0.25500000920E-02 0.  1.
       -2    1    3    3    0  502  0.48131185946E+02 -0.13624169057E+03 -0.98619394174E+03  0.99672308092E+03  0.25500000920E-02 0. -1.
</event>
<event>
 5   0  0.1216921E-04  0.1497055E+04  0.7818609E-02  0.8886414E-01
       -2   -1    0    0    0  501  0.00000000000E+00  0.00000000000E+00  0.93655069563E+03  0.93655069563E+03  0.25500000920E-02 0.  1.
        2   -1    0    0  501    0  0.00000000000E+00  0.00000000000E+00 -0.59825174101E+03  0.59825174101E+03  0.25500000920E-02 0. -1.
    10030    2    1    2    0    0  0.00000000000E+00  0.00000000000E+00  0.33829895462E+03  0.15348024366E+04  0.14970545537E+04 0.  0.
        4    1    3    3  502    0  0.30636478912E+03 -0.17971716508E+03  0.84465152079E+03  0.91629441115E+03  0.12699999809E+01 0.  1.
       -4    1    3    3    0  502 -0.30636478912E+03  0.17971716508E+03 -0.50635256617E+03  0.61850802549E+03  0.12699999809E+01 0. -1.
</event>
<event>
 5   0  0.1254487E-04  0.1499423E+04  0.7818609E-02  0.8884837E-01
       -2   -1    0    0    0  501  0.00000000000E+00  0.00000000000E+00  0.59438148629E+03  0.59438148629E+03  0.25500000920E-02 0.  1.
        2   -1    0    0  501    0  0.00000000000E+00  0.00000000000E+00 -0.94563351444E+03  0.94563351444E+03  0.25500000920E-02 0. -1.
    10030    2    1    2    0    0  0.00000000000E+00  0.00000000000E+00 -0.35125202815E+03  0.15400150007E+04  0.14994226273E+04 0.  0.
        5    1    3    3  502    0 -0.43442771770E+03  0.26483722361E+03  0.38989699818E+03  0.64102102626E+03  0.46999998093E+01 0.  1.
       -5    1    3    3    0  502  0.43442771770E+03 -0.26483722361E+03 -0.74114902633E+03  0.89899397448E+03  0.46999998093E+01 0. -1.
</event>
<event>
 5   0  0.6509279E-05  0.1488227E+04  0.7818609E-02  0.8892320E-01
       -1   -1    0    0    0  501  0.00000000000E+00  0.00000000000E+00  0.10316378567E+04  0.10316378567E+04  0.50400001928E-02 0.  1.
        1   -1    0    0  501    0  0.00000000000E+00  0.00000000000E+00 -0.53672407895E+03  0.53672407897E+03  0.50400001928E-02 0. -1.
    10030    2    1    2    0    0  0.00000000000E+00  0.00000000000E+00  0.49491377778E+03  0.15683619357E+04  0.14882269699E+04 0.  0.
        2    1    3    3  502    0  0.33943849016E+03 -0.23036802574E+03  0.90170508669E+03  0.99063614877E+03  0.25500000920E-02 0.  1.
       -2    1    3    3    0  502 -0.33943849016E+03  0.23036802574E+03 -0.40679130891E+03  0.57772578694E+03  0.25500000920E-02 0. -1.
</event>
<event>
 5   0  0.1254487E-04  0.1490094E+04  0.7818609E-02  0.8891067E-01
       -2   -1    0    0    0  501  0.00000000000E+00  0.00000000000E+00  0.79728013598E+03  0.79728013599E+03  0.25500000920E-02 0. -1.
        2   -1    0    0  501    0  0.00000000000E+00  0.00000000000E+00 -0.69623574840E+03  0.69623574841E+03  0.25500000920E-02 0.  1.
    10030    2    1    2    0    0  0.00000000000E+00  0.00000000000E+00  0.10104438758E+03  0.14935158844E+04  0.14900938657E+04 0.  0.
        5    1    3    3  502    0  0.14951755360E+03  0.14340691097E+03  0.76781350697E+03  0.79528655995E+03  0.46999998093E+01 0. -1.
       -5    1    3    3    0  502 -0.14951755360E+03 -0.14340691097E+03 -0.66676911939E+03  0.69822932445E+03  0.46999998093E+01 0.  1.
</event>
<event>
 5   0  0.4462875E-05  0.1501538E+04  0.7818609E-02  0.8883431E-01
        3   -1    0    0  501    0  0.00000000000E+00  0.00000000000E+00  0.59109804474E+03  0.59109805336E+03  0.10100000352E+00 0.  1.
       -3   -1    0    0    0  501  0.00000000000E+00  0.00000000000E+00 -0.95357075758E+03  0.95357076292E+03  0.10100000352E+00 0. -1.
    10030    2    1    2    0    0  0.00000000000E+00  0.00000000000E+00 -0.36247271284E+03  0.15446688163E+04  0.15015376400E+04 0.  0.
        2    1    3    3  502    0 -0.23252831533E+03 -0.66402635979E+03 -0.45078066855E+03  0.83558580354E+03  0.25500000920E-02 0. -1.
       -2    1    3    3    0  502  0.23252831533E+03  0.66402635979E+03  0.88307955712E+02  0.70908301275E+03  0.25500000920E-02 0.  1.
</event>
<event>
 5   0  0.6509279E-05  0.1499664E+04  0.7818609E-02  0.8884676E-01
        1   -1    0    0  501    0  0.00000000000E+00  0.00000000000E+00  0.10000264769E+04  0.10000264769E+04  0.50400001928E-02 0.  1.
       -1   -1    0    0    0  501  0.00000000000E+00  0.00000000000E+00 -0.56223317638E+03  0.56223317640E+03  0.50400001928E-02 0. -1.
    10030    2    1    2    0    0  0.00000000000E+00  0.00000000000E+00  0.43779330051E+03  0.15622596533E+04  0.14996640458E+04 0.  0.
        2    1    3    3  502    0 -0.14518505815E+03 -0.67807372730E+03 -0.78292150905E+02  0.69784836581E+03  0.25500000920E-02 0. -1.
       -2    1    3    3    0  502  0.14518505815E+03  0.67807372730E+03  0.51608545141E+03  0.86441128749E+03  0.25500000920E-02 0.  1.
</event>
<event>
 5   0  0.1219810E-04  0.1498913E+04  0.7818609E-02  0.8885176E-01
       -2   -1    0    0    0  501  0.00000000000E+00  0.00000000000E+00  0.67628388346E+03  0.67628388346E+03  0.25500000920E-02 0.  1.
        2   -1    0    0  501    0  0.00000000000E+00  0.00000000000E+00 -0.83054624185E+03  0.83054624185E+03  0.25500000920E-02 0. -1.
    10030    2    1    2    0    0  0.00000000000E+00  0.00000000000E+00 -0.15426235839E+03  0.15068301253E+04  0.14989129899E+04 0.  0.
        1    1    3    3  502    0  0.63260089883E+03  0.37985992708E+03  0.54739342493E+02  0.73991476336E+03  0.50400001928E-02 0. -1.
       -1    1    3    3    0  502 -0.63260089883E+03 -0.37985992708E+03 -0.20900170089E+03  0.76691536195E+03  0.50400001928E-02 0.  1.
</event>
<event>
 5   0  0.6542036E-05  0.1501368E+04  0.7818609E-02  0.8883544E-01
        1   -1    0    0  501    0  0.00000000000E+00  0.00000000000E+00  0.85196067480E+03  0.85196067482E+03  0.50400001928E-02 0.  1.
       -1   -1    0    0    0  501  0.00000000000E+00  0.00000000000E+00 -0.66144675987E+03  0.66144675989E+03  0.50400001928E-02 0. -1.
    10030    2    1    2    0    0  0.00000000000E+00  0.00000000000E+00  0.19051391494E+03  0.15134074347E+04  0.15013682132E+04 0.  0.
        4    1    3    3  502    0  0.28129157044E+03 -0.69104148862E+03  0.17875675238E+03  0.76721501290E+03  0.12699999809E+01 0. -1.
       -4    1    3    3    0  502 -0.28129157044E+03  0.69104148862E+03  0.11757162557E+02  0.74619242181E+03  0.12699999809E+01 0.  1.
</event>
<event>
 5   0  0.1186664E-04  0.1500589E+04  0.7818609E-02  0.8884061E-01
        2   -1    0    0  501    0  0.00000000000E+00  0.00000000000E+00  0.48238870191E+03  0.48238870192E+03  0.25500000920E-02 0. -1.
       -2   -1    0    0    0  501  0.00000000000E+00  0.00000000000E+00 -0.11669884069E+04  0.11669884069E+04  0.25500000920E-02 0.  1.
    10030    2    1    2    0    0  0.00000000000E+00  0.00000000000E+00 -0.68459970500E+03  0.16493771088E+04  0.15005892480E+04 0.  0.
        3    1    3    3  502    0 -0.67427574687E+03  0.23322692103E+03 -0.87117738404E+02  0.71877123624E+03  0.10100000352E+00 0. -1.
       -3    1    3    3    0  502  0.67427574687E+03 -0.23322692103E+03 -0.59748196659E+03  0.93060587259E+03  0.10100000352E+00 0.  1.
</event>
<event>
 5   0  0.6364378E-05  0.1495357E+04  0.7818609E-02  0.8887547E-01
        1   -1    0    0  501    0  0.00000000000E+00  0.00000000000E+00  0.19247170358E+04  0.19247170358E+04  0.50400001928E-02 0. -1.
       -1   -1    0    0    0  501  0.00000000000E+00  0.00000000000E+00 -0.29044422059E+03  0.29044422063E+03  0.50400001928E-02 0.  1.
    10030    2    1    2    0    0  0.00000000000E+00  0.00000000000E+00  0.16342728152E+04  0.22151612564E+04  0.14953567325E+04 0.  0.
        5    1    3    3  502    0  0.11855411983E+03  0.71961462779E+02  0.19054744978E+04  0.19105205268E+04  0.46999998093E+01 0. -1.
       -5    1    3    3    0  502 -0.11855411983E+03 -0.71961462779E+02 -0.27120168266E+03  0.30464072959E+03  0.46999998093E+01 0.  1.
</event>
<event>
 5   0  0.6361716E-05  0.1503221E+04  0.7818609E-02  0.8882314E-01
        1   -1    0    0  501    0  0.00000000000E+00  0.00000000000E+00  0.88353759426E+03  0.88353759427E+03  0.50400001928E-02 0.  1.
       -1   -1    0    0    0  501  0.00000000000E+00  0.00000000000E+00 -0.63938265404E+03  0.63938265406E+03  0.50400001928E-02 0. -1.
    10030    2    1    2    0    0  0.00000000000E+00  0.00000000000E+00  0.24415494022E+03  0.15229202483E+04  0.15032213569E+04 0.  0.
        3    1    3    3  502    0 -0.38969050928E+03 -0.64201382922E+03  0.92055510452E+02  0.75664699638E+03  0.10100000352E+00 0.  1.
       -3    1    3    3    0  502  0.38969050928E+03  0.64201382922E+03  0.15209942977E+03  0.76627325195E+03  0.10100000352E+00 0. -1.
</event>
<event>
 5   0  0.4462875E-05  0.1500796E+04  0.7818609E-02  0.8883923E-01
       -3   -1    0    0    0  501  0.00000000000E+00  0.00000000000E+00  0.65301507713E+03  0.65301508494E+03  0.10100000352E+00 0. -1.
        3   -1    0    0  501    0  0.00000000000E+00  0.00000000000E+00 -0.86230398506E+03  0.86230399097E+03  0.10100000352E+00 0.  1.
    10030    2    1    2    0    0  0.00000000000E+00  0.00000000000E+00 -0.20928890793E+03  0.15153190759E+04  0.15007964735E+04 0.  0.
        3    1    3    3  502    0  0.32743860242E+01  0.73322893686E+03  0.56468131971E+02  0.73540740789E+03  0.10100000352E+00 0. -1.
       -3    1    3    3    0  502 -0.32743860242E+01 -0.73322893686E+03 -0.26575703990E+03  0.77991166802E+03  0.10100000352E+00 0.  1.
</event>
<event>
 5   0  0.1228286E-04  0.1498423E+04  0.7818609E-02  0.8885503E-01
        2   -1    0    0  501    0  0.00000000000E+00  0.00000000000E+00  0.16363454928E+04  0.16363454928E+04  0.25500000920E-02 0. -1.
       -2   -1    0    0    0  501  0.00000000000E+00  0.00000000000E+00 -0.34303120568E+03  0.34303120569E+03  0.25500000920E-02 0.  1.
    10030    2    1    2    0    0  0.00000000000E+00  0.00000000000E+00  0.12933142871E+04  0.19793766985E+04  0.14984225937E+04 0.  0.
        2    1    3    3  502    0  0.14726925703E+03  0.69134527658E+03  0.31861111607E+03  0.77534480640E+03  0.25500000920E-02 0.  1.
       -2    1    3    3    0  502 -0.14726925703E+03 -0.69134527658E+03  0.97470317105E+03  0.12040318921E+04  0.25500000920E-02 0. -1.
</event>
<event>
 5   0  0.1254487E-04  0.1510934E+04  0.7818609E-02  0.8877215E-01
       -2   -1    0    0    0  501  0.00000000000E+00  0.00000000000E+00  0.83597754709E+03  0.83597754709E+03  0.25500000920E-02 0.  1.
        2   -1    0    0  501    0  0.00000000000E+00  0.00000000000E+00 -0.68270978588E+03  0.68270978588E+03  0.25500000920E-02 0. -1.
    10030    2    1    2    0    0  0.00000000000E+00  0.00000000000E+00  0.15326776121E+03  0.15186873330E+04  0.15109335554E+04 0.  0.
        5    1    3    3  502    0 -0.10333981754E+03  0.66246818786E+03  0.42650745308E+03  0.79465333030E+03  0.46999998093E+01 0.  1.
       -5    1    3    3    0  502  0.10333981754E+03 -0.66246818786E+03 -0.27323969187E+03  0.72403400268E+03  0.46999998093E+01 0. -1.
</event>
<event>
 5   0  0.6542036E-05  0.1502237E+04  0.7818609E-02  0.8882967E-01
        1   -1    0    0  501    0  0.00000000000E+00  0.00000000000E+00  0.15683757616E+04  0.15683757616E+04  0.50400001928E-02 0. -1.
       -1   -1    0    0    0  501  0.00000000000E+00  0.00000000000E+00 -0.35972187889E+03  0.35972187893E+03  0.50400001928E-02 0.  1.
    10030    2    1    2    0    0  0.00000000000E+00  0.00000000000E+00  0.12086538827E+04  0.19280976405E+04  0.15022370995E+04 0.  0.
        4    1    3    3  502    0 -0.67062076576E+03  0.33267410158E+03  0.68316666296E+03  0.10134705578E+04  0.12699999809E+01 0. -1.
       -4    1    3    3    0  502  0.67062076576E+03 -0.33267410158E+03  0.52548721971E+03  0.91462708265E+03  0.12699999809E+01 0.  1.
</event>
<event>
 5   0  0.1216921E-04  0.1498025E+04  0.7818609E-02  0.8885767E-01
       -2   -1    0    0    0  501  0.00000000000E+00  0.00000000000E+00  0.54647624743E+03  0.54647624744E+03  0.25500000920E-02 0. -1.
        2   -1    0    0  501    0  0.00000000000E+00  0.00000000000E+00 -0.10266133602E+04  0.10266133602E+04  0.25500000920E-02 0.  1.
    10030    2    1    2    0    0  0.00000000000E+00  0.00000000000E+00 -0.48013711272E+03  0.15730896076E+04  0.14980251221E+04 0.  0.
        4    1    3    3  502    0  0.74809560003E+03 -0.82804025599E+01 -0.20216832320E+03  0.77497692589E+03  0.12699999809E+01 0.  1.
       -4    1    3    3    0  502 -0.74809560003E+03  0.82804025599E+01 -0.27796878953E+03  0.79811268171E+03  0.12699999809E+01 0. -1.
</event>
<event>
 5   0  0.6364378E-05  0.1488297E+04  0.7818609E-02  0.8892273E-01
       -1   -1    0    0    0  501  0.00000000000E+00  0.00000000000E+00  0.25539749552E+03  0.25539749557E+03  0.50400001928E-02 0.  1.
        1   -1    0    0  501    0  0.00000000000E+00  0.00000000000E+00 -0.21682171788E+04  0.21682171788E+04  0.50400001928E-02 0. -1.
    10030    2    1    2    0    0  0.00000000000E+00  0.00000000000E+00 -0.19128196833E+04  0.24236146744E+04  0.14882973322E+04 0.  0.
        5    1    3    3  502    0 -0.18224078088E+03 -0.67513208428E+03 -0.13706894016E+04  0.15387743692E+04  0.46999998093E+01 0. -1.
       -5    1    3    3    0  502  0.18224078088E+03  0.67513208428E+03 -0.54213028162E+03  0.88484030519E+03  0.46999998093E+01 0.  1.
</event>
<event>
 5   0  0.1228286E-04  0.1506771E+04  0.7818609E-02  0.8879963E-01
        2   -1    0    0  501    0  0.00000000000E+00  0.00000000000E+00  0.49512469694E+03  0.49512469694E+03  0.25500000920E-02 0.  1.
       -2   -1    0    0    0  501  0.00000000000E+00  0.00000000000E+00 -0.11463570824E+04  0.11463570824E+04  0.25500000920E-02 0. -1.
    10030    2    1    2    0    0  0.00000000000E+00  0.00000000000E+00 -0.65123238543E+03  0.16414817793E+04  0.15067709886E+04 0.  0.
        2    1    3    3  502    0 -0.37942146014E+03  0.92417648485E+02  0.37625743598E+03  0.54228343539E+03  0.25500000920E-02 0.  1.
       -2    1    3    3    0  502  0.37942146014E+03 -0.92417648485E+02 -0.10274898214E+04  0.10991983439E+04  0.25500000920E-02 0. -1.
</event>
<event>
 5   0  0.1186664E-04  0.1505936E+04  0.7818609E-02  0.8880515E-01
        2   -1    0    0  501    0  0.00000000000E+00  0.00000000000E+00  0.15292810567E+04  0.15292810567E+04  0.25500000920E-02 0.  1.
       -2   -1    0    0    0  501  0.00000000000E+00  0.00000000000E+00 -0.37073703951E+03  0.37073703952E+03  0.25500000920E-02 0. -1.
    10030    2    1    2    0    0  0.00000000000E+00  0.00000000000E+00  0.11585440172E+04  0.19000180962E+04  0.15059364283E+04 0.  0.
        3    1    3    3  502    0 -0.31507666860E+03  0.45222886624E+03 -0.67982306506E+02  0.55534301000E+03  0.10100000352E+00 0. -1.
       -3    1    3    3    0  502  0.31507666860E+03 -0.45222886624E+03  0.12265263237E+04  0.13446750862E+04  0.10100000352E+00 0.  1.
</event>
<event>
 5   0  0.6509279E-05  0.1498607E+04  0.7818609E-02  0.8885380E-01
       -1   -1    0    0    0  501  0.00000000000E+00  0.00000000000E+00  0.37729316236E+03  0.37729316239E+03  0.50400001928E-02 0.  1.
        1   -1    0    0  501    0  0.00000000000E+00  0.00000000000E+00 -0.14881144315E+04  0.14881144316E+04  0.50400001928E-02 0. -1.
    10030    2    1    2    0    0  0.00000000000E+00  0.00000000000E+00 -0.11108212692E+04  0.18654075940E+04  0.14986065526E+04 0.  0.
        2    1    3    3  502    0 -0.24363715535E+03 -0.55105431887E+03 -0.11099032539E+04  0.12628955455E+04  0.25500000920E-02 0. -1.
       -2    1    3    3    0  502  0.24363715535E+03  0.55105431887E+03 -0.91801532737E+00  0.60251204849E+03  0.25500000920E-02 0.  1.
</event>
<event>
 5   0  0.6364378E-05  0.1503429E+04  0.7818609E-02  0.8882176E-01
        1   -1    0    0  501    0  0.00000000000E+00  0.00000000000E+00  0.11240811558E+04  0.11240811558E+04  0.50400001928E-02 0.  1.
       -1   -1    0    0    0  501  0.00000000000E+00  0.00000000000E+00 -0.50269936759E+03  0.50269936761E+03  0.50400001928E-02 0. -1.
    10030    2    1    2    0    0  0.00000000000E+00  0.00000000000E+00  0.62138178820E+03  0.16267805234E+04  0.15034292616E+04 0.  0.
        5    1    3    3  502    0  0.41809796952E+03 -0.47859945171E+03 -0.12373356656E+03  0.64745303519E+03  0.46999998093E+01 0. -1.
       -5    1    3    3    0  502 -0.41809796952E+03  0.47859945171E+03  0.74511535476E+03  0.97932748822E+03  0.46999998093E+01 0.  1.
</event>
<event>
 5   0  0.1186664E-04  0.1499091E+04  0.7818609E-02  0.8885058E-01
        2   -1    0    0  501    0  0.00000000000E+00  0.00000000000E+00  0.95950691691E+03  0.95950691691E+03  0.25500000920E-02 0.  1.
       -2   -1    0    0    0  501  0.00000000000E+00  0.00000000000E+00 -0.58552810678E+03  0.58552810679E+03  0.25500000920E-02 0. -1.
    10030    2    1    2    0    0  0.00000000000E+00  0.00000000000E+00  0.37397881012E+03  0.15450350237E+04  0.14990907491E+04 0.  0.
        3    1    3    3  502    0 -0.15574407612E+03 -0.22134070008E+03  0.90738981583E+03  0.94689186861E+03  0.10100000352E+00 0.  1.
       -3    1    3    3    0  502  0.15574407612E+03  0.22134070008E+03 -0.53341100571E+03  0.59814315509E+03  0.10100000352E+00 0. -1.
</event>
<event>
 5   0  0.1186664E-04  0.1506701E+04  0.7818609E-02  0.8880009E-01
        2   -1    0    0  501    0  0.00000000000E+00  0.00000000000E+00  0.18426742838E+04  0.18426742838E+04  0.25500000920E-02 0.  1.
       -2   -1    0    0    0  501  0.00000000000E+00  0.00000000000E+00 -0.30799624354E+03  0.30799624355E+03  0.25500000920E-02 0. -1.
    10030    2    1    2    0    0  0.00000000000E+00  0.00000000000E+00  0.15346780403E+04  0.21506705274E+04  0.15067007102E+04 0.  0.
        3    1    3    3  502    0  0.36985858565E+03  0.61703616471E+03  0.44813707596E+03  0.84755875961E+03  0.10100000352E+00 0. -1.
       -3    1    3    3    0  502 -0.36985858565E+03 -0.61703616471E+03  0.10865409643E+04  0.13031117678E+04  0.10100000352E+00 0.  1.
</event>
<event>
 5   0  0.1228286E-04  0.1502459E+04  0.7818609E-02  0.8882819E-01
       -2   -1    0    0    0  501  0.00000000000E+00  0.00000000000E+00  0.79937036356E+03  0.79937036357E+03  0.25500000920E-02 0.  1.
        2   -1    0    0  501    0  0.00000000000E+00  0.00000000000E+00 -0.70598805010E+03  0.70598805011E+03  0.25500000920E-02 0. -1.
    10030    2    1    2    0    0  0.00000000000E+00  0.00000000000E+00  0.93382313462E+02  0.15053584137E+04  0.15024592165E+04 0.  0.
        2    1    3    3  502    0 -0.72197370115E+03  0.67506233882E+02  0.24339321086E+03  0.76488127958E+03  0.25500000920E-02 0.  1.
       -2    1    3    3    0  502  0.72197370115E+03 -0.67506233882E+02 -0.15001089740E+03  0.74047713409E+03  0.25500000920E-02 0. -1.
</event>
<event>
 5   0  0.6668433E-05  0.1504629E+04  0.7818609E-02  0.8881381E-01
        1   -1    0    0  501    0  0.00000000000E+00  0.00000000000E+00  0.88247378477E+03  0.88247378478E+03  0.50400001928E-02 0. -1.
       -1   -1    0    0    0  501  0.00000000000E+00  0.00000000000E+00 -0.64135248064E+03  0.64135248066E+03  0.50400001928E-02 0.  1.
    10030    2    1    2    0    0  0.00000000000E+00  0.00000000000E+00  0.24112130413E+03  0.15238262654E+04  0.15046285269E+04 0.  0.
        1    1    3    3  502    0 -0.35697158023E+03  0.66160279036E+03  0.14973426208E+03  0.76652939315E+03  0.50400001928E-02 0. -1.
       -1    1    3    3    0  502  0.35697158023E+03 -0.66160279036E+03  0.91387042051E+02  0.75729687229E+03  0.50400001928E-02 0.  1.
</event>
<event>
 5   0  0.1216921E-04  0.1500533E+04  0.7818609E-02  0.8884099E-01
       -2   -1    0    0    0  501  0.00000000000E+00  0.00000000000E+00  0.41365010187E+03  0.41365010188E+03  0.25500000920E-02 0.  1.
        2   -1    0    0  501    0  0.00000000000E+00  0.00000000000E+00 -0.13608107914E+04  0.13608107914E+04  0.25500000920E-02 0. -1.
    10030    2    1    2    0    0  0.00000000000E+00  0.00000000000E+00 -0.94716068954E+03  0.17744608933E+04  0.15005326021E+04 0.  0.
        4    1    3    3  502    0  0.45179547149E+03  0.28568586464E+03  0.14898954560E+03  0.55491896608E+03  0.12699999809E+01 0.  1.
       -4    1    3    3    0  502 -0.45179547149E+03 -0.28568586464E+03 -0.10961502351E+04  0.12195419272E+04  0.12699999809E+01 0. -1.
</event>
<event>
 5   0  0.1186664E-04  0.1498429E+04  0.7818609E-02  0.8885499E-01
        2   -1    0    0  501    0  0.00000000000E+00  0.00000000000E+00  0.75630402281E+03  0.75630402281E+03  0.25500000920E-02 0. -1.
       -2   -1    0    0    0  501  0.00000000000E+00  0.00000000000E+00 -0.74219098796E+03  0.74219098797E+03  0.25500000920E-02 0.  1.
    10030    2    1    2    0    0  0.00000000000E+00  0.00000000000E+00  0.14113034846E+02  0.14984950108E+04  0.14984285500E+04 0.  0.
        3    1    3    3  502    0 -0.68773423808E+03  0.87941066510E+02  0.29098812388E+03  0.75192161283E+03  0.10100000352E+00 0.  1.
       -3    1    3    3    0  502  0.68773423808E+03 -0.87941066510E+02 -0.27687508903E+03  0.74657339795E+03  0.10100000352E+00 0. -1.
</event>
<event>
 5   0  0.6509279E-05  0.1500274E+04  0.7818609E-02  0.8884271E-01
        1   -1    0    0  501    0  0.00000000000E+00  0.00000000000E+00  0.10218717416E+04  0.10218717416E+04  0.50400001928E-02 0.  1.
       -1   -1    0    0    0  501  0.00000000000E+00  0.00000000000E+00 -0.55066172154E+03  0.55066172156E+03  0.50400001928E-02 0. -1.
    10030    2    1    2    0    0  0.00000000000E+00  0.00000000000E+00  0.47121002005E+03  0.15725334632E+04  0.15002741782E+04 0.  0.
        2    1    3    3  502    0 -0.35024863328E+02  0.31884304217E+03  0.94636382999E+03  0.99924577823E+03  0.25500000920E-02 0.  1.
       -2    1    3    3    0  502  0.35024863328E+02 -0.31884304217E+03 -0.47515380994E+03  0.57328768494E+03  0.25500000920E-02 0. -1.
</event>
<event>
 5   0  0.6668433E-05  0.1501504E+04  0.7818609E-02  0.8883453E-01
        1   -1    0    0  501    0  0.00000000000E+00  0.00000000000E+00  0.12267310209E+04  0.12267310209E+04  0.50400001928E-02 0.  1.
       -1   -1    0    0    0  501  0.00000000000E+00  0.00000000000E+00 -0.45945586797E+03  0.45945586799E+03  0.50400001928E-02 0. -1.
    10030    2    1    2    0    0  0.00000000000E+00  0.00000000000E+00  0.76727515295E+03  0.16861868889E+04  0.15015042671E+04 0.  0.
        1    1    3    3  502    0  0.27698458623E+03  0.58291718859E+03  0.81437130378E+03  0.10390926476E+04  0.50400001928E-02 0.  1.
       -1    1    3    3    0  502 -0.27698458623E+03 -0.58291718859E+03 -0.47096150826E+02  0.64709424137E+03  0.50400001928E-02 0. -1.
</event>
<event>
 5   0  0.1219810E-04  0.1499959E+04  0.7818609E-02  0.8884480E-01
        2   -1    0    0  501    0  0.00000000000E+00  0.00000000000E+00  0.52390150822E+03  0.52390150823E+03  0.25500000920E-02 0.  1.
       -2   -1    0    0    0  501  0.00000000000E+00  0.00000000000E+00 -0.10736166118E+04  0.10736166118E+04  0.25500000920E-02 0. -1.
    10030    2    1    2    0    0  0.00000000000E+00  0.00000000000E+00 -0.54971510353E+03  0.15975181200E+04  0.14999591490E+04 0.  0.
        1    1    3    3  502    0 -0.58582163229E+01 -0.73446617919E+03 -0.11335547502E+03  0.74318527355E+03  0.50400001928E-02 0.  1.
       -1    1    3    3    0  502  0.58582163229E+01  0.73446617919E+03 -0.43635962851E+03  0.85433284644E+03  0.50400001928E-02 0. -1.
</event>
<event>
 5   0  0.6364378E-05  0.1509153E+04  0.7818609E-02  0.8878389E-01
       -1   -1    0    0    0  501  0.00000000000E+00  0.00000000000E+00  0.69264661204E+03  0.69264661206E+03  0.50400001928E-02 0. -1.
        1   -1    0    0  501    0  0.00000000000E+00  0.00000000000E+00 -0.82204373423E+03  0.82204373425E+03  0.50400001928E-02 0.  1.
    10030    2    1    2    0    0  0.00000000000E+00  0.00000000000E+00 -0.12939712219E+03  0.15146903463E+04  0.15091531499E+04 0.  0.
        5    1    3    3  502    0 -0.27807283482E+03 -0.43489802103E+02  0.63797578041E+03  0.69731703747E+03  0.46999998093E+01 0. -1.
       -5    1    3    3    0  502  0.27807283482E+03  0.43489802103E+02 -0.76737290261E+03  0.81737330884E+03  0.46999998093E+01 0.  1.
</event>
<event>
 5   0  0.6668433E-05  0.1503747E+04  0.7818609E-02  0.8881965E-01
       -1   -1    0    0    0  501  0.00000000000E+00  0.00000000000E+00  0.53862324649E+03  0.53862324651E+03  0.50400001928E-02 0.  1.
        1   -1    0    0  501    0  0.00000000000E+00  0.00000000000E+00 -0.10495534641E+04  0.10495534641E+04  0.50400001928E-02 0. -1.
    10030    2    1    2    0    0  0.00000000000E+00  0.00000000000E+00 -0.51093021760E+03  0.15881767106E+04  0.15037471785E+04 0.  0.
        1    1    3    3  502    0  0.74327237769E+03  0.76227898233E+02 -0.16679049971E+03  0.76556096474E+03  0.50400001928E-02 0. -1.
       -1    1    3    3    0  502 -0.74327237769E+03 -0.76227898233E+02 -0.34413971789E+03  0.82261574588E+03  0.50400001928E-02 0.  1.
</event>
<event>
 5   0  0.1186664E-04  0.1489486E+04  0.7818609E-02  0.8891475E-01
       -2   -1    0    0    0  501  0.00000000000E+00  0.00000000000E+00  0.61230591359E+03  0.61230591359E+03  0.25500000920E-02 0. -1.
        2   -1    0    0  501    0  0.00000000000E+00  0.00000000000E+00 -0.90582476514E+03  0.90582476514E+03  0.25500000920E-02 0.  1.
    10030    2    1    2    0    0  0.00000000000E+00  0.00000000000E+00 -0.29351885156E+03  0.15181306787E+04  0.14894856298E+04 0.  0.
        3    1    3    3  502    0  0.61816905340E+03  0.40427962666E+03 -0.24381068522E+03  0.77782945145E+03  0.10100000352E+00 0. -1.
       -3    1    3    3    0  502 -0.61816905340E+03 -0.40427962666E+03 -0.49708166339E+02  0.74030122729E+03  0.10100000352E+00 0.  1.
</event>
<event>
 5   0  0.6668433E-05  0.1498790E+04  0.7818609E-02  0.8885258E-01
       -1   -1    0    0    0  501  0.00000000000E+00  0.00000000000E+00  0.54437342948E+03  0.54437342950E+03  0.50400001928E-02 0. -1.
        1   -1    0    0  501    0  0.00000000000E+00  0.00000000000E+00 -0.10316323047E+04  0.10316323048E+04  0.50400001928E-02 0.  1.
    10030    2    1    2    0    0  0.00000000000E+00  0.00000000000E+00 -0.48725887527E+03  0.15760057343E+04  0.14987904666E+04 0.  0.
        1    1    3    3  502    0 -0.34054432836E+03 -0.48886601741E+03 -0.72161688818E+03  0.93578381899E+03  0.50400001928E-02 0.  1.
       -1    1    3    3    0  502  0.34054432836E+03  0.48886601741E+03  0.23435801291E+03  0.64022191527E+03  0.50400001928E-02 0. -1.
</event>
<event>
 5   0  0.6668433E-05  0.1500673E+04  0.7818609E-02  0.8884005E-01
        1   -1    0    0  501    0  0.00000000000E+00  0.00000000000E+00  0.14777193234E+04  0.14777193234E+04  0.50400001928E-02 0. -1.
       -1   -1    0    0    0  501  0.00000000000E+00  0.00000000000E+00 -0.38099586111E+03  0.38099586114E+03  0.50400001928E-02 0.  1.
    10030    2    1    2    0    0  0.00000000000E+00  0.00000000000E+00  0.10967234623E+04  0.18587151846E+04  0.15006731105E+04 0.  0.
        1    1    3    3  502    0 -0.45722353253E+03 -0.50241187599E+03  0.15369341033E+03  0.69648597706E+03  0.50400001928E-02 0.  1.
       -1    1    3    3    0  502  0.45722353253E+03  0.50241187599E+03  0.94303005199E+03  0.11622292075E+04  0.50400001928E-02 0. -1.
</event>
<event>
 5   0  0.6509279E-05  0.1504849E+04  0.7818609E-02  0.8881235E-01
       -1   -1    0    0    0  501  0.00000000000E+00  0.00000000000E+00  0.67455600680E+03  0.67455600682E+03  0.50400001928E-02 0.  1.
        1   -1    0    0  501    0  0.00000000000E+00  0.00000000000E+00 -0.83928194761E+03  0.83928194762E+03  0.50400001928E-02 0. -1.
    10030    2    1    2    0    0  0.00000000000E+00  0.00000000000E+00 -0.16472594081E+03  0.15138379544E+04  0.15048490678E+04 0.  0.
        2    1    3    3  502    0 -0.46170814621E+03 -0.28570648547E+03 -0.60637760150E+03  0.81393882063E+03  0.25500000920E-02 0. -1.
       -2    1    3    3    0  502  0.46170814621E+03  0.28570648547E+03  0.44165166069E+03  0.69989913381E+03  0.25500000920E-02 0.  1.
</event>
<event>
 5   0  0.1219810E-04  0.1503106E+04  0.7818609E-02  0.8882390E-01
        2   -1    0    0  501    0  0.00000000000E+00  0.00000000000E+00  0.10889599239E+04  0.10889599239E+04  0.25500000920E-02 0.  1.
       -2   -1    0    0    0  501  0.00000000000E+00  0.00000000000E+00 -0.51868928994E+03  0.51868928995E+03  0.25500000920E-02 0. -1.
    10030    2    1    2    0    0  0.00000000000E+00  0.00000000000E+00  0.57027063398E+03  0.16076492139E+04  0.15031059174E+04 0.  0.
        1    1    3    3  502    0 -0.85123836222E+01  0.43681878264E+03  0.93918049051E+03  0.10358296691E+04  0.50400001928E-02 0.  1.
       -1    1    3    3    0  502  0.85123836222E+01 -0.43681878264E+03 -0.36890985653E+03  0.57181954480E+03  0.50400001928E-02 0. -1.
</event>
<event>
 5   0  0.4462875E-05  0.1490988E+04  0.7818609E-02  0.8890468E-01
       -3   -1    0    0    0  501  0.00000000000E+00  0.00000000000E+00  0.76948968098E+03  0.76948968761E+03  0.10100000352E+00 0.  1.
        3   -1    0    0  501    0  0.00000000000E+00  0.00000000000E+00 -0.72224690450E+03  0.72224691157E+03  0.10100000352E+00 0. -1.
    10030    2    1    2    0    0  0.00000000000E+00  0.00000000000E+00  0.47242776478E+02  0.14917365992E+04  0.14909883304E+04 0.  0.
        3    1    3    3  502    0 -0.25558053402E+03  0.69561495588E+03  0.10465564004E+03  0.74843462601E+03  0.10100000352E+00 0. -1.
       -3    1    3    3    0  502  0.25558053402E+03 -0.69561495588E+03 -0.57412863559E+02  0.74330197317E+03  0.10100000352E+00 0.  1.
</event>
<event>
 5   0  0.1186664E-04  0.1501667E+04  0.7818609E-02  0.8883345E-01
        2   -1    0    0  501    0  0.00000000000E+00  0.00000000000E+00  0.96799627494E+03  0.96799627495E+03  0.25500000920E-02 0.  1.
       -2   -1    0    0    0  501  0.00000000000E+00  0.00000000000E+00 -0.58238985522E+03  0.58238985522E+03  0.25500000920E-02 0. -1.
    10030    2    1    2    0    0  0.00000000000E+00  0.00000000000E+00  0.38560641973E+03  0.15503861302E+04  0.15016673539E+04 0.  0.
        3    1    3    3  502    0  0.66702421720E+03  0.23381374695E+01 -0.16308942424E+03  0.68667673888E+03  0.10100000352E+00 0. -1.
       -3    1    3    3    0  502 -0.66702421720E+03 -0.23381374695E+01  0.54869584397E+03  0.86370939129E+03  0.10100000352E+00 0.  1.
</event>
<event>
 5   0  0.1228286E-04  0.1499658E+04  0.7818609E-02  0.8884680E-01
       -2   -1    0    0    0  501  0.00000000000E+00  0.00000000000E+00  0.12265637308E+04  0.12265637308E+04  0.25500000920E-02 0. -1.
        2   -1    0    0  501    0  0.00000000000E+00  0.00000000000E+00 -0.45838917519E+03  0.45838917520E+03  0.25500000920E-02 0.  1.
    10030    2    1    2    0    0  0.00000000000E+00  0.00000000000E+00  0.76817455561E+03  0.16849529060E+04  0.14996580102E+04 0.  0.
        2    1    3    3  502    0 -0.35509278269E+02  0.22881678028E+03  0.11853862841E+04  0.12077908222E+04  0.25500000920E-02 0. -1.
       -2    1    3    3    0  502  0.35509278269E+02 -0.22881678028E+03 -0.41721172849E+03  0.47716208376E+03  0.25500000920E-02 0.  1.
</event>
<event>
 5   0  0.1219810E-04  0.1509958E+04  0.7818609E-02  0.8877858E-01
        2   -1    0    0  501    0  0.00000000000E+00  0.00000000000E+00  0.81198035193E+03  0.81198035194E+03  0.25500000920E-02 0.  1.
       -2   -1    0    0    0  501  0.00000000000E+00  0.00000000000E+00 -0.70197904280E+03  0.70197904281E+03  0.25500000920E-02 0. -1.
    10030    2    1    2    0    0  0.00000000000E+00  0.00000000000E+00  0.11000130913E+03  0.15139593947E+04  0.15099578673E+04 0.  0.
        1    1    3    3  502    0  0.58112064419E+03 -0.16731663024E+03 -0.39818956992E+03  0.72405178784E+03  0.50400001928E-02 0. -1.
       -1    1    3    3    0  502 -0.58112064419E+03  0.16731663024E+03  0.50819087905E+03  0.78990760690E+03  0.50400001928E-02 0.  1.
</event>
<event>
 5   0  0.1186664E-04  0.1496921E+04  0.7818609E-02  0.8886503E-01
       -2   -1    0    0    0  501  0.00000000000E+00  0.00000000000E+00  0.52855284781E+03  0.52855284781E+03  0.25500000920E-02 0. -1.
        2   -1    0    0  501    0  0.00000000000E+00  0.00000000000E+00 -0.10598622835E+04  0.10598622835E+04  0.25500000920E-02 0.  1.
    10030    2    1    2    0    0  0.00000000000E+00  0.00000000000E+00 -0.53130943574E+03  0.15884151314E+04  0.14969211446E+04 0.  0.
        3    1    3    3  502    0 -0.76797417319E+02  0.24992699268E+03 -0.10098268927E+04  0.10431259312E+04  0.10100000352E+00 0.  1.
       -3    1    3    3    0  502  0.76797417319E+02 -0.24992699268E+03  0.47851745696E+03  0.54528920014E+03  0.10100000352E+00 0. -1.
</event>
<event>
 5   0  0.6361716E-05  0.1502276E+04  0.7818609E-02  0.8882941E-01
        1   -1    0    0  501    0  0.00000000000E+00  0.00000000000E+00  0.15189429419E+04  0.15189429419E+04  0.50400001928E-02 0. -1.
       -1   -1    0    0    0  501  0.00000000000E+00  0.00000000000E+00 -0.37144798106E+03  0.37144798110E+03  0.50400001928E-02 0.  1.
    10030    2    1    2    0    0  0.00000000000E+00  0.00000000000E+00  0.11474949608E+04  0.18903909230E+04  0.15022759921E+04 0.  0.
        3    1    3    3  502    0  0.26976697880E+03  0.26805352121E+03 -0.24135082950E+03  0.45041885639E+03  0.10100000352E+00 0.  1.
       -3    1    3    3    0  502 -0.26976697880E+03 -0.26805352121E+03  0.13888457903E+04  0.14399720666E+04  0.10100000352E+00 0. -1.
</event>
<event>
 5   0  0.4462875E-05  0.1507675E+04  0.7818609E-02  0.8879365E-01
       -3   -1    0    0    0  501  0.00000000000E+00  0.00000000000E+00  0.48726086052E+03  0.48726087098E+03  0.10100000352E+00 0.  1.
        3   -1    0    0  501    0  0.00000000000E+00  0.00000000000E+00 -0.11662563130E+04  0.11662563174E+04  0.10100000352E+00 0. -1.
    10030    2    1    2    0    0  0.00000000000E+00  0.00000000000E+00 -0.67899545253E+03  0.16535171884E+04  0.15076751201E+04 0.  0.
        1    1    3    3  502    0  0.15854434326E+03 -0.70137814949E+03 -0.91326997607E+02  0.72485049346E+03  0.50400001928E-02 0.  1.
       -1    1    3    3    0  502 -0.15854434326E+03  0.70137814949E+03 -0.58766845492E+03  0.92866669494E+03  0.50400001928E-02 0. -1.
</event>
<event>
 5   0  0.1216921E-04  0.1501095E+04  0.7818609E-02  0.8883725E-01
       -2   -1    0    0    0  501  0.00000000000E+00  0.00000000000E+00  0.39130400970E+03  0.39130400971E+03  0.25500000920E-02 0. -1.
        2   -1    0    0  501    0  0.00000000000E+00  0.00000000000E+00 -0.14395998460E+04  0.14395998460E+04  0.25500000920E-02 0.  1.
    10030    2    1    2    0    0  0.00000000000E+00  0.00000000000E+00 -0.10482958363E+04  0.18309038557E+04  0.15010945235E+04 0.  0.
        4    1    3    3  502    0 -0.19854408721E+03  0.20974878809E+03 -0.13691061834E+04  0.13992382439E+04  0.12699999809E+01 0.  1.
       -4    1    3    3    0  502  0.19854408721E+03 -0.20974878809E+03  0.32081034717E+03  0.43166561181E+03  0.12699999809E+01 0. -1.
</event>
<event>
 5   0  0.1228286E-04  0.1507981E+04  0.7818609E-02  0.8879163E-01
       -2   -1    0    0    0  501  0.00000000000E+00  0.00000000000E+00  0.30782960296E+03  0.30782960297E+03  0.25500000920E-02 0. -1.
        2   -1    0    0  501    0  0.00000000000E+00  0.00000000000E+00 -0.18468071891E+04  0.18468071891E+04  0.25500000920E-02 0.  1.
    10030    2    1    2    0    0  0.00000000000E+00  0.00000000000E+00 -0.15389775862E+04  0.21546367921E+04  0.15079813312E+04 0.  0.
        2    1    3    3  502    0  0.64080441967E+02 -0.72868829675E+03 -0.50832692906E+03  0.89078010961E+03  0.25500000920E-02 0. -1.
       -2    1    3    3    0  502 -0.64080441967E+02  0.72868829675E+03 -0.10306506571E+04  0.12638566825E+04  0.25500000920E-02 0.  1.
</event>
<event>
 5   0  0.6509279E-05  0.1500855E+04  0.7818609E-02  0.8883884E-01
       -1   -1    0    0    0  501  0.00000000000E+00  0.00000000000E+00  0.71695363993E+03  0.71695363995E+03  0.50400001928E-02 0.  1.
        1   -1    0    0  501    0  0.00000000000E+00  0.00000000000E+00 -0.78546466503E+03  0.78546466505E+03  0.50400001928E-02 0. -1.
    10030    2    1    2    0    0  0.00000000000E+00  0.00000000000E+00 -0.68511025101E+02  0.15024183050E+04  0.15008554236E+04 0.  0.
        2    1    3    3  502    0  0.72163353859E+03 -0.19236905409E+03  0.39175721396E+02  0.74786065156E+03  0.25500000920E-02 0.  1.
       -2    1    3    3    0  502 -0.72163353859E+03  0.19236905409E+03 -0.10768674650E+03  0.75455765344E+03  0.25500000920E-02 0. -1.
</event>
<event>
 5   0  0.6509279E-05  0.1499043E+04  0.7818609E-02  0.8885089E-01
       -1   -1    0    0    0  501  0.00000000000E+00  0.00000000000E+00  0.55690730945E+03  0.55690730947E+03  0.50400001928E-02 0.  1.
        1   -1    0    0  501    0  0.00000000000E+00  0.00000000000E+00 -0.10087543407E+04  0.10087543407E+04  0.50400001928E-02 0. -1.
    10030    2    1    2    0    0  0.00000000000E+00  0.00000000000E+00 -0.45184703122E+03  0.15656616502E+04  0.14990432493E+04 0.  0.
        2    1    3    3  502    0  0.29709593365E+03  0.50196971830E+03  0.26567757716E+03  0.64095566687E+03  0.25500000920E-02 0.  1.
       -2    1    3    3    0  502 -0.29709593365E+03 -0.50196971830E+03 -0.71752460838E+03  0.92470598328E+03  0.25500000920E-02 0. -1.
</event>
<event>
 5   0  0.1219810E-04  0.1537126E+04  0.7818609E-02  0.8860133E-01
        2   -1    0    0  501    0  0.00000000000E+00  0.00000000000E+00  0.16059559744E+04  0.16059559744E+04  0.25500000920E-02 0.  1.
       -2   -1    0    0    0  501  0.00000000000E+00  0.00000000000E+00 -0.36781170905E+03  0.36781170906E+03  0.25500000920E-02 0. -1.
    10030    2    1    2    0    0  0.00000000000E+00  0.00000000000E+00  0.12381442653E+04  0.19737676835E+04  0.15371264250E+04 0.  0.
        1    1    3    3  502    0  0.61167973645E+03 -0.39082615483E+03  0.94338959388E+03  0.11903281519E+04  0.50400001928E-02 0.  1.
       -1    1    3    3    0  502 -0.61167973645E+03  0.39082615483E+03  0.29475467147E+03  0.78343953159E+03  0.50400001928E-02 0. -1.
</event>
<event>
 5   0  0.6668433E-05  0.1502622E+04  0.7818609E-02  0.8882711E-01
        1   -1    0    0  501    0  0.00000000000E+00  0.00000000000E+00  0.12831698095E+04  0.12831698095E+04  0.50400001928E-02 0. -1.
       -1   -1    0    0    0  501  0.00000000000E+00  0.00000000000E+00 -0.43990128694E+03  0.43990128697E+03  0.50400001928E-02 0.  1.
    10030    2    1    2    0    0  0.00000000000E+00  0.00000000000E+00  0.84326852256E+03  0.17230710965E+04  0.15026217762E+04 0.  0.
        1    1    3    3  502    0  0.70004027140E+03 -0.26187651351E+03  0.50920836573E+03  0.90439418932E+03  0.50400001928E-02 0. -1.
       -1    1    3    3    0  502 -0.70004027140E+03  0.26187651351E+03  0.33406015683E+03  0.81867690716E+03  0.50400001928E-02 0.  1.
</event>
<event>
 5   0  0.6364378E-05  0.1489845E+04  0.7818609E-02  0.8891234E-01
        1   -1    0    0  501    0  0.00000000000E+00  0.00000000000E+00  0.11966833475E+04  0.11966833475E+04  0.50400001928E-02 0. -1.
       -1   -1    0    0    0  501  0.00000000000E+00  0.00000000000E+00 -0.46370603157E+03  0.46370603159E+03  0.50400001928E-02 0.  1.
    10030    2    1    2    0    0  0.00000000000E+00  0.00000000000E+00  0.73297731593E+03  0.16603893791E+04  0.14898446713E+04 0.  0.
        5    1    3    3  502    0  0.66314492457E+03 -0.31529023647E+03  0.50621187964E+03  0.89187537318E+03  0.46999998093E+01 0. -1.
       -5    1    3    3    0  502 -0.66314492457E+03  0.31529023647E+03  0.22676543629E+03  0.76851400592E+03  0.46999998093E+01 0.  1.
</event>
<event>
 5   0  0.6668433E-05  0.1500103E+04  0.7818609E-02  0.8884384E-01
       -1   -1    0    0    0  501  0.00000000000E+00  0.00000000000E+00  0.31153577389E+03  0.31153577393E+03  0.50400001928E-02 0.  1.
        1   -1    0    0  501    0  0.00000000000E+00  0.00000000000E+00 -0.18058198476E+04  0.18058198476E+04  0.50400001928E-02 0. -1.
    10030    2    1    2    0    0  0.00000000000E+00  0.00000000000E+00 -0.14942840737E+04  0.21173556215E+04  0.15001033081E+04 0.  0.
        1    1    3    3  502    0 -0.71500017197E+02 -0.30560932503E+03 -0.17086735650E+04  0.17372606781E+04  0.50400001928E-02 0. -1.
       -1    1    3    3    0  502  0.71500017197E+02  0.30560932503E+03  0.21438949129E+03  0.38009494341E+03  0.50400001928E-02 0.  1.
</event>
<event>
 5   0  0.6361716E-05  0.1499789E+04  0.7818609E-02  0.8884593E-01
        1   -1    0    0  501    0  0.00000000000E+00  0.00000000000E+00  0.14492114320E+04  0.14492114321E+04  0.50400001928E-02 0.  1.
       -1   -1    0    0    0  501  0.00000000000E+00  0.00000000000E+00 -0.38803313459E+03  0.38803313462E+03  0.50400001928E-02 0. -1.
    10030    2    1    2    0    0  0.00000000000E+00  0.00000000000E+00  0.10611782975E+04  0.18372445667E+04  0.14997893915E+04 0.  0.
        3    1    3    3  502    0 -0.38251260630E+03 -0.45846516011E+03  0.10863618362E+04  0.12396323029E+04  0.10100000352E+00 0.  1.
       -3    1    3    3    0  502  0.38251260630E+03  0.45846516011E+03 -0.25183538740E+02  0.59761226379E+03  0.10100000352E+00 0. -1.
</event>
<event>
 5   0  0.1186664E-04  0.1501734E+04  0.7818609E-02  0.8883300E-01
        2   -1    0    0  501    0  0.00000000000E+00  0.00000000000E+00  0.17383327166E+04  0.17383327166E+04  0.25500000920E-02 0.  1.
       -2   -1    0    0    0  501  0.00000000000E+00  0.00000000000E+00 -0.32433470064E+03  0.32433470065E+03  0.25500000920E-02 0. -1.
    10030    2    1    2    0    0  0.00000000000E+00  0.00000000000E+00  0.14139980160E+04  0.20626674173E+04  0.15017344922E+04 0.  0.
        3    1    3    3  502    0  0.12211829286E+03 -0.38604401015E+03  0.15755380746E+04  0.16267338719E+04  0.10100000352E+00 0.  1.
       -3    1    3    3    0  502 -0.12211829286E+03  0.38604401015E+03 -0.16154005864E+03  0.43593354536E+03  0.10100000352E+00 0. -1.
</event>
<event>
 5   0  0.1219810E-04  0.1496821E+04  0.7818609E-02  0.8886569E-01
        2   -1    0    0  501    0  0.00000000000E+00  0.00000000000E+00  0.14573842871E+04  0.14573842871E+04  0.25500000920E-02 0.  1.
       -2   -1    0    0    0  501  0.00000000000E+00  0.00000000000E+00 -0.38433136740E+03  0.38433136741E+03  0.25500000920E-02 0. -1.
    10030    2    1    2    0    0  0.00000000000E+00  0.00000000000E+00  0.10730529197E+04  0.18417156545E+04  0.14968212931E+04 0.  0.
        1    1    3    3  502    0  0.22782244871E+03 -0.13679953884E+03  0.13973805711E+04  0.14224238617E+04  0.50400001928E-02 0.  1.
       -1    1    3    3    0  502 -0.22782244871E+03  0.13679953884E+03 -0.32432765142E+03  0.41929179274E+03  0.50400001928E-02 0. -1.
</event>
<event>
 5   0  0.4462875E-05  0.1511205E+04  0.7818609E-02  0.8877036E-01
       -3   -1    0    0    0  501  0.00000000000E+00  0.00000000000E+00  0.79534470280E+03  0.79534470921E+03  0.10100000352E+00 0. -1.
        3   -1    0    0  501    0  0.00000000000E+00  0.00000000000E+00 -0.71784585331E+03  0.71784586042E+03  0.10100000352E+00 0.  1.
    10030    2    1    2    0    0  0.00000000000E+00  0.00000000000E+00  0.77498849488E+02  0.15131905696E+04  0.15112046944E+04 0.  0.
        3    1    3    3  502    0  0.60876553201E+03 -0.87429144066E+02  0.47829731092E+03  0.77910696058E+03  0.10100000352E+00 0. -1.
       -3    1    3    3    0  502 -0.60876553201E+03  0.87429144066E+02 -0.40079846143E+03  0.73408360905E+03  0.10100000352E+00 0.  1.
</event>
<event>
 5   0  0.1216921E-04  0.1500212E+04  0.7818609E-02  0.8884312E-01
        2   -1    0    0  501    0  0.00000000000E+00  0.00000000000E+00  0.10500464730E+04  0.10500464730E+04  0.25500000920E-02 0. -1.
       -2   -1    0    0    0  501  0.00000000000E+00  0.00000000000E+00 -0.53584176854E+03  0.53584176854E+03  0.25500000920E-02 0.  1.
    10030    2    1    2    0    0  0.00000000000E+00  0.00000000000E+00  0.51420470451E+03  0.15858882416E+04  0.15002116640E+04 0.  0.
        4    1    3    3  502    0 -0.30533346799E+03 -0.63096025833E+03 -0.25202878385E+02  0.70141013127E+03  0.12699999809E+01 0. -1.
       -4    1    3    3    0  502  0.30533346799E+03  0.63096025833E+03  0.53940758289E+03  0.88447811033E+03  0.12699999809E+01 0.  1.
</event>
<event>
 5   0  0.6509279E-05  0.1500497E+04  0.7818609E-02  0.8884122E-01
       -1   -1    0    0    0  501  0.00000000000E+00  0.00000000000E+00  0.52383339557E+03  0.52383339560E+03  0.50400001928E-02 0. -1.
        1   -1    0    0  501    0  0.00000000000E+00  0.00000000000E+00 -0.10745267459E+04  0.10745267459E+04  0.50400001928E-02 0.  1.
    10030    2    1    2    0    0  0.00000000000E+00  0.00000000000E+00 -0.55069335029E+03  0.15983601415E+04  0.15004972428E+04 0.  0.
        2    1    3    3  502    0 -0.51462764976E+03 -0.26138910414E+03 -0.78588301476E+03  0.97507845559E+03  0.25500000920E-02 0.  1.
       -2    1    3    3    0  502  0.51462764976E+03  0.26138910414E+03  0.23518966448E+03  0.62328168587E+03  0.25500000920E-02 0. -1.
</event>
<event>
 5   0  0.1254487E-04  0.1482534E+04  0.7818609E-02  0.8896151E-01
        2   -1    0    0  501    0  0.00000000000E+00  0.00000000000E+00  0.83720897148E+03  0.83720897148E+03  0.25500000920E-02 0. -1.
       -2   -1    0    0    0  501  0.00000000000E+00  0.00000000000E+00 -0.65632001610E+03  0.65632001611E+03  0.25500000920E-02 0.  1.
    10030    2    1    2    0    0  0.00000000000E+00  0.00000000000E+00  0.18088895538E+03  0.14935289876E+04  0.14825343243E+04 0.  0.
        5    1    3    3  502    0 -0.62693002832E+03  0.35607204649E+03 -0.82955083972E+02  0.72576318359E+03  0.46999998093E+01 0.  1.
       -5    1    3    3    0  502  0.62693002832E+03 -0.35607204649E+03  0.26384403935E+03  0.76776580400E+03  0.46999998093E+01 0. -1.
</event>
<event>
 5   0  0.1254487E-04  0.1498557E+04  0.7818609E-02  0.8885413E-01
       -2   -1    0    0    0  501  0.00000000000E+00  0.00000000000E+00  0.36134837747E+03  0.36134837748E+03  0.25500000920E-02 0.  1.
        2   -1    0    0  501    0  0.00000000000E+00  0.00000000000E+00 -0.15536768561E+04  0.15536768561E+04  0.25500000920E-02 0. -1.
    10030    2    1    2    0    0  0.00000000000E+00  0.00000000000E+00 -0.11923284786E+04  0.19150252335E+04  0.14985574544E+04 0.  0.
        5    1    3    3  502    0  0.25479940576E+03 -0.98604057669E+02  0.29540389786E+03  0.40240657330E+03  0.46999998093E+01 0.  1.
       -5    1    3    3    0  502 -0.25479940576E+03  0.98604057669E+02 -0.14877323765E+04  0.15126186602E+04  0.46999998093E+01 0. -1.
</event>
<event>
 5   0  0.1186664E-04  0.1504319E+04  0.7818609E-02  0.8881586E-01
        2   -1    0    0  501    0  0.00000000000E+00  0.00000000000E+00  0.48091349144E+03  0.48091349144E+03  0.25500000920E-02 0. -1.
       -2   -1    0    0    0  501  0.00000000000E+00  0.00000000000E+00 -0.11763942867E+04  0.11763942867E+04  0.25500000920E-02 0.  1.
    10030    2    1    2    0    0  0.00000000000E+00  0.00000000000E+00 -0.69548079523E+03  0.16573077781E+04  0.15043189605E+04 0.  0.
        3    1    3    3  502    0  0.45521422134E+03  0.49886367670E+03 -0.71256592415E+03  0.98175106911E+03  0.10100000352E+00 0. -1.
       -3    1    3    3    0  502 -0.45521422134E+03 -0.49886367670E+03  0.17085128920E+02  0.67555670900E+03  0.10100000352E+00 0.  1.
</event>
<event>
 5   0  0.1254487E-04  0.1499042E+04  0.7818609E-02  0.8885090E-01
        2   -1    0    0  501    0  0.00000000000E+00  0.00000000000E+00  0.71263764862E+03  0.71263764862E+03  0.25500000920E-02 0.  1.
       -2   -1    0    0    0  501  0.00000000000E+00  0.00000000000E+00 -0.78831333089E+03  0.78831333089E+03  0.25500000920E-02 0. -1.
    10030    2    1    2    0    0  0.00000000000E+00  0.00000000000E+00 -0.75675682273E+02  0.15009509795E+04  0.14990420388E+04 0.  0.
        5    1    3    3  502    0  0.21545288831E+03 -0.15936004809E+03 -0.73868926637E+03  0.78581136048E+03  0.46999998093E+01 0. -1.
       -5    1    3    3    0  502 -0.21545288831E+03  0.15936004809E+03  0.66301358410E+03  0.71513961903E+03  0.46999998093E+01 0.  1.
</event>
<event>
 5   0  0.1228286E-04  0.1502195E+04  0.7818609E-02  0.8882995E-01
        2   -1    0    0  501    0  0.00000000000E+00  0.00000000000E+00  0.13085730934E+04  0.13085730934E+04  0.25500000920E-02 0.  1.
       -2   -1    0    0    0  501  0.00000000000E+00  0.00000000000E+00 -0.43111641195E+03  0.43111641196E+03  0.25500000920E-02 0. -1.
    10030    2    1    2    0    0  0.00000000000E+00  0.00000000000E+00  0.87745668140E+03  0.17396895053E+04  0.15021948433E+04 0.  0.
        2    1    3    3  502    0  0.85762674171E+02  0.74606038220E+03  0.45452297841E+03  0.87781118020E+03  0.25500000920E-02 0. -1.
       -2    1    3    3    0  502 -0.85762674171E+02 -0.74606038220E+03  0.42293370299E+03  0.86187832512E+03  0.25500000920E-02 0.  1.
</event>
<event>
 5   0  0.1254487E-04  0.1498547E+04  0.7818609E-02  0.8885420E-01
       -2   -1    0    0    0  501  0.00000000000E+00  0.00000000000E+00  0.31638827899E+03  0.31638827900E+03  0.25500000920E-02 0. -1.
        2   -1    0    0  501    0  0.00000000000E+00  0.00000000000E+00 -0.17744361883E+04  0.17744361883E+04  0.25500000920E-02 0.  1.
    10030    2    1    2    0    0  0.00000000000E+00  0.00000000000E+00 -0.14580479093E+04  0.20908244673E+04  0.14985470454E+04 0.  0.
        5    1    3    3  502    0 -0.29727480040E+03  0.42503790949E+03 -0.14834307075E+04  0.15715019203E+04  0.46999998093E+01 0.  1.
       -5    1    3    3    0  502  0.29727480040E+03 -0.42503790949E+03  0.25382798158E+02  0.51932254707E+03  0.46999998093E+01 0. -1.
</event>
<event>
 5   0  0.1228286E-04  0.1501391E+04  0.7818609E-02  0.8883528E-01
        2   -1    0    0  501    0  0.00000000000E+00  0.00000000000E+00  0.13936236726E+04  0.13936236726E+04  0.25500000920E-02 0.  1.
       -2   -1    0    0    0  501  0.00000000000E+00  0.00000000000E+00 -0.40437294974E+03  0.40437294975E+03  0.25500000920E-02 0. -1.
    10030    2    1    2    0    0  0.00000000000E+00  0.00000000000E+00  0.98925072290E+03  0.17979966224E+04  0.15013909755E+04 0.  0.
        2    1    3    3  502    0 -0.52461515983E+03 -0.53682815081E+03  0.50870290721E+03  0.90674372192E+03  0.25500000920E-02 0. -1.
       -2    1    3    3    0  502  0.52461515983E+03  0.53682815081E+03  0.48054781569E+03  0.89125290047E+03  0.25500000920E-02 0.  1.
</event>
<event>
 5   0  0.1216921E-04  0.1501747E+04  0.7818609E-02  0.8883292E-01
       -2   -1    0    0    0  501  0.00000000000E+00  0.00000000000E+00  0.48600050779E+03  0.48600050780E+03  0.25500000920E-02 0.  1.
        2   -1    0    0  501    0  0.00000000000E+00  0.00000000000E+00 -0.11601030603E+04  0.11601030603E+04  0.25500000920E-02 0. -1.
    10030    2    1    2    0    0  0.00000000000E+00  0.00000000000E+00 -0.67410255252E+03  0.16461035681E+04  0.15017465517E+04 0.  0.
        4    1    3    3  502    0 -0.68043625868E+03 -0.31250769825E+03 -0.27548742597E+03  0.79784052188E+03  0.12699999809E+01 0. -1.
       -4    1    3    3    0  502  0.68043625868E+03  0.31250769825E+03 -0.39861512655E+03  0.84826304623E+03  0.12699999809E+01 0.  1.
</event>
<event>
 5   0  0.1219810E-04  0.1499871E+04  0.7818609E-02  0.8884539E-01
       -2   -1    0    0    0  501  0.00000000000E+00  0.00000000000E+00  0.14060678802E+04  0.14060678802E+04  0.25500000920E-02 0.  1.
        2   -1    0    0  501    0  0.00000000000E+00  0.00000000000E+00 -0.39998278564E+03  0.39998278565E+03  0.25500000920E-02 0. -1.
    10030    2    1    2    0    0  0.00000000000E+00  0.00000000000E+00  0.10060850945E+04  0.18060506658E+04  0.14998705911E+04 0.  0.
        1    1    3    3  502    0  0.67356014527E+03 -0.61658315972E+02  0.89307522725E+03  0.11202983436E+04  0.50400001928E-02 0.  1.
       -1    1    3    3    0  502 -0.67356014527E+03  0.61658315972E+02  0.11300986727E+03  0.68575232216E+03  0.50400001928E-02 0. -1.
</event>
<event>
 5   0  0.6668433E-05  0.1498251E+04  0.7818609E-02  0.8885617E-01
       -1   -1    0    0    0  501  0.00000000000E+00  0.00000000000E+00  0.38620434253E+03  0.38620434257E+03  0.50400001928E-02 0.  1.
        1   -1    0    0  501    0  0.00000000000E+00  0.00000000000E+00 -0.14530889217E+04  0.14530889218E+04  0.50400001928E-02 0. -1.
    10030    2    1    2    0    0  0.00000000000E+00  0.00000000000E+00 -0.10668845792E+04  0.18392932643E+04  0.14982513163E+04 0.  0.
        1    1    3    3  502    0  0.58591208457E+03  0.43611834592E+03 -0.32913530200E+03  0.80113808394E+03  0.50400001928E-02 0.  1.
       -1    1    3    3    0  502 -0.58591208457E+03 -0.43611834592E+03 -0.73774927721E+03  0.10381551804E+04  0.50400001928E-02 0. -1.
</event>
<event>
 5   0  0.6364378E-05  0.1499355E+04  0.7818609E-02  0.8884882E-01
       -1   -1    0    0    0  501  0.00000000000E+00  0.00000000000E+00  0.97011176420E+03  0.97011176421E+03  0.50400001928E-02 0. -1.
        1   -1    0    0  501    0  0.00000000000E+00  0.00000000000E+00 -0.57933162093E+03  0.57933162096E+03  0.50400001928E-02 0.  1.
    10030    2    1    2    0    0  0.00000000000E+00  0.00000000000E+00  0.39078014327E+03  0.15494433852E+04  0.14993550892E+04 0.  0.
        5    1    3    3  502    0 -0.17443539550E+03  0.64501630209E+03 -0.15584746311E+03  0.68613720124E+03  0.46999998093E+01 0.  1.
       -5    1    3    3    0  502  0.17443539550E+03 -0.64501630209E+03  0.54662760638E+03  0.86330618393E+03  0.46999998093E+01 0. -1.
</event>
<event>
 5   0  0.6509279E-05  0.1501379E+04  0.7818609E-02  0.8883536E-01
       -1   -1    0    0    0  501  0.00000000000E+00  0.00000000000E+00  0.60256774848E+03  0.60256774850E+03  0.50400001928E-02 0.  1.
        1   -1    0    0  501    0  0.00000000000E+00  0.00000000000E+00 -0.93522209435E+03  0.93522209436E+03  0.50400001928E-02 0. -1.
    10030    2    1    2    0    0  0.00000000000E+00  0.00000000000E+00 -0.33265434587E+03  0.15377898429E+04  0.15013789285E+04 0.  0.
        2    1    3    3  502    0  0.27093382066E+03  0.31955430094E+03 -0.80434189063E+03  0.90691011873E+03  0.25500000920E-02 0. -1.
       -2    1    3    3    0  502 -0.27093382066E+03 -0.31955430094E+03  0.47168754476E+03  0.63087972413E+03  0.25500000920E-02 0.  1.
</event>
<event>
 5   0  0.6364378E-05  0.1500139E+04  0.7818609E-02  0.8884360E-01
        1   -1    0    0  501    0  0.00000000000E+00  0.00000000000E+00  0.26676471790E+03  0.26676471795E+03  0.50400001928E-02 0. -1.
       -1   -1    0    0    0  501  0.00000000000E+00  0.00000000000E+00 -0.21089905135E+04  0.21089905135E+04  0.50400001928E-02 0.  1.
    10030    2    1    2    0    0  0.00000000000E+00  0.00000000000E+00 -0.18422257956E+04  0.23757552315E+04  0.15001390062E+04 0.  0.
        5    1    3    3  502    0 -0.32528666900E+03  0.28525645175E+03 -0.18914374956E+04  0.19402939339E+04  0.46999998093E+01 0.  1.
       -5    1    3    3    0  502  0.32528666900E+03 -0.28525645175E+03  0.49211699935E+02  0.43546129759E+03  0.46999998093E+01 0. -1.
</event>
<event>
 5   0  0.1186664E-04  0.1495420E+04  0.7818609E-02  0.8887505E-01
        2   -1    0    0  501    0  0.00000000000E+00  0.00000000000E+00  0.15980545894E+04  0.15980545894E+04  0.25500000920E-02 0.  1.
       -2   -1    0    0    0  501  0.00000000000E+00  0.00000000000E+00 -0.34984404548E+03  0.34984404549E+03  0.25500000920E-02 0. -1.
    10030    2    1    2    0    0  0.00000000000E+00  0.00000000000E+00  0.12482105439E+04  0.19478986349E+04  0.14954195163E+04 0.  0.
        3    1    3    3  502    0  0.36242019104E+03 -0.63149672152E+03  0.40253943121E+03  0.83197025671E+03  0.10100000352E+00 0.  1.
       -3    1    3    3    0  502 -0.36242019104E+03  0.63149672152E+03  0.84567111272E+03  0.11159283782E+04  0.10100000352E+00 0. -1.
</event>
<event>
 5   0  0.1216921E-04  0.1502368E+04  0.7818609E-02  0.8882880E-01
        2   -1    0    0  501    0  0.00000000000E+00  0.00000000000E+00  0.11939250565E+04  0.11939250565E+04  0.25500000920E-02 0. -1.
       -2   -1    0    0    0  501  0.00000000000E+00  0.00000000000E+00 -0.47262377570E+03  0.47262377570E+03  0.25500000920E-02 0.  1.
    10030    2    1    2    0    0  0.00000000000E+00  0.00000000000E+00  0.72130128081E+03  0.16665488322E+04  0.15023679551E+04 0.  0.
        4    1    3    3  502    0 -0.32142786008E+03 -0.67284359936E+03  0.46135345679E+03  0.87685973988E+03  0.12699999809E+01 0.  1.
       -4    1    3    3    0  502  0.32142786008E+03  0.67284359936E+03  0.25994782402E+03  0.78968909233E+03  0.12699999809E+01 0. -1.
</event>
<event>
 5   0  0.6542036E-05  0.1503634E+04  0.7818609E-02  0.8882040E-01
        1   -1    0    0  501    0  0.00000000000E+00  0.00000000000E+00  0.71602669191E+03  0.71602669193E+03  0.50400001928E-02 0. -1.
       -1   -1    0    0    0  501  0.00000000000E+00  0.00000000000E+00 -0.78939606458E+03  0.78939606460E+03  0.50400001928E-02 0.  1.
    10030    2    1    2    0    0  0.00000000000E+00  0.00000000000E+00 -0.73369372673E+02  0.15054227565E+04  0.15036338022E+04 0.  0.
        4    1    3    3  502    0 -0.99557609077E+01  0.28242530003E+03 -0.73419417506E+03  0.78670570537E+03  0.12699999809E+01 0.  1.
       -4    1    3    3    0  502  0.99557609077E+01 -0.28242530003E+03  0.66082480238E+03  0.71871705116E+03  0.12699999809E+01 0. -1.
</event>
<event>
 5   0  0.6509279E-05  0.1500669E+04  0.7818609E-02  0.8884008E-01
       -1   -1    0    0    0  501  0.00000000000E+00  0.00000000000E+00  0.37884009012E+03  0.37884009016E+03  0.50400001928E-02 0.  1.
        1   -1    0    0  501    0  0.00000000000E+00  0.00000000000E+00 -0.14861206799E+04  0.14861206799E+04  0.50400001928E-02 0. -1.
    10030    2    1    2    0    0  0.00000000000E+00  0.00000000000E+00 -0.11072805897E+04  0.18649607700E+04  0.15006693071E+04 0.  0.
        2    1    3    3  502    0  0.12946489668E+03  0.70075815424E+03 -0.84556535995E+03  0.11058046519E+04  0.25500000920E-02 0. -1.
       -2    1    3    3    0  502 -0.12946489668E+03 -0.70075815424E+03 -0.26171522980E+03  0.75915611815E+03  0.25500000920E-02 0.  1.
</event>
<event>
 5   0  0.6509279E-05  0.1500864E+04  0.7818609E-02  0.8883879E-01
        1   -1    0    0  501    0  0.00000000000E+00  0.00000000000E+00  0.12381407733E+04  0.12381407733E+04  0.50400001928E-02 0.  1.
       -1   -1    0    0    0  501  0.00000000000E+00  0.00000000000E+00 -0.45483367070E+03  0.45483367073E+03  0.50400001928E-02 0. -1.
    10030    2    1    2    0    0  0.00000000000E+00  0.00000000000E+00  0.78330710260E+03  0.16929744440E+04  0.15008639016E+04 0.  0.
        2    1    3    3  502    0 -0.24976906669E+03 -0.69390046920E+03  0.23508624062E+03  0.77404650271E+03  0.25500000920E-02 0. -1.
       -2    1    3    3    0  502  0.24976906669E+03  0.69390046920E+03  0.54822086198E+03  0.91892794132E+03  0.25500000920E-02 0.  1.
</event>
<event>
 5   0  0.1228286E-04  0.1496140E+04  0.7818609E-02  0.8887024E-01
       -2   -1    0    0    0  501  0.00000000000E+00  0.00000000000E+00  0.41304416321E+03  0.41304416321E+03  0.25500000920E-02 0. -1.
        2   -1    0    0  501    0  0.00000000000E+00  0.00000000000E+00 -0.13548391358E+04  0.13548391358E+04  0.25500000920E-02 0.  1.
    10030    2    1    2    0    0  0.00000000000E+00  0.00000000000E+00 -0.94179497257E+03  0.17678832990E+04  0.14961395618E+04 0.  0.
        2    1    3    3  502    0 -0.50178080062E+03 -0.16229552156E+03 -0.10978126829E+04  0.12179148143E+04  0.25500000920E-02 0.  1.
       -2    1    3    3    0  502  0.50178080062E+03  0.16229552156E+03  0.15601771033E+03  0.54996848467E+03  0.25500000920E-02 0. -1.
</event>
<event>
 5   0  0.6668433E-05  0.1498096E+04  0.7818609E-02  0.8885720E-01
        1   -1    0    0  501    0  0.00000000000E+00  0.00000000000E+00  0.74205623415E+03  0.74205623417E+03  0.50400001928E-02 0. -1.
       -1   -1    0    0    0  501  0.00000000000E+00  0.00000000000E+00 -0.75610587907E+03  0.75610587909E+03  0.50400001928E-02 0.  1.
    10030    2    1    2    0    0  0.00000000000E+00  0.00000000000E+00 -0.14049644921E+02  0.14981621133E+04  0.14980962336E+04 0.  0.
        1    1    3    3  502    0  0.71816963012E+02 -0.70265163146E+03  0.24237758373E+03  0.74674218073E+03  0.50400001928E-02 0. -1.
       -1    1    3    3    0  502 -0.71816963012E+02  0.70265163146E+03 -0.25642722865E+03  0.75141993252E+03  0.50400001928E-02 0.  1.
</event>
<event>
 5   0  0.6542036E-05  0.1507441E+04  0.7818609E-02  0.8879519E-01
        1   -1    0    0  501    0  0.00000000000E+00  0.00000000000E+00  0.64565432890E+03  0.64565432892E+03  0.50400001928E-02 0. -1.
       -1   -1    0    0    0  501  0.00000000000E+00  0.00000000000E+00 -0.87987477547E+03  0.87987477548E+03  0.50400001928E-02 0.  1.
    10030    2    1    2    0    0  0.00000000000E+00  0.00000000000E+00 -0.23422044657E+03  0.15255291044E+04  0.15074414850E+04 0.  0.
        4    1    3    3  502    0 -0.60073871691E+03 -0.22565363932E+03  0.28296453163E+03  0.70133951122E+03  0.12699999809E+01 0. -1.
       -4    1    3    3    0  502  0.60073871691E+03  0.22565363932E+03 -0.51718497820E+03  0.82418959318E+03  0.12699999809E+01 0.  1.
</event>
<event>
 5   0  0.6361716E-05  0.1498855E+04  0.7818609E-02  0.8885215E-01
        1   -1    0    0  501    0  0.00000000000E+00  0.00000000000E+00  0.74665502373E+03  0.74665502374E+03  0.50400001928E-02 0.  1.
       -1   -1    0    0    0  501  0.00000000000E+00  0.00000000000E+00 -0.75221043231E+03  0.75221043232E+03  0.50400001928E-02 0. -1.
    10030    2    1    2    0    0  0.00000000000E+00  0.00000000000E+00 -0.55554085806E+01  0.14988654561E+04  0.14988551607E+04 0.  0.
        3    1    3    3  502    0 -0.63340799847E+03  0.40054461100E+03 -0.26773328695E+01  0.74943235601E+03  0.10100000352E+00 0.  1.
       -3    1    3    3    0  502  0.63340799847E+03 -0.40054461100E+03 -0.28780757112E+01  0.74943310005E+03  0.10100000352E+00 0. -1.
</event>
<event>
 5   0  0.6542036E-05  0.1500025E+04  0.7818609E-02  0.8884436E-01
       -1   -1    0    0    0  501  0.00000000000E+00  0.00000000000E+00  0.92098925426E+03  0.92098925428E+03  0.50400001928E-02 0.  1.
        1   -1    0    0  501    0  0.00000000000E+00  0.00000000000E+00 -0.61077661213E+03  0.61077661215E+03  0.50400001928E-02 0. -1.
    10030    2    1    2    0    0  0.00000000000E+00  0.00000000000E+00  0.31021264213E+03  0.15317658664E+04  0.15000249285E+04 0.  0.
        4    1    3    3  502    0  0.25551646406E+03 -0.70430792122E+03  0.19016607648E+03  0.77298322158E+03  0.12699999809E+01 0.  1.
       -4    1    3    3    0  502 -0.25551646406E+03  0.70430792122E+03  0.12004656565E+03  0.75878264485E+03  0.12699999809E+01 0. -1.
</event>
<event>
 5   0  0.1216921E-04  0.1485369E+04  0.7818609E-02  0.8894241E-01
        2   -1    0    0  501    0  0.00000000000E+00  0.00000000000E+00  0.24967589485E+04  0.24967589485E+04  0.25500000920E-02 0.  1.
       -2   -1    0    0    0  501  0.00000000000E+00  0.00000000000E+00 -0.22091865413E+03  0.22091865415E+03  0.25500000920E-02 0. -1.
    10030    2    1    2    0    0  0.00000000000E+00  0.00000000000E+00  0.22758402944E+04  0.27176776027E+04  0.14853694848E+04 0.  0.
        4    1    3    3  502    0 -0.26859802887E+03 -0.28255363756E+03 -0.18657643556E+02  0.39029627179E+03  0.12699999809E+01 0. -1.
       -4    1    3    3    0  502  0.26859802887E+03  0.28255363756E+03  0.22944979380E+04  0.23273813309E+04  0.12699999809E+01 0.  1.
</event>
<event>
 5   0  0.1228286E-04  0.1500808E+04  0.7818609E-02  0.8883916E-01
       -2   -1    0    0    0  501  0.00000000000E+00  0.00000000000E+00  0.60739152179E+03  0.60739152180E+03  0.25500000920E-02 0.  1.
        2   -1    0    0  501    0  0.00000000000E+00  0.00000000000E+00 -0.92708900138E+03  0.92708900138E+03  0.25500000920E-02 0. -1.
    10030    2    1    2    0    0  0.00000000000E+00  0.00000000000E+00 -0.31969747959E+03  0.15344805232E+04  0.15008077817E+04 0.  0.
        2    1    3    3  502    0 -0.40941750250E+02 -0.50682055085E+01 -0.92592868273E+03  0.92684725772E+03  0.25500000920E-02 0. -1.
       -2    1    3    3    0  502  0.40941750250E+02  0.50682055085E+01  0.60623120315E+03  0.60763326546E+03  0.25500000920E-02 0.  1.
</event>
<event>
 5   0  0.1254487E-04  0.1499497E+04  0.7818609E-02  0.8884787E-01
        2   -1    0    0  501    0  0.00000000000E+00  0.00000000000E+00  0.20047527999E+04  0.20047527999E+04  0.25500000920E-02 0. -1.
       -2   -1    0    0    0  501  0.00000000000E+00  0.00000000000E+00 -0.28039525154E+03  0.28039525155E+03  0.25500000920E-02 0.  1.
    10030    2    1    2    0    0  0.00000000000E+00  0.00000000000E+00  0.17243575484E+04  0.22851480515E+04  0.14994974700E+04 0.  0.
        5    1    3    3  502    0  0.72129401555E+03  0.19433596781E+03  0.76496186279E+03  0.10692147898E+04  0.46999998093E+01 0.  1.
       -5    1    3    3    0  502 -0.72129401555E+03 -0.19433596781E+03  0.95939568560E+03  0.12159332617E+04  0.46999998093E+01 0. -1.
</event>
<event>
 5   0  0.1186664E-04  0.1500108E+04  0.7818609E-02  0.8884381E-01
       -2   -1    0    0    0  501  0.00000000000E+00  0.00000000000E+00  0.82593748775E+03  0.82593748775E+03  0.25500000920E-02 0. -1.
        2   -1    0    0  501    0  0.00000000000E+00  0.00000000000E+00 -0.68114234260E+03  0.68114234261E+03  0.25500000920E-02 0.  1.
    10030    2    1    2    0    0  0.00000000000E+00  0.00000000000E+00  0.14479514515E+03  0.15070798304E+04  0.15001079898E+04 0.  0.
        3    1    3    3  502    0 -0.23394830594E+03  0.12537029392E+03 -0.63238360957E+03  0.68582691716E+03  0.10100000352E+00 0.  1.
       -3    1    3    3    0  502  0.23394830594E+03 -0.12537029392E+03  0.77717875472E+03  0.82125291320E+03  0.10100000352E+00 0. -1.
</event>
<event>
 5   0  0.1219810E-04  0.1499215E+04  0.7818609E-02  0.8884975E-01
        2   -1    0    0  501    0  0.00000000000E+00  0.00000000000E+00  0.11801259444E+04  0.11801259444E+04  0.25500000920E-02 0.  1.
       -2   -1    0    0    0  501  0.00000000000E+00  0.00000000000E+00 -0.47614554629E+03  0.47614554629E+03  0.25500000920E-02 0. -1.
    10030    2    1    2    0    0  0.00000000000E+00  0.00000000000E+00  0.70398039811E+03  0.16562714907E+04  0.14992154115E+04 0.  0.
        1    1    3    3  502    0  0.21578937973E+02 -0.67209055247E+03 -0.13984162040E+02  0.67258227608E+03  0.50400001928E-02 0.  1.
       -1    1    3    3    0  502 -0.21578937973E+02  0.67209055247E+03  0.71796456015E+03  0.98368921461E+03  0.50400001928E-02 0. -1.
</event>
<event>
 5   0  0.6361716E-05  0.1507414E+04  0.7818609E-02  0.8879538E-01
       -1   -1    0    0    0  501  0.00000000000E+00  0.00000000000E+00  0.73102316616E+03  0.73102316618E+03  0.50400001928E-02 0.  1.
        1   -1    0    0  501    0  0.00000000000E+00  0.00000000000E+00 -0.77709443906E+03  0.77709443907E+03  0.50400001928E-02 0. -1.
    10030    2    1    2    0    0  0.00000000000E+00  0.00000000000E+00 -0.46071272898E+02  0.15081176053E+04  0.15074137286E+04 0.  0.
        3    1    3    3  502    0  0.65077868123E+03  0.15021518070E+03  0.32640748071E+03  0.74338371392E+03  0.10100000352E+00 0.  1.
       -3    1    3    3    0  502 -0.65077868123E+03 -0.15021518070E+03 -0.37247875360E+03  0.76473389133E+03  0.10100000352E+00 0. -1.
</event>
<event>
 5   0  0.6361716E-05  0.1503370E+04  0.7818609E-02  0.8882215E-01
        1   -1    0    0  501    0  0.00000000000E+00  0.00000000000E+00  0.18284258726E+04  0.18284258726E+04  0.50400001928E-02 0.  1.
       -1   -1    0    0    0  501  0.00000000000E+00  0.00000000000E+00 -0.30902536485E+03  0.30902536489E+03  0.50400001928E-02 0. -1.
    10030    2    1    2    0    0  0.00000000000E+00  0.00000000000E+00  0.15194005077E+04  0.21374512375E+04  0.15033695120E+04 0.  0.
        3    1    3    3  502    0 -0.55503818839E+03 -0.48997239226E+03  0.94447410031E+03  0.12000715279E+04  0.10100000352E+00 0.  1.
       -3    1    3    3    0  502  0.55503818839E+03  0.48997239226E+03  0.57492640740E+03  0.93737970955E+03  0.10100000352E+00 0. -1.
</event>
<event>
 5   0  0.1254487E-04  0.1500249E+04  0.7818609E-02  0.8884287E-01
       -2   -1    0    0    0  501  0.00000000000E+00  0.00000000000E+00  0.23095085901E+03  0.23095085902E+03  0.25500000920E-02 0.  1.
        2   -1    0    0  501    0  0.00000000000E+00  0.00000000000E+00 -0.24363922742E+04  0.24363922742E+04  0.25500000920E-02 0. -1.
    10030    2    1    2    0    0  0.00000000000E+00  0.00000000000E+00 -0.22054414152E+04  0.26673431333E+04  0.15002491642E+04 0.  0.
        5    1    3    3  502    0 -0.13403592765E+03  0.65235266117E+03 -0.48904985445E+03  0.82626961373E+03  0.46999998093E+01 0.  1.
       -5    1    3    3    0  502  0.13403592765E+03 -0.65235266117E+03 -0.17163915608E+04  0.18410735195E+04  0.46999998093E+01 0. -1.
</event>
<event>
 5   0  0.6542036E-05  0.1496122E+04  0.7818609E-02  0.8887036E-01
       -1   -1    0    0    0  501  0.00000000000E+00  0.00000000000E+00  0.60781224126E+03  0.60781224128E+03  0.50400001928E-02 0.  1.
        1   -1    0    0  501    0  0.00000000000E+00  0.00000000000E+00 -0.92067166025E+03  0.92067166026E+03  0.50400001928E-02 0. -1.
    10030    2    1    2    0    0  0.00000000000E+00  0.00000000000E+00 -0.31285941899E+03  0.15284839015E+04  0.14961223283E+04 0.  0.
        4    1    3    3  502    0  0.30330532992E+03  0.40428776616E+03 -0.71985782033E+03  0.87956785720E+03  0.12699999809E+01 0. -1.
       -4    1    3    3    0  502 -0.30330532992E+03 -0.40428776616E+03  0.40699840134E+03  0.64891604435E+03  0.12699999809E+01 0.  1.
</event>
<event>
 5   0  0.1219810E-04  0.1500313E+04  0.7818609E-02  0.8884245E-01
        2   -1    0    0  501    0  0.00000000000E+00  0.00000000000E+00  0.20422899302E+04  0.20422899302E+04  0.25500000920E-02 0. -1.
       -2   -1    0    0    0  501  0.00000000000E+00  0.00000000000E+00 -0.27554120075E+03  0.27554120076E+03  0.25500000920E-02 0.  1.
    10030    2    1    2    0    0  0.00000000000E+00  0.00000000000E+00  0.17667487295E+04  0.23178311310E+04  0.15003133268E+04 0.  0.
        1    1    3    3  502    0 -0.59085169396E+03  0.37773803710E+03  0.12948607099E+04  0.14725678277E+04  0.50400001928E-02 0. -1.
       -1    1    3    3    0  502  0.59085169396E+03 -0.37773803710E+03  0.47188801956E+03  0.84526330333E+03  0.50400001928E-02 0.  1.
</event>
<event>
 5   0  0.1186664E-04  0.1490282E+04  0.7818609E-02  0.8890941E-01
        2   -1    0    0  501    0  0.00000000000E+00  0.00000000000E+00  0.86161562521E+03  0.86161562522E+03  0.25500000920E-02 0.  1.
       -2   -1    0    0    0  501  0.00000000000E+00  0.00000000000E+00 -0.64441150528E+03  0.64441150529E+03  0.25500000920E-02 0. -1.
    10030    2    1    2    0    0  0.00000000000E+00  0.00000000000E+00  0.21720411993E+03  0.15060271305E+04  0.14902818821E+04 0.  0.
        3    1    3    3  502    0  0.12469557687E+02  0.74036970516E+03  0.24462430772E+02  0.74087867489E+03  0.10100000352E+00 0. -1.
       -3    1    3    3    0  502 -0.12469557687E+02 -0.74036970516E+03  0.19274168916E+03  0.76514845562E+03  0.10100000352E+00 0.  1.
</event>
<event>
 5   0  0.6361716E-05  0.1501494E+04  0.7818609E-02  0.8883460E-01
        1   -1    0    0  501    0  0.00000000000E+00  0.00000000000E+00  0.34711825124E+03  0.34711825128E+03  0.50400001928E-02 0.  1.
       -1   -1    0    0    0  501  0.00000000000E+00  0.00000000000E+00 -0.16237145114E+04  0.16237145114E+04  0.50400001928E-02 0. -1.
    10030    2    1    2    0    0  0.00000000000E+00  0.00000000000E+00 -0.12765962601E+04  0.19708327627E+04  0.15014938451E+04 0.  0.
        3    1    3    3  502    0 -0.64071922608E+03  0.90421197467E+02 -0.13861338463E+03  0.66174829069E+03  0.10100000352E+00 0.  1.
       -3    1    3    3    0  502  0.64071922608E+03 -0.90421197467E+02 -0.11379828755E+04  0.13090844720E+04  0.10100000352E+00 0. -1.
</event>
<event>
 5   0  0.1186664E-04  0.1498533E+04  0.7818609E-02  0.8885429E-01
        2   -1    0    0  501    0  0.00000000000E+00  0.00000000000E+00  0.10624842438E+04  0.10624842438E+04  0.25500000920E-02 0. -1.
       -2   -1    0    0    0  501  0.00000000000E+00  0.00000000000E+00 -0.52838450252E+03  0.52838450252E+03  0.25500000920E-02 0.  1.
    10030    2    1    2    0    0  0.00000000000E+00  0.00000000000E+00  0.53409974130E+03  0.15908687463E+04  0.14985328940E+04 0.  0.
        3    1    3    3  502    0 -0.29482753242E+03  0.68765217061E+03  0.30966580469E+03  0.80974175044E+03  0.10100000352E+00 0.  1.
       -3    1    3    3    0  502  0.29482753242E+03 -0.68765217061E+03  0.22443393661E+03  0.78112699590E+03  0.10100000352E+00 0. -1.
</event>
<event>
 5   0  0.1219810E-04  0.1497094E+04  0.7818609E-02  0.8886388E-01
       -2   -1    0    0    0  501  0.00000000000E+00  0.00000000000E+00  0.44906932680E+03  0.44906932681E+03  0.25500000920E-02 0.  1.
        2   -1    0    0  501    0  0.00000000000E+00  0.00000000000E+00 -0.12477418973E+04  0.12477418973E+04  0.25500000920E-02 0. -1.
    10030    2    1    2    0    0  0.00000000000E+00  0.00000000000E+00 -0.79867257048E+03  0.16968112241E+04  0.14970940035E+04 0.  0.
        1    1    3    3  502    0 -0.18606767498E+03 -0.61057339497E+03 -0.84252676291E+03  0.10570110674E+04  0.50400001928E-02 0. -1.
       -1    1    3    3    0  502  0.18606767498E+03  0.61057339497E+03  0.43854192429E+02  0.63980015672E+03  0.50400001928E-02 0.  1.
</event>
<event>
 5   0  0.6509279E-05  0.1499557E+04  0.7818609E-02  0.8884748E-01
        1   -1    0    0  501    0  0.00000000000E+00  0.00000000000E+00  0.89346349473E+03  0.89346349475E+03  0.50400001928E-02 0. -1.
       -1   -1    0    0    0  501  0.00000000000E+00  0.00000000000E+00 -0.62920037583E+03  0.62920037585E+03  0.50400001928E-02 0.  1.
    10030    2    1    2    0    0  0.00000000000E+00  0.00000000000E+00  0.26426311890E+03  0.15226638706E+04  0.14995566901E+04 0.  0.
        2    1    3    3  502    0  0.41205004379E+03 -0.62634179861E+03  0.12314765833E+03  0.75977275091E+03  0.25500000920E-02 0. -1.
       -2    1    3    3    0  502 -0.41205004379E+03  0.62634179861E+03  0.14111546057E+03  0.76289111968E+03  0.25500000920E-02 0.  1.
</event>
<event>
 5   0  0.1216921E-04  0.1495988E+04  0.7818609E-02  0.8887125E-01
        2   -1    0    0  501    0  0.00000000000E+00  0.00000000000E+00  0.46772800550E+03  0.46772800551E+03  0.25500000920E-02 0. -1.
       -2   -1    0    0    0  501  0.00000000000E+00  0.00000000000E+00 -0.11961973021E+04  0.11961973021E+04  0.25500000920E-02 0.  1.
    10030    2    1    2    0    0  0.00000000000E+00  0.00000000000E+00 -0.72846929657E+03  0.16639253076E+04  0.14959879388E+04 0.  0.
        4    1    3    3  502    0 -0.30171580821E+03  0.38228995942E+03 -0.99569518100E+03  0.11084171364E+04  0.12699999809E+01 0.  1.
       -4    1    3    3    0  502  0.30171580821E+03 -0.38228995942E+03  0.26722588443E+03  0.55550817114E+03  0.12699999809E+01 0. -1.
</event>
<event>
 5   0  0.1228286E-04  0.1500502E+04  0.7818609E-02  0.8884119E-01
       -2   -1    0    0    0  501  0.00000000000E+00  0.00000000000E+00  0.47453617886E+03  0.47453617886E+03  0.25500000920E-02 0.  1.
        2   -1    0    0  501    0  0.00000000000E+00  0.00000000000E+00 -0.11861623020E+04  0.11861623020E+04  0.25500000920E-02 0. -1.
    10030    2    1    2    0    0  0.00000000000E+00  0.00000000000E+00 -0.71162612316E+03  0.16606984809E+04  0.15005024843E+04 0.  0.
        2    1    3    3  502    0  0.49724203510E+03  0.36249732018E+03 -0.83084845470E+03  0.10339067189E+04  0.25500000920E-02 0. -1.
       -2    1    3    3    0  502 -0.49724203510E+03 -0.36249732018E+03  0.11922233154E+03  0.62679176203E+03  0.25500000920E-02 0.  1.
</event>
<event>
 5   0  0.6361716E-05  0.1502336E+04  0.7818609E-02  0.8882901E-01
        1   -1    0    0  501    0  0.00000000000E+00  0.00000000000E+00  0.62646478054E+03  0.62646478056E+03  0.50400001928E-02 0. -1.
       -1   -1    0    0    0  501  0.00000000000E+00  0.00000000000E+00 -0.90069489644E+03  0.90069489645E+03  0.50400001928E-02 0.  1.
    10030    2    1    2    0    0  0.00000000000E+00  0.00000000000E+00 -0.27423011590E+03  0.15271596770E+04  0.15023363547E+04 0.  0.
        3    1    3    3  502    0 -0.28657537438E+03 -0.66455225474E+03  0.67452429862E+02  0.72684591557E+03  0.10100000352E+00 0. -1.
       -3    1    3    3    0  502  0.28657537438E+03  0.66455225474E+03 -0.34168254576E+03  0.80031376144E+03  0.10100000352E+00 0.  1.
</event>
<event>
 5   0  0.6542036E-05  0.1498088E+04  0.7818609E-02  0.8885725E-01
        1   -1    0    0  501    0  0.00000000000E+00  0.00000000000E+00  0.88061836831E+03  0.88061836833E+03  0.50400001928E-02 0.  1.
       -1   -1    0    0    0  501  0.00000000000E+00  0.00000000000E+00 -0.63712866262E+03  0.63712866264E+03  0.50400001928E-02 0. -1.
    10030    2    1    2    0    0  0.00000000000E+00  0.00000000000E+00  0.24348970569E+03  0.15177470310E+04  0.14980883863E+04 0.  0.
        4    1    3    3  502    0  0.16144244942E+03  0.34061786871E+03  0.77752659799E+03  0.86407952206E+03  0.12699999809E+01 0.  1.
       -4    1    3    3    0  502 -0.16144244942E+03 -0.34061786871E+03 -0.53403689230E+03  0.65366750891E+03  0.12699999809E+01 0. -1.
</event>
<event>
 5   0  0.6364378E-05  0.1499374E+04  0.7818609E-02  0.8884869E-01
       -1   -1    0    0    0  501  0.00000000000E+00  0.00000000000E+00  0.56285240836E+03  0.56285240838E+03  0.50400001928E-02 0. -1.
        1   -1    0    0  501    0  0.00000000000E+00  0.00000000000E+00 -0.99854018190E+03  0.99854018192E+03  0.50400001928E-02 0.  1.
    10030    2    1    2    0    0  0.00000000000E+00  0.00000000000E+00 -0.43568777354E+03  0.15613925903E+04  0.14993741978E+04 0.  0.
        5    1    3    3  502    0  0.51445058788E+03  0.50769831812E+03 -0.10637101326E+02  0.72287774037E+03  0.46999998093E+01 0.  1.
       -5    1    3    3    0  502 -0.51445058788E+03 -0.50769831812E+03 -0.42505067222E+03  0.83851484993E+03  0.46999998093E+01 0. -1.
</event>
<event>
 5   0  0.6542036E-05  0.1500834E+04  0.7818609E-02  0.8883899E-01
        1   -1    0    0  501    0  0.00000000000E+00  0.00000000000E+00  0.10181326005E+04  0.10181326005E+04  0.50400001928E-02 0. -1.
       -1   -1    0    0    0  501  0.00000000000E+00  0.00000000000E+00 -0.55309649714E+03  0.55309649716E+03  0.50400001928E-02 0.  1.
    10030    2    1    2    0    0  0.00000000000E+00  0.00000000000E+00  0.46503610333E+03  0.15712290976E+04  0.15008338682E+04 0.  0.
        4    1    3    3  502    0 -0.17363304437E+02  0.10277131607E+03 -0.54548069269E+03  0.55535054403E+03  0.12699999809E+01 0.  1.
       -4    1    3    3    0  502  0.17363304437E+02 -0.10277131607E+03  0.10105167960E+04  0.10158785536E+04  0.12699999809E+01 0. -1.
</event>
<event>
 5   0  0.6668433E-05  0.1490951E+04  0.7818609E-02  0.8890493E-01
       -1   -1    0    0    0  501  0.00000000000E+00  0.00000000000E+00  0.50178245551E+03  0.50178245554E+03  0.50400001928E-02 0. -1.
        1   -1    0    0  501    0  0.00000000000E+00  0.00000000000E+00 -0.11075190141E+04  0.11075190141E+04  0.50400001928E-02 0.  1.
    10030    2    1    2    0    0  0.00000000000E+00  0.00000000000E+00 -0.60573655861E+03  0.16093014697E+04  0.14909508516E+04 0.  0.
        1    1    3    3  502    0  0.42930422119E+03  0.39337327310E+03  0.19958128876E+03  0.61553012694E+03  0.50400001928E-02 0. -1.
       -1    1    3    3    0  502 -0.42930422119E+03 -0.39337327310E+03 -0.80531784737E+03  0.99377134274E+03  0.50400001928E-02 0.  1.
</event>
<event>
 5   0  0.1254487E-04  0.1472335E+04  0.7818609E-02  0.8903061E-01
       -2   -1    0    0    0  501  0.00000000000E+00  0.00000000000E+00  0.82318177740E+03  0.82318177741E+03  0.25500000920E-02 0.  1.
        2   -1    0    0  501    0  0.00000000000E+00  0.00000000000E+00 -0.65835125134E+03  0.65835125134E+03  0.25500000920E-02 0. -1.
    10030    2    1    2    0    0  0.00000000000E+00  0.00000000000E+00  0.16483052606E+03  0.14815330288E+04  0.14723352244E+04 0.  0.
        5    1    3    3  502    0 -0.46130428110E+03  0.55361908125E+03  0.23377080195E+03  0.75760583731E+03  0.46999998093E+01 0.  1.
       -5    1    3    3    0  502  0.46130428110E+03 -0.55361908125E+03 -0.68940275886E+02  0.72392719145E+03  0.46999998093E+01 0. -1.
</event>
<event>
 5   0  0.6542036E-05  0.1502877E+04  0.7818609E-02  0.8882542E-01
       -1   -1    0    0    0  501  0.00000000000E+00  0.00000000000E+00  0.55737412055E+03  0.55737412057E+03  0.50400001928E-02 0.  1.
        1   -1    0    0  501    0  0.00000000000E+00  0.00000000000E+00 -0.10130716838E+04  0.10130716838E+04  0.50400001928E-02 0. -1.
    10030    2    1    2    0    0  0.00000000000E+00  0.00000000000E+00 -0.45569756324E+03  0.15704458044E+04  0.15028771591E+04 0.  0.
        4    1    3    3  502    0  0.57206597160E+03 -0.44885356093E+03 -0.42592121379E+03  0.84269774432E+03  0.12699999809E+01 0. -1.
       -4    1    3    3    0  502 -0.57206597160E+03  0.44885356093E+03 -0.29776349445E+02  0.72774806005E+03  0.12699999809E+01 0.  1.
</event>
<event>
 5   0  0.4462875E-05  0.1497728E+04  0.7818609E-02  0.8885965E-01
       -4   -1    0    0    0  501  0.00000000000E+00  0.00000000000E+00  0.11557506076E+04  0.11557513054E+04  0.12699999809E+01 0. -1.
        4   -1    0    0  501    0  0.00000000000E+00  0.00000000000E+00 -0.48522147714E+03  0.48522313916E+03  0.12699999809E+01 0.  1.
    10030    2    1    2    0    0  0.00000000000E+00  0.00000000000E+00  0.67052913046E+03  0.16409744445E+04  0.14977275496E+04 0.  0.
        5    1    3    3  502    0 -0.31057653372E+03 -0.11388659013E+03 -0.40081412183E+03  0.51971337193E+03  0.46999998093E+01 0.  1.
       -5    1    3    3    0  502  0.31057653372E+03  0.11388659013E+03  0.10713432523E+04  0.11212610726E+04  0.46999998093E+01 0. -1.
</event>
<event>
 5   0  0.1186664E-04  0.1496780E+04  0.7818609E-02  0.8886597E-01
       -2   -1    0    0    0  501  0.00000000000E+00  0.00000000000E+00  0.31178402987E+03  0.31178402988E+03  0.25500000920E-02 0. -1.
        2   -1    0    0  501    0  0.00000000000E+00  0.00000000000E+00 -0.17963961510E+04  0.17963961510E+04  0.25500000920E-02 0.  1.
    10030    2    1    2    0    0  0.00000000000E+00  0.00000000000E+00 -0.14846121211E+04  0.21081801808E+04  0.14967800523E+04 0.  0.
        3    1    3    3  502    0  0.47479104912E+03  0.51616797328E+03 -0.37439499652E+03  0.79500159785E+03  0.10100000352E+00 0.  1.
       -3    1    3    3    0  502 -0.47479104912E+03 -0.51616797328E+03 -0.11102171246E+04  0.13131785830E+04  0.10100000352E+00 0. -1.
</event>
<event>
 5   0  0.1186664E-04  0.1499313E+04  0.7818609E-02  0.8884910E-01
        2   -1    0    0  501    0  0.00000000000E+00  0.00000000000E+00  0.62296203992E+03  0.62296203993E+03  0.25500000920E-02 0. -1.
       -2   -1    0    0    0  501  0.00000000000E+00  0.00000000000E+00 -0.90211724062E+03  0.90211724062E+03  0.25500000920E-02 0.  1.
    10030    2    1    2    0    0  0.00000000000E+00  0.00000000000E+00 -0.27915520070E+03  0.15250792805E+04  0.14993129046E+04 0.  0.
        3    1    3    3  502    0  0.17967422148E+03 -0.52125874267E+03 -0.65623500562E+03  0.85711020031E+03  0.10100000352E+00 0. -1.
       -3    1    3    3    0  502 -0.17967422148E+03  0.52125874267E+03  0.37707980492E+03  0.66796908024E+03  0.10100000352E+00 0.  1.
</event>
<event>
 5   0  0.6364378E-05  0.1501384E+04  0.7818609E-02  0.8883533E-01
       -1   -1    0    0    0  501  0.00000000000E+00  0.00000000000E+00  0.34020132000E+03  0.34020132004E+03  0.50400001928E-02 0. -1.
        1   -1    0    0  501    0  0.00000000000E+00  0.00000000000E+00 -0.16564844203E+04  0.16564844203E+04  0.50400001928E-02 0.  1.
    10030    2    1    2    0    0  0.00000000000E+00  0.00000000000E+00 -0.13162831003E+04  0.19966857404E+04  0.15013836104E+04 0.  0.
        5    1    3    3  502    0  0.30250789321E+02 -0.39332223999E+03  0.19122304505E+03  0.43841286213E+03  0.46999998093E+01 0. -1.
       -5    1    3    3    0  502 -0.30250789321E+02  0.39332223999E+03 -0.15075061454E+04  0.15582728783E+04  0.46999998093E+01 0.  1.
</event>
<event>
 5   0  0.1254487E-04  0.1501934E+04  0.7818609E-02  0.8883168E-01
       -2   -1    0    0    0  501  0.00000000000E+00  0.00000000000E+00  0.62654589429E+03  0.62654589429E+03  0.25500000920E-02 0.  1.
        2   -1    0    0  501    0  0.00000000000E+00  0.00000000000E+00 -0.90009596620E+03  0.90009596621E+03  0.25500000920E-02 0. -1.
    10030    2    1    2    0    0  0.00000000000E+00  0.00000000000E+00 -0.27355007192E+03  0.15266418605E+04  0.15019339960E+04 0.  0.
        5    1    3    3  502    0  0.72952775815E+02 -0.69996568367E+03  0.12955691999E+03  0.71559845677E+03  0.46999998093E+01 0.  1.
       -5    1    3    3    0  502 -0.72952775815E+02  0.69996568367E+03 -0.40310699191E+03  0.81104340373E+03  0.46999998093E+01 0. -1.
</event>
<event>
 5   0  0.1186664E-04  0.1493992E+04  0.7818609E-02  0.8888458E-01
       -2   -1    0    0    0  501  0.00000000000E+00  0.00000000000E+00  0.17375070008E+04  0.17375070008E+04  0.25500000920E-02 0.  1.
        2   -1    0    0  501    0  0.00000000000E+00  0.00000000000E+00 -0.32115165420E+03  0.32115165421E+03  0.25500000920E-02 0. -1.
    10030    2    1    2    0    0  0.00000000000E+00  0.00000000000E+00  0.14163553466E+04  0.20586586550E+04  0.14939922992E+04 0.  0.
        3    1    3    3  502    0 -0.33854149382E+03  0.65863427065E+03  0.84314577145E+03  0.11221872605E+04  0.10100000352E+00 0. -1.
       -3    1    3    3    0  502  0.33854149382E+03 -0.65863427065E+03  0.57320957514E+03  0.93647139452E+03  0.10100000352E+00 0.  1.
</event>
<event>
 5   0  0.6361716E-05  0.1500975E+04  0.7818609E-02  0.8883805E-01
        1   -1    0    0  501    0  0.00000000000E+00  0.00000000000E+00  0.17984083018E+04  0.17984083018E+04  0.50400001928E-02 0.  1.
       -1   -1    0    0    0  501  0.00000000000E+00  0.00000000000E+00 -0.31318340418E+03  0.31318340422E+03  0.50400001928E-02 0. -1.
    10030    2    1    2    0    0  0.00000000000E+00  0.00000000000E+00  0.14852248976E+04  0.21115917060E+04  0.15009751951E+04 0.  0.
        3    1    3    3  502    0 -0.39624675243E+03  0.48590050893E+03  0.13228624893E+04  0.14639248509E+04  0.10100000352E+00 0.  1.
       -3    1    3    3    0  502  0.39624675243E+03 -0.48590050893E+03  0.16236240837E+03  0.64766685513E+03  0.10100000352E+00 0. -1.
</event>
<event>
 5   0  0.6361716E-05  0.1494374E+04  0.7818609E-02  0.8888203E-01
       -1   -1    0    0    0  501  0.00000000000E+00  0.00000000000E+00  0.45864676039E+03  0.45864676042E+03  0.50400001928E-02 0.  1.
        1   -1    0    0  501    0  0.00000000000E+00  0.00000000000E+00 -0.12172518023E+04  0.12172518023E+04  0.50400001928E-02 0. -1.
    10030    2    1    2    0    0  0.00000000000E+00  0.00000000000E+00 -0.75860504187E+03  0.16758985627E+04  0.14943742446E+04 0.  0.
        3    1    3    3  502    0  0.37907885679E+03  0.27838297109E+03 -0.10304236036E+04  0.11326829527E+04  0.10100000352E+00 0. -1.
       -3    1    3    3    0  502 -0.37907885679E+03 -0.27838297109E+03  0.27181856172E+03  0.54321561000E+03  0.10100000352E+00 0.  1.
</event>
<event>
 5   0  0.6542036E-05  0.1497417E+04  0.7818609E-02  0.8886173E-01
       -1   -1    0    0    0  501  0.00000000000E+00  0.00000000000E+00  0.10954208225E+04  0.10954208226E+04  0.50400001928E-02 0.  1.
        1   -1    0    0  501    0  0.00000000000E+00  0.00000000000E+00 -0.51173399094E+03  0.51173399097E+03  0.50400001928E-02 0. -1.
    10030    2    1    2    0    0  0.00000000000E+00  0.00000000000E+00  0.58368683160E+03  0.16071548135E+04  0.14974165343E+04 0.  0.
        4    1    3    3  502    0 -0.56193682287E+03  0.44915941520E+03  0.69165127604E+02  0.72270505806E+03  0.12699999809E+01 0. -1.
       -4    1    3    3    0  502  0.56193682287E+03 -0.44915941520E+03  0.51452170399E+03  0.88444975547E+03  0.12699999809E+01 0.  1.
</event>
<event>
 5   0  0.1219810E-04  0.1497635E+04  0.7818609E-02  0.8886027E-01
       -2   -1    0    0    0  501  0.00000000000E+00  0.00000000000E+00  0.27569739624E+03  0.27569739625E+03  0.25500000920E-02 0.  1.
        2   -1    0    0  501    0  0.00000000000E+00  0.00000000000E+00 -0.20338514160E+04  0.20338514160E+04  0.25500000920E-02 0. -1.
    10030    2    1    2    0    0  0.00000000000E+00  0.00000000000E+00 -0.17581540198E+04  0.23095488123E+04  0.14976348550E+04 0.  0.
        1    1    3    3  502    0 -0.12350326968E+03  0.49308552047E+03 -0.31127803706E+02  0.50926940641E+03  0.50400001928E-02 0.  1.
       -1    1    3    3    0  502  0.12350326968E+03 -0.49308552047E+03 -0.17270262161E+04  0.18002794059E+04  0.50400001928E-02 0. -1.
</event>
<event>
 5   0  0.4462875E-05  0.1476594E+04  0.7818609E-02  0.8900169E-01
        4   -1    0    0  501    0  0.00000000000E+00  0.00000000000E+00  0.48075784688E+03  0.48075952434E+03  0.12699999809E+01 0.  1.
       -4   -1    0    0    0  501  0.00000000000E+00  0.00000000000E+00 -0.11337936778E+04  0.11337943891E+04  0.12699999809E+01 0. -1.
    10030    2    1    2    0    0  0.00000000000E+00  0.00000000000E+00 -0.65303583089E+03  0.16145539134E+04  0.14765935605E+04 0.  0.
        3    1    3    3  502    0 -0.15490567579E+03  0.71342812159E+03 -0.44682853902E+03  0.85593878668E+03  0.10100000352E+00 0.  1.
       -3    1    3    3    0  502  0.15490567579E+03 -0.71342812159E+03 -0.20620729187E+03  0.75861512672E+03  0.10100000352E+00 0. -1.
</event>
<event>
 5   0  0.1228286E-04  0.1500437E+04  0.7818609E-02  0.8884163E-01
        2   -1    0    0  501    0  0.00000000000E+00  0.00000000000E+00  0.11636420555E+04  0.11636420555E+04  0.25500000920E-02 0. -1.
       -2   -1    0    0    0  501  0.00000000000E+00  0.00000000000E+00 -0.48367755909E+03  0.48367755910E+03  0.25500000920E-02 0.  1.
    10030    2    1    2    0    0  0.00000000000E+00  0.00000000000E+00  0.67996449643E+03  0.16473196146E+04  0.15004366686E+04 0.  0.
        2    1    3    3  502    0 -0.68257250519E+03  0.23513729449E+03  0.56399765614E+03  0.91612669880E+03  0.25500000920E-02 0. -1.
       -2    1    3    3    0  502  0.68257250519E+03 -0.23513729449E+03  0.11596684029E+03  0.73119291583E+03  0.25500000920E-02 0.  1.
</event>
<event>
 5   0  0.1186664E-04  0.1507555E+04  0.7818609E-02  0.8879444E-01
       -2   -1    0    0    0  501  0.00000000000E+00  0.00000000000E+00  0.59805465553E+03  0.59805465553E+03  0.25500000920E-02 0. -1.
        2   -1    0    0  501    0  0.00000000000E+00  0.00000000000E+00 -0.95004837424E+03  0.95004837424E+03  0.25500000920E-02 0.  1.
    10030    2    1    2    0    0  0.00000000000E+00  0.00000000000E+00 -0.35199371871E+03  0.15481030298E+04  0.15075554427E+04 0.  0.
        3    1    3    3  502    0  0.30761306044E+03  0.17636285990E+03 -0.85905748445E+03  0.92935968554E+03  0.10100000352E+00 0.  1.
       -3    1    3    3    0  502 -0.30761306044E+03 -0.17636285990E+03  0.50706376574E+03  0.61874334424E+03  0.10100000352E+00 0. -1.
</event>
<event>
 5   0  0.6542036E-05  0.1501671E+04  0.7818609E-02  0.8883342E-01
        1   -1    0    0  501    0  0.00000000000E+00  0.00000000000E+00  0.10601193003E+04  0.10601193003E+04  0.50400001928E-02 0. -1.
       -1   -1    0    0    0  501  0.00000000000E+00  0.00000000000E+00 -0.53178349427E+03  0.53178349430E+03  0.50400001928E-02 0.  1.
    10030    2    1    2    0    0  0.00000000000E+00  0.00000000000E+00  0.52833580599E+03  0.15919027946E+04  0.15016709971E+04 0.  0.
        4    1    3    3  502    0  0.37799414467E+03 -0.82518460912E+02  0.94631055806E+03  0.10223473749E+04  0.12699999809E+01 0. -1.
       -4    1    3    3    0  502 -0.37799414467E+03  0.82518460912E+02 -0.41797475207E+03  0.56955541966E+03  0.12699999809E+01 0.  1.
</event>
<event>
 5   0  0.6668433E-05  0.1499911E+04  0.7818609E-02  0.8884512E-01
       -1   -1    0    0    0  501  0.00000000000E+00  0.00000000000E+00  0.37386141398E+03  0.37386141401E+03  0.50400001928E-02 0.  1.
        1   -1    0    0  501    0  0.00000000000E+00  0.00000000000E+00 -0.15043905562E+04  0.15043905562E+04  0.50400001928E-02 0. -1.
    10030    2    1    2    0    0  0.00000000000E+00  0.00000000000E+00 -0.11305291422E+04  0.18782519702E+04  0.14999114381E+04 0.  0.
        1    1    3    3  502    0  0.35657976965E+03 -0.65598086950E+03 -0.47695223763E+03  0.88597035519E+03  0.50400001928E-02 0. -1.
       -1    1    3    3    0  502 -0.35657976965E+03  0.65598086950E+03 -0.65357690458E+03  0.99228161501E+03  0.50400001928E-02 0.  1.
</event>
<event>
 5   0  0.1186664E-04  0.1501174E+04  0.7818609E-02  0.8883673E-01
       -2   -1    0    0    0  501  0.00000000000E+00  0.00000000000E+00  0.80491203791E+03  0.80491203791E+03  0.25500000920E-02 0.  1.
        2   -1    0    0  501    0  0.00000000000E+00  0.00000000000E+00 -0.69992840919E+03  0.69992840919E+03  0.25500000920E-02 0. -1.
    10030    2    1    2    0    0  0.00000000000E+00  0.00000000000E+00  0.10498362872E+03  0.15048404471E+04  0.15011739436E+04 0.  0.
        3    1    3    3  502    0 -0.54945572150E+03 -0.17634948671E+03 -0.42865972794E+03  0.71885318661E+03  0.10100000352E+00 0. -1.
       -3    1    3    3    0  502  0.54945572150E+03  0.17634948671E+03  0.53364335666E+03  0.78598726049E+03  0.10100000352E+00 0.  1.
</event>
<event>
 5   0  0.1254487E-04  0.1501256E+04  0.7818609E-02  0.8883618E-01
        2   -1    0    0  501    0  0.00000000000E+00  0.00000000000E+00  0.83923543589E+03  0.83923543589E+03  0.25500000920E-02 0. -1.
       -2   -1    0    0    0  501  0.00000000000E+00  0.00000000000E+00 -0.67137624796E+03  0.67137624796E+03  0.25500000920E-02 0.  1.
    10030    2    1    2    0    0  0.00000000000E+00  0.00000000000E+00  0.16785918793E+03  0.15106116839E+04  0.15012564579E+04 0.  0.
        5    1    3    3  502    0  0.16972461288E+02 -0.68806421524E+03 -0.21743671802E+03  0.72181801382E+03  0.46999998093E+01 0.  1.
       -5    1    3    3    0  502 -0.16972461288E+02  0.68806421524E+03  0.38529590595E+03  0.78879367003E+03  0.46999998093E+01 0. -1.
</event>
<event>
 5   0  0.6361716E-05  0.1501114E+04  0.7818609E-02  0.8883712E-01
        1   -1    0    0  501    0  0.00000000000E+00  0.00000000000E+00  0.72313018576E+03  0.72313018577E+03  0.50400001928E-02 0. -1.
       -1   -1    0    0    0  501  0.00000000000E+00  0.00000000000E+00 -0.77902447882E+03  0.77902447883E+03  0.50400001928E-02 0.  1.
    10030    2    1    2    0    0  0.00000000000E+00  0.00000000000E+00 -0.55894293061E+02  0.15021546646E+04  0.15011144075E+04 0.  0.
        3    1    3    3  502    0 -0.20971757744E+03  0.49185422449E+03  0.49913796680E+03  0.73146480472E+03  0.10100000352E+00 0. -1.
       -3    1    3    3    0  502  0.20971757744E+03 -0.49185422449E+03 -0.55503225987E+03  0.77068985989E+03  0.10100000352E+00 0.  1.
</event>
<event>
 5   0  0.6542036E-05  0.1504062E+04  0.7818609E-02  0.8881756E-01
       -1   -1    0    0    0  501  0.00000000000E+00  0.00000000000E+00  0.56436039886E+03  0.56436039888E+03  0.50400001928E-02 0. -1.
        1   -1    0    0  501    0  0.00000000000E+00  0.00000000000E+00 -0.10021088893E+04  0.10021088893E+04  0.50400001928E-02 0.  1.
    10030    2    1    2    0    0  0.00000000000E+00  0.00000000000E+00 -0.43774849043E+03  0.15664692882E+04  0.15040619302E+04 0.  0.
        4    1    3    3  502    0  0.45328076001E+03 -0.44457951918E+03  0.20088028155E+03  0.66593460391E+03  0.12699999809E+01 0. -1.
       -4    1    3    3    0  502 -0.45328076001E+03  0.44457951918E+03 -0.63862877199E+03  0.90053468427E+03  0.12699999809E+01 0.  1.
</event>
<event>
 5   0  0.6509279E-05  0.1499195E+04  0.7818609E-02  0.8884989E-01
       -1   -1    0    0    0  501  0.00000000000E+00  0.00000000000E+00  0.36838476157E+03  0.36838476161E+03  0.50400001928E-02 0. -1.
        1   -1    0    0  501    0  0.00000000000E+00  0.00000000000E+00 -0.15252972597E+04  0.15252972597E+04  0.50400001928E-02 0.  1.
    10030    2    1    2    0    0  0.00000000000E+00  0.00000000000E+00 -0.11569124982E+04  0.18936820214E+04  0.14991948071E+04 0.  0.
        2    1    3    3  502    0 -0.18557024041E+03 -0.70815359486E+03 -0.37486668362E+03  0.82246146326E+03  0.25500000920E-02 0. -1.
       -2    1    3    3    0  502  0.18557024041E+03  0.70815359486E+03 -0.78204581454E+03  0.10712205581E+04  0.25500000920E-02 0.  1.
</event>
<event>
 5   0  0.1216921E-04  0.1504015E+04  0.7818609E-02  0.8881787E-01
        2   -1    0    0  501    0  0.00000000000E+00  0.00000000000E+00  0.13375026562E+04  0.13375026562E+04  0.25500000920E-02 0.  1.
       -2   -1    0    0    0  501  0.00000000000E+00  0.00000000000E+00 -0.42281459548E+03  0.42281459548E+03  0.25500000920E-02 0. -1.
    10030    2    1    2    0    0  0.00000000000E+00  0.00000000000E+00  0.91468806070E+03  0.17603172517E+04  0.15040154847E+04 0.  0.
        4    1    3    3  502    0 -0.40567017692E+03 -0.40118586080E+03  0.10307210957E+04  0.11780942141E+04  0.12699999809E+01 0.  1.
       -4    1    3    3    0  502  0.40567017692E+03  0.40118586080E+03 -0.11603303498E+03  0.58222303755E+03  0.12699999809E+01 0. -1.
</event>
<event>
 5   0  0.6364378E-05  0.1498256E+04  0.7818609E-02  0.8885614E-01
       -1   -1    0    0    0  501  0.00000000000E+00  0.00000000000E+00  0.99914138340E+03  0.99914138341E+03  0.50400001928E-02 0.  1.
        1   -1    0    0  501    0  0.00000000000E+00  0.00000000000E+00 -0.56167476028E+03  0.56167476030E+03  0.50400001928E-02 0. -1.
    10030    2    1    2    0    0  0.00000000000E+00  0.00000000000E+00  0.43746662312E+03  0.15608161437E+04  0.14982556485E+04 0.  0.
        5    1    3    3  502    0 -0.54441237530E+03  0.62499350809E+01  0.75475325351E+03  0.93064411014E+03  0.46999998093E+01 0.  1.
       -5    1    3    3    0  502  0.54441237530E+03 -0.62499350809E+01 -0.31728663038E+03  0.63017203357E+03  0.46999998093E+01 0. -1.
</event>
<event>
 5   0  0.1254487E-04  0.1501189E+04  0.7818609E-02  0.8883663E-01
        2   -1    0    0  501    0  0.00000000000E+00  0.00000000000E+00  0.14213733657E+04  0.14213733657E+04  0.25500000920E-02 0.  1.
       -2   -1    0    0    0  501  0.00000000000E+00  0.00000000000E+00 -0.39637157714E+03  0.39637157715E+03  0.25500000920E-02 0. -1.
    10030    2    1    2    0    0  0.00000000000E+00  0.00000000000E+00  0.10250017886E+04  0.18177449428E+04  0.15011888658E+04 0.  0.
        5    1    3    3  502    0 -0.56139759919E+03 -0.21267369331E+03  0.10580279101E+04  0.12164877775E+04  0.46999998093E+01 0.  1.
       -5    1    3    3    0  502  0.56139759919E+03  0.21267369331E+03 -0.33026121558E+02  0.60125716536E+03  0.46999998093E+01 0. -1.
</event>
<event>
 5   0  0.6509279E-05  0.1493418E+04  0.7818609E-02  0.8888842E-01
        1   -1    0    0  501    0  0.00000000000E+00  0.00000000000E+00  0.18189759862E+04  0.18189759862E+04  0.50400001928E-02 0.  1.
       -1   -1    0    0    0  501  0.00000000000E+00  0.00000000000E+00 -0.30653195861E+03  0.30653195865E+03  0.50400001928E-02 0. -1.
    10030    2    1    2    0    0  0.00000000000E+00  0.00000000000E+00  0.15124440276E+04  0.21255079449E+04  0.14934179211E+04 0.  0.
        2    1    3    3  502    0 -0.68587150276E+02 -0.28992151213E+03  0.17307232566E+04  0.17561781434E+04  0.25500000920E-02 0.  1.
       -2    1    3    3    0  502  0.68587150276E+02  0.28992151213E+03 -0.21827922905E+03  0.36932980142E+03  0.25500000920E-02 0. -1.
</event>
<event>
 5   0  0.1219810E-04  0.1501456E+04  0.7818609E-02  0.8883485E-01
        2   -1    0    0  501    0  0.00000000000E+00  0.00000000000E+00  0.72542500990E+03  0.72542500990E+03  0.25500000920E-02 0.  1.
       -2   -1    0    0    0  501  0.00000000000E+00  0.00000000000E+00 -0.77691349367E+03  0.77691349367E+03  0.25500000920E-02 0. -1.
    10030    2    1    2    0    0  0.00000000000E+00  0.00000000000E+00 -0.51488483766E+02  0.15023385036E+04  0.15014559319E+04 0.  0.
        1    1    3    3  502    0 -0.85615777910E+02 -0.66611172183E+03  0.30994900411E+03  0.73966429721E+03  0.50400001928E-02 0.  1.
       -1    1    3    3    0  502  0.85615777910E+02  0.66611172183E+03 -0.36143748787E+03  0.76267420637E+03  0.50400001928E-02 0. -1.
</event>
<event>
 5   0  0.6364378E-05  0.1497826E+04  0.7818609E-02  0.8885900E-01
       -1   -1    0    0    0  501  0.00000000000E+00  0.00000000000E+00  0.61726016500E+03  0.61726016502E+03  0.50400001928E-02 0. -1.
        1   -1    0    0  501    0  0.00000000000E+00  0.00000000000E+00 -0.90864515699E+03  0.90864515700E+03  0.50400001928E-02 0.  1.
    10030    2    1    2    0    0  0.00000000000E+00  0.00000000000E+00 -0.29138499199E+03  0.15259053220E+04  0.14978257035E+04 0.  0.
        5    1    3    3  502    0  0.57537091343E+03 -0.13737715635E+03  0.32218215092E+03  0.67360789743E+03  0.46999998093E+01 0. -1.
       -5    1    3    3    0  502 -0.57537091343E+03  0.13737715635E+03 -0.61356714291E+03  0.85229742459E+03  0.46999998093E+01 0.  1.
</event>
<event>
 5   0  0.6509279E-05  0.1483587E+04  0.7818609E-02  0.8895442E-01
       -1   -1    0    0    0  501  0.00000000000E+00  0.00000000000E+00  0.25968639674E+03  0.25968639679E+03  0.50400001928E-02 0.  1.
        1   -1    0    0  501    0  0.00000000000E+00  0.00000000000E+00 -0.21189299758E+04  0.21189299758E+04  0.50400001928E-02 0. -1.
    10030    2    1    2    0    0  0.00000000000E+00  0.00000000000E+00 -0.18592435791E+04  0.23786163726E+04  0.14835865872E+04 0.  0.
        2    1    3    3  502    0 -0.31007954599E+03 -0.65502920162E+03 -0.11833504430E+04  0.13876349847E+04  0.25500000920E-02 0. -1.
       -2    1    3    3    0  502  0.31007954599E+03  0.65502920162E+03 -0.67589313614E+03  0.99098138797E+03  0.25500000920E-02 0.  1.
</event>
<event>
 5   0  0.1228286E-04  0.1497929E+04  0.7818609E-02  0.8885832E-01
        2   -1    0    0  501    0  0.00000000000E+00  0.00000000000E+00  0.88151738815E+03  0.88151738816E+03  0.25500000920E-02 0. -1.
       -2   -1    0    0    0  501  0.00000000000E+00  0.00000000000E+00 -0.63634310263E+03  0.63634310263E+03  0.25500000920E-02 0.  1.
    10030    2    1    2    0    0  0.00000000000E+00  0.00000000000E+00  0.24517428552E+03  0.15178604908E+04  0.14979285828E+04 0.  0.
        2    1    3    3  502    0  0.56904343527E+03 -0.47653744029E+03  0.21007813879E+02  0.74252251917E+03  0.25500000920E-02 0. -1.
       -2    1    3    3    0  502 -0.56904343527E+03  0.47653744029E+03  0.22416647165E+03  0.77533797162E+03  0.25500000920E-02 0.  1.
</event>
<event>
 5   0  0.1228286E-04  0.1501556E+04  0.7818609E-02  0.8883419E-01
        2   -1    0    0  501    0  0.00000000000E+00  0.00000000000E+00  0.13719680879E+04  0.13719680879E+04  0.25500000920E-02 0.  1.
       -2   -1    0    0    0  501  0.00000000000E+00  0.00000000000E+00 -0.41084580431E+03  0.41084580432E+03  0.25500000920E-02 0. -1.
    10030    2    1    2    0    0  0.00000000000E+00  0.00000000000E+00  0.96112228359E+03  0.17828138922E+04  0.15015556368E+04 0.  0.
        2    1    3    3  502    0 -0.53786612925E+03  0.72927133518E+02  0.10964186865E+04  0.12234182751E+04  0.25500000920E-02 0.  1.
       -2    1    3    3    0  502  0.53786612925E+03 -0.72927133518E+02 -0.13529640290E+03  0.55939561711E+03  0.25500000920E-02 0. -1.
</event>
<event>
 5   0  0.1216921E-04  0.1499220E+04  0.7818609E-02  0.8884972E-01
        2   -1    0    0  501    0  0.00000000000E+00  0.00000000000E+00  0.87552793469E+03  0.87552793470E+03  0.25500000920E-02 0.  1.
       -2   -1    0    0    0  501  0.00000000000E+00  0.00000000000E+00 -0.64180116618E+03  0.64180116619E+03  0.25500000920E-02 0. -1.
    10030    2    1    2    0    0  0.00000000000E+00  0.00000000000E+00  0.23372676851E+03  0.15173291009E+04  0.14992195963E+04 0.  0.
        4    1    3    3  502    0  0.58885335504E+03  0.35984831285E+03  0.41310048651E+03  0.80429640485E+03  0.12699999809E+01 0.  1.
       -4    1    3    3    0  502 -0.58885335504E+03 -0.35984831285E+03 -0.17937371800E+03  0.71303269603E+03  0.12699999809E+01 0. -1.
</event>
<event>
 5   0  0.1228286E-04  0.1469101E+04  0.7818609E-02  0.8905264E-01
        2   -1    0    0  501    0  0.00000000000E+00  0.00000000000E+00  0.77033034297E+03  0.77033034298E+03  0.25500000920E-02 0. -1.
       -2   -1    0    0    0  501  0.00000000000E+00  0.00000000000E+00 -0.70043267388E+03  0.70043267388E+03  0.25500000920E-02 0.  1.
    10030    2    1    2    0    0  0.00000000000E+00  0.00000000000E+00  0.69897669096E+02  0.14707630169E+04  0.14691011427E+04 0.  0.
        2    1    3    3  502    0 -0.57862709459E+03 -0.71130610770E+02  0.48232755313E+03  0.75664307761E+03  0.25500000920E-02 0. -1.
       -2    1    3    3    0  502  0.57862709459E+03  0.71130610770E+02 -0.41242988403E+03  0.71411993925E+03  0.25500000920E-02 0.  1.
</event>
<event>
 5   0  0.1228286E-04  0.1495649E+04  0.7818609E-02  0.8887352E-01
       -2   -1    0    0    0  501  0.00000000000E+00  0.00000000000E+00  0.36082690960E+03  0.36082690961E+03  0.25500000920E-02 0.  1.
        2   -1    0    0  501    0  0.00000000000E+00  0.00000000000E+00 -0.15498881622E+04  0.15498881622E+04  0.25500000920E-02 0. -1.
    10030    2    1    2    0    0  0.00000000000E+00  0.00000000000E+00 -0.11890612526E+04  0.19107150718E+04  0.14956488302E+04 0.  0.
        2    1    3    3  502    0 -0.74475537905E+03  0.53689848560E+02 -0.64717577129E+03  0.98811925060E+03  0.25500000920E-02 0.  1.
       -2    1    3    3    0  502  0.74475537905E+03 -0.53689848560E+02 -0.54188548133E+03  0.92259582122E+03  0.25500000920E-02 0. -1.
</event>
<event>
 5   0  0.1186664E-04  0.1501811E+04  0.7818609E-02  0.8883249E-01
        2   -1    0    0  501    0  0.00000000000E+00  0.00000000000E+00  0.24141387609E+04  0.24141387609E+04  0.25500000920E-02 0.  1.
       -2   -1    0    0    0  501  0.00000000000E+00  0.00000000000E+00 -0.23356544978E+03  0.23356544980E+03  0.25500000920E-02 0. -1.
    10030    2    1    2    0    0  0.00000000000E+00  0.00000000000E+00  0.21805733111E+04  0.26477042107E+04  0.15018114469E+04 0.  0.
        3    1    3    3  502    0  0.17533011472E+03 -0.61013784905E+03  0.17973614124E+04  0.19061786120E+04  0.10100000352E+00 0.  1.
       -3    1    3    3    0  502 -0.17533011472E+03  0.61013784905E+03  0.38321189873E+03  0.74152559868E+03  0.10100000352E+00 0. -1.
</event>
<event>
 5   0  0.6542036E-05  0.1501533E+04  0.7818609E-02  0.8883434E-01
       -1   -1    0    0    0  501  0.00000000000E+00  0.00000000000E+00  0.10407542768E+04  0.10407542768E+04  0.50400001928E-02 0.  1.
        1   -1    0    0  501    0  0.00000000000E+00  0.00000000000E+00 -0.54157900242E+03  0.54157900244E+03  0.50400001928E-02 0. -1.
    10030    2    1    2    0    0  0.00000000000E+00  0.00000000000E+00  0.49917527437E+03  0.15823332792E+04  0.15015334335E+04 0.  0.
        4    1    3    3  502    0 -0.68247085149E+03  0.31139038969E+03  0.28152720657E+03  0.80124254684E+03  0.12699999809E+01 0.  1.
       -4    1    3    3    0  502  0.68247085149E+03 -0.31139038969E+03  0.21764806779E+03  0.78109073240E+03  0.12699999809E+01 0. -1.
</event>
<event>
 5   0  0.6668433E-05  0.1500605E+04  0.7818609E-02  0.8884051E-01
        1   -1    0    0  501    0  0.00000000000E+00  0.00000000000E+00  0.13433891910E+04  0.13433891910E+04  0.50400001928E-02 0. -1.
       -1   -1    0    0    0  501  0.00000000000E+00  0.00000000000E+00 -0.41905498517E+03  0.41905498520E+03  0.50400001928E-02 0.  1.
    10030    2    1    2    0    0  0.00000000000E+00  0.00000000000E+00  0.92433420584E+03  0.17624441762E+04  0.15006051280E+04 0.  0.
        1    1    3    3  502    0 -0.44546057462E+03  0.24168563887E+03 -0.18764153364E+03  0.54042244286E+03  0.50400001928E-02 0.  1.
       -1    1    3    3    0  502  0.44546057462E+03 -0.24168563887E+03  0.11119757395E+04  0.12220217334E+04  0.50400001928E-02 0. -1.
</event>
<event>
 5   0  0.6361716E-05  0.1499390E+04  0.7818609E-02  0.8884859E-01
        1   -1    0    0  501    0  0.00000000000E+00  0.00000000000E+00  0.83907706151E+03  0.83907706153E+03  0.50400001928E-02 0. -1.
       -1   -1    0    0    0  501  0.00000000000E+00  0.00000000000E+00 -0.66983437098E+03  0.66983437100E+03  0.50400001928E-02 0.  1.
    10030    2    1    2    0    0  0.00000000000E+00  0.00000000000E+00  0.16924269053E+03  0.15089114325E+04  0.14993900836E+04 0.  0.
        3    1    3    3  502    0  0.69744888940E+03  0.55926483106E+02  0.35555188957E+03  0.78484385786E+03  0.10100000352E+00 0. -1.
       -3    1    3    3    0  502 -0.69744888940E+03 -0.55926483106E+02 -0.18630919903E+03  0.72406757467E+03  0.10100000352E+00 0.  1.
</event>
<event>
 5   0  0.6509279E-05  0.1498295E+04  0.7818609E-02  0.8885587E-01
       -1   -1    0    0    0  501  0.00000000000E+00  0.00000000000E+00  0.44740986358E+03  0.44740986361E+03  0.50400001928E-02 0. -1.
        1   -1    0    0  501    0  0.00000000000E+00  0.00000000000E+00 -0.12543807155E+04  0.12543807155E+04  0.50400001928E-02 0.  1.
    10030    2    1    2    0    0  0.00000000000E+00  0.00000000000E+00 -0.80697085195E+03  0.17017905792E+04  0.14982954380E+04 0.  0.
        2    1    3    3  502    0 -0.50772450535E+03  0.95913751890E+02  0.21262497788E+03  0.55874233987E+03  0.25500000920E-02 0. -1.
       -2    1    3    3    0  502  0.50772450535E+03 -0.95913751890E+02 -0.10195958298E+04  0.11430482393E+04  0.25500000920E-02 0.  1.
</event>
<event>
 5   0  0.6361716E-05  0.1500494E+04  0.7818609E-02  0.8884124E-01
       -1   -1    0    0    0  501  0.00000000000E+00  0.00000000000E+00  0.63336373143E+03  0.63336373145E+03  0.50400001928E-02 0.  1.
        1   -1    0    0  501    0  0.00000000000E+00  0.00000000000E+00 -0.88870090501E+03  0.88870090502E+03  0.50400001928E-02 0. -1.
    10030    2    1    2    0    0  0.00000000000E+00  0.00000000000E+00 -0.25533717358E+03  0.15220646365E+04  0.15004944803E+04 0.  0.
        3    1    3    3  502    0  0.63134806431E+03  0.32436979791E+03  0.11883666360E+03  0.71967930838E+03  0.10100000352E+00 0. -1.
       -3    1    3    3    0  502 -0.63134806431E+03 -0.32436979791E+03 -0.37417383718E+03  0.80238532809E+03  0.10100000352E+00 0.  1.
</event>
<event>
 5   0  0.1216921E-04  0.1503234E+04  0.7818609E-02  0.8882305E-01
       -2   -1    0    0    0  501  0.00000000000E+00  0.00000000000E+00  0.37715873365E+03  0.37715873366E+03  0.25500000920E-02 0.  1.
        2   -1    0    0  501    0  0.00000000000E+00  0.00000000000E+00 -0.14978517614E+04  0.14978517615E+04  0.25500000920E-02 0. -1.
    10030    2    1    2    0    0  0.00000000000E+00  0.00000000000E+00 -0.11206930278E+04  0.18750104951E+04  0.15032336792E+04 0.  0.
        4    1    3    3  502    0 -0.13103151702E+03  0.21593909882E+03  0.32263424568E+03  0.40974799846E+03  0.12699999809E+01 0.  1.
       -4    1    3    3    0  502  0.13103151702E+03 -0.21593909882E+03 -0.14433272735E+04  0.14652624967E+04  0.12699999809E+01 0. -1.
</event>
<event>
 5   0  0.1216921E-04  0.1500594E+04  0.7818609E-02  0.8884058E-01
       -2   -1    0    0    0  501  0.00000000000E+00  0.00000000000E+00  0.38752404202E+03  0.38752404203E+03  0.25500000920E-02 0. -1.
        2   -1    0    0  501    0  0.00000000000E+00  0.00000000000E+00 -0.14526732001E+04  0.14526732001E+04  0.25500000920E-02 0.  1.
    10030    2    1    2    0    0  0.00000000000E+00  0.00000000000E+00 -0.10651491581E+04  0.18401972422E+04  0.15005942693E+04 0.  0.
        4    1    3    3  502    0 -0.30458396043E+03 -0.60587685905E+02 -0.13701574941E+04  0.14049111816E+04  0.12699999809E+01 0.  1.
       -4    1    3    3    0  502  0.30458396043E+03  0.60587685905E+02  0.30500833597E+03  0.43528606059E+03  0.12699999809E+01 0. -1.
</event>
<event>
 5   0  0.1228286E-04  0.1499735E+04  0.7818609E-02  0.8884629E-01
        2   -1    0    0  501    0  0.00000000000E+00  0.00000000000E+00  0.14893902139E+04  0.14893902139E+04  0.25500000920E-02 0. -1.
       -2   -1    0    0    0  501  0.00000000000E+00  0.00000000000E+00 -0.37753774505E+03  0.37753774506E+03  0.25500000920E-02 0.  1.
    10030    2    1    2    0    0  0.00000000000E+00  0.00000000000E+00  0.11118524688E+04  0.18669279589E+04  0.14997346737E+04 0.  0.
        2    1    3    3  502    0 -0.62727903354E+03 -0.37582011774E+03  0.76266423161E+03  0.10565871838E+04  0.25500000920E-02 0.  1.
       -2    1    3    3    0  502  0.62727903354E+03  0.37582011774E+03  0.34918823722E+03  0.81034077513E+03  0.25500000920E-02 0. -1.
</event>
<event>
 5   0  0.4462875E-05  0.1500853E+04  0.7818609E-02  0.8883886E-01
        3   -1    0    0  501    0  0.00000000000E+00  0.00000000000E+00  0.10098057605E+04  0.10098057656E+04  0.10100000352E+00 0. -1.
       -3   -1    0    0    0  501  0.00000000000E+00  0.00000000000E+00 -0.55767120170E+03  0.55767121084E+03  0.10100000352E+00 0.  1.
    10030    2    1    2    0    0  0.00000000000E+00  0.00000000000E+00  0.45213455880E+03  0.15674769764E+04  0.15008525618E+04 0.  0.
        1    1    3    3  502    0 -0.68231558153E+03  0.15343356472E+03  0.51025525903E+03  0.86571175398E+03  0.50400001928E-02 0. -1.
       -1    1    3    3    0  502  0.68231558153E+03 -0.15343356472E+03 -0.58120700225E+02  0.70176522242E+03  0.50400001928E-02 0.  1.
</event>
<event>
 5   0  0.6542036E-05  0.1499707E+04  0.7818609E-02  0.8884648E-01
        1   -1    0    0  501    0  0.00000000000E+00  0.00000000000E+00  0.63977050547E+03  0.63977050549E+03  0.50400001928E-02 0. -1.
       -1   -1    0    0    0  501  0.00000000000E+00  0.00000000000E+00 -0.87887787240E+03  0.87887787242E+03  0.50400001928E-02 0.  1.
    10030    2    1    2    0    0  0.00000000000E+00  0.00000000000E+00 -0.23910736693E+03  0.15186483779E+04  0.14997068256E+04 0.  0.
        4    1    3    3  502    0  0.12209397480E+03  0.70161475703E+03 -0.35727025363E+03  0.79675206495E+03  0.12699999809E+01 0.  1.
       -4    1    3    3    0  502 -0.12209397480E+03 -0.70161475703E+03  0.11816288670E+03  0.72189631296E+03  0.12699999809E+01 0. -1.
</event>
<event>
 5   0  0.6361716E-05  0.1497793E+04  0.7818609E-02  0.8885922E-01
       -1   -1    0    0    0  501  0.00000000000E+00  0.00000000000E+00  0.46060082619E+03  0.46060082622E+03  0.50400001928E-02 0.  1.
        1   -1    0    0  501    0  0.00000000000E+00  0.00000000000E+00 -0.12176404031E+04  0.12176404031E+04  0.50400001928E-02 0. -1.
    10030    2    1    2    0    0  0.00000000000E+00  0.00000000000E+00 -0.75703957687E+03  0.16782412293E+04  0.14977932777E+04 0.  0.
        3    1    3    3  502    0 -0.58483763593E+03  0.37166314133E+02  0.14395099835E+03  0.60343872550E+03  0.10100000352E+00 0.  1.
       -3    1    3    3    0  502  0.58483763593E+03 -0.37166314133E+02 -0.90099057522E+03  0.10748025038E+04  0.10100000352E+00 0. -1.
</event>
<event>
 5   0  0.6542036E-05  0.1501171E+04  0.7818609E-02  0.8883675E-01
       -1   -1    0    0    0  501  0.00000000000E+00  0.00000000000E+00  0.65046972794E+03  0.65046972796E+03  0.50400001928E-02 0. -1.
        1   -1    0    0  501    0  0.00000000000E+00  0.00000000000E+00 -0.86611031795E+03  0.86611031796E+03  0.50400001928E-02 0.  1.
    10030    2    1    2    0    0  0.00000000000E+00  0.00000000000E+00 -0.21564059000E+03  0.15165800459E+04  0.15011709335E+04 0.  0.
        4    1    3    3  502    0  0.69712270898E+03  0.27640761124E+03 -0.13969876732E+03  0.76282278244E+03  0.12699999809E+01 0. -1.
       -4    1    3    3    0  502 -0.69712270898E+03 -0.27640761124E+03 -0.75941822682E+02  0.75375726348E+03  0.12699999809E+01 0.  1.
</event>
<event>
 5   0  0.6542036E-05  0.1518095E+04  0.7818609E-02  0.8872509E-01
       -1   -1    0    0    0  501  0.00000000000E+00  0.00000000000E+00  0.24336925266E+03  0.24336925272E+03  0.50400001928E-02 0.  1.
        1   -1    0    0  501    0  0.00000000000E+00  0.00000000000E+00 -0.23674020019E+04  0.23674020019E+04  0.50400001928E-02 0. -1.
    10030    2    1    2    0    0  0.00000000000E+00  0.00000000000E+00 -0.21240327492E+04  0.26107712546E+04  0.15180946690E+04 0.  0.
        4    1    3    3  502    0  0.16218397852E+03  0.57689383048E+03 -0.26081632658E+03  0.65355711583E+03  0.12699999809E+01 0.  1.
       -4    1    3    3    0  502 -0.16218397852E+03 -0.57689383048E+03 -0.18632164227E+04  0.19572141388E+04  0.12699999809E+01 0. -1.
</event>
<event>
 5   0  0.1186664E-04  0.1497668E+04  0.7818609E-02  0.8886005E-01
        2   -1    0    0  501    0  0.00000000000E+00  0.00000000000E+00  0.68360014389E+03  0.68360014389E+03  0.25500000920E-02 0. -1.
       -2   -1    0    0    0  501  0.00000000000E+00  0.00000000000E+00 -0.82029338952E+03  0.82029338953E+03  0.25500000920E-02 0.  1.
    10030    2    1    2    0    0  0.00000000000E+00  0.00000000000E+00 -0.13669324564E+03  0.15038935334E+04  0.14976684267E+04 0.  0.
        3    1    3    3  502    0  0.14220630352E+03  0.50432338322E+03  0.46884236115E+03  0.70312010172E+03  0.10100000352E+00 0. -1.
       -3    1    3    3    0  502 -0.14220630352E+03 -0.50432338322E+03 -0.60553560679E+03  0.80077343170E+03  0.10100000352E+00 0.  1.
</event>
<event>
 5   0  0.1228286E-04  0.1499994E+04  0.7818609E-02  0.8884457E-01
        2   -1    0    0  501    0  0.00000000000E+00  0.00000000000E+00  0.89523590020E+03  0.89523590020E+03  0.25500000920E-02 0. -1.
       -2   -1    0    0    0  501  0.00000000000E+00  0.00000000000E+00 -0.62832103722E+03  0.62832103722E+03  0.25500000920E-02 0.  1.
    10030    2    1    2    0    0  0.00000000000E+00  0.00000000000E+00  0.26691486298E+03  0.15235569374E+04  0.14999940658E+04 0.  0.
        2    1    3    3  502    0 -0.69669269467E+02 -0.17678273733E+02 -0.62481463053E+03  0.62893533134E+03  0.25500000920E-02 0.  1.
       -2    1    3    3    0  502  0.69669269467E+02  0.17678273733E+02  0.89172949351E+03  0.89462160609E+03  0.25500000920E-02 0. -1.
</event>
<event>
 5   0  0.1186664E-04  0.1496339E+04  0.7818609E-02  0.8886891E-01
       -2   -1    0    0    0  501  0.00000000000E+00  0.00000000000E+00  0.42563743529E+03  0.42563743530E+03  0.25500000920E-02 0. -1.
        2   -1    0    0  501    0  0.00000000000E+00  0.00000000000E+00 -0.13151048581E+04  0.13151048581E+04  0.25500000920E-02 0.  1.
    10030    2    1    2    0    0  0.00000000000E+00  0.00000000000E+00 -0.88946742285E+03  0.17407422934E+04  0.14963393452E+04 0.  0.
        3    1    3    3  502    0  0.58188314270E+02 -0.70711869758E+03 -0.72090025289E+03  0.10114840173E+04  0.10100000352E+00 0. -1.
       -3    1    3    3    0  502 -0.58188314270E+02  0.70711869758E+03 -0.16856716997E+03  0.72925827618E+03  0.10100000352E+00 0.  1.
</event>
<event>
 5   0  0.1254487E-04  0.1501039E+04  0.7818609E-02  0.8883762E-01
       -2   -1    0    0    0  501  0.00000000000E+00  0.00000000000E+00  0.45339904878E+03  0.45339904878E+03  0.25500000920E-02 0.  1.
        2   -1    0    0  501    0  0.00000000000E+00  0.00000000000E+00 -0.12423479429E+04  0.12423479429E+04  0.25500000920E-02 0. -1.
    10030    2    1    2    0    0  0.00000000000E+00  0.00000000000E+00 -0.78894889413E+03  0.16957469917E+04  0.15010388077E+04 0.  0.
        5    1    3    3  502    0 -0.20733028892E+03  0.50965108293E+03  0.18215348965E+03  0.57959646205E+03  0.46999998093E+01 0. -1.
       -5    1    3    3    0  502  0.20733028892E+03 -0.50965108293E+03 -0.97110238378E+03  0.11161505296E+04  0.46999998093E+01 0.  1.
</event>
<event>
 5   0  0.6364378E-05  0.1502273E+04  0.7818609E-02  0.8882943E-01
        1   -1    0    0  501    0  0.00000000000E+00  0.00000000000E+00  0.13408328735E+04  0.13408328735E+04  0.50400001928E-02 0. -1.
       -1   -1    0    0    0  501  0.00000000000E+00  0.00000000000E+00 -0.42078774658E+03  0.42078774661E+03  0.50400001928E-02 0.  1.
    10030    2    1    2    0    0  0.00000000000E+00  0.00000000000E+00  0.92004512689E+03  0.17616206201E+04  0.15022730024E+04 0.  0.
        5    1    3    3  502    0  0.46912740693E+03  0.55724011728E+03  0.24511665219E+03  0.76857096967E+03  0.46999998093E+01 0. -1.
       -5    1    3    3    0  502 -0.46912740693E+03 -0.55724011728E+03  0.67492847469E+03  0.99304965042E+03  0.46999998093E+01 0.  1.
</event>
<event>
 5   0  0.6509279E-05  0.1498378E+04  0.7818609E-02  0.8885532E-01
        1   -1    0    0  501    0  0.00000000000E+00  0.00000000000E+00  0.12400083836E+04  0.12400083836E+04  0.50400001928E-02 0.  1.
       -1   -1    0    0    0  501  0.00000000000E+00  0.00000000000E+00 -0.45264548397E+03  0.45264548400E+03  0.50400001928E-02 0. -1.
    10030    2    1    2    0    0  0.00000000000E+00  0.00000000000E+00  0.78736289959E+03  0.16926538676E+04  0.14983780497E+04 0.  0.
        2    1    3    3  502    0 -0.36948032599E+03 -0.31944522490E+03  0.10354255293E+04  0.11448436529E+04  0.25500000920E-02 0.  1.
       -2    1    3    3    0  502  0.36948032599E+03  0.31944522490E+03 -0.24806262968E+03  0.54781021463E+03  0.25500000920E-02 0. -1.
</event>
<event>
 5   0  0.6364378E-05  0.1500417E+04  0.7818609E-02  0.8884176E-01
       -1   -1    0    0    0  501  0.00000000000E+00  0.00000000000E+00  0.69866688680E+03  0.69866688682E+03  0.50400001928E-02 0.  1.
        1   -1    0    0  501    0  0.00000000000E+00  0.00000000000E+00 -0.80555216410E+03  0.80555216411E+03  0.50400001928E-02 0. -1.
    10030    2    1    2    0    0  0.00000000000E+00  0.00000000000E+00 -0.10688527730E+03  0.15042190509E+04  0.15004167723E+04 0.  0.
        5    1    3    3  502    0  0.61489886215E+03 -0.15419447725E+02  0.37712466786E+03  0.72151470889E+03  0.46999998093E+01 0.  1.
       -5    1    3    3    0  502 -0.61489886215E+03  0.15419447725E+02 -0.48400994516E+03  0.78270434204E+03  0.46999998093E+01 0. -1.
</event>
<event>
 5   0  0.1228286E-04  0.1519612E+04  0.7818609E-02  0.8871515E-01
        2   -1    0    0  501    0  0.00000000000E+00  0.00000000000E+00  0.10754399339E+04  0.10754399339E+04  0.25500000920E-02 0. -1.
       -2   -1    0    0    0  501  0.00000000000E+00  0.00000000000E+00 -0.53680867733E+03  0.53680867734E+03  0.25500000920E-02 0.  1.
    10030    2    1    2    0    0  0.00000000000E+00  0.00000000000E+00  0.53863125655E+03  0.16122486112E+04  0.15196124354E+04 0.  0.
        2    1    3    3  502    0 -0.53679437335E+03 -0.88607759673E+01  0.83975208836E+03  0.99669969525E+03  0.25500000920E-02 0. -1.
       -2    1    3    3    0  502  0.53679437335E+03  0.88607759673E+01 -0.30112083180E+03  0.61554891598E+03  0.25500000920E-02 0.  1.
</event>
<event>
 5   0  0.1219810E-04  0.1495778E+04  0.7818609E-02  0.8887265E-01
       -2   -1    0    0    0  501  0.00000000000E+00  0.00000000000E+00  0.62807710467E+03  0.62807710468E+03  0.25500000920E-02 0.  1.
        2   -1    0    0  501    0  0.00000000000E+00  0.00000000000E+00 -0.89055652140E+03  0.89055652141E+03  0.25500000920E-02 0. -1.
    10030    2    1    2    0    0  0.00000000000E+00  0.00000000000E+00 -0.26247941673E+03  0.15186336261E+04  0.14957782744E+04 0.  0.
        1    1    3    3  502    0 -0.26214502233E+03 -0.18851682466E+03 -0.81614331571E+03  0.87769500268E+03  0.50400001928E-02 0. -1.
       -1    1    3    3    0  502  0.26214502233E+03  0.18851682466E+03  0.55366389898E+03  0.64093862341E+03  0.50400001928E-02 0.  1.
</event>
<event>
 5   0  0.1219810E-04  0.1499246E+04  0.7818609E-02  0.8884954E-01
       -2   -1    0    0    0  501  0.00000000000E+00  0.00000000000E+00  0.94706075014E+03  0.94706075015E+03  0.25500000920E-02 0. -1.
        2   -1    0    0  501    0  0.00000000000E+00  0.00000000000E+00 -0.59334591736E+03  0.59334591736E+03  0.25500000920E-02 0.  1.
    10030    2    1    2    0    0  0.00000000000E+00  0.00000000000E+00  0.35371483279E+03  0.15404066675E+04  0.14992459833E+04 0.  0.
        1    1    3    3  502    0  0.67190034492E+03 -0.19389937803E+03 -0.10053161432E+03  0.70650806634E+03  0.50400001928E-02 0. -1.
       -1    1    3    3    0  502 -0.67190034492E+03  0.19389937803E+03  0.45424644710E+03  0.83389860117E+03  0.50400001928E-02 0.  1.
</event>
<event>
 5   0  0.1186664E-04  0.1499572E+04  0.7818609E-02  0.8884737E-01
       -2   -1    0    0    0  501  0.00000000000E+00  0.00000000000E+00  0.13248812197E+04  0.13248812197E+04  0.25500000920E-02 0. -1.
        2   -1    0    0  501    0  0.00000000000E+00  0.00000000000E+00 -0.42432419204E+03  0.42432419205E+03  0.25500000920E-02 0.  1.
    10030    2    1    2    0    0  0.00000000000E+00  0.00000000000E+00  0.90055702763E+03  0.17492054117E+04  0.14995721431E+04 0.  0.
        3    1    3    3  502    0  0.17572414819E+02 -0.51170881041E+03 -0.18864926396E+03  0.54565854837E+03  0.10100000352E+00 0.  1.
       -3    1    3    3    0  502 -0.17572414819E+02  0.51170881041E+03  0.10892062916E+04  0.12035468633E+04  0.10100000352E+00 0. -1.
</event>
<event>
 5   0  0.6542036E-05  0.1492152E+04  0.7818609E-02  0.8889689E-01
       -1   -1    0    0    0  501  0.00000000000E+00  0.00000000000E+00  0.32498026432E+03  0.32498026436E+03  0.50400001928E-02 0. -1.
        1   -1    0    0  501    0  0.00000000000E+00  0.00000000000E+00 -0.17128087802E+04  0.17128087802E+04  0.50400001928E-02 0.  1.
    10030    2    1    2    0    0  0.00000000000E+00  0.00000000000E+00 -0.13878285159E+04  0.20377890445E+04  0.14921515341E+04 0.  0.
        4    1    3    3  502    0  0.52490395916E+02 -0.44678719805E+03 -0.15067509579E+04  0.15724738802E+04  0.12699999809E+01 0.  1.
       -4    1    3    3    0  502 -0.52490395916E+02  0.44678719805E+03  0.11892244204E+03  0.46531516430E+03  0.12699999809E+01 0. -1.
</event>
<event>
 5   0  0.1186664E-04  0.1501290E+04  0.7818609E-02  0.8883595E-01
        2   -1    0    0  501    0  0.00000000000E+00  0.00000000000E+00  0.13839187658E+04  0.13839187658E+04  0.25500000920E-02 0.  1.
       -2   -1    0    0    0  501  0.00000000000E+00  0.00000000000E+00 -0.40715398555E+03  0.40715398556E+03  0.25500000920E-02 0. -1.
    10030    2    1    2    0    0  0.00000000000E+00  0.00000000000E+00  0.97676478028E+03  0.17910727514E+04  0.15012901668E+04 0.  0.
        3    1    3    3  502    0  0.14133849956E+03  0.12119336333E+03 -0.37917017827E+03  0.42241500572E+03  0.10100000352E+00 0. -1.
       -3    1    3    3    0  502 -0.14133849956E+03 -0.12119336333E+03  0.13559349585E+04  0.13686577457E+04  0.10100000352E+00 0.  1.
</event>
<event>
 5   0  0.6509279E-05  0.1501062E+04  0.7818609E-02  0.8883747E-01
        1   -1    0    0  501    0  0.00000000000E+00  0.00000000000E+00  0.62226344874E+03  0.62226344876E+03  0.50400001928E-02 0. -1.
       -1   -1    0    0    0  501  0.00000000000E+00  0.00000000000E+00 -0.90523887780E+03  0.90523887782E+03  0.50400001928E-02 0.  1.
    10030    2    1    2    0    0  0.00000000000E+00  0.00000000000E+00 -0.28297542906E+03  0.15275023266E+04  0.15010623785E+04 0.  0.
        2    1    3    3  502    0  0.18109517036E+03  0.72814415253E+03 -0.12363740285E+03  0.76044432734E+03  0.25500000920E-02 0.  1.
       -2    1    3    3    0  502 -0.18109517036E+03 -0.72814415253E+03 -0.15933802622E+03  0.76705799924E+03  0.25500000920E-02 0. -1.
</event>
<event>
 5   0  0.4462875E-05  0.1501484E+04  0.7818609E-02  0.8883466E-01
       -4   -1    0    0    0  501  0.00000000000E+00  0.00000000000E+00  0.98196690983E+03  0.98196773109E+03  0.12699999809E+01 0.  1.
        4   -1    0    0  501    0  0.00000000000E+00  0.00000000000E+00 -0.57396234397E+03  0.57396374902E+03  0.12699999809E+01 0. -1.
    10030    2    1    2    0    0  0.00000000000E+00  0.00000000000E+00  0.40800456587E+03  0.15559314801E+04  0.15014842806E+04 0.  0.
        1    1    3    3  502    0  0.13214454029E+03  0.58620874871E+01  0.96979743431E+03  0.97877658698E+03  0.50400001928E-02 0.  1.
       -1    1    3    3    0  502 -0.13214454029E+03 -0.58620874871E+01 -0.56179286845E+03  0.57715489313E+03  0.50400001928E-02 0. -1.
</event>
<event>
 5   0  0.1186664E-04  0.1494649E+04  0.7818609E-02  0.8888019E-01
        2   -1    0    0  501    0  0.00000000000E+00  0.00000000000E+00  0.76317812076E+03  0.76317812076E+03  0.25500000920E-02 0. -1.
       -2   -1    0    0    0  501  0.00000000000E+00  0.00000000000E+00 -0.73180032178E+03  0.73180032178E+03  0.25500000920E-02 0.  1.
    10030    2    1    2    0    0  0.00000000000E+00  0.00000000000E+00  0.31377798983E+02  0.14949784425E+04  0.14946491151E+04 0.  0.
        3    1    3    3  502    0  0.85901430508E+02  0.69972084210E+03  0.26374691392E+03  0.75269566057E+03  0.10100000352E+00 0. -1.
       -3    1    3    3    0  502 -0.85901430508E+02 -0.69972084210E+03 -0.23236911494E+03  0.74228278197E+03  0.10100000352E+00 0.  1.
</event>
<event>
 5   0  0.6509279E-05  0.1510134E+04  0.7818609E-02  0.8877742E-01
       -1   -1    0    0    0  501  0.00000000000E+00  0.00000000000E+00  0.44722246983E+03  0.44722246986E+03  0.50400001928E-02 0. -1.
        1   -1    0    0  501    0  0.00000000000E+00  0.00000000000E+00 -0.12748150782E+04  0.12748150782E+04  0.50400001928E-02 0.  1.
    10030    2    1    2    0    0  0.00000000000E+00  0.00000000000E+00 -0.82759260839E+03  0.17220375481E+04  0.15101336999E+04 0.  0.
        2    1    3    3  502    0 -0.51982129160E+03 -0.99202603783E+01  0.21058905217E+03  0.56094592936E+03  0.25500000920E-02 0. -1.
       -2    1    3    3    0  502  0.51982129160E+03  0.99202603783E+01 -0.10381816606E+04  0.11610916187E+04  0.25500000920E-02 0.  1.
</event>
<event>
 5   0  0.6509279E-05  0.1496637E+04  0.7818609E-02  0.8886692E-01
       -1   -1    0    0    0  501  0.00000000000E+00  0.00000000000E+00  0.36141265977E+03  0.36141265981E+03  0.50400001928E-02 0. -1.
        1   -1    0    0  501    0  0.00000000000E+00  0.00000000000E+00 -0.15494222747E+04  0.15494222747E+04  0.50400001928E-02 0.  1.
    10030    2    1    2    0    0  0.00000000000E+00  0.00000000000E+00 -0.11880096150E+04  0.19108349345E+04  0.14966373314E+04 0.  0.
        2    1    3    3  502    0  0.22046234231E+03 -0.50469396979E+03  0.52820033326E+02  0.55327172659E+03  0.25500000920E-02 0. -1.
       -2    1    3    3    0  502 -0.22046234231E+03  0.50469396979E+03 -0.12408296483E+04  0.13575632079E+04  0.25500000920E-02 0.  1.
</event>
<event>
 5   0  0.4462875E-05  0.1498618E+04  0.7818609E-02  0.8885372E-01
        3   -1    0    0  501    0  0.00000000000E+00  0.00000000000E+00  0.76464422673E+03  0.76464423340E+03  0.10100000352E+00 0.  1.
       -3   -1    0    0    0  501  0.00000000000E+00  0.00000000000E+00 -0.73428138844E+03  0.73428139538E+03  0.10100000352E+00 0. -1.
    10030    2    1    2    0    0  0.00000000000E+00  0.00000000000E+00  0.30362838292E+02  0.14989256288E+04  0.14986180763E+04 0.  0.
        2    1    3    3  502    0  0.17357622811E+03 -0.11974180684E+03 -0.70399133457E+03  0.73489496286E+03  0.25500000920E-02 0. -1.
       -2    1    3    3    0  502 -0.17357622811E+03  0.11974180684E+03  0.73435417287E+03  0.76403066593E+03  0.25500000920E-02 0.  1.
</event>
<event>
 5   0  0.1228286E-04  0.1499583E+04  0.7818609E-02  0.8884731E-01
       -2   -1    0    0    0  501  0.00000000000E+00  0.00000000000E+00  0.47172286173E+03  0.47172286174E+03  0.25500000920E-02 0. -1.
        2   -1    0    0  501    0  0.00000000000E+00  0.00000000000E+00 -0.11917737833E+04  0.11917737833E+04  0.25500000920E-02 0.  1.
    10030    2    1    2    0    0  0.00000000000E+00  0.00000000000E+00 -0.72005092159E+03  0.16634966451E+04  0.14995825281E+04 0.  0.
        2    1    3    3  502    0  0.24141844199E+03  0.58686407698E+03  0.82995822908E+02  0.63998485576E+03  0.25500000920E-02 0. -1.
       -2    1    3    3    0  502 -0.24141844199E+03 -0.58686407698E+03 -0.80304674450E+03  0.10235117893E+04  0.25500000920E-02 0.  1.
</event>
<event>
 5   0  0.1228286E-04  0.1504366E+04  0.7818609E-02  0.8881555E-01
       -2   -1    0    0    0  501  0.00000000000E+00  0.00000000000E+00  0.65016878681E+03  0.65016878682E+03  0.25500000920E-02 0.  1.
        2   -1    0    0  501    0  0.00000000000E+00  0.00000000000E+00 -0.87020315315E+03  0.87020315315E+03  0.25500000920E-02 0. -1.
    10030    2    1    2    0    0  0.00000000000E+00  0.00000000000E+00 -0.22003436634E+03  0.15203719400E+04  0.15043655518E+04 0.  0.
        2    1    3    3  502    0 -0.42147037757E+03  0.11669299799E+03  0.50847828279E+03  0.67067480870E+03  0.25500000920E-02 0.  1.
       -2    1    3    3    0  502  0.42147037757E+03 -0.11669299799E+03 -0.72851264913E+03  0.84969713127E+03  0.25500000920E-02 0. -1.
</event>
<event>
 5   0  0.6361716E-05  0.1497753E+04  0.7818609E-02  0.8885949E-01
       -1   -1    0    0    0  501  0.00000000000E+00  0.00000000000E+00  0.36364090288E+03  0.36364090292E+03  0.50400001928E-02 0. -1.
        1   -1    0    0  501    0  0.00000000000E+00  0.00000000000E+00 -0.15422239912E+04  0.15422239912E+04  0.50400001928E-02 0.  1.
    10030    2    1    2    0    0  0.00000000000E+00  0.00000000000E+00 -0.11785830883E+04  0.19058648941E+04  0.14977526159E+04 0.  0.
        3    1    3    3  502    0  0.48709793591E+03 -0.53867782118E+03 -0.82176804363E+03  0.10966954554E+04  0.10100000352E+00 0. -1.
       -3    1    3    3    0  502 -0.48709793591E+03  0.53867782118E+03 -0.35681504465E+03  0.80916943868E+03  0.10100000352E+00 0.  1.
</event>
<event>
 5   0  0.1216921E-04  0.1500976E+04  0.7818609E-02  0.8883804E-01
        2   -1    0    0  501    0  0.00000000000E+00  0.00000000000E+00  0.13797065167E+04  0.13797065167E+04  0.25500000920E-02 0. -1.
       -2   -1    0    0    0  501  0.00000000000E+00  0.00000000000E+00 -0.40822609685E+03  0.40822609686E+03  0.25500000920E-02 0.  1.
    10030    2    1    2    0    0  0.00000000000E+00  0.00000000000E+00  0.97148041987E+03  0.17879326136E+04  0.15009759574E+04 0.  0.
        4    1    3    3  502    0  0.10487268352E+03  0.74237912217E+03  0.52534676660E+03  0.91548668961E+03  0.12699999809E+01 0. -1.
       -4    1    3    3    0  502 -0.10487268352E+03 -0.74237912217E+03  0.44613365327E+03  0.87244592397E+03  0.12699999809E+01 0.  1.
</event>
<event>
 5   0  0.6668433E-05  0.1503993E+04  0.7818609E-02  0.8881802E-01
        1   -1    0    0  501    0  0.00000000000E+00  0.00000000000E+00  0.18292534870E+04  0.18292534870E+04  0.50400001928E-02 0.  1.
       -1   -1    0    0    0  501  0.00000000000E+00  0.00000000000E+00 -0.30914175070E+03  0.30914175074E+03  0.50400001928E-02 0. -1.
    10030    2    1    2    0    0  0.00000000000E+00  0.00000000000E+00  0.15201117363E+04  0.21383952377E+04  0.15039928530E+04 0.  0.
        1    1    3    3  502    0 -0.28607054018E+03 -0.97763830026E+00 -0.22875420630E+03  0.36628649533E+03  0.50400001928E-02 0. -1.
       -1    1    3    3    0  502  0.28607054018E+03  0.97763830026E+00  0.17488659426E+04  0.17721087424E+04  0.50400001928E-02 0.  1.
</event>
<event>
 5   0  0.1228286E-04  0.1499397E+04  0.7818609E-02  0.8884854E-01
        2   -1    0    0  501    0  0.00000000000E+00  0.00000000000E+00  0.18861336898E+04  0.18861336898E+04  0.25500000920E-02 0.  1.
       -2   -1    0    0    0  501  0.00000000000E+00  0.00000000000E+00 -0.29798926900E+03  0.29798926901E+03  0.25500000920E-02 0. -1.
    10030    2    1    2    0    0  0.00000000000E+00  0.00000000000E+00  0.15881444208E+04  0.21841229589E+04  0.14993966780E+04 0.  0.
        2    1    3    3  502    0 -0.56637614340E+03 -0.32253734364E+03  0.25444542533E+03  0.69968189081E+03  0.25500000920E-02 0. -1.
       -2    1    3    3    0  502  0.56637614340E+03  0.32253734364E+03  0.13336989955E+04  0.14844410680E+04  0.25500000920E-02 0.  1.
</event>
<event>
 5   0  0.6364378E-05  0.1498095E+04  0.7818609E-02  0.8885721E-01
       -1   -1    0    0    0  501  0.00000000000E+00  0.00000000000E+00  0.94889196333E+03  0.94889196334E+03  0.50400001928E-02 0. -1.
        1   -1    0    0  501    0  0.00000000000E+00  0.00000000000E+00 -0.59129162904E+03  0.59129162906E+03  0.50400001928E-02 0.  1.
    10030    2    1    2    0    0  0.00000000000E+00  0.00000000000E+00  0.35760033429E+03  0.15401835924E+04  0.14980946229E+04 0.  0.
        5    1    3    3  502    0  0.48586776068E+03  0.47307373676E+02  0.76286700527E+03  0.90570062725E+03  0.46999998093E+01 0. -1.
       -5    1    3    3    0  502 -0.48586776068E+03 -0.47307373676E+02 -0.40526667097E+03  0.63448296516E+03  0.46999998093E+01 0.  1.
</event>
<event>
 5   0  0.1219810E-04  0.1492860E+04  0.7818609E-02  0.8889215E-01
       -2   -1    0    0    0  501  0.00000000000E+00  0.00000000000E+00  0.36602132800E+03  0.36602132801E+03  0.25500000920E-02 0.  1.
        2   -1    0    0  501    0  0.00000000000E+00  0.00000000000E+00 -0.15222003414E+04  0.15222003414E+04  0.25500000920E-02 0. -1.
    10030    2    1    2    0    0  0.00000000000E+00  0.00000000000E+00 -0.11561790134E+04  0.18882216694E+04  0.14928600610E+04 0.  0.
        1    1    3    3  502    0  0.50537789202E+03  0.41310993317E+03 -0.12013685205E+03  0.66370135895E+03  0.50400001928E-02 0.  1.
       -1    1    3    3    0  502 -0.50537789202E+03 -0.41310993317E+03 -0.10360421614E+04  0.12245203105E+04  0.50400001928E-02 0. -1.
</event>
<event>
 5   0  0.4462875E-05  0.1498169E+04  0.7818609E-02  0.8885671E-01
       -4   -1    0    0    0  501  0.00000000000E+00  0.00000000000E+00  0.10357506874E+04  0.10357514660E+04  0.12699999809E+01 0. -1.
        4   -1    0    0  501    0  0.00000000000E+00  0.00000000000E+00 -0.54175776004E+03  0.54175924862E+03  0.12699999809E+01 0.  1.
    10030    2    1    2    0    0  0.00000000000E+00  0.00000000000E+00  0.49399292731E+03  0.15775107146E+04  0.14981692302E+04 0.  0.
        3    1    3    3  502    0 -0.19364591307E+01  0.15024626707E+03  0.10197206105E+04  0.10307316937E+04  0.10100000352E+00 0. -1.
       -3    1    3    3    0  502  0.19364591307E+01 -0.15024626707E+03 -0.52572768319E+03  0.54677902092E+03  0.10100000352E+00 0.  1.
</event>
<event>
 5   0  0.6668433E-05  0.1499877E+04  0.7818609E-02  0.8884535E-01
        1   -1    0    0  501    0  0.00000000000E+00  0.00000000000E+00  0.14128155225E+04  0.14128155225E+04  0.50400001928E-02 0. -1.
       -1   -1    0    0    0  501  0.00000000000E+00  0.00000000000E+00 -0.39807601990E+03  0.39807601993E+03  0.50400001928E-02 0.  1.
    10030    2    1    2    0    0  0.00000000000E+00  0.00000000000E+00  0.10147395026E+04  0.18108915424E+04  0.14998773017E+04 0.  0.
        1    1    3    3  502    0  0.46496222914E+03  0.41098168453E+03  0.10157702506E+04  0.11903297953E+04  0.50400001928E-02 0. -1.
       -1    1    3    3    0  502 -0.46496222914E+03 -0.41098168453E+03 -0.10307480054E+01  0.62056174714E+03  0.50400001928E-02 0.  1.
</event>
<event>
 5   0  0.6542036E-05  0.1499881E+04  0.7818609E-02  0.8884532E-01
        1   -1    0    0  501    0  0.00000000000E+00  0.00000000000E+00  0.12709035126E+04  0.12709035126E+04  0.50400001928E-02 0. -1.
       -1   -1    0    0    0  501  0.00000000000E+00  0.00000000000E+00 -0.44252849576E+03  0.44252849579E+03  0.50400001928E-02 0.  1.
    10030    2    1    2    0    0  0.00000000000E+00  0.00000000000E+00  0.82837501682E+03  0.17134320084E+04  0.14998813549E+04 0.  0.
        4    1    3    3  502    0 -0.84540344023E+02 -0.36872253785E+03  0.11539214084E+04  0.12143474006E+04  0.12699999809E+01 0. -1.
       -4    1    3    3    0  502  0.84540344023E+02  0.36872253785E+03 -0.32554639162E+03  0.49908460774E+03  0.12699999809E+01 0.  1.
</event>
<event>
 5   0  0.6542036E-05  0.1501405E+04  0.7818609E-02  0.8883519E-01
       -1   -1    0    0    0  501  0.00000000000E+00  0.00000000000E+00  0.49613119997E+03  0.49613120000E+03  0.50400001928E-02 0. -1.
        1   -1    0    0  501    0  0.00000000000E+00  0.00000000000E+00 -0.11358970360E+04  0.11358970360E+04  0.50400001928E-02 0.  1.
    10030    2    1    2    0    0  0.00000000000E+00  0.00000000000E+00 -0.63976583604E+03  0.16320282360E+04  0.15014046218E+04 0.  0.
        4    1    3    3  502    0 -0.17088545777E+03  0.62433151514E+03 -0.73317300667E+03  0.97802655950E+03  0.12699999809E+01 0.  1.
       -4    1    3    3    0  502  0.17088545777E+03 -0.62433151514E+03  0.93407170627E+02  0.65400167653E+03  0.12699999809E+01 0. -1.
</event>
<event>
 5   0  0.1228286E-04  0.1500449E+04  0.7818609E-02  0.8884155E-01
       -2   -1    0    0    0  501  0.00000000000E+00  0.00000000000E+00  0.11410080375E+04  0.11410080375E+04  0.25500000920E-02 0. -1.
        2   -1    0    0  501    0  0.00000000000E+00  0.00000000000E+00 -0.49328002206E+03  0.49328002207E+03  0.25500000920E-02 0.  1.
    10030    2    1    2    0    0  0.00000000000E+00  0.00000000000E+00  0.64772801539E+03  0.16342880595E+04  0.15004485595E+04 0.  0.
        2    1    3    3  502    0  0.30305222191E+03 -0.24395387353E+03 -0.37482368137E+03  0.54022859397E+03  0.25500000920E-02 0.  1.
       -2    1    3    3    0  502 -0.30305222191E+03  0.24395387353E+03  0.10225516968E+04  0.10940594656E+04  0.25500000920E-02 0. -1.
</event>
<event>
 5   0  0.1228286E-04  0.1498270E+04  0.7818609E-02  0.8885604E-01
       -2   -1    0    0    0  501  0.00000000000E+00  0.00000000000E+00  0.65085102851E+03  0.65085102852E+03  0.25500000920E-02 0.  1.
        2   -1    0    0  501    0  0.00000000000E+00  0.00000000000E+00 -0.86226124715E+03  0.86226124716E+03  0.25500000920E-02 0. -1.
    10030    2    1    2    0    0  0.00000000000E+00  0.00000000000E+00 -0.21141021864E+03  0.15131122757E+04  0.14982704957E+04 0.  0.
        2    1    3    3  502    0  0.15822226836E+03  0.30737678943E+02  0.63313239284E+03  0.65332665488E+03  0.25500000920E-02 0.  1.
       -2    1    3    3    0  502 -0.15822226836E+03 -0.30737678943E+02 -0.84454261148E+03  0.85978562079E+03  0.25500000920E-02 0. -1.
</event>
<event>
 5   0  0.1216921E-04  0.1500723E+04  0.7818609E-02  0.8883972E-01
        2   -1    0    0  501    0  0.00000000000E+00  0.00000000000E+00  0.12271919620E+04  0.12271919620E+04  0.25500000920E-02 0.  1.
       -2   -1    0    0    0  501  0.00000000000E+00  0.00000000000E+00 -0.45880536537E+03  0.45880536538E+03  0.25500000920E-02 0. -1.
    10030    2    1    2    0    0  0.00000000000E+00  0.00000000000E+00  0.76838659667E+03  0.16859973274E+04  0.15007228346E+04 0.  0.
        4    1    3    3  502    0 -0.27565079514E+02  0.18406162865E+03  0.12008483816E+04  0.12151859797E+04  0.12699999809E+01 0.  1.
       -4    1    3    3    0  502  0.27565079514E+02 -0.18406162865E+03 -0.43246178497E+03  0.47081134769E+03  0.12699999809E+01 0. -1.
</event>
<event>
 5   0  0.1254487E-04  0.1499989E+04  0.7818609E-02  0.8884461E-01
        2   -1    0    0  501    0  0.00000000000E+00  0.00000000000E+00  0.79577732573E+03  0.79577732573E+03  0.25500000920E-02 0.  1.
       -2   -1    0    0    0  501  0.00000000000E+00  0.00000000000E+00 -0.70684526300E+03  0.70684526300E+03  0.25500000920E-02 0. -1.
    10030    2    1    2    0    0  0.00000000000E+00  0.00000000000E+00  0.88932062726E+02  0.15026225887E+04  0.14999885774E+04 0.  0.
        5    1    3    3  502    0 -0.61808131207E+03  0.41538258666E+03 -0.44584058410E+02  0.74604090363E+03  0.46999998093E+01 0. -1.
       -5    1    3    3    0  502  0.61808131207E+03 -0.41538258666E+03  0.13351612114E+03  0.75658168510E+03  0.46999998093E+01 0.  1.
</event>
<event>
 5   0  0.1228286E-04  0.1486873E+04  0.7818609E-02  0.8893229E-01
        2   -1    0    0  501    0  0.00000000000E+00  0.00000000000E+00  0.42477303541E+03  0.42477303542E+03  0.25500000920E-02 0.  1.
       -2   -1    0    0    0  501  0.00000000000E+00  0.00000000000E+00 -0.13011610263E+04  0.13011610263E+04  0.25500000920E-02 0. -1.
    10030    2    1    2    0    0  0.00000000000E+00  0.00000000000E+00 -0.87638799088E+03  0.17259340617E+04  0.14868733890E+04 0.  0.
        2    1    3    3  502    0 -0.47654944163E+03 -0.65388073331E+02  0.21979892000E+03  0.52885398334E+03  0.25500000920E-02 0.  1.
       -2    1    3    3    0  502  0.47654944163E+03  0.65388073331E+02 -0.10961869109E+04  0.11970800784E+04  0.25500000920E-02 0. -1.
</event>
<event>
 5   0  0.1219810E-04  0.1501440E+04  0.7818609E-02  0.8883496E-01
        2   -1    0    0  501    0  0.00000000000E+00  0.00000000000E+00  0.82096532652E+03  0.82096532653E+03  0.25500000920E-02 0.  1.
       -2   -1    0    0    0  501  0.00000000000E+00  0.00000000000E+00 -0.68648532188E+03  0.68648532189E+03  0.25500000920E-02 0. -1.
    10030    2    1    2    0    0  0.00000000000E+00  0.00000000000E+00  0.13448000464E+03  0.15074506484E+04  0.15014401706E+04 0.  0.
        1    1    3    3  502    0  0.33694521548E+03  0.41615049179E+03 -0.46104822545E+03  0.70659661496E+03  0.50400001928E-02 0. -1.
       -1    1    3    3    0  502 -0.33694521548E+03 -0.41615049179E+03  0.59552823009E+03  0.80085403346E+03  0.50400001928E-02 0.  1.
</event>
<event>
 5   0  0.1216921E-04  0.1500328E+04  0.7818609E-02  0.8884235E-01
        2   -1    0    0  501    0  0.00000000000E+00  0.00000000000E+00  0.18499913453E+04  0.18499913453E+04  0.25500000920E-02 0.  1.
       -2   -1    0    0    0  501  0.00000000000E+00  0.00000000000E+00 -0.30418834321E+03  0.30418834322E+03  0.25500000920E-02 0. -1.
    10030    2    1    2    0    0  0.00000000000E+00  0.00000000000E+00  0.15458030021E+04  0.21541796885E+04  0.15003277006E+04 0.  0.
        4    1    3    3  502    0 -0.65013836249E+03 -0.12245314138E+03  0.12806767794E+04  0.14414608175E+04  0.12699999809E+01 0.  1.
       -4    1    3    3    0  502  0.65013836249E+03  0.12245314138E+03  0.26512622267E+03  0.71271887099E+03  0.12699999809E+01 0. -1.
</event>
<event>
 5   0  0.1216921E-04  0.1499100E+04  0.7818609E-02  0.8885052E-01
        2   -1    0    0  501    0  0.00000000000E+00  0.00000000000E+00  0.16199789729E+04  0.16199789729E+04  0.25500000920E-02 0. -1.
       -2   -1    0    0    0  501  0.00000000000E+00  0.00000000000E+00 -0.34681011909E+03  0.34681011910E+03  0.25500000920E-02 0.  1.
    10030    2    1    2    0    0  0.00000000000E+00  0.00000000000E+00  0.12731688538E+04  0.19667890920E+04  0.14990998640E+04 0.  0.
        4    1    3    3  502    0 -0.38206343331E+03  0.63483336448E+03  0.48793286296E+03  0.88716737958E+03  0.12699999809E+01 0.  1.
       -4    1    3    3    0  502  0.38206343331E+03 -0.63483336448E+03  0.78523599088E+03  0.10796217124E+04  0.12699999809E+01 0. -1.
</event>
<event>
 5   0  0.1254487E-04  0.1500219E+04  0.7818609E-02  0.8884307E-01
       -2   -1    0    0    0  501  0.00000000000E+00  0.00000000000E+00  0.85860446522E+03  0.85860446523E+03  0.25500000920E-02 0.  1.
        2   -1    0    0  501    0  0.00000000000E+00  0.00000000000E+00 -0.65532433032E+03  0.65532433032E+03  0.25500000920E-02 0. -1.
    10030    2    1    2    0    0  0.00000000000E+00  0.00000000000E+00  0.20328013490E+03  0.15139287955E+04  0.15002191789E+04 0.  0.
        5    1    3    3  502    0  0.16391564018E+03  0.69399640348E+03 -0.13317271674E+03  0.72543532283E+03  0.46999998093E+01 0. -1.
       -5    1    3    3    0  502 -0.16391564018E+03 -0.69399640348E+03  0.33645285165E+03  0.78849347271E+03  0.46999998093E+01 0.  1.
</event>
<event>
 5   0  0.6542036E-05  0.1499387E+04  0.7818609E-02  0.8884861E-01
       -1   -1    0    0    0  501  0.00000000000E+00  0.00000000000E+00  0.29599144316E+03  0.29599144321E+03  0.50400001928E-02 0. -1.
        1   -1    0    0  501    0  0.00000000000E+00  0.00000000000E+00 -0.18988387512E+04  0.18988387513E+04  0.50400001928E-02 0.  1.
    10030    2    1    2    0    0  0.00000000000E+00  0.00000000000E+00 -0.16028473081E+04  0.21948301945E+04  0.14993865711E+04 0.  0.
        4    1    3    3  502    0  0.20257901450E+03  0.33027936280E+03  0.13806486940E+03  0.41132254457E+03  0.12699999809E+01 0. -1.
       -4    1    3    3    0  502 -0.20257901450E+03 -0.33027936280E+03 -0.17409121775E+04  0.17835076499E+04  0.12699999809E+01 0.  1.
</event>
<event>
 5   0  0.1254487E-04  0.1503936E+04  0.7818609E-02  0.8881840E-01
        2   -1    0    0  501    0  0.00000000000E+00  0.00000000000E+00  0.10929277334E+04  0.10929277334E+04  0.25500000920E-02 0.  1.
       -2   -1    0    0    0  501  0.00000000000E+00  0.00000000000E+00 -0.51737715894E+03  0.51737715894E+03  0.25500000920E-02 0. -1.
    10030    2    1    2    0    0  0.00000000000E+00  0.00000000000E+00  0.57555057443E+03  0.16103048923E+04  0.15039359636E+04 0.  0.
        5    1    3    3  502    0  0.32065673932E+03 -0.55251186418E+02 -0.43807997235E+03  0.54571933285E+03  0.46999998093E+01 0. -1.
       -5    1    3    3    0  502 -0.32065673932E+03  0.55251186418E+02  0.10136305468E+04  0.10645855595E+04  0.46999998093E+01 0.  1.
</event>
<event>
 5   0  0.1186664E-04  0.1496502E+04  0.7818609E-02  0.8886783E-01
       -2   -1    0    0    0  501  0.00000000000E+00  0.00000000000E+00  0.69772674100E+03  0.69772674101E+03  0.25500000920E-02 0.  1.
        2   -1    0    0  501    0  0.00000000000E+00  0.00000000000E+00 -0.80243334136E+03  0.80243334137E+03  0.25500000920E-02 0. -1.
    10030    2    1    2    0    0  0.00000000000E+00  0.00000000000E+00 -0.10470660036E+03  0.15001600824E+04  0.14965015204E+04 0.  0.
        3    1    3    3  502    0 -0.56784069882E+02  0.23840573639E+03  0.65635277587E+03  0.70061451764E+03  0.10100000352E+00 0.  1.
       -3    1    3    3    0  502  0.56784069882E+02 -0.23840573639E+03 -0.76105937623E+03  0.79954556473E+03  0.10100000352E+00 0. -1.
</event>
<event>
 5   0  0.4462875E-05  0.1500297E+04  0.7818609E-02  0.8884255E-01
       -4   -1    0    0    0  501  0.00000000000E+00  0.00000000000E+00  0.59239024904E+03  0.59239161038E+03  0.12699999809E+01 0.  1.
        4   -1    0    0  501    0  0.00000000000E+00  0.00000000000E+00 -0.94991640796E+03  0.94991725693E+03  0.12699999809E+01 0. -1.
    10030    2    1    2    0    0  0.00000000000E+00  0.00000000000E+00 -0.35752615892E+03  0.15423088673E+04  0.15002971998E+04 0.  0.
        5    1    3    3  502    0  0.55407443201E+03 -0.23157269777E+03  0.28335387177E+03  0.66403004240E+03  0.46999998093E+01 0.  1.
       -5    1    3    3    0  502 -0.55407443201E+03  0.23157269777E+03 -0.64088003069E+03  0.87827882492E+03  0.46999998093E+01 0. -1.
</event>
<event>
 5   0  0.6668433E-05  0.1501833E+04  0.7818609E-02  0.8883235E-01
        1   -1    0    0  501    0  0.00000000000E+00  0.00000000000E+00  0.72290325995E+03  0.72290325997E+03  0.50400001928E-02 0. -1.
       -1   -1    0    0    0  501  0.00000000000E+00  0.00000000000E+00 -0.78001577410E+03  0.78001577411E+03  0.50400001928E-02 0.  1.
    10030    2    1    2    0    0  0.00000000000E+00  0.00000000000E+00 -0.57112514144E+02  0.15029190341E+04  0.15018334740E+04 0.  0.
        1    1    3    3  502    0 -0.18987001832E+03 -0.72514042775E+03 -0.73272804783E+02  0.75315879319E+03  0.50400001928E-02 0. -1.
       -1    1    3    3    0  502  0.18987001832E+03  0.72514042775E+03  0.16160290639E+02  0.74976024090E+03  0.50400001928E-02 0.  1.
</event>
<event>
 5   0  0.6364378E-05  0.1491305E+04  0.7818609E-02  0.8890255E-01
       -1   -1    0    0    0  501  0.00000000000E+00  0.00000000000E+00  0.60671970458E+03  0.60671970460E+03  0.50400001928E-02 0. -1.
        1   -1    0    0  501    0  0.00000000000E+00  0.00000000000E+00 -0.91639992118E+03  0.91639992119E+03  0.50400001928E-02 0.  1.
    10030    2    1    2    0    0  0.00000000000E+00  0.00000000000E+00 -0.30968021660E+03  0.15231196258E+04  0.14913053202E+04 0.  0.
        5    1    3    3  502    0 -0.73775634857E+03  0.10413061395E+03 -0.18458502166E+03  0.76760753959E+03  0.46999998093E+01 0. -1.
       -5    1    3    3    0  502  0.73775634857E+03 -0.10413061395E+03 -0.12509519494E+03  0.75551208621E+03  0.46999998093E+01 0.  1.
</event>
<event>
 5   0  0.6364378E-05  0.1496807E+04  0.7818609E-02  0.8886579E-01
        1   -1    0    0  501    0  0.00000000000E+00  0.00000000000E+00  0.22664103818E+04  0.22664103818E+04  0.50400001928E-02 0. -1.
       -1   -1    0    0    0  501  0.00000000000E+00  0.00000000000E+00 -0.24713430605E+03  0.24713430610E+03  0.50400001928E-02 0.  1.
    10030    2    1    2    0    0  0.00000000000E+00  0.00000000000E+00  0.20192760757E+04  0.25135446879E+04  0.14968069441E+04 0.  0.
        5    1    3    3  502    0  0.72083546045E+03 -0.20046887785E+03  0.98083792717E+03  0.12336355464E+04  0.46999998093E+01 0.  1.
       -5    1    3    3    0  502 -0.72083546045E+03  0.20046887785E+03  0.10384381486E+04  0.12799091415E+04  0.46999998093E+01 0. -1.
</event>
<event>
 5   0  0.1219810E-04  0.1496983E+04  0.7818609E-02  0.8886462E-01
        2   -1    0    0  501    0  0.00000000000E+00  0.00000000000E+00  0.82465636844E+03  0.82465636844E+03  0.25500000920E-02 0. -1.
       -2   -1    0    0    0  501  0.00000000000E+00  0.00000000000E+00 -0.67936106958E+03  0.67936106958E+03  0.25500000920E-02 0.  1.
    10030    2    1    2    0    0  0.00000000000E+00  0.00000000000E+00  0.14529529886E+03  0.15040174380E+04  0.14969828757E+04 0.  0.
        1    1    3    3  502    0  0.17681334531E+03  0.67118316007E+03  0.35412419024E+03  0.77920070302E+03  0.50400001928E-02 0. -1.
       -1    1    3    3    0  502 -0.17681334531E+03 -0.67118316007E+03 -0.20882889138E+03  0.72481673501E+03  0.50400001928E-02 0.  1.
</event>
<event>
 5   0  0.1219810E-04  0.1496766E+04  0.7818609E-02  0.8886606E-01
        2   -1    0    0  501    0  0.00000000000E+00  0.00000000000E+00  0.13027958674E+04  0.13027958674E+04  0.25500000920E-02 0.  1.
       -2   -1    0    0    0  501  0.00000000000E+00  0.00000000000E+00 -0.42990413198E+03  0.42990413199E+03  0.25500000920E-02 0. -1.
    10030    2    1    2    0    0  0.00000000000E+00  0.00000000000E+00  0.87289173545E+03  0.17326999994E+04  0.14967662831E+04 0.  0.
        1    1    3    3  502    0 -0.31231322145E+03  0.22944210253E+03 -0.30470260374E+03  0.49297758920E+03  0.50400001928E-02 0. -1.
       -1    1    3    3    0  502  0.31231322145E+03 -0.22944210253E+03  0.11775943392E+04  0.12397224102E+04  0.50400001928E-02 0.  1.
</event>
<event>
 5   0  0.6542036E-05  0.1518112E+04  0.7818609E-02  0.8872497E-01
        1   -1    0    0  501    0  0.00000000000E+00  0.00000000000E+00  0.82513592823E+03  0.82513592824E+03  0.50400001928E-02 0.  1.
       -1   -1    0    0    0  501  0.00000000000E+00  0.00000000000E+00 -0.69826794584E+03  0.69826794586E+03  0.50400001928E-02 0. -1.
    10030    2    1    2    0    0  0.00000000000E+00  0.00000000000E+00  0.12686798239E+03  0.15234038741E+04  0.15181119454E+04 0.  0.
        4    1    3    3  502    0  0.75077848413E+03 -0.55593974771E+02  0.16075315779E+03  0.76980660747E+03  0.12699999809E+01 0. -1.
       -4    1    3    3    0  502 -0.75077848413E+03  0.55593974771E+02 -0.33885175404E+02  0.75359726663E+03  0.12699999809E+01 0.  1.
</event>
<event>
 5   0  0.1228286E-04  0.1500275E+04  0.7818609E-02  0.8884270E-01
        2   -1    0    0  501    0  0.00000000000E+00  0.00000000000E+00  0.10342097768E+04  0.10342097768E+04  0.25500000920E-02 0. -1.
       -2   -1    0    0    0  501  0.00000000000E+00  0.00000000000E+00 -0.54409312717E+03  0.54409312717E+03  0.25500000920E-02 0.  1.
    10030    2    1    2    0    0  0.00000000000E+00  0.00000000000E+00  0.49011664962E+03  0.15783029040E+04  0.15002752169E+04 0.  0.
        2    1    3    3  502    0  0.32105114093E+03  0.26223447319E+03  0.90276642181E+03  0.99339215135E+03  0.25500000920E-02 0. -1.
       -2    1    3    3    0  502 -0.32105114093E+03 -0.26223447319E+03 -0.41264977219E+03  0.58491075261E+03  0.25500000920E-02 0.  1.
</event>
<event>
 5   0  0.4462875E-05  0.1498744E+04  0.7818609E-02  0.8885289E-01
       -3   -1    0    0    0  501  0.00000000000E+00  0.00000000000E+00  0.20534337955E+04  0.20534337980E+04  0.10100000352E+00 0.  1.
        3   -1    0    0  501    0  0.00000000000E+00  0.00000000000E+00 -0.27347283699E+03  0.27347285564E+03  0.10100000352E+00 0. -1.
    10030    2    1    2    0    0  0.00000000000E+00  0.00000000000E+00  0.17799609586E+04  0.23269066537E+04  0.14987439945E+04 0.  0.
        5    1    3    3  502    0  0.63684062293E+03  0.27746396024E+03  0.45364425879E+03  0.82967911375E+03  0.46999998093E+01 0. -1.
       -5    1    3    3    0  502 -0.63684062293E+03 -0.27746396024E+03  0.13263166998E+04  0.14972275399E+04  0.46999998093E+01 0.  1.
</event>
<event>
 5   0  0.1254487E-04  0.1500903E+04  0.7818609E-02  0.8883853E-01
        2   -1    0    0  501    0  0.00000000000E+00  0.00000000000E+00  0.11784564637E+04  0.11784564637E+04  0.25500000920E-02 0. -1.
       -2   -1    0    0    0  501  0.00000000000E+00  0.00000000000E+00 -0.47789386060E+03  0.47789386061E+03  0.25500000920E-02 0.  1.
    10030    2    1    2    0    0  0.00000000000E+00  0.00000000000E+00  0.70056260308E+03  0.16563503243E+04  0.15009025405E+04 0.  0.
        5    1    3    3  502    0 -0.11189056201E+03  0.35681968024E+03  0.10682932225E+04  0.11318623067E+04  0.46999998093E+01 0. -1.
       -5    1    3    3    0  502  0.11189056201E+03 -0.35681968024E+03 -0.36773061946E+03  0.52448801756E+03  0.46999998093E+01 0.  1.
</event>
<event>
 5   0  0.1254487E-04  0.1499690E+04  0.7818609E-02  0.8884659E-01
        2   -1    0    0  501    0  0.00000000000E+00  0.00000000000E+00  0.73750586026E+03  0.73750586027E+03  0.25500000920E-02 0.  1.
       -2   -1    0    0    0  501  0.00000000000E+00  0.00000000000E+00 -0.76239050195E+03  0.76239050195E+03  0.25500000920E-02 0. -1.
    10030    2    1    2    0    0  0.00000000000E+00  0.00000000000E+00 -0.24884641685E+02  0.14998963622E+04  0.14996899186E+04 0.  0.
        5    1    3    3  502    0  0.50062206743E+03  0.21720054181E+03  0.50187242176E+03  0.74141523283E+03  0.46999998093E+01 0.  1.
       -5    1    3    3    0  502 -0.50062206743E+03 -0.21720054181E+03 -0.52675706344E+03  0.75848112939E+03  0.46999998093E+01 0. -1.
</event>
<event>
 5   0  0.6668433E-05  0.1500474E+04  0.7818609E-02  0.8884138E-01
       -1   -1    0    0    0  501  0.00000000000E+00  0.00000000000E+00  0.43536884772E+03  0.43536884775E+03  0.50400001928E-02 0. -1.
        1   -1    0    0  501    0  0.00000000000E+00  0.00000000000E+00 -0.12928244628E+04  0.12928244628E+04  0.50400001928E-02 0.  1.
    10030    2    1    2    0    0  0.00000000000E+00  0.00000000000E+00 -0.85745561510E+03  0.17281933106E+04  0.15004739207E+04 0.  0.
        1    1    3    3  502    0  0.54599793542E+03 -0.50320217814E+03 -0.55239818845E+03  0.92545660957E+03  0.50400001928E-02 0.  1.
       -1    1    3    3    0  502 -0.54599793542E+03  0.50320217814E+03 -0.30505742665E+03  0.80273670101E+03  0.50400001928E-02 0. -1.
</event>
<event>
 5   0  0.6542036E-05  0.1499743E+04  0.7818609E-02  0.8884624E-01
       -1   -1    0    0    0  501  0.00000000000E+00  0.00000000000E+00  0.45616461199E+03  0.45616461201E+03  0.50400001928E-02 0. -1.
        1   -1    0    0  501    0  0.00000000000E+00  0.00000000000E+00 -0.12326849236E+04  0.12326849236E+04  0.50400001928E-02 0.  1.
    10030    2    1    2    0    0  0.00000000000E+00  0.00000000000E+00 -0.77652031157E+03  0.16888495356E+04  0.14997429645E+04 0.  0.
        4    1    3    3  502    0  0.11260320045E+03 -0.51200603576E+01 -0.12230890276E+04  0.12282728028E+04  0.12699999809E+01 0.  1.
       -4    1    3    3    0  502 -0.11260320045E+03  0.51200603576E+01  0.44656871601E+03  0.46057673279E+03  0.12699999809E+01 0. -1.
</event>
<event>
 5   0  0.1186664E-04  0.1503210E+04  0.7818609E-02  0.8882321E-01
        2   -1    0    0  501    0  0.00000000000E+00  0.00000000000E+00  0.58270700577E+03  0.58270700577E+03  0.25500000920E-02 0. -1.
       -2   -1    0    0    0  501  0.00000000000E+00  0.00000000000E+00 -0.96945788317E+03  0.96945788318E+03  0.25500000920E-02 0.  1.
    10030    2    1    2    0    0  0.00000000000E+00  0.00000000000E+00 -0.38675087741E+03  0.15521648889E+04  0.15032097662E+04 0.  0.
        3    1    3    3  502    0 -0.52012143243E+03 -0.11545034719E+02 -0.75348981797E+03  0.91564540532E+03  0.10100000352E+00 0.  1.
       -3    1    3    3    0  502  0.52012143243E+03  0.11545034719E+02  0.36673894056E+03  0.63651948362E+03  0.10100000352E+00 0. -1.
</event>
<event>
 5   0  0.1219810E-04  0.1492726E+04  0.7818609E-02  0.8889305E-01
       -2   -1    0    0    0  501  0.00000000000E+00  0.00000000000E+00  0.10843522543E+04  0.10843522543E+04  0.25500000920E-02 0.  1.
        2   -1    0    0  501    0  0.00000000000E+00  0.00000000000E+00 -0.51372382258E+03  0.51372382259E+03  0.25500000920E-02 0. -1.
    10030    2    1    2    0    0  0.00000000000E+00  0.00000000000E+00  0.57062843173E+03  0.15980760769E+04  0.14927258089E+04 0.  0.
        1    1    3    3  502    0 -0.20803217100E+03 -0.26414844110E+03 -0.42805067482E+03  0.54431531610E+03  0.50400001928E-02 0. -1.
       -1    1    3    3    0  502  0.20803217100E+03  0.26414844110E+03  0.99867910655E+03  0.10537607608E+04  0.50400001928E-02 0.  1.
</event>
<event>
 5   0  0.1254487E-04  0.1454169E+04  0.7818609E-02  0.8915516E-01
       -2   -1    0    0    0  501  0.00000000000E+00  0.00000000000E+00  0.64980325978E+03  0.64980325978E+03  0.25500000920E-02 0.  1.
        2   -1    0    0  501    0  0.00000000000E+00  0.00000000000E+00 -0.81355643196E+03  0.81355643196E+03  0.25500000920E-02 0. -1.
    10030    2    1    2    0    0  0.00000000000E+00  0.00000000000E+00 -0.16375317218E+03  0.14633596917E+04  0.14541686580E+04 0.  0.
        5    1    3    3  502    0 -0.23767434853E+03  0.37585417383E+02  0.60855590235E+03  0.65441892992E+03  0.46999998093E+01 0.  1.
       -5    1    3    3    0  502  0.23767434853E+03 -0.37585417383E+02 -0.77230907453E+03  0.80894076183E+03  0.46999998093E+01 0. -1.
</event>
<event>
 5   0  0.6509279E-05  0.1505858E+04  0.7818609E-02  0.8880567E-01
        1   -1    0    0  501    0  0.00000000000E+00  0.00000000000E+00  0.23270179394E+04  0.23270179394E+04  0.50400001928E-02 0.  1.
       -1   -1    0    0    0  501  0.00000000000E+00  0.00000000000E+00 -0.24361746074E+03  0.24361746079E+03  0.50400001928E-02 0. -1.
    10030    2    1    2    0    0  0.00000000000E+00  0.00000000000E+00  0.20834004786E+04  0.25706354002E+04  0.15058581627E+04 0.  0.
        2    1    3    3  502    0  0.33395435190E+03  0.40609922606E+02 -0.10818362633E+03  0.35338134074E+03  0.25500000920E-02 0. -1.
       -2    1    3    3    0  502 -0.33395435190E+03 -0.40609922606E+02  0.21915841049E+04  0.22172540594E+04  0.25500000920E-02 0.  1.
</event>
<event>
 5   0  0.1186664E-04  0.1500490E+04  0.7818609E-02  0.8884127E-01
       -2   -1    0    0    0  501  0.00000000000E+00  0.00000000000E+00  0.17500162181E+04  0.17500162181E+04  0.25500000920E-02 0.  1.
        2   -1    0    0  501    0  0.00000000000E+00  0.00000000000E+00 -0.32163545166E+03  0.32163545167E+03  0.25500000920E-02 0. -1.
    10030    2    1    2    0    0  0.00000000000E+00  0.00000000000E+00  0.14283807664E+04  0.20716516698E+04  0.15004895957E+04 0.  0.
        3    1    3    3  502    0  0.55105341356E+03  0.42358767496E+03  0.11041621018E+04  0.13047069940E+04  0.10100000352E+00 0. -1.
       -3    1    3    3    0  502 -0.55105341356E+03 -0.42358767496E+03  0.32421866465E+03  0.76694467577E+03  0.10100000352E+00 0.  1.
</event>
<event>
 5   0  0.1216921E-04  0.1496560E+04  0.7818609E-02  0.8886744E-01
       -2   -1    0    0    0  501  0.00000000000E+00  0.00000000000E+00  0.73519472525E+03  0.73519472526E+03  0.25500000920E-02 0.  1.
        2   -1    0    0  501    0  0.00000000000E+00  0.00000000000E+00 -0.76159774586E+03  0.76159774587E+03  0.25500000920E-02 0. -1.
    10030    2    1    2    0    0  0.00000000000E+00  0.00000000000E+00 -0.26403020611E+02  0.14967924711E+04  0.14965595819E+04 0.  0.
        4    1    3    3  502    0 -0.32837453393E+03 -0.35596945321E+03 -0.58370849742E+03  0.75845982690E+03  0.12699999809E+01 0. -1.
       -4    1    3    3    0  502  0.32837453393E+03  0.35596945321E+03  0.55730547681E+03  0.73833264423E+03  0.12699999809E+01 0.  1.
</event>
<event>
 5   0  0.4462875E-05  0.1500102E+04  0.7818609E-02  0.8884385E-01
        3   -1    0    0  501    0  0.00000000000E+00  0.00000000000E+00  0.10141592644E+04  0.10141592694E+04  0.10100000352E+00 0. -1.
       -3   -1    0    0    0  501  0.00000000000E+00  0.00000000000E+00 -0.55472173330E+03  0.55472174250E+03  0.10100000352E+00 0.  1.
    10030    2    1    2    0    0  0.00000000000E+00  0.00000000000E+00  0.45943753107E+03  0.15688810119E+04  0.15001015914E+04 0.  0.
        1    1    3    3  502    0  0.50638509775E+02  0.21307015077E+03  0.97997520539E+03  0.10041486698E+04  0.50400001928E-02 0. -1.
       -1    1    3    3    0  502 -0.50638509775E+02 -0.21307015077E+03 -0.52053767432E+03  0.56473234212E+03  0.50400001928E-02 0.  1.
</event>
<event>
 5   0  0.1186664E-04  0.1496863E+04  0.7818609E-02  0.8886542E-01
       -2   -1    0    0    0  501  0.00000000000E+00  0.00000000000E+00  0.47112997946E+03  0.47112997947E+03  0.25500000920E-02 0. -1.
        2   -1    0    0  501    0  0.00000000000E+00  0.00000000000E+00 -0.11889486699E+04  0.11889486699E+04  0.25500000920E-02 0.  1.
    10030    2    1    2    0    0  0.00000000000E+00  0.00000000000E+00 -0.71781869039E+03  0.16600786493E+04  0.14968625353E+04 0.  0.
        3    1    3    3  502    0 -0.26740874368E+03 -0.51536790255E+03  0.16485510949E+03  0.60356335915E+03  0.10100000352E+00 0. -1.
       -3    1    3    3    0  502  0.26740874368E+03  0.51536790255E+03 -0.88267379988E+03  0.10565152902E+04  0.10100000352E+00 0.  1.
</event>
<event>
 5   0  0.1216921E-04  0.1498877E+04  0.7818609E-02  0.8885200E-01
        2   -1    0    0  501    0  0.00000000000E+00  0.00000000000E+00  0.10787393741E+04  0.10787393741E+04  0.25500000920E-02 0.  1.
       -2   -1    0    0    0  501  0.00000000000E+00  0.00000000000E+00 -0.52066158682E+03  0.52066158682E+03  0.25500000920E-02 0. -1.
    10030    2    1    2    0    0  0.00000000000E+00  0.00000000000E+00  0.55807778727E+03  0.15994009609E+04  0.14988771188E+04 0.  0.
        4    1    3    3  502    0 -0.51311027245E+03 -0.43494622150E+03  0.63164922581E+03  0.92273654130E+03  0.12699999809E+01 0.  1.
       -4    1    3    3    0  502  0.51311027245E+03  0.43494622150E+03 -0.73571438536E+02  0.67666441961E+03  0.12699999809E+01 0. -1.
</event>
<event>
 5   0  0.1219810E-04  0.1498123E+04  0.7818609E-02  0.8885702E-01
       -2   -1    0    0    0  501  0.00000000000E+00  0.00000000000E+00  0.44775352679E+03  0.44775352680E+03  0.25500000920E-02 0. -1.
        2   -1    0    0  501    0  0.00000000000E+00  0.00000000000E+00 -0.12531297974E+04  0.12531297974E+04  0.25500000920E-02 0.  1.
    10030    2    1    2    0    0  0.00000000000E+00  0.00000000000E+00 -0.80537627063E+03  0.17008833242E+04  0.14981232077E+04 0.  0.
        1    1    3    3  502    0  0.20041047557E+03 -0.71937535273E+03 -0.46916174534E+03  0.88191722976E+03  0.50400001928E-02 0.  1.
       -1    1    3    3    0  502 -0.20041047557E+03  0.71937535273E+03 -0.33621452530E+03  0.81896609446E+03  0.50400001928E-02 0. -1.
</event>
<event>
 5   0  0.6542036E-05  0.1496449E+04  0.7818609E-02  0.8886818E-01
        1   -1    0    0  501    0  0.00000000000E+00  0.00000000000E+00  0.15586730010E+04  0.15586730011E+04  0.50400001928E-02 0.  1.
       -1   -1    0    0    0  501  0.00000000000E+00  0.00000000000E+00 -0.35917717855E+03  0.35917717858E+03  0.50400001928E-02 0. -1.
    10030    2    1    2    0    0  0.00000000000E+00  0.00000000000E+00  0.11994958225E+04  0.19178501796E+04  0.14964488242E+04 0.  0.
        4    1    3    3  502    0 -0.45930657027E+03  0.40228553462E+03  0.11540191647E+04  0.13055872327E+04  0.12699999809E+01 0.  1.
       -4    1    3    3    0  502  0.45930657027E+03 -0.40228553462E+03  0.45476657797E+02  0.61226294691E+03  0.12699999809E+01 0. -1.
</event>
<event>
 5   0  0.1186664E-04  0.1501748E+04  0.7818609E-02  0.8883291E-01
       -2   -1    0    0    0  501  0.00000000000E+00  0.00000000000E+00  0.30991295606E+03  0.30991295607E+03  0.25500000920E-02 0. -1.
        2   -1    0    0  501    0  0.00000000000E+00  0.00000000000E+00 -0.18192581634E+04  0.18192581634E+04  0.25500000920E-02 0.  1.
    10030    2    1    2    0    0  0.00000000000E+00  0.00000000000E+00 -0.15093452073E+04  0.21291711194E+04  0.15017478820E+04 0.  0.
        3    1    3    3  502    0 -0.14545834403E+03 -0.60943261969E+03 -0.16796324249E+03  0.64867396188E+03  0.10100000352E+00 0. -1.
       -3    1    3    3    0  502  0.14545834403E+03  0.60943261969E+03 -0.13413819648E+04  0.14804971576E+04  0.10100000352E+00 0.  1.
</event>
<event>
 5   0  0.1254487E-04  0.1498309E+04  0.7818609E-02  0.8885578E-01
        2   -1    0    0  501    0  0.00000000000E+00  0.00000000000E+00  0.66417491608E+03  0.66417491608E+03  0.25500000920E-02 0. -1.
       -2   -1    0    0    0  501  0.00000000000E+00  0.00000000000E+00 -0.84500666122E+03  0.84500666122E+03  0.25500000920E-02 0.  1.
    10030    2    1    2    0    0  0.00000000000E+00  0.00000000000E+00 -0.18083174514E+03  0.15091815773E+04  0.14983086842E+04 0.  0.
        5    1    3    3  502    0  0.37632843132E+03 -0.54455139599E+03 -0.44374746212E+03  0.79692735631E+03  0.46999998093E+01 0.  1.
       -5    1    3    3    0  502 -0.37632843132E+03  0.54455139599E+03  0.26291571698E+03  0.71225422100E+03  0.46999998093E+01 0. -1.
</event>
<event>
 5   0  0.6361716E-05  0.1498896E+04  0.7818609E-02  0.8885187E-01
        1   -1    0    0  501    0  0.00000000000E+00  0.00000000000E+00  0.19358404131E+04  0.19358404132E+04  0.50400001928E-02 0.  1.
       -1   -1    0    0    0  501  0.00000000000E+00  0.00000000000E+00 -0.29014408311E+03  0.29014408316E+03  0.50400001928E-02 0. -1.
    10030    2    1    2    0    0  0.00000000000E+00  0.00000000000E+00  0.16456963300E+04  0.22259844963E+04  0.14988964498E+04 0.  0.
        3    1    3    3  502    0  0.57040429727E+03 -0.48611888341E+03  0.82287917437E+03  0.11130151737E+04  0.10100000352E+00 0.  1.
       -3    1    3    3    0  502 -0.57040429727E+03  0.48611888341E+03  0.82281715566E+03  0.11129693226E+04  0.10100000352E+00 0. -1.
</event>
<event>
 5   0  0.6542036E-05  0.1503055E+04  0.7818609E-02  0.8882424E-01
        1   -1    0    0  501    0  0.00000000000E+00  0.00000000000E+00  0.19350277813E+04  0.19350277813E+04  0.50400001928E-02 0. -1.
       -1   -1    0    0    0  501  0.00000000000E+00  0.00000000000E+00 -0.29187872481E+03  0.29187872485E+03  0.50400001928E-02 0.  1.
    10030    2    1    2    0    0  0.00000000000E+00  0.00000000000E+00  0.16431490565E+04  0.22269065062E+04  0.15030548112E+04 0.  0.
        4    1    3    3  502    0  0.44625027518E+03  0.22335438960E+03 -0.10973684677E+02  0.49914779986E+03  0.12699999809E+01 0.  1.
       -4    1    3    3    0  502 -0.44625027518E+03 -0.22335438960E+03  0.16541227412E+04  0.17277587063E+04  0.12699999809E+01 0. -1.
</event>
<event>
 5   0  0.1216921E-04  0.1498605E+04  0.7818609E-02  0.8885381E-01
        2   -1    0    0  501    0  0.00000000000E+00  0.00000000000E+00  0.11704907602E+04  0.11704907602E+04  0.25500000920E-02 0.  1.
       -2   -1    0    0    0  501  0.00000000000E+00  0.00000000000E+00 -0.47967439023E+03  0.47967439024E+03  0.25500000920E-02 0. -1.
    10030    2    1    2    0    0  0.00000000000E+00  0.00000000000E+00  0.69081636995E+03  0.16501651504E+04  0.14986052738E+04 0.  0.
        4    1    3    3  502    0 -0.18360263221E+03 -0.28981065181E+03 -0.38810960801E+03  0.51800658411E+03  0.12699999809E+01 0. -1.
       -4    1    3    3    0  502  0.18360263221E+03  0.28981065181E+03  0.10789259780E+04  0.11321585663E+04  0.12699999809E+01 0.  1.
</event>
<event>
 5   0  0.6361716E-05  0.1516366E+04  0.7818609E-02  0.8873642E-01
       -1   -1    0    0    0  501  0.00000000000E+00  0.00000000000E+00  0.31894013994E+03  0.31894013998E+03  0.50400001928E-02 0.  1.
        1   -1    0    0  501    0  0.00000000000E+00  0.00000000000E+00 -0.18023491732E+04  0.18023491732E+04  0.50400001928E-02 0. -1.
    10030    2    1    2    0    0  0.00000000000E+00  0.00000000000E+00 -0.14834090333E+04  0.21212893132E+04  0.15163660476E+04 0.  0.
        3    1    3    3  502    0 -0.41019399515E+03  0.48881034058E+03 -0.13144919989E+04  0.14611926252E+04  0.10100000352E+00 0. -1.
       -3    1    3    3    0  502  0.41019399515E+03 -0.48881034058E+03 -0.16891703436E+03  0.66009668793E+03  0.10100000352E+00 0.  1.
</event>
<event>
 5   0  0.1254487E-04  0.1496779E+04  0.7818609E-02  0.8886598E-01
        2   -1    0    0  501    0  0.00000000000E+00  0.00000000000E+00  0.45699346951E+03  0.45699346951E+03  0.25500000920E-02 0. -1.
       -2   -1    0    0    0  501  0.00000000000E+00  0.00000000000E+00 -0.12255898443E+04  0.12255898443E+04  0.25500000920E-02 0.  1.
    10030    2    1    2    0    0  0.00000000000E+00  0.00000000000E+00 -0.76859637481E+03  0.16825833138E+04  0.14967786144E+04 0.  0.
        5    1    3    3  502    0  0.68545321695E+03 -0.27506988887E+02 -0.48067285568E+02  0.68770291624E+03  0.46999998093E+01 0. -1.
       -5    1    3    3    0  502 -0.68545321695E+03  0.27506988887E+02 -0.72052908924E+03  0.99488039759E+03  0.46999998093E+01 0.  1.
</event>
<event>
 5   0  0.1228286E-04  0.1500647E+04  0.7818609E-02  0.8884023E-01
        2   -1    0    0  501    0  0.00000000000E+00  0.00000000000E+00  0.61077307351E+03  0.61077307352E+03  0.25500000920E-02 0. -1.
       -2   -1    0    0    0  501  0.00000000000E+00  0.00000000000E+00 -0.92175913750E+03  0.92175913750E+03  0.25500000920E-02 0.  1.
    10030    2    1    2    0    0  0.00000000000E+00  0.00000000000E+00 -0.31098606399E+03  0.15325322110E+04  0.15006474089E+04 0.  0.
        2    1    3    3  502    0 -0.79392474676E+02  0.26290503083E+03  0.55760052989E+03  0.62156300663E+03  0.25500000920E-02 0. -1.
       -2    1    3    3    0  502  0.79392474676E+02 -0.26290503083E+03 -0.86858659388E+03  0.91096920439E+03  0.25500000920E-02 0.  1.
</event>
<event>
 5   0  0.1254487E-04  0.1485889E+04  0.7818609E-02  0.8893891E-01
        2   -1    0    0  501    0  0.00000000000E+00  0.00000000000E+00  0.17753534192E+04  0.17753534192E+04  0.25500000920E-02 0. -1.
       -2   -1    0    0    0  501  0.00000000000E+00  0.00000000000E+00 -0.31090501550E+03  0.31090501551E+03  0.25500000920E-02 0.  1.
    10030    2    1    2    0    0  0.00000000000E+00  0.00000000000E+00  0.14644484037E+04  0.20862584347E+04  0.14858886665E+04 0.  0.
        5    1    3    3  502    0  0.25699623748E+03 -0.10562728171E+03  0.16996323695E+04  0.17222010539E+04  0.46999998093E+01 0. -1.
       -5    1    3    3    0  502 -0.25699623748E+03  0.10562728171E+03 -0.23518396581E+03  0.36405738077E+03  0.46999998093E+01 0.  1.
</event>
<event>
 5   0  0.6364378E-05  0.1492416E+04  0.7818609E-02  0.8889512E-01
        1   -1    0    0  501    0  0.00000000000E+00  0.00000000000E+00  0.72643010557E+03  0.72643010559E+03  0.50400001928E-02 0.  1.
       -1   -1    0    0    0  501  0.00000000000E+00  0.00000000000E+00 -0.76652433061E+03  0.76652433062E+03  0.50400001928E-02 0. -1.
    10030    2    1    2    0    0  0.00000000000E+00  0.00000000000E+00 -0.40094225035E+02  0.14929544362E+04  0.14924159614E+04 0.  0.
        5    1    3    3  502    0  0.13663335636E+02  0.70230572387E+03  0.23180600180E+03  0.73971354522E+03  0.46999998093E+01 0. -1.
       -5    1    3    3    0  502 -0.13663335636E+02 -0.70230572387E+03 -0.27190022683E+03  0.75324089099E+03  0.46999998093E+01 0.  1.
</event>
<event>
 5   0  0.6542036E-05  0.1499067E+04  0.7818609E-02  0.8885074E-01
        1   -1    0    0  501    0  0.00000000000E+00  0.00000000000E+00  0.75888711567E+03  0.75888711568E+03  0.50400001928E-02 0. -1.
       -1   -1    0    0    0  501  0.00000000000E+00  0.00000000000E+00 -0.74029482036E+03  0.74029482038E+03  0.50400001928E-02 0.  1.
    10030    2    1    2    0    0  0.00000000000E+00  0.00000000000E+00  0.18592295308E+02  0.14991819361E+04  0.14990666443E+04 0.  0.
        4    1    3    3  502    0  0.42054508027E+03  0.45662863197E+03 -0.41077272206E+03  0.74438143056E+03  0.12699999809E+01 0.  1.
       -4    1    3    3    0  502 -0.42054508027E+03 -0.45662863197E+03  0.42936501737E+03  0.75480050550E+03  0.12699999809E+01 0. -1.
</event>
<event>
 5   0  0.1186664E-04  0.1498770E+04  0.7818609E-02  0.8885271E-01
       -2   -1    0    0    0  501  0.00000000000E+00  0.00000000000E+00  0.10924827267E+04  0.10924827267E+04  0.25500000920E-02 0.  1.
        2   -1    0    0  501    0  0.00000000000E+00  0.00000000000E+00 -0.51403815933E+03  0.51403815934E+03  0.25500000920E-02 0. -1.
    10030    2    1    2    0    0  0.00000000000E+00  0.00000000000E+00  0.57844456739E+03  0.16065208861E+04  0.14987699089E+04 0.  0.
        3    1    3    3  502    0 -0.73756240865E+03  0.33446363889E+02  0.15169865394E+03  0.75374362865E+03  0.10100000352E+00 0. -1.
       -3    1    3    3    0  502  0.73756240865E+03 -0.33446363889E+02  0.42674591345E+03  0.85277725741E+03  0.10100000352E+00 0.  1.
</event>
<event>
 5   0  0.6509279E-05  0.1505172E+04  0.7818609E-02  0.8881021E-01
        1   -1    0    0  501    0  0.00000000000E+00  0.00000000000E+00  0.11163629642E+04  0.11163629642E+04  0.50400001928E-02 0.  1.
       -1   -1    0    0    0  501  0.00000000000E+00  0.00000000000E+00 -0.50734885703E+03  0.50734885705E+03  0.50400001928E-02 0. -1.
    10030    2    1    2    0    0  0.00000000000E+00  0.00000000000E+00  0.60901410718E+03  0.16237118213E+04  0.15051717164E+04 0.  0.
        2    1    3    3  502    0  0.36235211213E+03  0.38867500057E+03  0.87941188974E+03  0.10274884822E+04  0.25500000920E-02 0. -1.
       -2    1    3    3    0  502 -0.36235211213E+03 -0.38867500057E+03 -0.27039778256E+03  0.59622333907E+03  0.25500000920E-02 0.  1.
</event>
<event>
 5   0  0.1216921E-04  0.1500403E+04  0.7818609E-02  0.8884185E-01
        2   -1    0    0  501    0  0.00000000000E+00  0.00000000000E+00  0.12478136955E+04  0.12478136955E+04  0.25500000920E-02 0.  1.
       -2   -1    0    0    0  501  0.00000000000E+00  0.00000000000E+00 -0.45103090521E+03  0.45103090522E+03  0.25500000920E-02 0. -1.
    10030    2    1    2    0    0  0.00000000000E+00  0.00000000000E+00  0.79678279032E+03  0.16988446008E+04  0.15004033333E+04 0.  0.
        4    1    3    3  502    0  0.47644280751E+03  0.45484552626E+03 -0.81489361362E+01  0.65874898076E+03  0.12699999809E+01 0. -1.
       -4    1    3    3    0  502 -0.47644280751E+03 -0.45484552626E+03  0.80493172645E+03  0.10400956200E+04  0.12699999809E+01 0.  1.
</event>
<event>
 5   0  0.6542036E-05  0.1501002E+04  0.7818609E-02  0.8883787E-01
       -1   -1    0    0    0  501  0.00000000000E+00  0.00000000000E+00  0.62276272746E+03  0.62276272748E+03  0.50400001928E-02 0.  1.
        1   -1    0    0  501    0  0.00000000000E+00  0.00000000000E+00 -0.90443999290E+03  0.90443999291E+03  0.50400001928E-02 0. -1.
    10030    2    1    2    0    0  0.00000000000E+00  0.00000000000E+00 -0.28167726544E+03  0.15272027204E+04  0.15010016880E+04 0.  0.
        4    1    3    3  502    0 -0.38064514626E+03 -0.53959107555E+03  0.22203897500E+03  0.69667221525E+03  0.12699999809E+01 0.  1.
       -4    1    3    3    0  502  0.38064514626E+03  0.53959107555E+03 -0.50371624044E+03  0.83053050514E+03  0.12699999809E+01 0. -1.
</event>
<event>
 5   0  0.6668433E-05  0.1502507E+04  0.7818609E-02  0.8882787E-01
        1   -1    0    0  501    0  0.00000000000E+00  0.00000000000E+00  0.94531713889E+03  0.94531713890E+03  0.50400001928E-02 0.  1.
       -1   -1    0    0    0  501  0.00000000000E+00  0.00000000000E+00 -0.59702942468E+03  0.59702942470E+03  0.50400001928E-02 0. -1.
    10030    2    1    2    0    0  0.00000000000E+00  0.00000000000E+00  0.34828771421E+03  0.15423465636E+04  0.15025074344E+04 0.  0.
        1    1    3    3  502    0  0.64753980051E+03  0.25259636360E+03 -0.11849295109E+03  0.70509098394E+03  0.50400001928E-02 0. -1.
       -1    1    3    3    0  502 -0.64753980051E+03 -0.25259636360E+03  0.46678066530E+03  0.83725557966E+03  0.50400001928E-02 0.  1.
</event>
<event>
 5   0  0.6364378E-05  0.1500968E+04  0.7818609E-02  0.8883810E-01
        1   -1    0    0  501    0  0.00000000000E+00  0.00000000000E+00  0.10309835942E+04  0.10309835942E+04  0.50400001928E-02 0.  1.
       -1   -1    0    0    0  501  0.00000000000E+00  0.00000000000E+00 -0.54629956855E+03  0.54629956858E+03  0.50400001928E-02 0. -1.
    10030    2    1    2    0    0  0.00000000000E+00  0.00000000000E+00  0.48468402560E+03  0.15772831627E+04  0.15009675449E+04 0.  0.
        5    1    3    3  502    0  0.30886560904E+03  0.42086003589E+03 -0.32422062943E+03  0.61454230188E+03  0.46999998093E+01 0. -1.
       -5    1    3    3    0  502 -0.30886560904E+03 -0.42086003589E+03  0.80890465502E+03  0.96274086086E+03  0.46999998093E+01 0.  1.
</event>
<event>
 5   0  0.6361716E-05  0.1501559E+04  0.7818609E-02  0.8883417E-01
        1   -1    0    0  501    0  0.00000000000E+00  0.00000000000E+00  0.66138852804E+03  0.66138852805E+03  0.50400001928E-02 0.  1.
       -1   -1    0    0    0  501  0.00000000000E+00  0.00000000000E+00 -0.85225204715E+03  0.85225204716E+03  0.50400001928E-02 0. -1.
    10030    2    1    2    0    0  0.00000000000E+00  0.00000000000E+00 -0.19086351911E+03  0.15136405752E+04  0.15015588260E+04 0.  0.
        3    1    3    3  502    0  0.21305987054E+03  0.36198529181E+03  0.53186285202E+03  0.67772115467E+03  0.10100000352E+00 0.  1.
       -3    1    3    3    0  502 -0.21305987054E+03 -0.36198529181E+03 -0.72272637113E+03  0.83591942055E+03  0.10100000352E+00 0. -1.
</event>
<event>
 5   0  0.1228286E-04  0.1488798E+04  0.7818609E-02  0.8891936E-01
       -2   -1    0    0    0  501  0.00000000000E+00  0.00000000000E+00  0.29997567679E+03  0.29997567680E+03  0.25500000920E-02 0.  1.
        2   -1    0    0  501    0  0.00000000000E+00  0.00000000000E+00 -0.18472498350E+04  0.18472498350E+04  0.25500000920E-02 0. -1.
    10030    2    1    2    0    0  0.00000000000E+00  0.00000000000E+00 -0.15472741582E+04  0.21472255118E+04  0.14887981992E+04 0.  0.
        2    1    3    3  502    0 -0.42879349722E+03  0.30186979686E+03 -0.15356344433E+04  0.16227021849E+04  0.25500000920E-02 0. -1.
       -2    1    3    3    0  502  0.42879349722E+03 -0.30186979686E+03 -0.11639714954E+02  0.52452332692E+03  0.25500000920E-02 0.  1.
</event>
<event>
 5   0  0.6542036E-05  0.1501504E+04  0.7818609E-02  0.8883453E-01
        1   -1    0    0  501    0  0.00000000000E+00  0.00000000000E+00  0.92954152880E+03  0.92954152882E+03  0.50400001928E-02 0. -1.
       -1   -1    0    0    0  501  0.00000000000E+00  0.00000000000E+00 -0.60635135379E+03  0.60635135381E+03  0.50400001928E-02 0.  1.
    10030    2    1    2    0    0  0.00000000000E+00  0.00000000000E+00  0.32319017502E+03  0.15358928826E+04  0.15015042650E+04 0.  0.
        4    1    3    3  502    0  0.19541925964E+03 -0.24040283945E+03  0.86110275162E+03  0.91514030291E+03  0.12699999809E+01 0. -1.
       -4    1    3    3    0  502 -0.19541925964E+03  0.24040283945E+03 -0.53791257660E+03  0.62075257972E+03  0.12699999809E+01 0.  1.
</event>
<event>
 5   0  0.1254487E-04  0.1498917E+04  0.7818609E-02  0.8885173E-01
       -2   -1    0    0    0  501  0.00000000000E+00  0.00000000000E+00  0.46806612837E+03  0.46806612838E+03  0.25500000920E-02 0.  1.
        2   -1    0    0  501    0  0.00000000000E+00  0.00000000000E+00 -0.12000191325E+04  0.12000191325E+04  0.25500000920E-02 0. -1.
    10030    2    1    2    0    0  0.00000000000E+00  0.00000000000E+00 -0.73195300409E+03  0.16680852608E+04  0.14989173550E+04 0.  0.
        5    1    3    3  502    0  0.85166430668E+02  0.40553819319E+03 -0.10609143267E+04  0.11389801779E+04  0.46999998093E+01 0. -1.
       -5    1    3    3    0  502 -0.85166430668E+02 -0.40553819319E+03  0.32896132259E+03  0.52910508296E+03  0.46999998093E+01 0.  1.
</event>
<event>
 5   0  0.1216921E-04  0.1498472E+04  0.7818609E-02  0.8885470E-01
       -2   -1    0    0    0  501  0.00000000000E+00  0.00000000000E+00  0.60387655076E+03  0.60387655076E+03  0.25500000920E-02 0.  1.
        2   -1    0    0  501    0  0.00000000000E+00  0.00000000000E+00 -0.92958467900E+03  0.92958467901E+03  0.25500000920E-02 0. -1.
    10030    2    1    2    0    0  0.00000000000E+00  0.00000000000E+00 -0.32570812825E+03  0.15334612298E+04  0.14984717409E+04 0.  0.
        4    1    3    3  502    0 -0.54060349309E+03 -0.51616107391E+03 -0.10989249962E+03  0.75548154532E+03  0.12699999809E+01 0.  1.
       -4    1    3    3    0  502  0.54060349309E+03  0.51616107391E+03 -0.21581562862E+03  0.77797968445E+03  0.12699999809E+01 0. -1.
</event>
<event>
 5   0  0.6668433E-05  0.1500561E+04  0.7818609E-02  0.8884080E-01
        1   -1    0    0  501    0  0.00000000000E+00  0.00000000000E+00  0.15462733567E+04  0.15462733567E+04  0.50400001928E-02 0. -1.
       -1   -1    0    0    0  501  0.00000000000E+00  0.00000000000E+00 -0.36405018955E+03  0.36405018958E+03  0.50400001928E-02 0.  1.
    10030    2    1    2    0    0  0.00000000000E+00  0.00000000000E+00  0.11822231672E+04  0.19103235463E+04  0.15005613732E+04 0.  0.
        1    1    3    3  502    0 -0.64471196938E+02 -0.47581276982E+03 -0.14283080627E+03  0.50095405618E+03  0.50400001928E-02 0.  1.
       -1    1    3    3    0  502  0.64471196938E+02  0.47581276982E+03  0.13250539735E+04  0.14093694901E+04  0.50400001928E-02 0. -1.
</event>
<event>
 5   0  0.1254487E-04  0.1503410E+04  0.7818609E-02  0.8882188E-01
       -2   -1    0    0    0  501  0.00000000000E+00  0.00000000000E+00  0.54697639577E+03  0.54697639578E+03  0.25500000920E-02 0. -1.
        2   -1    0    0  501    0  0.00000000000E+00  0.00000000000E+00 -0.10330617485E+04  0.10330617485E+04  0.25500000920E-02 0.  1.
    10030    2    1    2    0    0  0.00000000000E+00  0.00000000000E+00 -0.48608535275E+03  0.15800381443E+04  0.15034099798E+04 0.  0.
        5    1    3    3  502    0 -0.59064123673E+03 -0.34070083732E+03 -0.57556149502E+03  0.89231567040E+03  0.46999998093E+01 0.  1.
       -5    1    3    3    0  502  0.59064123673E+03  0.34070083732E+03  0.89476142274E+02  0.68772247391E+03  0.46999998093E+01 0. -1.
</event>
<event>
 5   0  0.1219810E-04  0.1499131E+04  0.7818609E-02  0.8885031E-01
       -2   -1    0    0    0  501  0.00000000000E+00  0.00000000000E+00  0.57035026122E+03  0.57035026123E+03  0.25500000920E-02 0.  1.
        2   -1    0    0  501    0  0.00000000000E+00  0.00000000000E+00 -0.98509394671E+03  0.98509394671E+03  0.25500000920E-02 0. -1.
    10030    2    1    2    0    0  0.00000000000E+00  0.00000000000E+00 -0.41474368549E+03  0.15554442079E+04  0.14991312015E+04 0.  0.
        1    1    3    3  502    0  0.36641973386E+03  0.29636856588E+03  0.39740487745E+03  0.61646442301E+03  0.50400001928E-02 0.  1.
       -1    1    3    3    0  502 -0.36641973386E+03 -0.29636856588E+03 -0.81214856293E+03  0.93897978493E+03  0.50400001928E-02 0. -1.
</event>
<event>
 5   0  0.1186664E-04  0.1499417E+04  0.7818609E-02  0.8884841E-01
       -2   -1    0    0    0  501  0.00000000000E+00  0.00000000000E+00  0.93131740153E+03  0.93131740154E+03  0.25500000920E-02 0. -1.
        2   -1    0    0  501    0  0.00000000000E+00  0.00000000000E+00 -0.60351334765E+03  0.60351334765E+03  0.25500000920E-02 0.  1.
    10030    2    1    2    0    0  0.00000000000E+00  0.00000000000E+00  0.32780405389E+03  0.15348307492E+04  0.14994165302E+04 0.  0.
        3    1    3    3  502    0 -0.32297965022E+03 -0.67655381754E+03  0.16865387141E+03  0.76843025775E+03  0.10100000352E+00 0.  1.
       -3    1    3    3    0  502  0.32297965022E+03  0.67655381754E+03  0.15915018248E+03  0.76640049144E+03  0.10100000352E+00 0. -1.
</event>
<event>
 5   0  0.6668433E-05  0.1500113E+04  0.7818609E-02  0.8884378E-01
       -1   -1    0    0    0  501  0.00000000000E+00  0.00000000000E+00  0.39933970544E+03  0.39933970547E+03  0.50400001928E-02 0. -1.
        1   -1    0    0  501    0  0.00000000000E+00  0.00000000000E+00 -0.14087870019E+04  0.14087870019E+04  0.50400001928E-02 0.  1.
    10030    2    1    2    0    0  0.00000000000E+00  0.00000000000E+00 -0.10094472965E+04  0.18081267074E+04  0.15001127776E+04 0.  0.
        1    1    3    3  502    0 -0.24368054265E+03 -0.50481964696E+03 -0.11054090685E+04  0.12394161091E+04  0.50400001928E-02 0.  1.
       -1    1    3    3    0  502  0.24368054265E+03  0.50481964696E+03  0.95961772051E+02  0.56871059824E+03  0.50400001928E-02 0. -1.
</event>
<event>
 5   0  0.6509279E-05  0.1499112E+04  0.7818609E-02  0.8885044E-01
       -1   -1    0    0    0  501  0.00000000000E+00  0.00000000000E+00  0.11504134505E+04  0.11504134505E+04  0.50400001928E-02 0. -1.
        1   -1    0    0  501    0  0.00000000000E+00  0.00000000000E+00 -0.48837574090E+03  0.48837574092E+03  0.50400001928E-02 0.  1.
    10030    2    1    2    0    0  0.00000000000E+00  0.00000000000E+00  0.66203770956E+03  0.16387891914E+04  0.14991117653E+04 0.  0.
        2    1    3    3  502    0 -0.64332360677E+03 -0.55553280172E+02  0.74711834212E+03  0.98749037823E+03  0.25500000920E-02 0. -1.
       -2    1    3    3    0  502  0.64332360677E+03  0.55553280172E+02 -0.85080632561E+02  0.65129881315E+03  0.25500000920E-02 0.  1.
</event>
<event>
 5   0  0.1219810E-04  0.1504766E+04  0.7818609E-02  0.8881290E-01
       -2   -1    0    0    0  501  0.00000000000E+00  0.00000000000E+00  0.31968210544E+03  0.31968210545E+03  0.25500000920E-02 0. -1.
        2   -1    0    0  501    0  0.00000000000E+00  0.00000000000E+00 -0.17707603752E+04  0.17707603752E+04  0.25500000920E-02 0.  1.
    10030    2    1    2    0    0  0.00000000000E+00  0.00000000000E+00 -0.14510782698E+04  0.20904424807E+04  0.15047663008E+04 0.  0.
        1    1    3    3  502    0 -0.25152605421E+03  0.38281037097E+03  0.10366138539E+03  0.46963264251E+03  0.50400001928E-02 0. -1.
       -1    1    3    3    0  502  0.25152605421E+03 -0.38281037097E+03 -0.15547396552E+04  0.16208098381E+04  0.50400001928E-02 0.  1.
</event>
<event>
 5   0  0.1186664E-04  0.1488476E+04  0.7818609E-02  0.8892153E-01
       -2   -1    0    0    0  501  0.00000000000E+00  0.00000000000E+00  0.31535308779E+03  0.31535308780E+03  0.25500000920E-02 0.  1.
        2   -1    0    0  501    0  0.00000000000E+00  0.00000000000E+00 -0.17564124186E+04  0.17564124186E+04  0.25500000920E-02 0. -1.
    10030    2    1    2    0    0  0.00000000000E+00  0.00000000000E+00 -0.14410593308E+04  0.20717655064E+04  0.14884758374E+04 0.  0.
        3    1    3    3  502    0 -0.25609589414E+03 -0.66103039490E+03 -0.40514343663E+03  0.81650934130E+03  0.10100000352E+00 0.  1.
       -3    1    3    3    0  502  0.25609589414E+03  0.66103039490E+03 -0.10359158942E+04  0.12552561651E+04  0.10100000352E+00 0. -1.
</event>
<event>
 5   0  0.6364378E-05  0.1500552E+04  0.7818609E-02  0.8884086E-01
       -1   -1    0    0    0  501  0.00000000000E+00  0.00000000000E+00  0.32192846124E+03  0.32192846128E+03  0.50400001928E-02 0.  1.
        1   -1    0    0  501    0  0.00000000000E+00  0.00000000000E+00 -0.17485694104E+04  0.17485694104E+04  0.50400001928E-02 0. -1.
    10030    2    1    2    0    0  0.00000000000E+00  0.00000000000E+00 -0.14266409492E+04  0.20704978717E+04  0.15005522446E+04 0.  0.
        5    1    3    3  502    0  0.39481450654E+03 -0.18006953948E+03 -0.15578230272E+04  0.16171388956E+04  0.46999998093E+01 0. -1.
       -5    1    3    3    0  502 -0.39481450654E+03  0.18006953948E+03  0.13118207801E+03  0.45335897611E+03  0.46999998093E+01 0.  1.
</event>
<event>
 5   0  0.1186664E-04  0.1509617E+04  0.7818609E-02  0.8878083E-01
        2   -1    0    0  501    0  0.00000000000E+00  0.00000000000E+00  0.23395963482E+04  0.23395963482E+04  0.25500000920E-02 0. -1.
       -2   -1    0    0    0  501  0.00000000000E+00  0.00000000000E+00 -0.24351871524E+03  0.24351871526E+03  0.25500000920E-02 0.  1.
    10030    2    1    2    0    0  0.00000000000E+00  0.00000000000E+00  0.20960776329E+04  0.25831150635E+04  0.15096165035E+04 0.  0.
        3    1    3    3  502    0 -0.74121454318E+03 -0.75466043531E+02  0.84099232019E+03  0.11235489378E+04  0.10100000352E+00 0.  1.
       -3    1    3    3    0  502  0.74121454318E+03  0.75466043531E+02  0.12550853128E+04  0.14595661257E+04  0.10100000352E+00 0. -1.
</event>
<event>
 5   0  0.6542036E-05  0.1500750E+04  0.7818609E-02  0.8883955E-01
       -1   -1    0    0    0  501  0.00000000000E+00  0.00000000000E+00  0.99122977852E+03  0.99122977853E+03  0.50400001928E-02 0. -1.
        1   -1    0    0  501    0  0.00000000000E+00  0.00000000000E+00 -0.56804430662E+03  0.56804430664E+03  0.50400001928E-02 0.  1.
    10030    2    1    2    0    0  0.00000000000E+00  0.00000000000E+00  0.42318547190E+03  0.15592740852E+04  0.15007497223E+04 0.  0.
        4    1    3    3  502    0 -0.66473109573E+03  0.13081462748E+03 -0.12360398138E+03  0.68866497914E+03  0.12699999809E+01 0.  1.
       -4    1    3    3    0  502  0.66473109573E+03 -0.13081462748E+03  0.54678945328E+03  0.87060910603E+03  0.12699999809E+01 0. -1.
</event>
<event>
 5   0  0.6542036E-05  0.1501897E+04  0.7818609E-02  0.8883192E-01
       -1   -1    0    0    0  501  0.00000000000E+00  0.00000000000E+00  0.54175315056E+03  0.54175315059E+03  0.50400001928E-02 0.  1.
        1   -1    0    0  501    0  0.00000000000E+00  0.00000000000E+00 -0.10409236278E+04  0.10409236278E+04  0.50400001928E-02 0. -1.
    10030    2    1    2    0    0  0.00000000000E+00  0.00000000000E+00 -0.49917047719E+03  0.15826767784E+04  0.15018970069E+04 0.  0.
        4    1    3    3  502    0 -0.30571225710E+02 -0.16136226826E+03  0.52259532258E+03  0.54779545958E+03  0.12699999809E+01 0.  1.
       -4    1    3    3    0  502  0.30571225710E+02  0.16136226826E+03 -0.10217657998E+04  0.10348813188E+04  0.12699999809E+01 0. -1.
</event>
<event>
 5   0  0.1186664E-04  0.1500729E+04  0.7818609E-02  0.8883968E-01
       -2   -1    0    0    0  501  0.00000000000E+00  0.00000000000E+00  0.40670582318E+03  0.40670582319E+03  0.25500000920E-02 0.  1.
        2   -1    0    0  501    0  0.00000000000E+00  0.00000000000E+00 -0.13844090393E+04  0.13844090393E+04  0.25500000920E-02 0. -1.
    10030    2    1    2    0    0  0.00000000000E+00  0.00000000000E+00 -0.97770321607E+03  0.17911148624E+04  0.15007294465E+04 0.  0.
        3    1    3    3  502    0  0.44462216891E+03  0.25510514870E+03  0.16515783426E+03  0.53855791741E+03  0.10100000352E+00 0.  1.
       -3    1    3    3    0  502 -0.44462216891E+03 -0.25510514870E+03 -0.11428610503E+04  0.12525569450E+04  0.10100000352E+00 0. -1.
</event>
<event>
 5   0  0.6364378E-05  0.1495568E+04  0.7818609E-02  0.8887405E-01
        1   -1    0    0  501    0  0.00000000000E+00  0.00000000000E+00  0.12256817517E+04  0.12256817517E+04  0.50400001928E-02 0.  1.
       -1   -1    0    0    0  501  0.00000000000E+00  0.00000000000E+00 -0.45622036661E+03  0.45622036664E+03  0.50400001928E-02 0. -1.
    10030    2    1    2    0    0  0.00000000000E+00  0.00000000000E+00  0.76946138506E+03  0.16819021183E+04  0.14955680902E+04 0.  0.
        5    1    3    3  502    0 -0.64288857156E+03  0.11675174843E+03 -0.24197186359E+02  0.65386870244E+03  0.46999998093E+01 0. -1.
       -5    1    3    3    0  502  0.64288857156E+03 -0.11675174843E+03  0.79365857142E+03  0.10280334159E+04  0.46999998093E+01 0.  1.
</event>
<event>
 5   0  0.6668433E-05  0.1500825E+04  0.7818609E-02  0.8883905E-01
        1   -1    0    0  501    0  0.00000000000E+00  0.00000000000E+00  0.14795604252E+04  0.14795604253E+04  0.50400001928E-02 0.  1.
       -1   -1    0    0    0  501  0.00000000000E+00  0.00000000000E+00 -0.38059876987E+03  0.38059876990E+03  0.50400001928E-02 0. -1.
    10030    2    1    2    0    0  0.00000000000E+00  0.00000000000E+00  0.10989616554E+04  0.18601591952E+04  0.15008249436E+04 0.  0.
        1    1    3    3  502    0 -0.33719801694E+03  0.37707577655E+03 -0.13751175816E+03  0.52421191091E+03  0.50400001928E-02 0. -1.
       -1    1    3    3    0  502  0.33719801694E+03 -0.37707577655E+03  0.12364734135E+04  0.13359472842E+04  0.50400001928E-02 0.  1.
</event>
<event>
 5   0  0.6542036E-05  0.1495227E+04  0.7818609E-02  0.8887633E-01
       -1   -1    0    0    0  501  0.00000000000E+00  0.00000000000E+00  0.11005917949E+04  0.11005917949E+04  0.50400001928E-02 0.  1.
        1   -1    0    0  501    0  0.00000000000E+00  0.00000000000E+00 -0.50784106749E+03  0.50784106751E+03  0.50400001928E-02 0. -1.
    10030    2    1    2    0    0  0.00000000000E+00  0.00000000000E+00  0.59275072743E+03  0.16084328624E+04  0.14952266879E+04 0.  0.
        4    1    3    3  502    0 -0.15972167557E+03  0.22425475865E+03 -0.45132002872E+03  0.52867058898E+03  0.12699999809E+01 0. -1.
       -4    1    3    3    0  502  0.15972167557E+03 -0.22425475865E+03  0.10440707562E+04  0.10797622735E+04  0.12699999809E+01 0.  1.
</event>
<event>
 5   0  0.1228286E-04  0.1504568E+04  0.7818609E-02  0.8881421E-01
       -2   -1    0    0    0  501  0.00000000000E+00  0.00000000000E+00  0.11936664903E+04  0.11936664903E+04  0.25500000920E-02 0.  1.
        2   -1    0    0  501    0  0.00000000000E+00  0.00000000000E+00 -0.47411149007E+03  0.47411149008E+03  0.25500000920E-02 0. -1.
    10030    2    1    2    0    0  0.00000000000E+00  0.00000000000E+00  0.71955500018E+03  0.16677779803E+04  0.15045677098E+04 0.  0.
        2    1    3    3  502    0  0.31229216096E+03  0.92384332512E+01 -0.39879571884E+03  0.50660612691E+03  0.25500000920E-02 0. -1.
       -2    1    3    3    0  502 -0.31229216096E+03 -0.92384332512E+01  0.11183507190E+04  0.11611718534E+04  0.25500000920E-02 0.  1.
</event>
<event>
 5   0  0.1228286E-04  0.1498761E+04  0.7818609E-02  0.8885277E-01
       -2   -1    0    0    0  501  0.00000000000E+00  0.00000000000E+00  0.42319317214E+03  0.42319317215E+03  0.25500000920E-02 0.  1.
        2   -1    0    0  501    0  0.00000000000E+00  0.00000000000E+00 -0.13269861965E+04  0.13269861965E+04  0.25500000920E-02 0. -1.
    10030    2    1    2    0    0  0.00000000000E+00  0.00000000000E+00 -0.90379302439E+03  0.17501793687E+04  0.14987614859E+04 0.  0.
        2    1    3    3  502    0 -0.75984674734E+02 -0.59767838408E+02 -0.13196738741E+04  0.13232101116E+04  0.25500000920E-02 0. -1.
       -2    1    3    3    0  502  0.75984674734E+02  0.59767838408E+02  0.41588084975E+03  0.42696925709E+03  0.25500000920E-02 0.  1.
</event>
<event>
 5   0  0.1228286E-04  0.1499221E+04  0.7818609E-02  0.8884971E-01
        2   -1    0    0  501    0  0.00000000000E+00  0.00000000000E+00  0.10238331910E+04  0.10238331910E+04  0.25500000920E-02 0. -1.
       -2   -1    0    0    0  501  0.00000000000E+00  0.00000000000E+00 -0.54883508323E+03  0.54883508324E+03  0.25500000920E-02 0.  1.
    10030    2    1    2    0    0  0.00000000000E+00  0.00000000000E+00  0.47499810780E+03  0.15726682743E+04  0.14992205637E+04 0.  0.
        2    1    3    3  502    0 -0.10307854747E+03  0.66106726150E+03  0.59211445376E+03  0.89343977835E+03  0.25500000920E-02 0. -1.
       -2    1    3    3    0  502  0.10307854747E+03 -0.66106726150E+03 -0.11711634596E+03  0.67922849592E+03  0.25500000920E-02 0.  1.
</event>
<event>
 5   0  0.6509279E-05  0.1494218E+04  0.7818609E-02  0.8888307E-01
        1   -1    0    0  501    0  0.00000000000E+00  0.00000000000E+00  0.87335808313E+03  0.87335808314E+03  0.50400001928E-02 0. -1.
       -1   -1    0    0    0  501  0.00000000000E+00  0.00000000000E+00 -0.63911024695E+03  0.63911024697E+03  0.50400001928E-02 0.  1.
    10030    2    1    2    0    0  0.00000000000E+00  0.00000000000E+00  0.23424783618E+03  0.15124683301E+04  0.14942183244E+04 0.  0.
        2    1    3    3  502    0 -0.53818036437E+02 -0.11075450634E+03  0.86301567701E+03  0.87175627357E+03  0.25500000920E-02 0. -1.
       -2    1    3    3    0  502  0.53818036437E+02  0.11075450634E+03 -0.62876784084E+03  0.64071205654E+03  0.25500000920E-02 0.  1.
</event>
<event>
 5   0  0.6542036E-05  0.1499582E+04  0.7818609E-02  0.8884731E-01
        1   -1    0    0  501    0  0.00000000000E+00  0.00000000000E+00  0.81580657777E+03  0.81580657779E+03  0.50400001928E-02 0. -1.
       -1   -1    0    0    0  501  0.00000000000E+00  0.00000000000E+00 -0.68911710211E+03  0.68911710213E+03  0.50400001928E-02 0.  1.
    10030    2    1    2    0    0  0.00000000000E+00  0.00000000000E+00  0.12668947566E+03  0.15049236799E+04  0.14995816280E+04 0.  0.
        4    1    3    3  502    0  0.85801212702E+02  0.24741973145E+03  0.76841874273E+03  0.81181731238E+03  0.12699999809E+01 0. -1.
       -4    1    3    3    0  502 -0.85801212702E+02 -0.24741973145E+03 -0.64172926706E+03  0.69310636753E+03  0.12699999809E+01 0.  1.
</event>
<event>
 5   0  0.6361716E-05  0.1497384E+04  0.7818609E-02  0.8886195E-01
       -1   -1    0    0    0  501  0.00000000000E+00  0.00000000000E+00  0.80593392741E+03  0.80593392743E+03  0.50400001928E-02 0. -1.
        1   -1    0    0  501    0  0.00000000000E+00  0.00000000000E+00 -0.69551553771E+03  0.69551553773E+03  0.50400001928E-02 0.  1.
    10030    2    1    2    0    0  0.00000000000E+00  0.00000000000E+00  0.11041838970E+03  0.15014494652E+04  0.14973838104E+04 0.  0.
        3    1    3    3  502    0  0.23991348944E+03 -0.21125751645E+03 -0.62364551907E+03  0.70080094487E+03  0.10100000352E+00 0.  1.
       -3    1    3    3    0  502 -0.23991348944E+03  0.21125751645E+03  0.73406390877E+03  0.80064852029E+03  0.10100000352E+00 0. -1.
</event>
<event>
 5   0  0.1254487E-04  0.1502072E+04  0.7818609E-02  0.8883077E-01
       -2   -1    0    0    0  501  0.00000000000E+00  0.00000000000E+00  0.37012955235E+03  0.37012955236E+03  0.25500000920E-02 0.  1.
        2   -1    0    0  501    0  0.00000000000E+00  0.00000000000E+00 -0.15239387154E+04  0.15239387154E+04  0.25500000920E-02 0. -1.
    10030    2    1    2    0    0  0.00000000000E+00  0.00000000000E+00 -0.11538091630E+04  0.18940682678E+04  0.15020715756E+04 0.  0.
        5    1    3    3  502    0 -0.65480347086E+03 -0.28381445314E+03 -0.87185971625E+03  0.11267118904E+04  0.46999998093E+01 0. -1.
       -5    1    3    3    0  502  0.65480347086E+03  0.28381445314E+03 -0.28194944679E+03  0.76735637732E+03  0.46999998093E+01 0.  1.
</event>
<event>
 5   0  0.6542036E-05  0.1500086E+04  0.7818609E-02  0.8884396E-01
        1   -1    0    0  501    0  0.00000000000E+00  0.00000000000E+00  0.10134997430E+04  0.10134997430E+04  0.50400001928E-02 0.  1.
       -1   -1    0    0    0  501  0.00000000000E+00  0.00000000000E+00 -0.55507125783E+03  0.55507125785E+03  0.50400001928E-02 0. -1.
    10030    2    1    2    0    0  0.00000000000E+00  0.00000000000E+00  0.45842848520E+03  0.15685710009E+04  0.15000861005E+04 0.  0.
        4    1    3    3  502    0 -0.44095195877E+03  0.16126262846E+03 -0.38239832470E+03  0.60553642080E+03  0.12699999809E+01 0. -1.
       -4    1    3    3    0  502  0.44095195877E+03 -0.16126262846E+03  0.84082680990E+03  0.96303458008E+03  0.12699999809E+01 0.  1.
</event>
<event>
 5   0  0.1254487E-04  0.1497945E+04  0.7818609E-02  0.8885820E-01
       -2   -1    0    0    0  501  0.00000000000E+00  0.00000000000E+00  0.10425352999E+04  0.10425352999E+04  0.25500000920E-02 0.  1.
        2   -1    0    0  501    0  0.00000000000E+00  0.00000000000E+00 -0.53807303745E+03  0.53807303745E+03  0.25500000920E-02 0. -1.
    10030    2    1    2    0    0  0.00000000000E+00  0.00000000000E+00  0.50446226242E+03  0.15806083373E+04  0.14979454402E+04 0.  0.
        5    1    3    3  502    0 -0.40444179504E+03 -0.54745902089E+03 -0.77509284067E+02  0.68506519707E+03  0.46999998093E+01 0. -1.
       -5    1    3    3    0  502  0.40444179504E+03  0.54745902089E+03  0.58197154648E+03  0.89554314024E+03  0.46999998093E+01 0.  1.
</event>
<event>
 5   0  0.6542036E-05  0.1498432E+04  0.7818609E-02  0.8885497E-01
       -1   -1    0    0    0  501  0.00000000000E+00  0.00000000000E+00  0.88798716301E+03  0.88798716302E+03  0.50400001928E-02 0.  1.
        1   -1    0    0  501    0  0.00000000000E+00  0.00000000000E+00 -0.63213115429E+03  0.63213115431E+03  0.50400001928E-02 0. -1.
    10030    2    1    2    0    0  0.00000000000E+00  0.00000000000E+00  0.25585600871E+03  0.15201183173E+04  0.14984316473E+04 0.  0.
        4    1    3    3  502    0 -0.31570930719E+03  0.46340638814E+03  0.63201477662E+03  0.84490362644E+03  0.12699999809E+01 0.  1.
       -4    1    3    3    0  502  0.31570930719E+03 -0.46340638814E+03 -0.37615876790E+03  0.67521469089E+03  0.12699999809E+01 0. -1.
</event>
<event>
 5   0  0.4462875E-05  0.1499301E+04  0.7818609E-02  0.8884918E-01
        3   -1    0    0  501    0  0.00000000000E+00  0.00000000000E+00  0.13198944444E+04  0.13198944483E+04  0.10100000352E+00 0. -1.
       -3   -1    0    0    0  501  0.00000000000E+00  0.00000000000E+00 -0.42577350437E+03  0.42577351635E+03  0.10100000352E+00 0.  1.
    10030    2    1    2    0    0  0.00000000000E+00  0.00000000000E+00  0.89412094003E+03  0.17456679646E+04  0.14993012997E+04 0.  0.
        2    1    3    3  502    0  0.36463575956E+03  0.64203325173E+02  0.12060109307E+04  0.12615639774E+04  0.25500000920E-02 0. -1.
       -2    1    3    3    0  502 -0.36463575956E+03 -0.64203325173E+02 -0.31188999069E+03  0.48410398719E+03  0.25500000920E-02 0.  1.
</event>
<event>
 5   0  0.6361716E-05  0.1502110E+04  0.7818609E-02  0.8883051E-01
        1   -1    0    0  501    0  0.00000000000E+00  0.00000000000E+00  0.17627400229E+04  0.17627400229E+04  0.50400001928E-02 0.  1.
       -1   -1    0    0    0  501  0.00000000000E+00  0.00000000000E+00 -0.32000403606E+03  0.32000403610E+03  0.50400001928E-02 0. -1.
    10030    2    1    2    0    0  0.00000000000E+00  0.00000000000E+00  0.14427359868E+04  0.20827440590E+04  0.15021104112E+04 0.  0.
        3    1    3    3  502    0 -0.57479702520E+02 -0.73614777887E+03  0.53091883248E+03  0.90944614213E+03  0.10100000352E+00 0.  1.
       -3    1    3    3    0  502  0.57479702520E+02  0.73614777887E+03  0.91181715433E+03  0.11732979168E+04  0.10100000352E+00 0. -1.
</event>
<event>
 5   0  0.6361716E-05  0.1500071E+04  0.7818609E-02  0.8884406E-01
       -1   -1    0    0    0  501  0.00000000000E+00  0.00000000000E+00  0.27962714341E+03  0.27962714345E+03  0.50400001928E-02 0.  1.
        1   -1    0    0  501    0  0.00000000000E+00  0.00000000000E+00 -0.20117967218E+04  0.20117967218E+04  0.50400001928E-02 0. -1.
    10030    2    1    2    0    0  0.00000000000E+00  0.00000000000E+00 -0.17321695784E+04  0.22914238652E+04  0.15000706256E+04 0.  0.
        3    1    3    3  502    0 -0.22220527465E+03 -0.70350219127E+03 -0.65965462273E+03  0.98966395746E+03  0.10100000352E+00 0. -1.
       -3    1    3    3    0  502  0.22220527465E+03  0.70350219127E+03 -0.10725149556E+04  0.13017599078E+04  0.10100000352E+00 0.  1.
</event>
<event>
 5   0  0.1216921E-04  0.1503098E+04  0.7818609E-02  0.8882395E-01
       -2   -1    0    0    0  501  0.00000000000E+00  0.00000000000E+00  0.69171268720E+03  0.69171268720E+03  0.25500000920E-02 0.  1.
        2   -1    0    0  501    0  0.00000000000E+00  0.00000000000E+00 -0.81656151363E+03  0.81656151364E+03  0.25500000920E-02 0. -1.
    10030    2    1    2    0    0  0.00000000000E+00  0.00000000000E+00 -0.12484882644E+03  0.15082742008E+04  0.15030980791E+04 0.  0.
        4    1    3    3  502    0 -0.39506085452E+03  0.37785364360E+03 -0.57993084515E+03  0.79697418579E+03  0.12699999809E+01 0. -1.
       -4    1    3    3    0  502  0.39506085452E+03 -0.37785364360E+03  0.45508201872E+03  0.71130001505E+03  0.12699999809E+01 0.  1.
</event>
<event>
 5   0  0.1228286E-04  0.1508400E+04  0.7818609E-02  0.8878886E-01
       -2   -1    0    0    0  501  0.00000000000E+00  0.00000000000E+00  0.46994734126E+03  0.46994734126E+03  0.25500000920E-02 0.  1.
        2   -1    0    0  501    0  0.00000000000E+00  0.00000000000E+00 -0.12103851500E+04  0.12103851500E+04  0.25500000920E-02 0. -1.
    10030    2    1    2    0    0  0.00000000000E+00  0.00000000000E+00 -0.74043780875E+03  0.16803324913E+04  0.15083995268E+04 0.  0.
        2    1    3    3  502    0 -0.69190239448E+02 -0.60540088527E+03 -0.86530885880E+03  0.10583274268E+04  0.25500000920E-02 0. -1.
       -2    1    3    3    0  502  0.69190239448E+02  0.60540088527E+03  0.12487105006E+03  0.62200506450E+03  0.25500000920E-02 0.  1.
</event>
<event>
 5   0  0.6361716E-05  0.1498949E+04  0.7818609E-02  0.8885152E-01
        1   -1    0    0  501    0  0.00000000000E+00  0.00000000000E+00  0.98433461719E+03  0.98433461721E+03  0.50400001928E-02 0. -1.
       -1   -1    0    0    0  501  0.00000000000E+00  0.00000000000E+00 -0.57065138227E+03  0.57065138229E+03  0.50400001928E-02 0.  1.
    10030    2    1    2    0    0  0.00000000000E+00  0.00000000000E+00  0.41368323493E+03  0.15549859995E+04  0.14989488449E+04 0.  0.
        3    1    3    3  502    0  0.18900987646E+03  0.44037240474E+03  0.80463004433E+03  0.93652661826E+03  0.10100000352E+00 0. -1.
       -3    1    3    3    0  502 -0.18900987646E+03 -0.44037240474E+03 -0.39094680940E+03  0.61845938124E+03  0.10100000352E+00 0.  1.
</event>
<event>
 5   0  0.1186664E-04  0.1484084E+04  0.7818609E-02  0.8895106E-01
       -2   -1    0    0    0  501  0.00000000000E+00  0.00000000000E+00  0.26536487431E+03  0.26536487432E+03  0.25500000920E-02 0. -1.
        2   -1    0    0  501    0  0.00000000000E+00  0.00000000000E+00 -0.20749786679E+04  0.20749786679E+04  0.25500000920E-02 0.  1.
    10030    2    1    2    0    0  0.00000000000E+00  0.00000000000E+00 -0.18096137936E+04  0.23403435422E+04  0.14840841666E+04 0.  0.
        3    1    3    3  502    0  0.16766518831E+03 -0.66569741369E+03 -0.46055756374E+03  0.82666676580E+03  0.10100000352E+00 0. -1.
       -3    1    3    3    0  502 -0.16766518831E+03  0.66569741369E+03 -0.13490562299E+04  0.15136767764E+04  0.10100000352E+00 0.  1.
</event>
<event>
 5   0  0.6668433E-05  0.1500201E+04  0.7818609E-02  0.8884319E-01
       -1   -1    0    0    0  501  0.00000000000E+00  0.00000000000E+00  0.85277064273E+03  0.85277064274E+03  0.50400001928E-02 0. -1.
        1   -1    0    0  501    0  0.00000000000E+00  0.00000000000E+00 -0.65979181858E+03  0.65979181860E+03  0.50400001928E-02 0.  1.
    10030    2    1    2    0    0  0.00000000000E+00  0.00000000000E+00  0.19297882415E+03  0.15125624613E+04  0.15002014441E+04 0.  0.
        1    1    3    3  502    0 -0.39463420168E+03  0.60424320260E+03 -0.10965821087E+03  0.72998008484E+03  0.50400001928E-02 0.  1.
       -1    1    3    3    0  502  0.39463420168E+03 -0.60424320260E+03  0.30263703502E+03  0.78258237650E+03  0.50400001928E-02 0. -1.
</event>
<event>
 5   0  0.6542036E-05  0.1502357E+04  0.7818609E-02  0.8882887E-01
       -1   -1    0    0    0  501  0.00000000000E+00  0.00000000000E+00  0.11868093521E+04  0.11868093521E+04  0.50400001928E-02 0. -1.
        1   -1    0    0  501    0  0.00000000000E+00  0.00000000000E+00 -0.47545042954E+03  0.47545042956E+03  0.50400001928E-02 0.  1.
    10030    2    1    2    0    0  0.00000000000E+00  0.00000000000E+00  0.71135892256E+03  0.16622597817E+04  0.15023568368E+04 0.  0.
        4    1    3    3  502    0  0.20802713202E+03  0.30408646892E+03 -0.36861162272E+03  0.52117176587E+03  0.12699999809E+01 0.  1.
       -4    1    3    3    0  502 -0.20802713202E+03 -0.30408646892E+03  0.10799705453E+04  0.11410880158E+04  0.12699999809E+01 0. -1.
</event>
<event>
 5   0  0.6364378E-05  0.1496889E+04  0.7818609E-02  0.8886524E-01
       -1   -1    0    0    0  501  0.00000000000E+00  0.00000000000E+00  0.63833208165E+03  0.63833208167E+03  0.50400001928E-02 0.  1.
        1   -1    0    0  501    0  0.00000000000E+00  0.00000000000E+00 -0.87755117348E+03  0.87755117349E+03  0.50400001928E-02 0. -1.
    10030    2    1    2    0    0  0.00000000000E+00  0.00000000000E+00 -0.23921909183E+03  0.15158832552E+04  0.14968888634E+04 0.  0.
        5    1    3    3  502    0 -0.62882408519E+03 -0.28730488468E+03 -0.40992328631E+03  0.80375557076E+03  0.46999998093E+01 0. -1.
       -5    1    3    3    0  502  0.62882408519E+03  0.28730488468E+03  0.17070419448E+03  0.71212768440E+03  0.46999998093E+01 0.  1.
</event>
<event>
 5   0  0.1186664E-04  0.1502420E+04  0.7818609E-02  0.8882845E-01
       -2   -1    0    0    0  501  0.00000000000E+00  0.00000000000E+00  0.21805893708E+03  0.21805893710E+03  0.25500000920E-02 0. -1.
        2   -1    0    0  501    0  0.00000000000E+00  0.00000000000E+00 -0.25879079852E+04  0.25879079852E+04  0.25500000920E-02 0.  1.
    10030    2    1    2    0    0  0.00000000000E+00  0.00000000000E+00 -0.23698490481E+04  0.28059669223E+04  0.15024200006E+04 0.  0.
        3    1    3    3  502    0 -0.30108424711E+03 -0.57822749482E+03 -0.18820233167E+04  0.19917355583E+04  0.10100000352E+00 0.  1.
       -3    1    3    3    0  502  0.30108424711E+03  0.57822749482E+03 -0.48782573147E+03  0.81423136399E+03  0.10100000352E+00 0. -1.
</event>
<event>
 5   0  0.6668433E-05  0.1501519E+04  0.7818609E-02  0.8883443E-01
       -1   -1    0    0    0  501  0.00000000000E+00  0.00000000000E+00  0.65343296983E+03  0.65343296985E+03  0.50400001928E-02 0.  1.
        1   -1    0    0  501    0  0.00000000000E+00  0.00000000000E+00 -0.86258298974E+03  0.86258298975E+03  0.50400001928E-02 0. -1.
    10030    2    1    2    0    0  0.00000000000E+00  0.00000000000E+00 -0.20915001991E+03  0.15160159596E+04  0.15015194501E+04 0.  0.
        1    1    3    3  502    0 -0.23286763887E+03  0.61448281115E+03 -0.47115568224E+03  0.80858156012E+03  0.50400001928E-02 0.  1.
       -1    1    3    3    0  502  0.23286763887E+03 -0.61448281115E+03  0.26200566234E+03  0.70743439948E+03  0.50400001928E-02 0. -1.
</event>
<event>
 5   0  0.1219810E-04  0.1500454E+04  0.7818609E-02  0.8884151E-01
       -2   -1    0    0    0  501  0.00000000000E+00  0.00000000000E+00  0.91313315953E+03  0.91313315954E+03  0.25500000920E-02 0.  1.
        2   -1    0    0  501    0  0.00000000000E+00  0.00000000000E+00 -0.61638409780E+03  0.61638409781E+03  0.25500000920E-02 0. -1.
    10030    2    1    2    0    0  0.00000000000E+00  0.00000000000E+00  0.29674906173E+03  0.15295172573E+04  0.15004542762E+04 0.  0.
        1    1    3    3  502    0 -0.51347516070E+03 -0.21041730187E+03  0.66303858919E+03  0.86461109891E+03  0.50400001928E-02 0.  1.
       -1    1    3    3    0  502  0.51347516070E+03  0.21041730187E+03 -0.36628952746E+03  0.66490615844E+03  0.50400001928E-02 0. -1.
</event>
<event>
 5   0  0.6542036E-05  0.1506140E+04  0.7818609E-02  0.8880380E-01
       -1   -1    0    0    0  501  0.00000000000E+00  0.00000000000E+00  0.63194383339E+03  0.63194383341E+03  0.50400001928E-02 0.  1.
        1   -1    0    0  501    0  0.00000000000E+00  0.00000000000E+00 -0.89741235898E+03  0.89741235899E+03  0.50400001928E-02 0. -1.
    10030    2    1    2    0    0  0.00000000000E+00  0.00000000000E+00 -0.26546852558E+03  0.15293561924E+04  0.15061397097E+04 0.  0.
        4    1    3    3  502    0 -0.36574229136E+02  0.56496369996E+03 -0.63696804905E+03  0.85220394561E+03  0.12699999809E+01 0. -1.
       -4    1    3    3    0  502  0.36574229136E+02 -0.56496369996E+03  0.37149952347E+03  0.67715224680E+03  0.12699999809E+01 0.  1.
</event>
<event>
 5   0  0.6364378E-05  0.1499269E+04  0.7818609E-02  0.8884939E-01
        1   -1    0    0  501    0  0.00000000000E+00  0.00000000000E+00  0.10442708433E+04  0.10442708433E+04  0.50400001928E-02 0. -1.
       -1   -1    0    0    0  501  0.00000000000E+00  0.00000000000E+00 -0.53812845938E+03  0.53812845940E+03  0.50400001928E-02 0.  1.
    10030    2    1    2    0    0  0.00000000000E+00  0.00000000000E+00  0.50614238389E+03  0.15823993027E+04  0.14992689686E+04 0.  0.
        5    1    3    3  502    0  0.51150226505E+02 -0.36791985196E+03  0.94028683142E+03  0.10110107707E+04  0.46999998093E+01 0. -1.
       -5    1    3    3    0  502 -0.51150226505E+02  0.36791985196E+03 -0.43414444753E+03  0.57138853197E+03  0.46999998093E+01 0.  1.
</event>
<event>
 5   0  0.6509279E-05  0.1500128E+04  0.7818609E-02  0.8884368E-01
       -1   -1    0    0    0  501  0.00000000000E+00  0.00000000000E+00  0.75816930531E+03  0.75816930532E+03  0.50400001928E-02 0. -1.
        1   -1    0    0  501    0  0.00000000000E+00  0.00000000000E+00 -0.74204528937E+03  0.74204528939E+03  0.50400001928E-02 0.  1.
    10030    2    1    2    0    0  0.00000000000E+00  0.00000000000E+00  0.16124015935E+02  0.15002145947E+04  0.15001279433E+04 0.  0.
        2    1    3    3  502    0  0.55196479889E+03 -0.35040718220E+03  0.37570482676E+03  0.75405865118E+03  0.25500000920E-02 0. -1.
       -2    1    3    3    0  502 -0.55196479889E+03  0.35040718220E+03 -0.35958081083E+03  0.74615594354E+03  0.25500000920E-02 0.  1.
</event>
<event>
 5   0  0.6542036E-05  0.1501352E+04  0.7818609E-02  0.8883554E-01
        1   -1    0    0  501    0  0.00000000000E+00  0.00000000000E+00  0.10055419616E+04  0.10055419616E+04  0.50400001928E-02 0. -1.
       -1   -1    0    0    0  501  0.00000000000E+00  0.00000000000E+00 -0.56040905518E+03  0.56040905521E+03  0.50400001928E-02 0.  1.
    10030    2    1    2    0    0  0.00000000000E+00  0.00000000000E+00  0.44513290644E+03  0.15659510168E+04  0.15013524845E+04 0.  0.
        4    1    3    3  502    0 -0.19999556469E+03  0.72254898190E+03  0.18301453994E+03  0.77173259091E+03  0.12699999809E+01 0.  1.
       -4    1    3    3    0  502  0.19999556469E+03 -0.72254898190E+03  0.26211836650E+03  0.79421842594E+03  0.12699999809E+01 0. -1.
</event>
<event>
 5   0  0.6364378E-05  0.1499976E+04  0.7818609E-02  0.8884469E-01
       -1   -1    0    0    0  501  0.00000000000E+00  0.00000000000E+00  0.61688751100E+03  0.61688751102E+03  0.50400001928E-02 0.  1.
        1   -1    0    0  501    0  0.00000000000E+00  0.00000000000E+00 -0.91180645676E+03  0.91180645678E+03  0.50400001928E-02 0. -1.
    10030    2    1    2    0    0  0.00000000000E+00  0.00000000000E+00 -0.29491894576E+03  0.15286939678E+04  0.14999760207E+04 0.  0.
        5    1    3    3  502    0 -0.21388472418E+03 -0.70392901580E+03  0.92053627728E+00  0.73572119169E+03  0.46999998093E+01 0.  1.
       -5    1    3    3    0  502  0.21388472418E+03  0.70392901580E+03 -0.29583948204E+03  0.79297277611E+03  0.46999998093E+01 0. -1.
</event>
<event>
 5   0  0.1228286E-04  0.1499416E+04  0.7818609E-02  0.8884841E-01
       -2   -1    0    0    0  501  0.00000000000E+00  0.00000000000E+00  0.58450451145E+03  0.58450451145E+03  0.25500000920E-02 0. -1.
        2   -1    0    0  501    0  0.00000000000E+00  0.00000000000E+00 -0.96160414141E+03  0.96160414141E+03  0.25500000920E-02 0.  1.
    10030    2    1    2    0    0  0.00000000000E+00  0.00000000000E+00 -0.37709962996E+03  0.15461086529E+04  0.14994158314E+04 0.  0.
        2    1    3    3  502    0  0.47749742471E+03  0.30499624495E+02  0.40659608921E+03  0.62789680479E+03  0.25500000920E-02 0. -1.
       -2    1    3    3    0  502 -0.47749742471E+03 -0.30499624495E+02 -0.78369571917E+03  0.91821184808E+03  0.25500000920E-02 0.  1.
</event>
<event>
 5   0  0.6668433E-05  0.1500861E+04  0.7818609E-02  0.8883881E-01
        1   -1    0    0  501    0  0.00000000000E+00  0.00000000000E+00  0.69411839350E+03  0.69411839351E+03  0.50400001928E-02 0.  1.
       -1   -1    0    0    0  501  0.00000000000E+00  0.00000000000E+00 -0.81131074536E+03  0.81131074537E+03  0.50400001928E-02 0. -1.
    10030    2    1    2    0    0  0.00000000000E+00  0.00000000000E+00 -0.11719235186E+03  0.15054291389E+04  0.15008607014E+04 0.  0.
        1    1    3    3  502    0  0.59902044676E+03  0.12161687111E+03 -0.49527124744E+03  0.78670818449E+03  0.50400001928E-02 0. -1.
       -1    1    3    3    0  502 -0.59902044676E+03 -0.12161687111E+03  0.37807889558E+03  0.71872095440E+03  0.50400001928E-02 0.  1.
</event>
<event>
 5   0  0.6668433E-05  0.1491622E+04  0.7818609E-02  0.8890043E-01
        1   -1    0    0  501    0  0.00000000000E+00  0.00000000000E+00  0.58990061610E+03  0.58990061613E+03  0.50400001928E-02 0.  1.
       -1   -1    0    0    0  501  0.00000000000E+00  0.00000000000E+00 -0.94292855108E+03  0.94292855109E+03  0.50400001928E-02 0. -1.
    10030    2    1    2    0    0  0.00000000000E+00  0.00000000000E+00 -0.35302793497E+03  0.15328291672E+04  0.14916221147E+04 0.  0.
        1    1    3    3  502    0 -0.56928321142E+03 -0.21095962743E+03  0.26863514985E+03  0.66389169521E+03  0.50400001928E-02 0.  1.
       -1    1    3    3    0  502  0.56928321142E+03  0.21095962743E+03 -0.62166308482E+03  0.86893747201E+03  0.50400001928E-02 0. -1.
</event>
<event>
 5   0  0.6668433E-05  0.1498937E+04  0.7818609E-02  0.8885160E-01
       -1   -1    0    0    0  501  0.00000000000E+00  0.00000000000E+00  0.46801546785E+03  0.46801546788E+03  0.50400001928E-02 0. -1.
        1   -1    0    0  501    0  0.00000000000E+00  0.00000000000E+00 -0.12001803455E+04  0.12001803455E+04  0.50400001928E-02 0.  1.
    10030    2    1    2    0    0  0.00000000000E+00  0.00000000000E+00 -0.73216487762E+03  0.16681958134E+04  0.14989369112E+04 0.  0.
        1    1    3    3  502    0  0.62544787372E+03 -0.25293457424E+03 -0.72934793108E+03  0.99353376701E+03  0.50400001928E-02 0.  1.
       -1    1    3    3    0  502 -0.62544787372E+03  0.25293457424E+03 -0.28169465431E+01  0.67466204636E+03  0.50400001928E-02 0. -1.
</event>
<event>
 5   0  0.1216921E-04  0.1499045E+04  0.7818609E-02  0.8885088E-01
        2   -1    0    0  501    0  0.00000000000E+00  0.00000000000E+00  0.10200413643E+04  0.10200413643E+04  0.25500000920E-02 0.  1.
       -2   -1    0    0    0  501  0.00000000000E+00  0.00000000000E+00 -0.55074605868E+03  0.55074605868E+03  0.25500000920E-02 0. -1.
    10030    2    1    2    0    0  0.00000000000E+00  0.00000000000E+00  0.46929530558E+03  0.15707874229E+04  0.14990447106E+04 0.  0.
        4    1    3    3  502    0 -0.38416091713E+03 -0.54600187078E+03 -0.12237020289E+03  0.67872949884E+03  0.12699999809E+01 0. -1.
       -4    1    3    3    0  502  0.38416091713E+03  0.54600187078E+03  0.59166550847E+03  0.89205792410E+03  0.12699999809E+01 0.  1.
</event>
<event>
 5   0  0.6361716E-05  0.1500199E+04  0.7818609E-02  0.8884320E-01
        1   -1    0    0  501    0  0.00000000000E+00  0.00000000000E+00  0.73979932523E+03  0.73979932525E+03  0.50400001928E-02 0. -1.
       -1   -1    0    0    0  501  0.00000000000E+00  0.00000000000E+00 -0.76054328416E+03  0.76054328418E+03  0.50400001928E-02 0.  1.
    10030    2    1    2    0    0  0.00000000000E+00  0.00000000000E+00 -0.20743958933E+02  0.15003426094E+04  0.15001991980E+04 0.  0.
        3    1    3    3  502    0  0.64590525343E+03  0.35659819401E+03  0.12489452629E+03  0.74830108999E+03  0.10100000352E+00 0.  1.
       -3    1    3    3    0  502 -0.64590525343E+03 -0.35659819401E+03 -0.14563848523E+03  0.75204151944E+03  0.10100000352E+00 0. -1.
</event>
<event>
 5   0  0.1216921E-04  0.1498771E+04  0.7818609E-02  0.8885271E-01
        2   -1    0    0  501    0  0.00000000000E+00  0.00000000000E+00  0.10490505188E+04  0.10490505188E+04  0.25500000920E-02 0.  1.
       -2   -1    0    0    0  501  0.00000000000E+00  0.00000000000E+00 -0.53532066636E+03  0.53532066636E+03  0.25500000920E-02 0. -1.
    10030    2    1    2    0    0  0.00000000000E+00  0.00000000000E+00  0.51372985242E+03  0.15843711851E+04  0.14987707266E+04 0.  0.
        4    1    3    3  502    0 -0.32414564065E+03 -0.56471275236E+03  0.64900415800E+03  0.91933611864E+03  0.12699999809E+01 0.  1.
       -4    1    3    3    0  502  0.32414564065E+03  0.56471275236E+03 -0.13527430558E+03  0.66503506651E+03  0.12699999809E+01 0. -1.
</event>
<event>
 5   0  0.1186664E-04  0.1498417E+04  0.7818609E-02  0.8885506E-01
        2   -1    0    0  501    0  0.00000000000E+00  0.00000000000E+00  0.10220647937E+04  0.10220647937E+04  0.25500000920E-02 0. -1.
       -2   -1    0    0    0  501  0.00000000000E+00  0.00000000000E+00 -0.54919574611E+03  0.54919574612E+03  0.25500000920E-02 0.  1.
    10030    2    1    2    0    0  0.00000000000E+00  0.00000000000E+00  0.47286904761E+03  0.15712605398E+04  0.14984173477E+04 0.  0.
        3    1    3    3  502    0 -0.92624742078E+02 -0.73844908458E+03  0.32680549463E+03  0.81282730938E+03  0.10100000352E+00 0.  1.
       -3    1    3    3    0  502  0.92624742078E+02  0.73844908458E+03  0.14606355299E+03  0.75843323046E+03  0.10100000352E+00 0. -1.
</event>
<event>
 5   0  0.1219810E-04  0.1498265E+04  0.7818609E-02  0.8885608E-01
       -2   -1    0    0    0  501  0.00000000000E+00  0.00000000000E+00  0.48110547025E+03  0.48110547025E+03  0.25500000920E-02 0.  1.
        2   -1    0    0  501    0  0.00000000000E+00  0.00000000000E+00 -0.11664785739E+04  0.11664785739E+04  0.25500000920E-02 0. -1.
    10030    2    1    2    0    0  0.00000000000E+00  0.00000000000E+00 -0.68537310368E+03  0.16475840442E+04  0.14982646266E+04 0.  0.
        1    1    3    3  502    0 -0.30045996405E+03  0.13393273266E+03  0.39743148587E+03  0.51591273764E+03  0.50400001928E-02 0.  1.
       -1    1    3    3    0  502  0.30045996405E+03 -0.13393273266E+03 -0.10828045895E+04  0.11316713065E+04  0.50400001928E-02 0. -1.
</event>
<event>
 5   0  0.1216921E-04  0.1498377E+04  0.7818609E-02  0.8885533E-01
        2   -1    0    0  501    0  0.00000000000E+00  0.00000000000E+00  0.73901991847E+03  0.73901991848E+03  0.25500000920E-02 0.  1.
       -2   -1    0    0    0  501  0.00000000000E+00  0.00000000000E+00 -0.75949744071E+03  0.75949744071E+03  0.25500000920E-02 0. -1.
    10030    2    1    2    0    0  0.00000000000E+00  0.00000000000E+00 -0.20477522234E+02  0.14985173592E+04  0.14983774381E+04 0.  0.
        4    1    3    3  502    0  0.25858614842E+03  0.42563949696E+03 -0.56997517410E+03  0.75690758321E+03  0.12699999809E+01 0. -1.
       -4    1    3    3    0  502 -0.25858614842E+03 -0.42563949696E+03  0.54949765187E+03  0.74160977598E+03  0.12699999809E+01 0.  1.
</event>
<event>
 5   0  0.6361716E-05  0.1500001E+04  0.7818609E-02  0.8884452E-01
       -1   -1    0    0    0  501  0.00000000000E+00  0.00000000000E+00  0.68552392573E+03  0.68552392575E+03  0.50400001928E-02 0.  1.
        1   -1    0    0  501    0  0.00000000000E+00  0.00000000000E+00 -0.82054145213E+03  0.82054145214E+03  0.50400001928E-02 0. -1.
    10030    2    1    2    0    0  0.00000000000E+00  0.00000000000E+00 -0.13501752639E+03  0.15060653779E+04  0.15000010634E+04 0.  0.
        3    1    3    3  502    0 -0.13313356841E+03  0.73808635797E+03 -0.65316255428E+02  0.75283613242E+03  0.10100000352E+00 0.  1.
       -3    1    3    3    0  502  0.13313356841E+03 -0.73808635797E+03 -0.69701270967E+02  0.75322924547E+03  0.10100000352E+00 0. -1.
</event>
<event>
 5   0  0.1186664E-04  0.1498515E+04  0.7818609E-02  0.8885441E-01
        2   -1    0    0  501    0  0.00000000000E+00  0.00000000000E+00  0.17614841040E+04  0.17614841040E+04  0.25500000920E-02 0.  1.
       -2   -1    0    0    0  501  0.00000000000E+00  0.00000000000E+00 -0.31870105076E+03  0.31870105077E+03  0.25500000920E-02 0. -1.
    10030    2    1    2    0    0  0.00000000000E+00  0.00000000000E+00  0.14427830532E+04  0.20801851547E+04  0.14985150448E+04 0.  0.
        3    1    3    3  502    0 -0.30986765155E+03 -0.68163181982E+03  0.68345308469E+03  0.10137790827E+04  0.10100000352E+00 0. -1.
       -3    1    3    3    0  502  0.30986765155E+03  0.68163181982E+03  0.75932996853E+03  0.10664060721E+04  0.10100000352E+00 0.  1.
</event>
<event>
 5   0  0.6361716E-05  0.1495729E+04  0.7818609E-02  0.8887298E-01
       -1   -1    0    0    0  501  0.00000000000E+00  0.00000000000E+00  0.35713335989E+03  0.35713335992E+03  0.50400001928E-02 0.  1.
        1   -1    0    0  501    0  0.00000000000E+00  0.00000000000E+00 -0.15660848435E+04  0.15660848435E+04  0.50400001928E-02 0. -1.
    10030    2    1    2    0    0  0.00000000000E+00  0.00000000000E+00 -0.12089514836E+04  0.19232182034E+04  0.14957287750E+04 0.  0.
        3    1    3    3  502    0  0.52309883068E+03  0.43787299954E+03 -0.21038911184E+03  0.71388286082E+03  0.10100000352E+00 0.  1.
       -3    1    3    3    0  502 -0.52309883068E+03 -0.43787299954E+03 -0.99856237178E+03  0.12093353426E+04  0.10100000352E+00 0. -1.
</event>
<event>
 5   0  0.1216921E-04  0.1500080E+04  0.7818609E-02  0.8884400E-01
       -2   -1    0    0    0  501  0.00000000000E+00  0.00000000000E+00  0.68533312945E+03  0.68533312946E+03  0.25500000920E-02 0.  1.
        2   -1    0    0  501    0  0.00000000000E+00  0.00000000000E+00 -0.82085644779E+03  0.82085644780E+03  0.25500000920E-02 0. -1.
    10030    2    1    2    0    0  0.00000000000E+00  0.00000000000E+00 -0.13552331834E+03  0.15061895773E+04  0.15000801555E+04 0.  0.
        4    1    3    3  502    0  0.40785754033E+03 -0.62656137422E+03 -0.12826965478E+03  0.75853915265E+03  0.12699999809E+01 0.  1.
       -4    1    3    3    0  502 -0.40785754033E+03  0.62656137422E+03 -0.72536635573E+01  0.74765042460E+03  0.12699999809E+01 0. -1.
</event>
<event>
 5   0  0.1228286E-04  0.1499485E+04  0.7818609E-02  0.8884795E-01
        2   -1    0    0  501    0  0.00000000000E+00  0.00000000000E+00  0.11681177608E+04  0.11681177608E+04  0.25500000920E-02 0.  1.
       -2   -1    0    0    0  501  0.00000000000E+00  0.00000000000E+00 -0.48121329891E+03  0.48121329892E+03  0.25500000920E-02 0. -1.
    10030    2    1    2    0    0  0.00000000000E+00  0.00000000000E+00  0.68690446184E+03  0.16493310597E+04  0.14994849798E+04 0.  0.
        2    1    3    3  502    0 -0.72211747520E+02  0.16048437207E+03 -0.45817390870E+03  0.49080861930E+03  0.25500000920E-02 0. -1.
       -2    1    3    3    0  502  0.72211747520E+02 -0.16048437207E+03  0.11450783705E+04  0.11585224404E+04  0.25500000920E-02 0.  1.
</event>
<event>
 5   0  0.1219810E-04  0.1521875E+04  0.7818609E-02  0.8870035E-01
       -2   -1    0    0    0  501  0.00000000000E+00  0.00000000000E+00  0.12057112698E+04  0.12057112698E+04  0.25500000920E-02 0.  1.
        2   -1    0    0  501    0  0.00000000000E+00  0.00000000000E+00 -0.48023590490E+03  0.48023590491E+03  0.25500000920E-02 0. -1.
    10030    2    1    2    0    0  0.00000000000E+00  0.00000000000E+00  0.72547536491E+03  0.16859471747E+04  0.15218749524E+04 0.  0.
        1    1    3    3  502    0 -0.29312832455E+02 -0.26730950417E+03 -0.42584218744E+03  0.50364191822E+03  0.50400001928E-02 0. -1.
       -1    1    3    3    0  502  0.29312832455E+02  0.26730950417E+03  0.11513175523E+04  0.11823052565E+04  0.50400001928E-02 0.  1.
</event>
<event>
 5   0  0.1186664E-04  0.1508364E+04  0.7818609E-02  0.8878910E-01
        2   -1    0    0  501    0  0.00000000000E+00  0.00000000000E+00  0.50481140328E+03  0.50481140329E+03  0.25500000920E-02 0. -1.
       -2   -1    0    0    0  501  0.00000000000E+00  0.00000000000E+00 -0.11267391471E+04  0.11267391471E+04  0.25500000920E-02 0.  1.
    10030    2    1    2    0    0  0.00000000000E+00  0.00000000000E+00 -0.62192774379E+03  0.16315505504E+04  0.15083643724E+04 0.  0.
        3    1    3    3  502    0  0.30702282430E+03 -0.63876925511E+02  0.43094376776E+03  0.53296887098E+03  0.10100000352E+00 0. -1.
       -3    1    3    3    0  502 -0.30702282430E+03  0.63876925511E+02 -0.10528715116E+04  0.10985816794E+04  0.10100000352E+00 0.  1.
</event>
<event>
 5   0  0.1228286E-04  0.1499682E+04  0.7818609E-02  0.8884665E-01
        2   -1    0    0  501    0  0.00000000000E+00  0.00000000000E+00  0.19172771979E+04  0.19172771979E+04  0.25500000920E-02 0. -1.
       -2   -1    0    0    0  501  0.00000000000E+00  0.00000000000E+00 -0.29326030887E+03  0.29326030888E+03  0.25500000920E-02 0.  1.
    10030    2    1    2    0    0  0.00000000000E+00  0.00000000000E+00  0.16240168891E+04  0.22105375068E+04  0.14996817039E+04 0.  0.
        2    1    3    3  502    0 -0.59390906681E+03 -0.61497005012E+02  0.14340249194E+03  0.61406362534E+03  0.25500000920E-02 0.  1.
       -2    1    3    3    0  502  0.59390906681E+03  0.61497005012E+02  0.14806143971E+04  0.15964738815E+04  0.25500000920E-02 0. -1.
</event>
<event>
 5   0  0.6509279E-05  0.1500205E+04  0.7818609E-02  0.8884316E-01
       -1   -1    0    0    0  501  0.00000000000E+00  0.00000000000E+00  0.32161717602E+03  0.32161717606E+03  0.50400001928E-02 0. -1.
        1   -1    0    0  501    0  0.00000000000E+00  0.00000000000E+00 -0.17494525778E+04  0.17494525778E+04  0.50400001928E-02 0.  1.
    10030    2    1    2    0    0  0.00000000000E+00  0.00000000000E+00 -0.14278354018E+04  0.20710697539E+04  0.15002053162E+04 0.  0.
        2    1    3    3  502    0  0.20069448349E+03  0.48045151191E+03  0.31491312969E+02  0.52163553732E+03  0.25500000920E-02 0. -1.
       -2    1    3    3    0  502 -0.20069448349E+03 -0.48045151191E+03 -0.14593267148E+04  0.15494342165E+04  0.25500000920E-02 0.  1.
</event>
<event>
 5   0  0.6509279E-05  0.1500452E+04  0.7818609E-02  0.8884152E-01
       -1   -1    0    0    0  501  0.00000000000E+00  0.00000000000E+00  0.68681473244E+03  0.68681473246E+03  0.50400001928E-02 0. -1.
        1   -1    0    0  501    0  0.00000000000E+00  0.00000000000E+00 -0.81949166049E+03  0.81949166050E+03  0.50400001928E-02 0.  1.
    10030    2    1    2    0    0  0.00000000000E+00  0.00000000000E+00 -0.13267692805E+03  0.15063063930E+04  0.15004518594E+04 0.  0.
        2    1    3    3  502    0  0.58301111288E+03 -0.10377679281E+03 -0.52875200665E+03  0.79388302981E+03  0.25500000920E-02 0.  1.
       -2    1    3    3    0  502 -0.58301111288E+03  0.10377679281E+03  0.39607507860E+03  0.71242336316E+03  0.25500000920E-02 0. -1.
</event>
<event>
 5   0  0.6542036E-05  0.1501018E+04  0.7818609E-02  0.8883776E-01
        1   -1    0    0  501    0  0.00000000000E+00  0.00000000000E+00  0.91750490533E+03  0.91750490535E+03  0.50400001928E-02 0. -1.
       -1   -1    0    0    0  501  0.00000000000E+00  0.00000000000E+00 -0.61390786720E+03  0.61390786722E+03  0.50400001928E-02 0.  1.
    10030    2    1    2    0    0  0.00000000000E+00  0.00000000000E+00  0.30359703814E+03  0.15314127726E+04  0.15010176276E+04 0.  0.
        4    1    3    3  502    0 -0.95886748300E+02 -0.72997105709E+03  0.30038363656E+03  0.79516284792E+03  0.12699999809E+01 0. -1.
       -4    1    3    3    0  502  0.95886748300E+02  0.72997105709E+03  0.32134015776E+01  0.73624992465E+03  0.12699999809E+01 0.  1.
</event>
<event>
 5   0  0.6364378E-05  0.1498689E+04  0.7818609E-02  0.8885325E-01
       -1   -1    0    0    0  501  0.00000000000E+00  0.00000000000E+00  0.44876228923E+03  0.44876228926E+03  0.50400001928E-02 0. -1.
        1   -1    0    0  501    0  0.00000000000E+00  0.00000000000E+00 -0.12512570678E+04  0.12512570678E+04  0.50400001928E-02 0.  1.
    10030    2    1    2    0    0  0.00000000000E+00  0.00000000000E+00 -0.80249477853E+03  0.17000193570E+04  0.14986887418E+04 0.  0.
        5    1    3    3  502    0 -0.70412655373E+03 -0.16977201450E+03 -0.61908206716E+03  0.95283862036E+03  0.46999998093E+01 0.  1.
       -5    1    3    3    0  502  0.70412655373E+03  0.16977201450E+03 -0.18341271137E+03  0.74718073668E+03  0.46999998093E+01 0. -1.
</event>
<event>
 5   0  0.6364378E-05  0.1504007E+04  0.7818609E-02  0.8881793E-01
        1   -1    0    0  501    0  0.00000000000E+00  0.00000000000E+00  0.28167256592E+03  0.28167256597E+03  0.50400001928E-02 0. -1.
       -1   -1    0    0    0  501  0.00000000000E+00  0.00000000000E+00 -0.20076834966E+04  0.20076834967E+04  0.50400001928E-02 0.  1.
    10030    2    1    2    0    0  0.00000000000E+00  0.00000000000E+00 -0.17260109307E+04  0.22893560626E+04  0.15040071305E+04 0.  0.
        5    1    3    3  502    0 -0.66203955139E+03 -0.32636564604E+03 -0.10818826993E+04  0.13096958302E+04  0.46999998093E+01 0.  1.
       -5    1    3    3    0  502  0.66203955139E+03  0.32636564604E+03 -0.64412823139E+03  0.97966023242E+03  0.46999998093E+01 0. -1.
</event>
<event>
 5   0  0.1186664E-04  0.1500952E+04  0.7818609E-02  0.8883820E-01
       -2   -1    0    0    0  501  0.00000000000E+00  0.00000000000E+00  0.28735793695E+03  0.28735793696E+03  0.25500000920E-02 0. -1.
        2   -1    0    0  501    0  0.00000000000E+00  0.00000000000E+00 -0.19599738998E+04  0.19599738998E+04  0.25500000920E-02 0.  1.
    10030    2    1    2    0    0  0.00000000000E+00  0.00000000000E+00 -0.16726159629E+04  0.22473318368E+04  0.15009517732E+04 0.  0.
        3    1    3    3  502    0  0.84948444977E+02 -0.71377941808E+03 -0.11592355694E+04  0.13640104148E+04  0.10100000352E+00 0. -1.
       -3    1    3    3    0  502 -0.84948444977E+02  0.71377941808E+03 -0.51338039341E+03  0.88332142198E+03  0.10100000352E+00 0.  1.
</event>
<event>
 5   0  0.1186664E-04  0.1505569E+04  0.7818609E-02  0.8880758E-01
       -2   -1    0    0    0  501  0.00000000000E+00  0.00000000000E+00  0.12911712583E+04  0.12911712583E+04  0.25500000920E-02 0.  1.
        2   -1    0    0  501    0  0.00000000000E+00  0.00000000000E+00 -0.43889165322E+03  0.43889165323E+03  0.25500000920E-02 0. -1.
    10030    2    1    2    0    0  0.00000000000E+00  0.00000000000E+00  0.85227960503E+03  0.17300629115E+04  0.15055687140E+04 0.  0.
        3    1    3    3  502    0  0.22008098922E+03 -0.52301178269E+03  0.99458000719E+03  0.11450617309E+04  0.10100000352E+00 0.  1.
       -3    1    3    3    0  502 -0.22008098922E+03  0.52301178269E+03 -0.14230040215E+03  0.58500118060E+03  0.10100000352E+00 0. -1.
</event>
<event>
 5   0  0.4462875E-05  0.1499339E+04  0.7818609E-02  0.8884893E-01
        3   -1    0    0  501    0  0.00000000000E+00  0.00000000000E+00  0.13274659353E+04  0.13274659391E+04  0.10100000352E+00 0.  1.
       -3   -1    0    0    0  501  0.00000000000E+00  0.00000000000E+00 -0.42336605961E+03  0.42336607166E+03  0.10100000352E+00 0. -1.
    10030    2    1    2    0    0  0.00000000000E+00  0.00000000000E+00  0.90409987567E+03  0.17508320108E+04  0.14993385691E+04 0.  0.
        2    1    3    3  502    0 -0.37234364658E+03  0.17343416939E+03  0.11843656715E+04  0.12535713965E+04  0.25500000920E-02 0.  1.
       -2    1    3    3    0  502  0.37234364658E+03 -0.17343416939E+03 -0.28026579579E+03  0.49726061433E+03  0.25500000920E-02 0. -1.
</event>
<event>
 5   0  0.1219810E-04  0.1499183E+04  0.7818609E-02  0.8884996E-01
        2   -1    0    0  501    0  0.00000000000E+00  0.00000000000E+00  0.15936279425E+04  0.15936279425E+04  0.25500000920E-02 0.  1.
       -2   -1    0    0    0  501  0.00000000000E+00  0.00000000000E+00 -0.35258391577E+03  0.35258391578E+03  0.25500000920E-02 0. -1.
    10030    2    1    2    0    0  0.00000000000E+00  0.00000000000E+00  0.12410440267E+04  0.19462118583E+04  0.14991832180E+04 0.  0.
        1    1    3    3  502    0  0.14392486758E+03  0.76627821402E+02 -0.32928328475E+03  0.36744206640E+03  0.50400001928E-02 0. -1.
       -1    1    3    3    0  502 -0.14392486758E+03 -0.76627821402E+02  0.15703273115E+04  0.15787697919E+04  0.50400001928E-02 0.  1.
</event>
<event>
 5   0  0.6509279E-05  0.1492788E+04  0.7818609E-02  0.8889263E-01
        1   -1    0    0  501    0  0.00000000000E+00  0.00000000000E+00  0.19844874721E+04  0.19844874721E+04  0.50400001928E-02 0. -1.
       -1   -1    0    0    0  501  0.00000000000E+00  0.00000000000E+00 -0.28072940593E+03  0.28072940598E+03  0.50400001928E-02 0.  1.
    10030    2    1    2    0    0  0.00000000000E+00  0.00000000000E+00  0.17037580662E+04  0.22652168781E+04  0.14927879812E+04 0.  0.
        2    1    3    3  502    0  0.54254676769E+03  0.33457122393E+03  0.14411640773E+04  0.15758327312E+04  0.25500000920E-02 0. -1.
       -2    1    3    3    0  502 -0.54254676769E+03 -0.33457122393E+03  0.26259398892E+03  0.68938414693E+03  0.25500000920E-02 0.  1.
</event>
<event>
 5   0  0.1186664E-04  0.1499825E+04  0.7818609E-02  0.8884569E-01
       -2   -1    0    0    0  501  0.00000000000E+00  0.00000000000E+00  0.61070029404E+03  0.61070029404E+03  0.25500000920E-02 0.  1.
        2   -1    0    0  501    0  0.00000000000E+00  0.00000000000E+00 -0.92085849995E+03  0.92085849995E+03  0.25500000920E-02 0. -1.
    10030    2    1    2    0    0  0.00000000000E+00  0.00000000000E+00 -0.31015820591E+03  0.15315587940E+04  0.14998247320E+04 0.  0.
        3    1    3    3  502    0 -0.43807120082E+03  0.19479854567E+03 -0.74392172487E+03  0.88502677548E+03  0.10100000352E+00 0. -1.
       -3    1    3    3    0  502  0.43807120082E+03 -0.19479854567E+03  0.43376351896E+03  0.64653201851E+03  0.10100000352E+00 0.  1.
</event>
<event>
 5   0  0.1216921E-04  0.1499592E+04  0.7818609E-02  0.8884724E-01
        2   -1    0    0  501    0  0.00000000000E+00  0.00000000000E+00  0.12963622791E+04  0.12963622792E+04  0.25500000920E-02 0.  1.
       -2   -1    0    0    0  501  0.00000000000E+00  0.00000000000E+00 -0.43367042041E+03  0.43367042042E+03  0.25500000920E-02 0. -1.
    10030    2    1    2    0    0  0.00000000000E+00  0.00000000000E+00  0.86269185874E+03  0.17300326996E+04  0.14995919106E+04 0.  0.
        4    1    3    3  502    0  0.33836443752E+03 -0.66758782607E+03  0.37938772555E+03  0.83910705949E+03  0.12699999809E+01 0.  1.
       -4    1    3    3    0  502 -0.33836443752E+03  0.66758782607E+03  0.48330413319E+03  0.89092564008E+03  0.12699999809E+01 0. -1.
</event>
<event>
 5   0  0.1254487E-04  0.1502010E+04  0.7818609E-02  0.8883117E-01
        2   -1    0    0  501    0  0.00000000000E+00  0.00000000000E+00  0.74061866365E+03  0.74061866365E+03  0.25500000920E-02 0.  1.
       -2   -1    0    0    0  501  0.00000000000E+00  0.00000000000E+00 -0.76153735154E+03  0.76153735154E+03  0.25500000920E-02 0. -1.
    10030    2    1    2    0    0  0.00000000000E+00  0.00000000000E+00 -0.20918687889E+02  0.15021560152E+04  0.15020103537E+04 0.  0.
        5    1    3    3  502    0  0.30896363426E+03 -0.29346019525E+02 -0.69438746913E+03  0.76060223733E+03  0.46999998093E+01 0. -1.
       -5    1    3    3    0  502 -0.30896363426E+03  0.29346019525E+02  0.67346878124E+03  0.74155377786E+03  0.46999998093E+01 0.  1.
</event>
<event>
 5   0  0.6668433E-05  0.1500321E+04  0.7818609E-02  0.8884240E-01
       -1   -1    0    0    0  501  0.00000000000E+00  0.00000000000E+00  0.33702803415E+03  0.33702803419E+03  0.50400001928E-02 0. -1.
        1   -1    0    0  501    0  0.00000000000E+00  0.00000000000E+00 -0.16697148194E+04  0.16697148194E+04  0.50400001928E-02 0.  1.
    10030    2    1    2    0    0  0.00000000000E+00  0.00000000000E+00 -0.13326867853E+04  0.20067428536E+04  0.15003209033E+04 0.  0.
        1    1    3    3  502    0  0.10367667322E+03 -0.73890095202E+03 -0.77009766900E+03  0.10722750996E+04  0.50400001928E-02 0. -1.
       -1    1    3    3    0  502 -0.10367667322E+03  0.73890095202E+03 -0.56258911628E+03  0.93446775399E+03  0.50400001928E-02 0.  1.
</event>
<event>
 5   0  0.6361716E-05  0.1500398E+04  0.7818609E-02  0.8884188E-01
       -1   -1    0    0    0  501  0.00000000000E+00  0.00000000000E+00  0.11600399776E+04  0.11600399776E+04  0.50400001928E-02 0. -1.
        1   -1    0    0  501    0  0.00000000000E+00  0.00000000000E+00 -0.48515444585E+03  0.48515444588E+03  0.50400001928E-02 0.  1.
    10030    2    1    2    0    0  0.00000000000E+00  0.00000000000E+00  0.67488553174E+03  0.16451944235E+04  0.15003980172E+04 0.  0.
        3    1    3    3  502    0  0.66558175275E+03  0.31988894673E+03  0.19251091341E+03  0.76314380677E+03  0.10100000352E+00 0.  1.
       -3    1    3    3    0  502 -0.66558175275E+03 -0.31988894673E+03  0.48237461833E+03  0.88205061671E+03  0.10100000352E+00 0. -1.
</event>
<event>
 5   0  0.6542036E-05  0.1498798E+04  0.7818609E-02  0.8885253E-01
       -1   -1    0    0    0  501  0.00000000000E+00  0.00000000000E+00  0.34174035252E+03  0.34174035255E+03  0.50400001928E-02 0. -1.
        1   -1    0    0  501    0  0.00000000000E+00  0.00000000000E+00 -0.16433486639E+04  0.16433486639E+04  0.50400001928E-02 0.  1.
    10030    2    1    2    0    0  0.00000000000E+00  0.00000000000E+00 -0.13016083114E+04  0.19850890165E+04  0.14987975871E+04 0.  0.
        4    1    3    3  502    0 -0.57571844732E+03  0.34394816216E+03 -0.20786401860E+03  0.70211190843E+03  0.12699999809E+01 0. -1.
       -4    1    3    3    0  502  0.57571844732E+03 -0.34394816216E+03 -0.10937442928E+04  0.12829771081E+04  0.12699999809E+01 0.  1.
</event>
<event>
 5   0  0.6364378E-05  0.1500486E+04  0.7818609E-02  0.8884130E-01
        1   -1    0    0  501    0  0.00000000000E+00  0.00000000000E+00  0.44978755969E+03  0.44978755972E+03  0.50400001928E-02 0.  1.
       -1   -1    0    0    0  501  0.00000000000E+00  0.00000000000E+00 -0.12514007093E+04  0.12514007093E+04  0.50400001928E-02 0. -1.
    10030    2    1    2    0    0  0.00000000000E+00  0.00000000000E+00 -0.80161314959E+03  0.17011882690E+04  0.15004858830E+04 0.  0.
        5    1    3    3  502    0  0.89814923665E+02 -0.65551521405E+02  0.44037685449E+03  0.45422195724E+03  0.46999998093E+01 0.  1.
       -5    1    3    3    0  502 -0.89814923665E+02  0.65551521405E+02 -0.12419900041E+04  0.12469663118E+04  0.46999998093E+01 0. -1.
</event>
<event>
 5   0  0.1186664E-04  0.1501490E+04  0.7818609E-02  0.8883463E-01
       -2   -1    0    0    0  501  0.00000000000E+00  0.00000000000E+00  0.49033337086E+03  0.49033337087E+03  0.25500000920E-02 0. -1.
        2   -1    0    0  501    0  0.00000000000E+00  0.00000000000E+00 -0.11494583143E+04  0.11494583143E+04  0.25500000920E-02 0.  1.
    10030    2    1    2    0    0  0.00000000000E+00  0.00000000000E+00 -0.65912494340E+03  0.16397916851E+04  0.15014896202E+04 0.  0.
        3    1    3    3  502    0 -0.58662043047E+03  0.16530456323E+03  0.14918621375E+03  0.62745969164E+03  0.10100000352E+00 0.  1.
       -3    1    3    3    0  502  0.58662043047E+03 -0.16530456323E+03 -0.80831115715E+03  0.10123319935E+04  0.10100000352E+00 0. -1.
</event>
<event>
 5   0  0.6509279E-05  0.1499923E+04  0.7818609E-02  0.8884504E-01
        1   -1    0    0  501    0  0.00000000000E+00  0.00000000000E+00  0.98919583215E+03  0.98919583216E+03  0.50400001928E-02 0.  1.
       -1   -1    0    0    0  501  0.00000000000E+00  0.00000000000E+00 -0.56858570837E+03  0.56858570839E+03  0.50400001928E-02 0. -1.
    10030    2    1    2    0    0  0.00000000000E+00  0.00000000000E+00  0.42061012378E+03  0.15577815406E+04  0.14999234820E+04 0.  0.
        2    1    3    3  502    0  0.45785897967E+03  0.57462536120E+03  0.54126659361E+02  0.73672168847E+03  0.25500000920E-02 0.  1.
       -2    1    3    3    0  502 -0.45785897967E+03 -0.57462536120E+03  0.36648346442E+03  0.82105985208E+03  0.25500000920E-02 0. -1.
</event>
<event>
 5   0  0.6542036E-05  0.1500487E+04  0.7818609E-02  0.8884129E-01
        1   -1    0    0  501    0  0.00000000000E+00  0.00000000000E+00  0.53693189641E+03  0.53693189644E+03  0.50400001928E-02 0. -1.
       -1   -1    0    0    0  501  0.00000000000E+00  0.00000000000E+00 -0.10482989446E+04  0.10482989446E+04  0.50400001928E-02 0.  1.
    10030    2    1    2    0    0  0.00000000000E+00  0.00000000000E+00 -0.51136704821E+03  0.15852308411E+04  0.15004867748E+04 0.  0.
        4    1    3    3  502    0 -0.24958446828E+03 -0.10805069857E+03 -0.99438447383E+03  0.10309071030E+04  0.12699999809E+01 0.  1.
       -4    1    3    3    0  502  0.24958446828E+03  0.10805069857E+03  0.48301742562E+03  0.55432373810E+03  0.12699999809E+01 0. -1.
</event>
<event>
 5   0  0.6361716E-05  0.1497043E+04  0.7818609E-02  0.8886422E-01
        1   -1    0    0  501    0  0.00000000000E+00  0.00000000000E+00  0.78830591654E+03  0.78830591656E+03  0.50400001928E-02 0.  1.
       -1   -1    0    0    0  501  0.00000000000E+00  0.00000000000E+00 -0.71074516569E+03  0.71074516571E+03  0.50400001928E-02 0. -1.
    10030    2    1    2    0    0  0.00000000000E+00  0.00000000000E+00  0.77560750854E+02  0.14990510823E+04  0.14970432449E+04 0.  0.
        3    1    3    3  502    0  0.60077046356E+03 -0.32677534444E+03 -0.26589294111E+03  0.73376177466E+03  0.10100000352E+00 0. -1.
       -3    1    3    3    0  502 -0.60077046356E+03  0.32677534444E+03  0.34345369196E+03  0.76528930761E+03  0.10100000352E+00 0.  1.
</event>
<event>
 5   0  0.6542036E-05  0.1499644E+04  0.7818609E-02  0.8884690E-01
       -1   -1    0    0    0  501  0.00000000000E+00  0.00000000000E+00  0.64671987410E+03  0.64671987412E+03  0.50400001928E-02 0.  1.
        1   -1    0    0  501    0  0.00000000000E+00  0.00000000000E+00 -0.86936061132E+03  0.86936061134E+03  0.50400001928E-02 0. -1.
    10030    2    1    2    0    0  0.00000000000E+00  0.00000000000E+00 -0.22264073722E+03  0.15160804855E+04  0.14996436712E+04 0.  0.
        4    1    3    3  502    0 -0.47755308405E+03 -0.16222397101E+03 -0.67225095716E+03  0.84041449724E+03  0.12699999809E+01 0. -1.
       -4    1    3    3    0  502  0.47755308405E+03  0.16222397101E+03  0.44961021994E+03  0.67566598822E+03  0.12699999809E+01 0.  1.
</event>
<event>
 5   0  0.1228286E-04  0.1502991E+04  0.7818609E-02  0.8882466E-01
       -2   -1    0    0    0  501  0.00000000000E+00  0.00000000000E+00  0.78431682926E+03  0.78431682926E+03  0.25500000920E-02 0.  1.
        2   -1    0    0  501    0  0.00000000000E+00  0.00000000000E+00 -0.72004758921E+03  0.72004758921E+03  0.25500000920E-02 0. -1.
    10030    2    1    2    0    0  0.00000000000E+00  0.00000000000E+00  0.64269240052E+02  0.15043644185E+04  0.15029909409E+04 0.  0.
        2    1    3    3  502    0 -0.15637572780E+03  0.26988123140E+03 -0.65219785454E+03  0.72294625581E+03  0.25500000920E-02 0. -1.
       -2    1    3    3    0  502  0.15637572780E+03 -0.26988123140E+03  0.71646709459E+03  0.78141816267E+03  0.25500000920E-02 0.  1.
</event>
<event>
 5   0  0.1254487E-04  0.1497212E+04  0.7818609E-02  0.8886309E-01
       -2   -1    0    0    0  501  0.00000000000E+00  0.00000000000E+00  0.48331105179E+03  0.48331105180E+03  0.25500000920E-02 0. -1.
        2   -1    0    0  501    0  0.00000000000E+00  0.00000000000E+00 -0.11595244703E+04  0.11595244703E+04  0.25500000920E-02 0.  1.
    10030    2    1    2    0    0  0.00000000000E+00  0.00000000000E+00 -0.67621341853E+03  0.16428355221E+04  0.14972120643E+04 0.  0.
        5    1    3    3  502    0 -0.70186875261E+03 -0.10636345400E+03 -0.77391895779E+02  0.71410400206E+03  0.46999998093E+01 0. -1.
       -5    1    3    3    0  502  0.70186875261E+03  0.10636345400E+03 -0.59882152276E+03  0.92873152006E+03  0.46999998093E+01 0.  1.
</event>
<event>
 5   0  0.1186664E-04  0.1500282E+04  0.7818609E-02  0.8884265E-01
       -2   -1    0    0    0  501  0.00000000000E+00  0.00000000000E+00  0.24546893182E+03  0.24546893183E+03  0.25500000920E-02 0. -1.
        2   -1    0    0  501    0  0.00000000000E+00  0.00000000000E+00 -0.22923953955E+04  0.22923953955E+04  0.25500000920E-02 0.  1.
    10030    2    1    2    0    0  0.00000000000E+00  0.00000000000E+00 -0.20469264637E+04  0.25378643274E+04  0.15002824388E+04 0.  0.
        3    1    3    3  502    0 -0.18539733563E+03  0.69206972125E+02 -0.22474436875E+04  0.22561393830E+04  0.10100000352E+00 0.  1.
       -3    1    3    3    0  502  0.18539733563E+03 -0.69206972125E+02  0.20051722375E+03  0.28172494435E+03  0.10100000352E+00 0. -1.
</event>
<event>
 5   0  0.1254487E-04  0.1495746E+04  0.7818609E-02  0.8887287E-01
        2   -1    0    0  501    0  0.00000000000E+00  0.00000000000E+00  0.10228935703E+04  0.10228935703E+04  0.25500000920E-02 0. -1.
       -2   -1    0    0    0  501  0.00000000000E+00  0.00000000000E+00 -0.54679603423E+03  0.54679603423E+03  0.25500000920E-02 0.  1.
    10030    2    1    2    0    0  0.00000000000E+00  0.00000000000E+00  0.47609753609E+03  0.15696896046E+04  0.14957461652E+04 0.  0.
        5    1    3    3  502    0 -0.12236352239E+03 -0.20678260674E+03 -0.50517126736E+03  0.55942110921E+03  0.46999998093E+01 0.  1.
       -5    1    3    3    0  502  0.12236352239E+03  0.20678260674E+03  0.98126880345E+03  0.10102684953E+04  0.46999998093E+01 0. -1.
</event>
<event>
 5   0  0.6542036E-05  0.1488606E+04  0.7818609E-02  0.8892065E-01
       -1   -1    0    0    0  501  0.00000000000E+00  0.00000000000E+00  0.43522371913E+03  0.43522371916E+03  0.50400001928E-02 0. -1.
        1   -1    0    0  501    0  0.00000000000E+00  0.00000000000E+00 -0.12728786940E+04  0.12728786940E+04  0.50400001928E-02 0.  1.
    10030    2    1    2    0    0  0.00000000000E+00  0.00000000000E+00 -0.83765497485E+03  0.17081024131E+04  0.14886060583E+04 0.  0.
        4    1    3    3  502    0  0.37294008942E+03 -0.13482578712E+03  0.30390546972E+03  0.49962230794E+03  0.12699999809E+01 0. -1.
       -4    1    3    3    0  502 -0.37294008942E+03  0.13482578712E+03 -0.11415604446E+04  0.12084801052E+04  0.12699999809E+01 0.  1.
</event>
<event>
 5   0  0.6364378E-05  0.1500761E+04  0.7818609E-02  0.8883947E-01
       -1   -1    0    0    0  501  0.00000000000E+00  0.00000000000E+00  0.41892591186E+03  0.41892591189E+03  0.50400001928E-02 0. -1.
        1   -1    0    0  501    0  0.00000000000E+00  0.00000000000E+00 -0.13440829969E+04  0.13440829969E+04  0.50400001928E-02 0.  1.
    10030    2    1    2    0    0  0.00000000000E+00  0.00000000000E+00 -0.92515708506E+03  0.17630089088E+04  0.15007614003E+04 0.  0.
        5    1    3    3  502    0  0.51845862623E+02 -0.68091144638E+03 -0.97234018430E+02  0.68978615210E+03  0.46999998093E+01 0. -1.
       -5    1    3    3    0  502 -0.51845862623E+02  0.68091144638E+03 -0.82792306663E+03  0.10732227567E+04  0.46999998093E+01 0.  1.
</event>
<event>
 5   0  0.6361716E-05  0.1546750E+04  0.7818609E-02  0.8853946E-01
        1   -1    0    0  501    0  0.00000000000E+00  0.00000000000E+00  0.12004038874E+04  0.12004038874E+04  0.50400001928E-02 0. -1.
       -1   -1    0    0    0  501  0.00000000000E+00  0.00000000000E+00 -0.49825639203E+03  0.49825639206E+03  0.50400001928E-02 0.  1.
    10030    2    1    2    0    0  0.00000000000E+00  0.00000000000E+00  0.70214749537E+03  0.16986602795E+04  0.15467500250E+04 0.  0.
        3    1    3    3  502    0  0.10935080333E+02 -0.15427210858E+03  0.11832474751E+04  0.11933122211E+04  0.10100000352E+00 0. -1.
       -3    1    3    3    0  502 -0.10935080333E+02  0.15427210858E+03 -0.48109997971E+03  0.50534805841E+03  0.10100000352E+00 0.  1.
</event>
<event>
 5   0  0.6364378E-05  0.1502594E+04  0.7818609E-02  0.8882730E-01
        1   -1    0    0  501    0  0.00000000000E+00  0.00000000000E+00  0.63772788652E+03  0.63772788654E+03  0.50400001928E-02 0. -1.
       -1   -1    0    0    0  501  0.00000000000E+00  0.00000000000E+00 -0.88509062668E+03  0.88509062670E+03  0.50400001928E-02 0.  1.
    10030    2    1    2    0    0  0.00000000000E+00  0.00000000000E+00 -0.24736274017E+03  0.15228185132E+04  0.15025937239E+04 0.  0.
        5    1    3    3  502    0  0.28731875405E+03  0.34967747360E+02 -0.82630230339E+03  0.87554120199E+03  0.46999998093E+01 0.  1.
       -5    1    3    3    0  502 -0.28731875405E+03 -0.34967747360E+02  0.57893956323E+03  0.64727731125E+03  0.46999998093E+01 0. -1.
</event>
<event>
 5   0  0.1228286E-04  0.1500573E+04  0.7818609E-02  0.8884072E-01
        2   -1    0    0  501    0  0.00000000000E+00  0.00000000000E+00  0.10047790548E+04  0.10047790548E+04  0.25500000920E-02 0.  1.
       -2   -1    0    0    0  501  0.00000000000E+00  0.00000000000E+00 -0.56025206926E+03  0.56025206926E+03  0.25500000920E-02 0. -1.
    10030    2    1    2    0    0  0.00000000000E+00  0.00000000000E+00  0.44452698553E+03  0.15650311240E+04  0.15005726168E+04 0.  0.
        2    1    3    3  502    0 -0.35142399561E+03  0.30186069519E+03  0.83779382290E+03  0.95734904486E+03  0.25500000920E-02 0.  1.
       -2    1    3    3    0  502  0.35142399561E+03 -0.30186069519E+03 -0.39326683737E+03  0.60768207919E+03  0.25500000920E-02 0. -1.
</event>
<event>
 5   0  0.1186664E-04  0.1499648E+04  0.7818609E-02  0.8884687E-01
       -2   -1    0    0    0  501  0.00000000000E+00  0.00000000000E+00  0.59413883330E+03  0.59413883330E+03  0.25500000920E-02 0. -1.
        2   -1    0    0  501    0  0.00000000000E+00  0.00000000000E+00 -0.94630430557E+03  0.94630430557E+03  0.25500000920E-02 0.  1.
    10030    2    1    2    0    0  0.00000000000E+00  0.00000000000E+00 -0.35216547227E+03  0.15404431389E+04  0.14996481402E+04 0.  0.
        3    1    3    3  502    0  0.67099671405E+03 -0.27893245257E+03  0.13869917960E+02  0.72679590545E+03  0.10100000352E+00 0. -1.
       -3    1    3    3    0  502 -0.67099671405E+03  0.27893245257E+03 -0.36603539023E+03  0.81364723343E+03  0.10100000352E+00 0.  1.
</event>
<event>
 5   0  0.1186664E-04  0.1502458E+04  0.7818609E-02  0.8882820E-01
        2   -1    0    0  501    0  0.00000000000E+00  0.00000000000E+00  0.76539341711E+03  0.76539341712E+03  0.25500000920E-02 0.  1.
       -2   -1    0    0    0  501  0.00000000000E+00  0.00000000000E+00 -0.73732642461E+03  0.73732642461E+03  0.25500000920E-02 0. -1.
    10030    2    1    2    0    0  0.00000000000E+00  0.00000000000E+00  0.28066992506E+02  0.15027198417E+04  0.15024577088E+04 0.  0.
        3    1    3    3  502    0  0.36626953664E+03 -0.78599927865E+02 -0.63724327058E+03  0.73919572390E+03  0.10100000352E+00 0. -1.
       -3    1    3    3    0  502 -0.36626953664E+03  0.78599927865E+02  0.66531026309E+03  0.76352411783E+03  0.10100000352E+00 0.  1.
</event>
<event>
 5   0  0.6509279E-05  0.1508158E+04  0.7818609E-02  0.8879046E-01
       -1   -1    0    0    0  501  0.00000000000E+00  0.00000000000E+00  0.42670010536E+03  0.42670010539E+03  0.50400001928E-02 0.  1.
        1   -1    0    0  501    0  0.00000000000E+00  0.00000000000E+00 -0.13326343564E+04  0.13326343564E+04  0.50400001928E-02 0. -1.
    10030    2    1    2    0    0  0.00000000000E+00  0.00000000000E+00 -0.90593425106E+03  0.17593344618E+04  0.15081581089E+04 0.  0.
        2    1    3    3  502    0  0.17761800056E+03 -0.46724450669E+03 -0.11115948533E+04  0.12188144654E+04  0.25500000920E-02 0. -1.
       -2    1    3    3    0  502 -0.17761800056E+03  0.46724450669E+03  0.20566060228E+03  0.54051999639E+03  0.25500000920E-02 0.  1.
</event>
<event>
 5   0  0.1216921E-04  0.1500873E+04  0.7818609E-02  0.8883873E-01
        2   -1    0    0  501    0  0.00000000000E+00  0.00000000000E+00  0.16351699402E+04  0.16351699402E+04  0.25500000920E-02 0. -1.
       -2   -1    0    0    0  501  0.00000000000E+00  0.00000000000E+00 -0.34440140617E+03  0.34440140618E+03  0.25500000920E-02 0.  1.
    10030    2    1    2    0    0  0.00000000000E+00  0.00000000000E+00  0.12907685340E+04  0.19795713464E+04  0.15008728484E+04 0.  0.
        4    1    3    3  502    0  0.44839293394E+03  0.24855520477E+03 -0.77414551270E+02  0.51848870641E+03  0.12699999809E+01 0.  1.
       -4    1    3    3    0  502 -0.44839293394E+03 -0.24855520477E+03  0.13681830853E+04  0.14610826400E+04  0.12699999809E+01 0. -1.
</event>
<event>
 5   0  0.1186664E-04  0.1498140E+04  0.7818609E-02  0.8885691E-01
       -2   -1    0    0    0  501  0.00000000000E+00  0.00000000000E+00  0.36759482528E+03  0.36759482528E+03  0.25500000920E-02 0.  1.
        2   -1    0    0  501    0  0.00000000000E+00  0.00000000000E+00 -0.15264246468E+04  0.15264246468E+04  0.25500000920E-02 0. -1.
    10030    2    1    2    0    0  0.00000000000E+00  0.00000000000E+00 -0.11588298215E+04  0.18940194721E+04  0.14981399151E+04 0.  0.
        3    1    3    3  502    0  0.35976858047E+03  0.14928753635E+03  0.22949161858E+03  0.45209137705E+03  0.10100000352E+00 0.  1.
       -3    1    3    3    0  502 -0.35976858047E+03 -0.14928753635E+03 -0.13883214401E+04  0.14419280950E+04  0.10100000352E+00 0. -1.
</event>
<event>
 5   0  0.1186664E-04  0.1499653E+04  0.7818609E-02  0.8884683E-01
       -2   -1    0    0    0  501  0.00000000000E+00  0.00000000000E+00  0.39074818068E+03  0.39074818068E+03  0.25500000920E-02 0. -1.
        2   -1    0    0  501    0  0.00000000000E+00  0.00000000000E+00 -0.14388808865E+04  0.14388808865E+04  0.25500000920E-02 0.  1.
    10030    2    1    2    0    0  0.00000000000E+00  0.00000000000E+00 -0.10481327058E+04  0.18296290672E+04  0.14996534115E+04 0.  0.
        3    1    3    3  502    0 -0.57132026967E+03 -0.43079702301E+03 -0.25058489862E+03  0.75814624393E+03  0.10100000352E+00 0.  1.
       -3    1    3    3    0  502  0.57132026967E+03  0.43079702301E+03 -0.79754780723E+03  0.10714828233E+04  0.10100000352E+00 0. -1.
</event>
<event>
 5   0  0.1186664E-04  0.1500030E+04  0.7818609E-02  0.8884433E-01
       -2   -1    0    0    0  501  0.00000000000E+00  0.00000000000E+00  0.43916932706E+03  0.43916932706E+03  0.25500000920E-02 0.  1.
        2   -1    0    0  501    0  0.00000000000E+00  0.00000000000E+00 -0.12808775811E+04  0.12808775811E+04  0.25500000920E-02 0. -1.
    10030    2    1    2    0    0  0.00000000000E+00  0.00000000000E+00 -0.84170825405E+03  0.17200469082E+04  0.15000295268E+04 0.  0.
        3    1    3    3  502    0 -0.43317582560E+03  0.77799555753E+02  0.27553577513E+03  0.51924371960E+03  0.10100000352E+00 0.  1.
       -3    1    3    3    0  502  0.43317582560E+03 -0.77799555753E+02 -0.11172440292E+04  0.12008031886E+04  0.10100000352E+00 0. -1.
</event>
<event>
 5   0  0.1254487E-04  0.1500698E+04  0.7818609E-02  0.8883989E-01
        2   -1    0    0  501    0  0.00000000000E+00  0.00000000000E+00  0.73222715804E+03  0.73222715804E+03  0.25500000920E-02 0.  1.
       -2   -1    0    0    0  501  0.00000000000E+00  0.00000000000E+00 -0.76891940000E+03  0.76891940001E+03  0.25500000920E-02 0. -1.
    10030    2    1    2    0    0  0.00000000000E+00  0.00000000000E+00 -0.36692241962E+02  0.15011465581E+04  0.15006980603E+04 0.  0.
        5    1    3    3  502    0 -0.35106874503E+03  0.18660720376E+03 -0.65487745195E+03  0.76613189420E+03  0.46999998093E+01 0. -1.
       -5    1    3    3    0  502  0.35106874503E+03 -0.18660720376E+03  0.61818520999E+03  0.73501466385E+03  0.46999998093E+01 0.  1.
</event>
<event>
 5   0  0.6361716E-05  0.1542119E+04  0.7818609E-02  0.8856918E-01
       -1   -1    0    0    0  501  0.00000000000E+00  0.00000000000E+00  0.76245084727E+03  0.76245084728E+03  0.50400001928E-02 0.  1.
        1   -1    0    0  501    0  0.00000000000E+00  0.00000000000E+00 -0.77976518051E+03  0.77976518052E+03  0.50400001928E-02 0. -1.
    10030    2    1    2    0    0  0.00000000000E+00  0.00000000000E+00 -0.17314333238E+02  0.15422160278E+04  0.15421188314E+04 0.  0.
        3    1    3    3  502    0  0.39021087075E+03 -0.56643696123E+03  0.33981458758E+03  0.76719575001E+03  0.10100000352E+00 0.  1.
       -3    1    3    3    0  502 -0.39021087075E+03  0.56643696123E+03 -0.35712892082E+03  0.77502027779E+03  0.10100000352E+00 0. -1.
</event>
<event>
 5   0  0.6509279E-05  0.1492441E+04  0.7818609E-02  0.8889495E-01
       -1   -1    0    0    0  501  0.00000000000E+00  0.00000000000E+00  0.33024181208E+03  0.33024181212E+03  0.50400001928E-02 0. -1.
        1   -1    0    0  501    0  0.00000000000E+00  0.00000000000E+00 -0.16861742295E+04  0.16861742295E+04  0.50400001928E-02 0.  1.
    10030    2    1    2    0    0  0.00000000000E+00  0.00000000000E+00 -0.13559324174E+04  0.20164160416E+04  0.14924412659E+04 0.  0.
        2    1    3    3  502    0  0.36614527300E+03 -0.94792457676E+02  0.19114770266E+03  0.42377519419E+03  0.25500000920E-02 0. -1.
       -2    1    3    3    0  502 -0.36614527300E+03  0.94792457676E+02 -0.15470801200E+04  0.15926408474E+04  0.25500000920E-02 0.  1.
</event>
<event>
 5   0  0.6542036E-05  0.1490242E+04  0.7818609E-02  0.8890968E-01
       -1   -1    0    0    0  501  0.00000000000E+00  0.00000000000E+00  0.71436659786E+03  0.71436659788E+03  0.50400001928E-02 0.  1.
        1   -1    0    0  501    0  0.00000000000E+00  0.00000000000E+00 -0.77719933995E+03  0.77719933997E+03  0.50400001928E-02 0. -1.
    10030    2    1    2    0    0  0.00000000000E+00  0.00000000000E+00 -0.62832742093E+02  0.14915659378E+04  0.14902419245E+04 0.  0.
        4    1    3    3  502    0 -0.31047047642E+03 -0.60825405205E+03  0.26690670131E+03  0.73321600410E+03  0.12699999809E+01 0.  1.
       -4    1    3    3    0  502  0.31047047642E+03  0.60825405205E+03 -0.32973944341E+03  0.75834993374E+03  0.12699999809E+01 0. -1.
</event>
<event>
 5   0  0.1186664E-04  0.1500524E+04  0.7818609E-02  0.8884104E-01
       -2   -1    0    0    0  501  0.00000000000E+00  0.00000000000E+00  0.81316393265E+03  0.81316393265E+03  0.25500000920E-02 0. -1.
        2   -1    0    0  501    0  0.00000000000E+00  0.00000000000E+00 -0.69222592356E+03  0.69222592356E+03  0.25500000920E-02 0.  1.
    10030    2    1    2    0    0  0.00000000000E+00  0.00000000000E+00  0.12093800909E+03  0.15053898562E+04  0.15005241142E+04 0.  0.
        3    1    3    3  502    0 -0.13257751080E+03  0.20141308646E+03  0.77322977695E+03  0.80995575554E+03  0.10100000352E+00 0. -1.
       -3    1    3    3    0  502  0.13257751080E+03 -0.20141308646E+03 -0.65229176786E+03  0.69543410068E+03  0.10100000352E+00 0.  1.
</event>
<event>
 5   0  0.1186664E-04  0.1501091E+04  0.7818609E-02  0.8883728E-01
       -2   -1    0    0    0  501  0.00000000000E+00  0.00000000000E+00  0.50391312488E+03  0.50391312489E+03  0.25500000920E-02 0. -1.
        2   -1    0    0  501    0  0.00000000000E+00  0.00000000000E+00 -0.11178887234E+04  0.11178887234E+04  0.25500000920E-02 0.  1.
    10030    2    1    2    0    0  0.00000000000E+00  0.00000000000E+00 -0.61397559849E+03  0.16218018483E+04  0.15010913362E+04 0.  0.
        3    1    3    3  502    0 -0.98437081937E+02 -0.73987857619E+03 -0.22185668461E+03  0.77867230933E+03  0.10100000352E+00 0. -1.
       -3    1    3    3    0  502  0.98437081937E+02  0.73987857619E+03 -0.39211891388E+03  0.84312953894E+03  0.10100000352E+00 0.  1.
</event>
<event>
 5   0  0.1219810E-04  0.1499073E+04  0.7818609E-02  0.8885069E-01
       -2   -1    0    0    0  501  0.00000000000E+00  0.00000000000E+00  0.59137273897E+03  0.59137273898E+03  0.25500000920E-02 0.  1.
        2   -1    0    0  501    0  0.00000000000E+00  0.00000000000E+00 -0.95000180504E+03  0.95000180505E+03  0.25500000920E-02 0. -1.
    10030    2    1    2    0    0  0.00000000000E+00  0.00000000000E+00 -0.35862906607E+03  0.15413745440E+04  0.14990732730E+04 0.  0.
        1    1    3    3  502    0  0.95873183565E+02 -0.50380768151E+03 -0.74135723266E+03  0.90145681744E+03  0.50400001928E-02 0. -1.
       -1    1    3    3    0  502 -0.95873183565E+02  0.50380768151E+03  0.38272816658E+03  0.63991772658E+03  0.50400001928E-02 0.  1.
</event>
<event>
 5   0  0.6668433E-05  0.1502220E+04  0.7818609E-02  0.8882978E-01
       -1   -1    0    0    0  501  0.00000000000E+00  0.00000000000E+00  0.64412274676E+03  0.64412274678E+03  0.50400001928E-02 0. -1.
        1   -1    0    0  501    0  0.00000000000E+00  0.00000000000E+00 -0.87586774302E+03  0.87586774303E+03  0.50400001928E-02 0.  1.
    10030    2    1    2    0    0  0.00000000000E+00  0.00000000000E+00 -0.23174499626E+03  0.15199904898E+04  0.15022201389E+04 0.  0.
        1    1    3    3  502    0  0.42299065997E+02  0.39870988124E+03 -0.75852959092E+03  0.85797780898E+03  0.50400001928E-02 0.  1.
       -1    1    3    3    0  502 -0.42299065997E+02 -0.39870988124E+03  0.52678459466E+03  0.66201268083E+03  0.50400001928E-02 0. -1.
</event>
<event>
 5   0  0.1228286E-04  0.1499096E+04  0.7818609E-02  0.8885054E-01
        2   -1    0    0  501    0  0.00000000000E+00  0.00000000000E+00  0.10084486915E+04  0.10084486915E+04  0.25500000920E-02 0.  1.
       -2   -1    0    0    0  501  0.00000000000E+00  0.00000000000E+00 -0.55711565487E+03  0.55711565488E+03  0.25500000920E-02 0. -1.
    10030    2    1    2    0    0  0.00000000000E+00  0.00000000000E+00  0.45133303664E+03  0.15655643464E+04  0.14990964655E+04 0.  0.
        2    1    3    3  502    0 -0.49300238224E+03 -0.56459765897E+03  0.22653260945E+03  0.78303185667E+03  0.25500000920E-02 0. -1.
       -2    1    3    3    0  502  0.49300238224E+03  0.56459765897E+03  0.22480042719E+03  0.78253248973E+03  0.25500000920E-02 0.  1.
</event>
<event>
 5   0  0.1186664E-04  0.1496280E+04  0.7818609E-02  0.8886931E-01
       -2   -1    0    0    0  501  0.00000000000E+00  0.00000000000E+00  0.75752901858E+03  0.75752901859E+03  0.25500000920E-02 0. -1.
        2   -1    0    0  501    0  0.00000000000E+00  0.00000000000E+00 -0.73886695837E+03  0.73886695838E+03  0.25500000920E-02 0.  1.
    10030    2    1    2    0    0  0.00000000000E+00  0.00000000000E+00  0.18662060209E+02  0.14963959770E+04  0.14962796020E+04 0.  0.
        3    1    3    3  502    0 -0.65334251723E+03  0.36206920678E+03 -0.32655521497E+02  0.74767436000E+03  0.10100000352E+00 0.  1.
       -3    1    3    3    0  502  0.65334251723E+03 -0.36206920678E+03  0.51317581706E+02  0.74872161696E+03  0.10100000352E+00 0. -1.
</event>
<event>
 5   0  0.6668433E-05  0.1500098E+04  0.7818609E-02  0.8884388E-01
       -1   -1    0    0    0  501  0.00000000000E+00  0.00000000000E+00  0.42272933049E+03  0.42272933052E+03  0.50400001928E-02 0. -1.
        1   -1    0    0  501    0  0.00000000000E+00  0.00000000000E+00 -0.13308128471E+04  0.13308128472E+04  0.50400001928E-02 0.  1.
    10030    2    1    2    0    0  0.00000000000E+00  0.00000000000E+00 -0.90808351665E+03  0.17535421777E+04  0.15000981620E+04 0.  0.
        1    1    3    3  502    0 -0.77205459130E+02  0.70125030958E+03 -0.75174815825E+03  0.10309403344E+04  0.50400001928E-02 0.  1.
       -1    1    3    3    0  502  0.77205459130E+02 -0.70125030958E+03 -0.15633535840E+03  0.72260184329E+03  0.50400001928E-02 0. -1.
</event>
<event>
 5   0  0.1216921E-04  0.1504291E+04  0.7818609E-02  0.8881605E-01
       -2   -1    0    0    0  501  0.00000000000E+00  0.00000000000E+00  0.43230099270E+03  0.43230099271E+03  0.25500000920E-02 0.  1.
        2   -1    0    0  501    0  0.00000000000E+00  0.00000000000E+00 -0.13086310892E+04  0.13086310892E+04  0.25500000920E-02 0. -1.
    10030    2    1    2    0    0  0.00000000000E+00  0.00000000000E+00 -0.87633009649E+03  0.17409320819E+04  0.15042905556E+04 0.  0.
        4    1    3    3  502    0  0.47631055349E+03 -0.11932797909E+03  0.22120777666E+03  0.53855863499E+03  0.12699999809E+01 0.  1.
       -4    1    3    3    0  502 -0.47631055349E+03  0.11932797909E+03 -0.10975378731E+04  0.12023734469E+04  0.12699999809E+01 0. -1.
</event>
<event>
 5   0  0.4462875E-05  0.1501323E+04  0.7818609E-02  0.8883574E-01
       -3   -1    0    0    0  501  0.00000000000E+00  0.00000000000E+00  0.11248754268E+04  0.11248754313E+04  0.10100000352E+00 0.  1.
        3   -1    0    0  501    0  0.00000000000E+00  0.00000000000E+00 -0.50093751630E+03  0.50093752648E+03  0.10100000352E+00 0. -1.
    10030    2    1    2    0    0  0.00000000000E+00  0.00000000000E+00  0.62393791049E+03  0.16258129578E+04  0.15013225029E+04 0.  0.
        4    1    3    3  502    0  0.41304914044E+03 -0.10004263209E+03 -0.35810651422E+03  0.55575175130E+03  0.12699999809E+01 0. -1.
       -4    1    3    3    0  502 -0.41304914044E+03  0.10004263209E+03  0.98204442471E+03  0.10700612065E+04  0.12699999809E+01 0.  1.
</event>
<event>
 5   0  0.1254487E-04  0.1499775E+04  0.7818609E-02  0.8884602E-01
       -2   -1    0    0    0  501  0.00000000000E+00  0.00000000000E+00  0.21791135459E+03  0.21791135460E+03  0.25500000920E-02 0.  1.
        2   -1    0    0  501    0  0.00000000000E+00  0.00000000000E+00 -0.25805519312E+04  0.25805519312E+04  0.25500000920E-02 0. -1.
    10030    2    1    2    0    0  0.00000000000E+00  0.00000000000E+00 -0.23626405766E+04  0.27984632858E+04  0.14997754058E+04 0.  0.
        5    1    3    3  502    0  0.35713307248E+03 -0.71427868067E+01 -0.24115760634E+04  0.24378917634E+04  0.46999998093E+01 0. -1.
       -5    1    3    3    0  502 -0.35713307248E+03  0.71427868067E+01  0.48935486778E+02  0.36057152234E+03  0.46999998093E+01 0.  1.
</event>
<event>
 5   0  0.1216921E-04  0.1497519E+04  0.7818609E-02  0.8886104E-01
       -2   -1    0    0    0  501  0.00000000000E+00  0.00000000000E+00  0.32577602205E+03  0.32577602206E+03  0.25500000920E-02 0.  1.
        2   -1    0    0  501    0  0.00000000000E+00  0.00000000000E+00 -0.17209402462E+04  0.17209402462E+04  0.25500000920E-02 0. -1.
    10030    2    1    2    0    0  0.00000000000E+00  0.00000000000E+00 -0.13951642242E+04  0.20467162683E+04  0.14975193723E+04 0.  0.
        4    1    3    3  502    0 -0.36341649679E+03 -0.30692344804E+03 -0.14878897575E+04  0.15620790942E+04  0.12699999809E+01 0. -1.
       -4    1    3    3    0  502  0.36341649679E+03  0.30692344804E+03  0.92725533329E+02  0.48463717411E+03  0.12699999809E+01 0.  1.
</event>
<event>
 5   0  0.1186664E-04  0.1501988E+04  0.7818609E-02  0.8883132E-01
        2   -1    0    0  501    0  0.00000000000E+00  0.00000000000E+00  0.71889189278E+03  0.71889189278E+03  0.25500000920E-02 0.  1.
       -2   -1    0    0    0  501  0.00000000000E+00  0.00000000000E+00 -0.78453004504E+03  0.78453004504E+03  0.25500000920E-02 0. -1.
    10030    2    1    2    0    0  0.00000000000E+00  0.00000000000E+00 -0.65638152255E+02  0.15034219378E+04  0.15019884008E+04 0.  0.
        3    1    3    3  502    0  0.26130155939E+03 -0.18027579417E+01 -0.73755818651E+03  0.78247929274E+03  0.10100000352E+00 0. -1.
       -3    1    3    3    0  502 -0.26130155939E+03  0.18027579417E+01  0.67192003425E+03  0.72094264509E+03  0.10100000352E+00 0.  1.
</event>
<event>
 5   0  0.1186664E-04  0.1509562E+04  0.7818609E-02  0.8878119E-01
       -2   -1    0    0    0  501  0.00000000000E+00  0.00000000000E+00  0.98900193771E+03  0.98900193772E+03  0.25500000920E-02 0.  1.
        2   -1    0    0  501    0  0.00000000000E+00  0.00000000000E+00 -0.57602972762E+03  0.57602972763E+03  0.25500000920E-02 0. -1.
    10030    2    1    2    0    0  0.00000000000E+00  0.00000000000E+00  0.41297221009E+03  0.15650316653E+04  0.15095622105E+04 0.  0.
        3    1    3    3  502    0 -0.35516779610E+03  0.60360022812E+03  0.49828363072E+03  0.85951380769E+03  0.10100000352E+00 0.  1.
       -3    1    3    3    0  502  0.35516779610E+03 -0.60360022812E+03 -0.85311420627E+02  0.70551785765E+03  0.10100000352E+00 0. -1.
</event>
<event>
 5   0  0.1216921E-04  0.1496476E+04  0.7818609E-02  0.8886800E-01
        2   -1    0    0  501    0  0.00000000000E+00  0.00000000000E+00  0.16223890076E+04  0.16223890076E+04  0.25500000920E-02 0.  1.
       -2   -1    0    0    0  501  0.00000000000E+00  0.00000000000E+00 -0.34508376518E+03  0.34508376519E+03  0.25500000920E-02 0. -1.
    10030    2    1    2    0    0  0.00000000000E+00  0.00000000000E+00  0.12773052424E+04  0.19674727728E+04  0.14964760036E+04 0.  0.
        4    1    3    3  502    0  0.17086350075E+03 -0.13921165051E+03  0.15787442635E+04  0.15940543535E+04  0.12699999809E+01 0.  1.
       -4    1    3    3    0  502 -0.17086350075E+03  0.13921165051E+03 -0.30143902108E+03  0.37341841928E+03  0.12699999809E+01 0. -1.
</event>
<event>
 5   0  0.1186664E-04  0.1499802E+04  0.7818609E-02  0.8884585E-01
       -2   -1    0    0    0  501  0.00000000000E+00  0.00000000000E+00  0.97650855409E+03  0.97650855409E+03  0.25500000920E-02 0. -1.
        2   -1    0    0  501    0  0.00000000000E+00  0.00000000000E+00 -0.57587974695E+03  0.57587974695E+03  0.25500000920E-02 0.  1.
    10030    2    1    2    0    0  0.00000000000E+00  0.00000000000E+00  0.40062880714E+03  0.15523883010E+04  0.14998019856E+04 0.  0.
        3    1    3    3  502    0 -0.63883136438E+03  0.39128062702E+03  0.23534552616E+03  0.78523472165E+03  0.10100000352E+00 0. -1.
       -3    1    3    3    0  502  0.63883136438E+03 -0.39128062702E+03  0.16528328098E+03  0.76715357939E+03  0.10100000352E+00 0.  1.
</event>
<event>
 5   0  0.6364378E-05  0.1510102E+04  0.7818609E-02  0.8877763E-01
       -1   -1    0    0    0  501  0.00000000000E+00  0.00000000000E+00  0.50222638526E+03  0.50222638528E+03  0.50400001928E-02 0. -1.
        1   -1    0    0  501    0  0.00000000000E+00  0.00000000000E+00 -0.11351496845E+04  0.11351496845E+04  0.50400001928E-02 0.  1.
    10030    2    1    2    0    0  0.00000000000E+00  0.00000000000E+00 -0.63292329920E+03  0.16373760698E+04  0.15101021459E+04 0.  0.
        5    1    3    3  502    0  0.43392502613E+02 -0.46008244563E+03  0.33095644701E+03  0.56843031752E+03  0.46999998093E+01 0. -1.
       -5    1    3    3    0  502 -0.43392502613E+02  0.46008244563E+03 -0.96387974622E+03  0.10689457522E+04  0.46999998093E+01 0.  1.
</event>
<event>
 5   0  0.1219810E-04  0.1500306E+04  0.7818609E-02  0.8884250E-01
        2   -1    0    0  501    0  0.00000000000E+00  0.00000000000E+00  0.47349821496E+03  0.47349821497E+03  0.25500000920E-02 0. -1.
       -2   -1    0    0    0  501  0.00000000000E+00  0.00000000000E+00 -0.11884505349E+04  0.11884505349E+04  0.25500000920E-02 0.  1.
    10030    2    1    2    0    0  0.00000000000E+00  0.00000000000E+00 -0.71495231995E+03  0.16619487499E+04  0.15003055780E+04 0.  0.
        1    1    3    3  502    0  0.27055677746E+03 -0.69570597760E+03 -0.43978825918E+03  0.86638414693E+03  0.50400001928E-02 0.  1.
       -1    1    3    3    0  502 -0.27055677746E+03  0.69570597760E+03 -0.27516406077E+03  0.79556460295E+03  0.50400001928E-02 0. -1.
</event>
<event>
 5   0  0.6361716E-05  0.1481230E+04  0.7818609E-02  0.8897032E-01
       -1   -1    0    0    0  501  0.00000000000E+00  0.00000000000E+00  0.43762822947E+03  0.43762822950E+03  0.50400001928E-02 0.  1.
        1   -1    0    0  501    0  0.00000000000E+00  0.00000000000E+00 -0.12533711435E+04  0.12533711435E+04  0.50400001928E-02 0. -1.
    10030    2    1    2    0    0  0.00000000000E+00  0.00000000000E+00 -0.81574291404E+03  0.16909993730E+04  0.14812300219E+04 0.  0.
        3    1    3    3  502    0 -0.35164848552E+03 -0.65130053257E+03 -0.43723443012E+03  0.85966446836E+03  0.10100000352E+00 0. -1.
       -3    1    3    3    0  502  0.35164848552E+03  0.65130053257E+03 -0.37850848392E+03  0.83133490465E+03  0.10100000352E+00 0.  1.
</event>
<event>
 5   0  0.1216921E-04  0.1495866E+04  0.7818609E-02  0.8887206E-01
       -2   -1    0    0    0  501  0.00000000000E+00  0.00000000000E+00  0.29151459677E+03  0.29151459678E+03  0.25500000920E-02 0.  1.
        2   -1    0    0  501    0  0.00000000000E+00  0.00000000000E+00 -0.19189572744E+04  0.19189572744E+04  0.25500000920E-02 0. -1.
    10030    2    1    2    0    0  0.00000000000E+00  0.00000000000E+00 -0.16274426777E+04  0.22104718712E+04  0.14958663792E+04 0.  0.
        4    1    3    3  502    0  0.28754093270E+03 -0.32116829348E+03  0.89471052215E+02  0.44026758090E+03  0.12699999809E+01 0.  1.
       -4    1    3    3    0  502 -0.28754093270E+03  0.32116829348E+03 -0.17169137299E+04  0.17702042903E+04  0.12699999809E+01 0. -1.
</event>
<event>
 5   0  0.1219810E-04  0.1499315E+04  0.7818609E-02  0.8884908E-01
        2   -1    0    0  501    0  0.00000000000E+00  0.00000000000E+00  0.14864728738E+04  0.14864728738E+04  0.25500000920E-02 0.  1.
       -2   -1    0    0    0  501  0.00000000000E+00  0.00000000000E+00 -0.37806715000E+03  0.37806715001E+03  0.25500000920E-02 0. -1.
    10030    2    1    2    0    0  0.00000000000E+00  0.00000000000E+00  0.11084057238E+04  0.18645400238E+04  0.14993152610E+04 0.  0.
        1    1    3    3  502    0  0.66106282450E+02 -0.51365454784E+03 -0.11983851388E+03  0.53157530467E+03  0.50400001928E-02 0. -1.
       -1    1    3    3    0  502 -0.66106282450E+02  0.51365454784E+03  0.12282442377E+04  0.13329647192E+04  0.50400001928E-02 0.  1.
</event>
<event>
 5   0  0.4462875E-05  0.1497899E+04  0.7818609E-02  0.8885851E-01
       -3   -1    0    0    0  501  0.00000000000E+00  0.00000000000E+00  0.22347412319E+04  0.22347412342E+04  0.10100000352E+00 0.  1.
        3   -1    0    0  501    0  0.00000000000E+00  0.00000000000E+00 -0.25100239743E+03  0.25100241775E+03  0.10100000352E+00 0. -1.
    10030    2    1    2    0    0  0.00000000000E+00  0.00000000000E+00  0.19837388345E+04  0.24857436520E+04  0.14978991087E+04 0.  0.
        5    1    3    3  502    0 -0.73593593712E+03 -0.31812643443E+02  0.12162968007E+04  0.14219752970E+04  0.46999998093E+01 0.  1.
       -5    1    3    3    0  502  0.73593593712E+03  0.31812643443E+02  0.76744203381E+03  0.10637683550E+04  0.46999998093E+01 0. -1.
</event>
<event>
 5   0  0.1216921E-04  0.1501184E+04  0.7818609E-02  0.8883666E-01
        2   -1    0    0  501    0  0.00000000000E+00  0.00000000000E+00  0.10826940402E+04  0.10826940402E+04  0.25500000920E-02 0.  1.
       -2   -1    0    0    0  501  0.00000000000E+00  0.00000000000E+00 -0.52035783538E+03  0.52035783538E+03  0.25500000920E-02 0. -1.
    10030    2    1    2    0    0  0.00000000000E+00  0.00000000000E+00  0.56233620477E+03  0.16030518755E+04  0.15011839689E+04 0.  0.
        4    1    3    3  502    0  0.17811060611E+03  0.68802853609E+03  0.23373599275E+02  0.71109394071E+03  0.12699999809E+01 0. -1.
       -4    1    3    3    0  502 -0.17811060611E+03 -0.68802853609E+03  0.53896260550E+03  0.89195793483E+03  0.12699999809E+01 0.  1.
</event>
<event>
 5   0  0.1219810E-04  0.1498468E+04  0.7818609E-02  0.8885472E-01
        2   -1    0    0  501    0  0.00000000000E+00  0.00000000000E+00  0.67073835923E+03  0.67073835923E+03  0.25500000920E-02 0. -1.
       -2   -1    0    0    0  501  0.00000000000E+00  0.00000000000E+00 -0.83691578540E+03  0.83691578540E+03  0.25500000920E-02 0.  1.
    10030    2    1    2    0    0  0.00000000000E+00  0.00000000000E+00 -0.16617742617E+03  0.15076541446E+04  0.14984679119E+04 0.  0.
        1    1    3    3  502    0  0.69303627756E+03  0.24317457635E+03 -0.23204483159E+03  0.77024538979E+03  0.50400001928E-02 0.  1.
       -1    1    3    3    0  502 -0.69303627756E+03 -0.24317457635E+03  0.65867405420E+02  0.73740875485E+03  0.50400001928E-02 0. -1.
</event>
<event>
 5   0  0.6542036E-05  0.1502224E+04  0.7818609E-02  0.8882975E-01
        1   -1    0    0  501    0  0.00000000000E+00  0.00000000000E+00  0.22995976480E+04  0.22995976480E+04  0.50400001928E-02 0. -1.
       -1   -1    0    0    0  501  0.00000000000E+00  0.00000000000E+00 -0.24533387260E+03  0.24533387265E+03  0.50400001928E-02 0.  1.
    10030    2    1    2    0    0  0.00000000000E+00  0.00000000000E+00  0.20542637754E+04  0.25449315207E+04  0.15022239467E+04 0.  0.
        4    1    3    3  502    0  0.11181424438E+03 -0.13074894366E+03  0.22657677768E+04  0.22722902417E+04  0.12699999809E+01 0. -1.
       -4    1    3    3    0  502 -0.11181424438E+03  0.13074894366E+03 -0.21150400133E+03  0.27264127896E+03  0.12699999809E+01 0.  1.
</event>
<event>
 5   0  0.6364378E-05  0.1499858E+04  0.7818609E-02  0.8884547E-01
       -1   -1    0    0    0  501  0.00000000000E+00  0.00000000000E+00  0.72616936470E+03  0.72616936472E+03  0.50400001928E-02 0.  1.
        1   -1    0    0  501    0  0.00000000000E+00  0.00000000000E+00 -0.77446594335E+03  0.77446594336E+03  0.50400001928E-02 0. -1.
    10030    2    1    2    0    0  0.00000000000E+00  0.00000000000E+00 -0.48296578649E+02  0.15006353081E+04  0.14998579161E+04 0.  0.
        5    1    3    3  502    0 -0.40793636546E+03 -0.23758715982E+03 -0.60712654909E+03  0.76908027759E+03  0.46999998093E+01 0. -1.
       -5    1    3    3    0  502  0.40793636546E+03  0.23758715982E+03  0.55882997044E+03  0.73155503049E+03  0.46999998093E+01 0.  1.
</event>
<event>
 5   0  0.1216921E-04  0.1500337E+04  0.7818609E-02  0.8884229E-01
       -2   -1    0    0    0  501  0.00000000000E+00  0.00000000000E+00  0.27186043686E+03  0.27186043687E+03  0.25500000920E-02 0. -1.
        2   -1    0    0  501    0  0.00000000000E+00  0.00000000000E+00 -0.20700074969E+04  0.20700074969E+04  0.25500000920E-02 0.  1.
    10030    2    1    2    0    0  0.00000000000E+00  0.00000000000E+00 -0.17981470600E+04  0.23418679338E+04  0.15003374853E+04 0.  0.
        4    1    3    3  502    0  0.24588886953E+03 -0.69376096601E+03 -0.67295435157E+03  0.99731378528E+03  0.12699999809E+01 0. -1.
       -4    1    3    3    0  502 -0.24588886953E+03  0.69376096601E+03 -0.11251927084E+04  0.13445541485E+04  0.12699999809E+01 0.  1.
</event>
<event>
 5   0  0.1219810E-04  0.1499372E+04  0.7818609E-02  0.8884870E-01
        2   -1    0    0  501    0  0.00000000000E+00  0.00000000000E+00  0.16138210144E+04  0.16138210144E+04  0.25500000920E-02 0.  1.
       -2   -1    0    0    0  501  0.00000000000E+00  0.00000000000E+00 -0.34826006633E+03  0.34826006634E+03  0.25500000920E-02 0. -1.
    10030    2    1    2    0    0  0.00000000000E+00  0.00000000000E+00  0.12655609480E+04  0.19620810807E+04  0.14993724201E+04 0.  0.
        1    1    3    3  502    0  0.60320494459E+03 -0.89123681136E+02  0.12035320758E+04  0.13491807489E+04  0.50400001928E-02 0.  1.
       -1    1    3    3    0  502 -0.60320494459E+03  0.89123681136E+02  0.62028872234E+02  0.61290033181E+03  0.50400001928E-02 0. -1.
</event>
<event>
 5   0  0.1228286E-04  0.1499091E+04  0.7818609E-02  0.8885057E-01
       -2   -1    0    0    0  501  0.00000000000E+00  0.00000000000E+00  0.44977382015E+03  0.44977382016E+03  0.25500000920E-02 0. -1.
        2   -1    0    0  501    0  0.00000000000E+00  0.00000000000E+00 -0.12491140389E+04  0.12491140390E+04  0.25500000920E-02 0.  1.
    10030    2    1    2    0    0  0.00000000000E+00  0.00000000000E+00 -0.79934021880E+03  0.16988878591E+04  0.14990914490E+04 0.  0.
        2    1    3    3  502    0  0.14212770733E+03 -0.19572990578E+03 -0.12036656449E+04  0.12277302089E+04  0.25500000920E-02 0.  1.
       -2    1    3    3    0  502 -0.14212770733E+03  0.19572990578E+03  0.40432542605E+03  0.47115765023E+03  0.25500000920E-02 0. -1.
</event>
<event>
 5   0  0.1254487E-04  0.1497419E+04  0.7818609E-02  0.8886171E-01
       -2   -1    0    0    0  501  0.00000000000E+00  0.00000000000E+00  0.47280130912E+03  0.47280130913E+03  0.25500000920E-02 0. -1.
        2   -1    0    0  501    0  0.00000000000E+00  0.00000000000E+00 -0.11856268016E+04  0.11856268016E+04  0.25500000920E-02 0.  1.
    10030    2    1    2    0    0  0.00000000000E+00  0.00000000000E+00 -0.71282549245E+03  0.16584281107E+04  0.14974189847E+04 0.  0.
        5    1    3    3  502    0 -0.50663219994E+03  0.23541261738E+03  0.19562850195E+03  0.59193571206E+03  0.46999998093E+01 0. -1.
       -5    1    3    3    0  502  0.50663219994E+03 -0.23541261738E+03 -0.90845399441E+03  0.10664923987E+04  0.46999998093E+01 0.  1.
</event>
<event>
 5   0  0.1228286E-04  0.1498148E+04  0.7818609E-02  0.8885685E-01
        2   -1    0    0  501    0  0.00000000000E+00  0.00000000000E+00  0.78590073909E+03  0.78590073909E+03  0.25500000920E-02 0. -1.
       -2   -1    0    0    0  501  0.00000000000E+00  0.00000000000E+00 -0.71397296259E+03  0.71397296259E+03  0.25500000920E-02 0.  1.
    10030    2    1    2    0    0  0.00000000000E+00  0.00000000000E+00  0.71927776499E+02  0.14998737017E+04  0.14981480287E+04 0.  0.
        2    1    3    3  502    0  0.52249907469E+03 -0.28367472926E+03 -0.42023108910E+03  0.72805961522E+03  0.25500000920E-02 0.  1.
       -2    1    3    3    0  502 -0.52249907469E+03  0.28367472926E+03  0.49215886560E+03  0.77181408646E+03  0.25500000920E-02 0. -1.
</event>
<event>
 5   0  0.6361716E-05  0.1506886E+04  0.7818609E-02  0.8879887E-01
        1   -1    0    0  501    0  0.00000000000E+00  0.00000000000E+00  0.10444060809E+04  0.10444060809E+04  0.50400001928E-02 0.  1.
       -1   -1    0    0    0  501  0.00000000000E+00  0.00000000000E+00 -0.54353976100E+03  0.54353976102E+03  0.50400001928E-02 0. -1.
    10030    2    1    2    0    0  0.00000000000E+00  0.00000000000E+00  0.50086631986E+03  0.15879458419E+04  0.15068858372E+04 0.  0.
        3    1    3    3  502    0 -0.11411359676E+03  0.65728842602E+03  0.61945071722E+03  0.91036761213E+03  0.10100000352E+00 0.  1.
       -3    1    3    3    0  502  0.11411359676E+03 -0.65728842602E+03 -0.11858439737E+03  0.67757822976E+03  0.10100000352E+00 0. -1.
</event>
<event>
 5   0  0.1219810E-04  0.1499428E+04  0.7818609E-02  0.8884833E-01
       -2   -1    0    0    0  501  0.00000000000E+00  0.00000000000E+00  0.12638227632E+04  0.12638227632E+04  0.25500000920E-02 0.  1.
        2   -1    0    0  501    0  0.00000000000E+00  0.00000000000E+00 -0.44473894253E+03  0.44473894254E+03  0.25500000920E-02 0. -1.
    10030    2    1    2    0    0  0.00000000000E+00  0.00000000000E+00  0.81908382071E+03  0.17085617058E+04  0.14994281567E+04 0.  0.
        1    1    3    3  502    0  0.49276603002E+03  0.40081707664E+03  0.86333153053E+03  0.10718274212E+04  0.50400001928E-02 0.  1.
       -1    1    3    3    0  502 -0.49276603002E+03 -0.40081707664E+03 -0.44247709825E+02  0.63673428455E+03  0.50400001928E-02 0. -1.
</event>
<event>
 5   0  0.6509279E-05  0.1499763E+04  0.7818609E-02  0.8884611E-01
       -1   -1    0    0    0  501  0.00000000000E+00  0.00000000000E+00  0.26927244404E+03  0.26927244409E+03  0.50400001928E-02 0.  1.
        1   -1    0    0  501    0  0.00000000000E+00  0.00000000000E+00 -0.20883016271E+04  0.20883016271E+04  0.50400001928E-02 0. -1.
    10030    2    1    2    0    0  0.00000000000E+00  0.00000000000E+00 -0.18190291831E+04  0.23575740712E+04  0.14997627587E+04 0.  0.
        2    1    3    3  502    0 -0.56044176208E+03  0.13727345111E+03 -0.15663850428E+03  0.59789178795E+03  0.25500000920E-02 0.  1.
       -2    1    3    3    0  502  0.56044176208E+03 -0.13727345111E+03 -0.16623906788E+04  0.17596822832E+04  0.25500000920E-02 0. -1.
</event>
<event>
 5   0  0.6542036E-05  0.1498628E+04  0.7818609E-02  0.8885366E-01
       -1   -1    0    0    0  501  0.00000000000E+00  0.00000000000E+00  0.43429411092E+03  0.43429411095E+03  0.50400001928E-02 0.  1.
        1   -1    0    0  501    0  0.00000000000E+00  0.00000000000E+00 -0.12928376957E+04  0.12928376957E+04  0.50400001928E-02 0. -1.
    10030    2    1    2    0    0  0.00000000000E+00  0.00000000000E+00 -0.85854358474E+03  0.17271318066E+04  0.14986284364E+04 0.  0.
        4    1    3    3  502    0 -0.52959626985E+03 -0.52906503450E+03 -0.46728888330E+03  0.88246389905E+03  0.12699999809E+01 0. -1.
       -4    1    3    3    0  502  0.52959626985E+03  0.52906503450E+03 -0.39125470143E+03  0.84466790756E+03  0.12699999809E+01 0.  1.
</event>
<event>
 5   0  0.1186664E-04  0.1501022E+04  0.7818609E-02  0.8883774E-01
        2   -1    0    0  501    0  0.00000000000E+00  0.00000000000E+00  0.11182686751E+04  0.11182686751E+04  0.25500000920E-02 0.  1.
       -2   -1    0    0    0  501  0.00000000000E+00  0.00000000000E+00 -0.50369513670E+03  0.50369513671E+03  0.25500000920E-02 0. -1.
    10030    2    1    2    0    0  0.00000000000E+00  0.00000000000E+00  0.61457353842E+03  0.16219638118E+04  0.15010216430E+04 0.  0.
        3    1    3    3  502    0 -0.43935048960E+01 -0.41806774915E+03  0.98077655436E+03  0.10661719400E+04  0.10100000352E+00 0.  1.
       -3    1    3    3    0  502  0.43935048960E+01  0.41806774915E+03 -0.36620301594E+03  0.55579187188E+03  0.10100000352E+00 0. -1.
</event>
<event>
 5   0  0.1254487E-04  0.1514394E+04  0.7818609E-02  0.8874937E-01
        2   -1    0    0  501    0  0.00000000000E+00  0.00000000000E+00  0.15021607326E+04  0.15021607326E+04  0.25500000920E-02 0.  1.
       -2   -1    0    0    0  501  0.00000000000E+00  0.00000000000E+00 -0.38168183637E+03  0.38168183638E+03  0.25500000920E-02 0. -1.
    10030    2    1    2    0    0  0.00000000000E+00  0.00000000000E+00  0.11204788963E+04  0.18838425690E+04  0.15143942247E+04 0.  0.
        5    1    3    3  502    0  0.20128507553E+03  0.36679475458E+03 -0.22480666792E+03  0.47498863308E+03  0.46999998093E+01 0. -1.
       -5    1    3    3    0  502 -0.20128507553E+03 -0.36679475458E+03  0.13452855642E+04  0.14088539359E+04  0.46999998093E+01 0.  1.
</event>
<event>
 5   0  0.4462875E-05  0.1499928E+04  0.7818609E-02  0.8884501E-01
       -3   -1    0    0    0  501  0.00000000000E+00  0.00000000000E+00  0.37534134678E+03  0.37534136037E+03  0.10100000352E+00 0.  1.
        3   -1    0    0  501    0  0.00000000000E+00  0.00000000000E+00 -0.14984916311E+04  0.14984916345E+04  0.10100000352E+00 0. -1.
    10030    2    1    2    0    0  0.00000000000E+00  0.00000000000E+00 -0.11231502843E+04  0.18738329949E+04  0.14999278421E+04 0.  0.
        5    1    3    3  502    0 -0.59799155478E+03  0.42733725797E+03 -0.37538281097E+03  0.82531531938E+03  0.46999998093E+01 0.  1.
       -5    1    3    3    0  502  0.59799155478E+03 -0.42733725797E+03 -0.74776747336E+03  0.10485176755E+04  0.46999998093E+01 0. -1.
</event>
<event>
 5   0  0.1254487E-04  0.1499243E+04  0.7818609E-02  0.8884956E-01
        2   -1    0    0  501    0  0.00000000000E+00  0.00000000000E+00  0.19481810875E+04  0.19481810875E+04  0.25500000920E-02 0. -1.
       -2   -1    0    0    0  501  0.00000000000E+00  0.00000000000E+00 -0.28843964132E+03  0.28843964133E+03  0.25500000920E-02 0.  1.
    10030    2    1    2    0    0  0.00000000000E+00  0.00000000000E+00  0.16597414462E+04  0.22366207288E+04  0.14992433480E+04 0.  0.
        5    1    3    3  502    0 -0.18628578587E+03 -0.50282809051E+03  0.16113008917E+04  0.16981905477E+04  0.46999998093E+01 0. -1.
       -5    1    3    3    0  502  0.18628578587E+03  0.50282809051E+03  0.48440554439E+02  0.53843018112E+03  0.46999998093E+01 0.  1.
</event>
<event>
 5   0  0.1219810E-04  0.1513720E+04  0.7818609E-02  0.8875380E-01
        2   -1    0    0  501    0  0.00000000000E+00  0.00000000000E+00  0.56030129370E+03  0.56030129371E+03  0.25500000920E-02 0. -1.
       -2   -1    0    0    0  501  0.00000000000E+00  0.00000000000E+00 -0.10223729118E+04  0.10223729118E+04  0.25500000920E-02 0.  1.
    10030    2    1    2    0    0  0.00000000000E+00  0.00000000000E+00 -0.46207161807E+03  0.15826742055E+04  0.15137197430E+04 0.  0.
        1    1    3    3  502    0  0.22927919096E+03 -0.27104916992E+03  0.46784442857E+03  0.58729465288E+03  0.50400001928E-02 0. -1.
       -1    1    3    3    0  502 -0.22927919096E+03  0.27104916992E+03 -0.92991604665E+03  0.99537955261E+03  0.50400001928E-02 0.  1.
</event>
<event>
 5   0  0.6542036E-05  0.1497993E+04  0.7818609E-02  0.8885789E-01
        1   -1    0    0  501    0  0.00000000000E+00  0.00000000000E+00  0.11166054596E+04  0.11166054596E+04  0.50400001928E-02 0.  1.
       -1   -1    0    0    0  501  0.00000000000E+00  0.00000000000E+00 -0.50241165509E+03  0.50241165512E+03  0.50400001928E-02 0. -1.
    10030    2    1    2    0    0  0.00000000000E+00  0.00000000000E+00  0.61419380449E+03  0.16190171147E+04  0.14979927865E+04 0.  0.
        4    1    3    3  502    0 -0.44789689963E+03  0.58667565600E+03  0.16956003266E+03  0.75733227557E+03  0.12699999809E+01 0. -1.
       -4    1    3    3    0  502  0.44789689963E+03 -0.58667565600E+03  0.44463377184E+03  0.86168483914E+03  0.12699999809E+01 0.  1.
</event>
<event>
 5   0  0.4462875E-05  0.1503139E+04  0.7818609E-02  0.8882368E-01
        3   -1    0    0  501    0  0.00000000000E+00  0.00000000000E+00  0.77948695210E+03  0.77948695864E+03  0.10100000352E+00 0.  1.
       -3   -1    0    0    0  501  0.00000000000E+00  0.00000000000E+00 -0.72465153694E+03  0.72465154398E+03  0.10100000352E+00 0. -1.
    10030    2    1    2    0    0  0.00000000000E+00  0.00000000000E+00  0.54835415157E+02  0.15041385026E+04  0.15031386205E+04 0.  0.
        4    1    3    3  502    0 -0.47123217590E+03 -0.50277202615E+03 -0.27280743603E+03  0.74112413531E+03  0.12699999809E+01 0. -1.
       -4    1    3    3    0  502  0.47123217590E+03  0.50277202615E+03  0.32764285118E+03  0.76301436731E+03  0.12699999809E+01 0.  1.
</event>
<event>
 5   0  0.1254487E-04  0.1501325E+04  0.7818609E-02  0.8883573E-01
       -2   -1    0    0    0  501  0.00000000000E+00  0.00000000000E+00  0.45045898021E+03  0.45045898022E+03  0.25500000920E-02 0. -1.
        2   -1    0    0  501    0  0.00000000000E+00  0.00000000000E+00 -0.12509325786E+04  0.12509325786E+04  0.25500000920E-02 0.  1.
    10030    2    1    2    0    0  0.00000000000E+00  0.00000000000E+00 -0.80047359836E+03  0.17013915588E+04  0.15013245001E+04 0.  0.
        5    1    3    3  502    0  0.93420639420E+02 -0.61409470836E+03  0.77391775407E+02  0.62598027413E+03  0.46999998093E+01 0. -1.
       -5    1    3    3    0  502 -0.93420639420E+02  0.61409470836E+03 -0.87786537377E+03  0.10754112847E+04  0.46999998093E+01 0.  1.
</event>
<event>
 5   0  0.1228286E-04  0.1501940E+04  0.7818609E-02  0.8883164E-01
        2   -1    0    0  501    0  0.00000000000E+00  0.00000000000E+00  0.13943160425E+04  0.13943160425E+04  0.25500000920E-02 0. -1.
       -2   -1    0    0    0  501  0.00000000000E+00  0.00000000000E+00 -0.40446787950E+03  0.40446787951E+03  0.25500000920E-02 0.  1.
    10030    2    1    2    0    0  0.00000000000E+00  0.00000000000E+00  0.98984816296E+03  0.17987839220E+04  0.15019401494E+04 0.  0.
        2    1    3    3  502    0 -0.53965554327E+03 -0.47867777479E+03  0.24486226651E+03  0.76178609007E+03  0.25500000920E-02 0.  1.
       -2    1    3    3    0  502  0.53965554327E+03  0.47867777479E+03  0.74498589645E+03  0.10369978319E+04  0.25500000920E-02 0. -1.
</event>
<event>
 5   0  0.1186664E-04  0.1484432E+04  0.7818609E-02  0.8894872E-01
        2   -1    0    0  501    0  0.00000000000E+00  0.00000000000E+00  0.74800332518E+03  0.74800332518E+03  0.25500000920E-02 0.  1.
       -2   -1    0    0    0  501  0.00000000000E+00  0.00000000000E+00 -0.73647329488E+03  0.73647329488E+03  0.25500000920E-02 0. -1.
    10030    2    1    2    0    0  0.00000000000E+00  0.00000000000E+00  0.11530030300E+02  0.14844766201E+04  0.14844318421E+04 0.  0.
        3    1    3    3  502    0  0.47907005027E+03  0.45781444785E+03  0.34011367372E+03  0.74483521867E+03  0.10100000352E+00 0.  1.
       -3    1    3    3    0  502 -0.47907005027E+03 -0.45781444785E+03 -0.32858364342E+03  0.73964140139E+03  0.10100000352E+00 0. -1.
</event>
<event>
 5   0  0.6668433E-05  0.1502197E+04  0.7818609E-02  0.8882993E-01
       -1   -1    0    0    0  501  0.00000000000E+00  0.00000000000E+00  0.79548000162E+03  0.79548000164E+03  0.50400001928E-02 0. -1.
        1   -1    0    0  501    0  0.00000000000E+00  0.00000000000E+00 -0.70919284872E+03  0.70919284874E+03  0.50400001928E-02 0.  1.
    10030    2    1    2    0    0  0.00000000000E+00  0.00000000000E+00  0.86287152904E+02  0.15046728504E+04  0.15021966961E+04 0.  0.
        1    1    3    3  502    0 -0.16216054805E+02 -0.58937900182E+02  0.79298431378E+03  0.79533688362E+03  0.50400001928E-02 0. -1.
       -1    1    3    3    0  502  0.16216054805E+02  0.58937900182E+02 -0.70669716088E+03  0.70933596676E+03  0.50400001928E-02 0.  1.
</event>
<event>
 5   0  0.1186664E-04  0.1500213E+04  0.7818609E-02  0.8884311E-01
        2   -1    0    0  501    0  0.00000000000E+00  0.00000000000E+00  0.41793379772E+03  0.41793379773E+03  0.25500000920E-02 0.  1.
       -2   -1    0    0    0  501  0.00000000000E+00  0.00000000000E+00 -0.13462888070E+04  0.13462888070E+04  0.25500000920E-02 0. -1.
    10030    2    1    2    0    0  0.00000000000E+00  0.00000000000E+00 -0.92835500932E+03  0.17642226048E+04  0.15002127769E+04 0.  0.
        3    1    3    3  502    0  0.45095413081E+03  0.55308900956E+03 -0.19244558087E+03  0.73912271809E+03  0.10100000352E+00 0.  1.
       -3    1    3    3    0  502 -0.45095413081E+03 -0.55308900956E+03 -0.73590942846E+03  0.10250998867E+04  0.10100000352E+00 0. -1.
</event>
<event>
 5   0  0.4462875E-05  0.1501304E+04  0.7818609E-02  0.8883586E-01
        4   -1    0    0  501    0  0.00000000000E+00  0.00000000000E+00  0.96789014595E+03  0.96789097915E+03  0.12699999809E+01 0. -1.
       -4   -1    0    0    0  501  0.00000000000E+00  0.00000000000E+00 -0.58216981141E+03  0.58217119665E+03  0.12699999809E+01 0.  1.
    10030    2    1    2    0    0  0.00000000000E+00  0.00000000000E+00  0.38572033454E+03  0.15500621758E+04  0.15013036243E+04 0.  0.
        2    1    3    3  502    0  0.37092437074E+02 -0.65037739414E+03  0.57795009904E+03  0.87085757772E+03  0.25500000920E-02 0. -1.
       -2    1    3    3    0  502 -0.37092437074E+02  0.65037739414E+03 -0.19222976449E+03  0.67920459808E+03  0.25500000920E-02 0.  1.
</event>
<event>
 5   0  0.6668433E-05  0.1534863E+04  0.7818609E-02  0.8861595E-01
        1   -1    0    0  501    0  0.00000000000E+00  0.00000000000E+00  0.11513851018E+04  0.11513851018E+04  0.50400001928E-02 0. -1.
       -1   -1    0    0    0  501  0.00000000000E+00  0.00000000000E+00 -0.51151502726E+03  0.51151502729E+03  0.50400001928E-02 0.  1.
    10030    2    1    2    0    0  0.00000000000E+00  0.00000000000E+00  0.63987007450E+03  0.16629001291E+04  0.15348625759E+04 0.  0.
        1    1    3    3  502    0 -0.48381563319E+03  0.59526682306E+03  0.29497816337E+03  0.82184686800E+03  0.50400001928E-02 0.  1.
       -1    1    3    3    0  502  0.48381563319E+03 -0.59526682306E+03  0.34489191113E+03  0.84105326106E+03  0.50400001928E-02 0. -1.
</event>
<event>
 5   0  0.6509279E-05  0.1499575E+04  0.7818609E-02  0.8884735E-01
        1   -1    0    0  501    0  0.00000000000E+00  0.00000000000E+00  0.12510048140E+04  0.12510048140E+04  0.50400001928E-02 0.  1.
       -1   -1    0    0    0  501  0.00000000000E+00  0.00000000000E+00 -0.44938401819E+03  0.44938401822E+03  0.50400001928E-02 0. -1.
    10030    2    1    2    0    0  0.00000000000E+00  0.00000000000E+00  0.80162079581E+03  0.17003888322E+04  0.14995753667E+04 0.  0.
        2    1    3    3  502    0 -0.19050910099E+03 -0.47097713163E+03  0.10260775103E+04  0.11449664769E+04  0.25500000920E-02 0.  1.
       -2    1    3    3    0  502  0.19050910099E+03  0.47097713163E+03 -0.22445671451E+03  0.55542235531E+03  0.25500000920E-02 0. -1.
</event>
<event>
 5   0  0.1216921E-04  0.1499887E+04  0.7818609E-02  0.8884528E-01
       -2   -1    0    0    0  501  0.00000000000E+00  0.00000000000E+00  0.11517991276E+04  0.11517991276E+04  0.25500000920E-02 0.  1.
        2   -1    0    0  501    0  0.00000000000E+00  0.00000000000E+00 -0.48829277372E+03  0.48829277372E+03  0.25500000920E-02 0. -1.
    10030    2    1    2    0    0  0.00000000000E+00  0.00000000000E+00  0.66350635384E+03  0.16400919013E+04  0.14998869168E+04 0.  0.
        4    1    3    3  502    0  0.68540714232E+03 -0.30430639288E+03  0.33756471391E+03  0.82239703336E+03  0.12699999809E+01 0.  1.
       -4    1    3    3    0  502 -0.68540714232E+03  0.30430639288E+03  0.32594163992E+03  0.81769486792E+03  0.12699999809E+01 0. -1.
</event>
<event>
 5   0  0.1216921E-04  0.1502791E+04  0.7818609E-02  0.8882599E-01
       -2   -1    0    0    0  501  0.00000000000E+00  0.00000000000E+00  0.44211140368E+03  0.44211140369E+03  0.25500000920E-02 0.  1.
        2   -1    0    0  501    0  0.00000000000E+00  0.00000000000E+00 -0.12770429403E+04  0.12770429403E+04  0.25500000920E-02 0. -1.
    10030    2    1    2    0    0  0.00000000000E+00  0.00000000000E+00 -0.83493153660E+03  0.17191543440E+04  0.15027910659E+04 0.  0.
        4    1    3    3  502    0 -0.20502786598E+02 -0.17472329959E+02  0.44155761132E+03  0.44238036076E+03  0.12699999809E+01 0.  1.
       -4    1    3    3    0  502  0.20502786598E+02  0.17472329959E+02 -0.12764891479E+04  0.12767739832E+04  0.12699999809E+01 0. -1.
</event>
<event>
 5   0  0.1228286E-04  0.1498083E+04  0.7818609E-02  0.8885729E-01
       -2   -1    0    0    0  501  0.00000000000E+00  0.00000000000E+00  0.44637724129E+03  0.44637724130E+03  0.25500000920E-02 0.  1.
        2   -1    0    0  501    0  0.00000000000E+00  0.00000000000E+00 -0.12569260462E+04  0.12569260462E+04  0.25500000920E-02 0. -1.
    10030    2    1    2    0    0  0.00000000000E+00  0.00000000000E+00 -0.81054880495E+03  0.17033032875E+04  0.14980830164E+04 0.  0.
        2    1    3    3  502    0  0.48132427864E+03 -0.24615763391E+03 -0.99475286273E+03  0.11321660213E+04  0.25500000920E-02 0. -1.
       -2    1    3    3    0  502 -0.48132427864E+03  0.24615763391E+03  0.18420405778E+03  0.57113726621E+03  0.25500000920E-02 0.  1.
</event>
<event>
 5   0  0.1219810E-04  0.1501338E+04  0.7818609E-02  0.8883564E-01
       -2   -1    0    0    0  501  0.00000000000E+00  0.00000000000E+00  0.61115298250E+03  0.61115298250E+03  0.25500000920E-02 0.  1.
        2   -1    0    0  501    0  0.00000000000E+00  0.00000000000E+00 -0.92203407790E+03  0.92203407790E+03  0.25500000920E-02 0. -1.
    10030    2    1    2    0    0  0.00000000000E+00  0.00000000000E+00 -0.31088109541E+03  0.15331870604E+04  0.15013379056E+04 0.  0.
        1    1    3    3  502    0  0.26583815864E+03 -0.16231504594E+03  0.54204759569E+03  0.62516533553E+03  0.50400001928E-02 0.  1.
       -1    1    3    3    0  502 -0.26583815864E+03  0.16231504594E+03 -0.85292869110E+03  0.90802172488E+03  0.50400001928E-02 0. -1.
</event>
<event>
 5   0  0.1216921E-04  0.1499546E+04  0.7818609E-02  0.8884755E-01
       -2   -1    0    0    0  501  0.00000000000E+00  0.00000000000E+00  0.49619601956E+03  0.49619601957E+03  0.25500000920E-02 0. -1.
        2   -1    0    0  501    0  0.00000000000E+00  0.00000000000E+00 -0.11329383434E+04  0.11329383434E+04  0.25500000920E-02 0.  1.
    10030    2    1    2    0    0  0.00000000000E+00  0.00000000000E+00 -0.63674232384E+03  0.16291343630E+04  0.14995459265E+04 0.  0.
        4    1    3    3  502    0 -0.30042564844E+03  0.46014501310E+03  0.23577560875E+03  0.59798056315E+03  0.12699999809E+01 0. -1.
       -4    1    3    3    0  502  0.30042564844E+03 -0.46014501310E+03 -0.87251793259E+03  0.10311537998E+04  0.12699999809E+01 0.  1.
</event>
<event>
 5   0  0.1254487E-04  0.1498297E+04  0.7818609E-02  0.8885586E-01
       -2   -1    0    0    0  501  0.00000000000E+00  0.00000000000E+00  0.74045620474E+03  0.74045620474E+03  0.25500000920E-02 0. -1.
        2   -1    0    0  501    0  0.00000000000E+00  0.00000000000E+00 -0.75794308536E+03  0.75794308536E+03  0.25500000920E-02 0.  1.
    10030    2    1    2    0    0  0.00000000000E+00  0.00000000000E+00 -0.17486880622E+02  0.14983992901E+04  0.14982972474E+04 0.  0.
        5    1    3    3  502    0 -0.56988948637E+03 -0.44577595926E+03 -0.20295073874E+03  0.75146611692E+03  0.46999998093E+01 0.  1.
       -5    1    3    3    0  502  0.56988948637E+03  0.44577595926E+03  0.18546385812E+03  0.74693317318E+03  0.46999998093E+01 0. -1.
</event>
<event>
 5   0  0.6361716E-05  0.1500235E+04  0.7818609E-02  0.8884297E-01
        1   -1    0    0  501    0  0.00000000000E+00  0.00000000000E+00  0.13961593917E+04  0.13961593917E+04  0.50400001928E-02 0.  1.
       -1   -1    0    0    0  501  0.00000000000E+00  0.00000000000E+00 -0.40301723428E+03  0.40301723431E+03  0.50400001928E-02 0. -1.
    10030    2    1    2    0    0  0.00000000000E+00  0.00000000000E+00  0.99314215742E+03  0.17991766260E+04  0.15002350438E+04 0.  0.
        3    1    3    3  502    0 -0.15137110803E+03  0.73022590065E+03  0.59350543770E+03  0.95309589922E+03  0.10100000352E+00 0. -1.
       -3    1    3    3    0  502  0.15137110803E+03 -0.73022590065E+03  0.39963671972E+03  0.84608072681E+03  0.10100000352E+00 0.  1.
</event>
<event>
 5   0  0.6361716E-05  0.1501999E+04  0.7818609E-02  0.8883125E-01
       -1   -1    0    0    0  501  0.00000000000E+00  0.00000000000E+00  0.48296500804E+03  0.48296500807E+03  0.50400001928E-02 0. -1.
        1   -1    0    0  501    0  0.00000000000E+00  0.00000000000E+00 -0.11677866046E+04  0.11677866046E+04  0.50400001928E-02 0.  1.
    10030    2    1    2    0    0  0.00000000000E+00  0.00000000000E+00 -0.68482159651E+03  0.16507516126E+04  0.15019987575E+04 0.  0.
        3    1    3    3  502    0  0.22024474258E+03 -0.41056752931E+03 -0.98974859520E+03  0.10939267501E+04  0.10100000352E+00 0.  1.
       -3    1    3    3    0  502 -0.22024474258E+03  0.41056752931E+03  0.30492699869E+03  0.55682486249E+03  0.10100000352E+00 0. -1.
</event>
<event>
 5   0  0.6542036E-05  0.1498288E+04  0.7818609E-02  0.8885592E-01
       -1   -1    0    0    0  501  0.00000000000E+00  0.00000000000E+00  0.55496693978E+03  0.55496693980E+03  0.50400001928E-02 0.  1.
        1   -1    0    0  501    0  0.00000000000E+00  0.00000000000E+00 -0.10112620851E+04  0.10112620851E+04  0.50400001928E-02 0. -1.
    10030    2    1    2    0    0  0.00000000000E+00  0.00000000000E+00 -0.45629514530E+03  0.15662290249E+04  0.14982883897E+04 0.  0.
        4    1    3    3  502    0 -0.56716254035E+02 -0.18828820267E+03  0.52750508409E+03  0.56296750117E+03  0.12699999809E+01 0.  1.
       -4    1    3    3    0  502  0.56716254035E+02  0.18828820267E+03 -0.98380022939E+03  0.10032615237E+04  0.12699999809E+01 0. -1.
</event>
<event>
 5   0  0.6668433E-05  0.1500411E+04  0.7818609E-02  0.8884179E-01
        1   -1    0    0  501    0  0.00000000000E+00  0.00000000000E+00  0.67553329229E+03  0.67553329231E+03  0.50400001928E-02 0.  1.
       -1   -1    0    0    0  501  0.00000000000E+00  0.00000000000E+00 -0.83313236671E+03  0.83313236672E+03  0.50400001928E-02 0. -1.
    10030    2    1    2    0    0  0.00000000000E+00  0.00000000000E+00 -0.15759907441E+03  0.15086656590E+04  0.15004114777E+04 0.  0.
        1    1    3    3  502    0 -0.70657219568E+03 -0.11999237135E+03  0.14415484319E+03  0.73104244455E+03  0.50400001928E-02 0. -1.
       -1    1    3    3    0  502  0.70657219568E+03  0.11999237135E+03 -0.30175391760E+03  0.77762321448E+03  0.50400001928E-02 0.  1.
</event>
<event>
 5   0  0.1219810E-04  0.1503869E+04  0.7818609E-02  0.8881884E-01
        2   -1    0    0  501    0  0.00000000000E+00  0.00000000000E+00  0.15024893617E+04  0.15024893617E+04  0.25500000920E-02 0.  1.
       -2   -1    0    0    0  501  0.00000000000E+00  0.00000000000E+00 -0.37631239107E+03  0.37631239108E+03  0.25500000920E-02 0. -1.
    10030    2    1    2    0    0  0.00000000000E+00  0.00000000000E+00  0.11261769707E+04  0.18788017528E+04  0.15038688298E+04 0.  0.
        1    1    3    3  502    0 -0.43754108169E+03  0.48429573485E+03  0.10295703832E+04  0.12190158862E+04  0.50400001928E-02 0.  1.
       -1    1    3    3    0  502  0.43754108169E+03 -0.48429573485E+03  0.96606587493E+02  0.65978586658E+03  0.50400001928E-02 0. -1.
</event>
<event>
 5   0  0.1216921E-04  0.1499882E+04  0.7818609E-02  0.8884531E-01
        2   -1    0    0  501    0  0.00000000000E+00  0.00000000000E+00  0.98843343914E+03  0.98843343914E+03  0.25500000920E-02 0. -1.
       -2   -1    0    0    0  501  0.00000000000E+00  0.00000000000E+00 -0.56899287773E+03  0.56899287773E+03  0.25500000920E-02 0.  1.
    10030    2    1    2    0    0  0.00000000000E+00  0.00000000000E+00  0.41944056141E+03  0.15574263169E+04  0.14998821113E+04 0.  0.
        4    1    3    3  502    0 -0.48201263634E+03 -0.56160106548E+03  0.83919205219E+02  0.74483285658E+03  0.12699999809E+01 0.  1.
       -4    1    3    3    0  502  0.48201263634E+03  0.56160106548E+03  0.33552135620E+03  0.81259346029E+03  0.12699999809E+01 0. -1.
</event>
<event>
 5   0  0.1228286E-04  0.1499947E+04  0.7818609E-02  0.8884488E-01
       -2   -1    0    0    0  501  0.00000000000E+00  0.00000000000E+00  0.34408881432E+03  0.34408881433E+03  0.25500000920E-02 0. -1.
        2   -1    0    0  501    0  0.00000000000E+00  0.00000000000E+00 -0.16346366775E+04  0.16346366775E+04  0.25500000920E-02 0.  1.
    10030    2    1    2    0    0  0.00000000000E+00  0.00000000000E+00 -0.12905478632E+04  0.19787254918E+04  0.14999469274E+04 0.  0.
        2    1    3    3  502    0  0.13457850817E+03  0.31828814488E+03 -0.15233494117E+04  0.15620538237E+04  0.25500000920E-02 0.  1.
       -2    1    3    3    0  502 -0.13457850817E+03 -0.31828814488E+03  0.23280154851E+03  0.41667166814E+03  0.25500000920E-02 0. -1.
</event>
<event>
 5   0  0.4462875E-05  0.1499268E+04  0.7818609E-02  0.8884940E-01
       -3   -1    0    0    0  501  0.00000000000E+00  0.00000000000E+00  0.93594122881E+03  0.93594123425E+03  0.10100000352E+00 0. -1.
        3   -1    0    0  501    0  0.00000000000E+00  0.00000000000E+00 -0.60041312235E+03  0.60041313084E+03  0.10100000352E+00 0.  1.
    10030    2    1    2    0    0  0.00000000000E+00  0.00000000000E+00  0.33552810646E+03  0.15363543651E+04  0.14992683632E+04 0.  0.
        2    1    3    3  502    0 -0.31102801497E+03  0.58393837921E+03 -0.19341572591E+03  0.68929826624E+03  0.25500000920E-02 0.  1.
       -2    1    3    3    0  502  0.31102801497E+03 -0.58393837921E+03  0.52894383237E+03  0.84705609886E+03  0.25500000920E-02 0. -1.
</event>
<event>
 5   0  0.6361716E-05  0.1494951E+04  0.7818609E-02  0.8887817E-01
        1   -1    0    0  501    0  0.00000000000E+00  0.00000000000E+00  0.11825490613E+04  0.11825490613E+04  0.50400001928E-02 0. -1.
       -1   -1    0    0    0  501  0.00000000000E+00  0.00000000000E+00 -0.47247066335E+03  0.47247066338E+03  0.50400001928E-02 0.  1.
    10030    2    1    2    0    0  0.00000000000E+00  0.00000000000E+00  0.71007839795E+03  0.16550197247E+04  0.14949511557E+04 0.  0.
        3    1    3    3  502    0  0.62774952477E+03  0.25837220433E+03  0.86579629374E+01  0.67889662862E+03  0.10100000352E+00 0.  1.
       -3    1    3    3    0  502 -0.62774952477E+03 -0.25837220433E+03  0.70142043501E+03  0.97612309607E+03  0.10100000352E+00 0. -1.
</event>
<event>
 5   0  0.1219810E-04  0.1498017E+04  0.7818609E-02  0.8885772E-01
        2   -1    0    0  501    0  0.00000000000E+00  0.00000000000E+00  0.45492723731E+03  0.45492723732E+03  0.25500000920E-02 0.  1.
       -2   -1    0    0    0  501  0.00000000000E+00  0.00000000000E+00 -0.12331952070E+04  0.12331952070E+04  0.25500000920E-02 0. -1.
    10030    2    1    2    0    0  0.00000000000E+00  0.00000000000E+00 -0.77826796970E+03  0.16881224443E+04  0.14980174747E+04 0.  0.
        1    1    3    3  502    0 -0.56788263939E+03  0.48543548613E+03 -0.44956575162E+03  0.87192182469E+03  0.50400001928E-02 0.  1.
       -1    1    3    3    0  502  0.56788263939E+03 -0.48543548613E+03 -0.32870221808E+03  0.81620061965E+03  0.50400001928E-02 0. -1.
</event>
<event>
 5   0  0.6542036E-05  0.1494392E+04  0.7818609E-02  0.8888191E-01
       -1   -1    0    0    0  501  0.00000000000E+00  0.00000000000E+00  0.59027051635E+03  0.59027051637E+03  0.50400001928E-02 0.  1.
        1   -1    0    0  501    0  0.00000000000E+00  0.00000000000E+00 -0.94584038167E+03  0.94584038169E+03  0.50400001928E-02 0. -1.
    10030    2    1    2    0    0  0.00000000000E+00  0.00000000000E+00 -0.35556986532E+03  0.15361108981E+04  0.14943917699E+04 0.  0.
        4    1    3    3  502    0  0.71541043913E+02 -0.25274169182E+03  0.54124555612E+03  0.60161852421E+03  0.12699999809E+01 0.  1.
       -4    1    3    3    0  502 -0.71541043913E+02  0.25274169182E+03 -0.89681542144E+03  0.93449237385E+03  0.12699999809E+01 0. -1.
</event>
<event>
 5   0  0.6361716E-05  0.1501006E+04  0.7818609E-02  0.8883784E-01
       -1   -1    0    0    0  501  0.00000000000E+00  0.00000000000E+00  0.42709455875E+03  0.42709455878E+03  0.50400001928E-02 0. -1.
        1   -1    0    0  501    0  0.00000000000E+00  0.00000000000E+00 -0.13188054228E+04  0.13188054229E+04  0.50400001928E-02 0.  1.
    10030    2    1    2    0    0  0.00000000000E+00  0.00000000000E+00 -0.89171086409E+03  0.17458999816E+04  0.15010058230E+04 0.  0.
        3    1    3    3  502    0 -0.85357785837E+02  0.27242858316E+03  0.36146964455E+03  0.46061219986E+03  0.10100000352E+00 0. -1.
       -3    1    3    3    0  502  0.85357785837E+02 -0.27242858316E+03 -0.12531805086E+04  0.12852877818E+04  0.10100000352E+00 0.  1.
</event>
<event>
 5   0  0.6668433E-05  0.1508717E+04  0.7818609E-02  0.8878677E-01
        1   -1    0    0  501    0  0.00000000000E+00  0.00000000000E+00  0.86718718080E+03  0.86718718081E+03  0.50400001928E-02 0.  1.
       -1   -1    0    0    0  501  0.00000000000E+00  0.00000000000E+00 -0.65621003163E+03  0.65621003165E+03  0.50400001928E-02 0. -1.
    10030    2    1    2    0    0  0.00000000000E+00  0.00000000000E+00  0.21097714917E+03  0.15233972125E+04  0.15087172397E+04 0.  0.
        1    1    3    3  502    0 -0.33516035233E+02  0.97573554139E+02 -0.64905281129E+03  0.65720124387E+03  0.50400001928E-02 0. -1.
       -1    1    3    3    0  502  0.33516035233E+02 -0.97573554139E+02  0.86002996046E+03  0.86619596859E+03  0.50400001928E-02 0.  1.
</event>
<event>
 5   0  0.6364378E-05  0.1494540E+04  0.7818609E-02  0.8888092E-01
        1   -1    0    0  501    0  0.00000000000E+00  0.00000000000E+00  0.10934270379E+04  0.10934270379E+04  0.50400001928E-02 0. -1.
       -1   -1    0    0    0  501  0.00000000000E+00  0.00000000000E+00 -0.51069902526E+03  0.51069902528E+03  0.50400001928E-02 0.  1.
    10030    2    1    2    0    0  0.00000000000E+00  0.00000000000E+00  0.58272801264E+03  0.16041260632E+04  0.14945395578E+04 0.  0.
        5    1    3    3  502    0  0.71453879858E+03  0.93546587304E+02  0.79200083549E+02  0.72499062195E+03  0.46999998093E+01 0.  1.
       -5    1    3    3    0  502 -0.71453879858E+03 -0.93546587304E+02  0.50352792909E+03  0.87913544124E+03  0.46999998093E+01 0. -1.
</event>
<event>
 5   0  0.6361716E-05  0.1499467E+04  0.7818609E-02  0.8884808E-01
       -1   -1    0    0    0  501  0.00000000000E+00  0.00000000000E+00  0.33957406223E+03  0.33957406227E+03  0.50400001928E-02 0.  1.
        1   -1    0    0  501    0  0.00000000000E+00  0.00000000000E+00 -0.16553089993E+04  0.16553089993E+04  0.50400001928E-02 0. -1.
    10030    2    1    2    0    0  0.00000000000E+00  0.00000000000E+00 -0.13157349371E+04  0.19948830616E+04  0.14994665734E+04 0.  0.
        3    1    3    3  502    0 -0.43772018402E+03  0.89269009840E+02 -0.14589068589E+04  0.15257710014E+04  0.10100000352E+00 0. -1.
       -3    1    3    3    0  502  0.43772018402E+03 -0.89269009840E+02  0.14317192181E+03  0.46911206019E+03  0.10100000352E+00 0.  1.
</event>
<event>
 5   0  0.1216921E-04  0.1501647E+04  0.7818609E-02  0.8883358E-01
       -2   -1    0    0    0  501  0.00000000000E+00  0.00000000000E+00  0.80582527308E+03  0.80582527308E+03  0.25500000920E-02 0. -1.
        2   -1    0    0  501    0  0.00000000000E+00  0.00000000000E+00 -0.69957595712E+03  0.69957595712E+03  0.25500000920E-02 0.  1.
    10030    2    1    2    0    0  0.00000000000E+00  0.00000000000E+00  0.10624931596E+03  0.15054012302E+04  0.15016470780E+04 0.  0.
        4    1    3    3  502    0  0.74230651712E+03 -0.11127926028E+03  0.71400281824E+02  0.75399048553E+03  0.12699999809E+01 0.  1.
       -4    1    3    3    0  502 -0.74230651712E+03  0.11127926028E+03  0.34849034137E+02  0.75141074467E+03  0.12699999809E+01 0. -1.
</event>
<event>
 5   0  0.1219810E-04  0.1502037E+04  0.7818609E-02  0.8883100E-01
       -2   -1    0    0    0  501  0.00000000000E+00  0.00000000000E+00  0.42237457128E+03  0.42237457129E+03  0.25500000920E-02 0. -1.
        2   -1    0    0  501    0  0.00000000000E+00  0.00000000000E+00 -0.13353751280E+04  0.13353751280E+04  0.25500000920E-02 0.  1.
    10030    2    1    2    0    0  0.00000000000E+00  0.00000000000E+00 -0.91300055671E+03  0.17577496993E+04  0.15020366137E+04 0.  0.
        1    1    3    3  502    0 -0.47607226747E+03  0.17112678981E+03  0.19306362007E+03  0.54148198812E+03  0.50400001928E-02 0. -1.
       -1    1    3    3    0  502  0.47607226747E+03 -0.17112678981E+03 -0.11060641768E+04  0.12162677112E+04  0.50400001928E-02 0.  1.
</event>
<event>
 5   0  0.6542036E-05  0.1498330E+04  0.7818609E-02  0.8885564E-01
        1   -1    0    0  501    0  0.00000000000E+00  0.00000000000E+00  0.97952537989E+03  0.97952537990E+03  0.50400001928E-02 0.  1.
       -1   -1    0    0    0  501  0.00000000000E+00  0.00000000000E+00 -0.57297944427E+03  0.57297944429E+03  0.50400001928E-02 0. -1.
    10030    2    1    2    0    0  0.00000000000E+00  0.00000000000E+00  0.40654593562E+03  0.15525048242E+04  0.14983296137E+04 0.  0.
        4    1    3    3  502    0  0.70866727006E+03 -0.23628834695E+02 -0.47294308034E+02  0.71063773187E+03  0.12699999809E+01 0.  1.
       -4    1    3    3    0  502 -0.70866727006E+03  0.23628834695E+02  0.45384024365E+03  0.84186709233E+03  0.12699999809E+01 0. -1.
</event>
<event>
 5   0  0.1254487E-04  0.1498656E+04  0.7818609E-02  0.8885347E-01
       -2   -1    0    0    0  501  0.00000000000E+00  0.00000000000E+00  0.23049452723E+03  0.23049452725E+03  0.25500000920E-02 0.  1.
        2   -1    0    0  501    0  0.00000000000E+00  0.00000000000E+00 -0.24360344199E+04  0.24360344199E+04  0.25500000920E-02 0. -1.
    10030    2    1    2    0    0  0.00000000000E+00  0.00000000000E+00 -0.22055398927E+04  0.26665289472E+04  0.14986562007E+04 0.  0.
        5    1    3    3  502    0 -0.55551759838E+03  0.18917739019E+03 -0.19317743163E+04  0.20189507142E+04  0.46999998093E+01 0. -1.
       -5    1    3    3    0  502  0.55551759838E+03 -0.18917739019E+03 -0.27376557639E+03  0.64757823302E+03  0.46999998093E+01 0.  1.
</event>
<event>
 5   0  0.6542036E-05  0.1507327E+04  0.7818609E-02  0.8879595E-01
        1   -1    0    0  501    0  0.00000000000E+00  0.00000000000E+00  0.44967552888E+03  0.44967552891E+03  0.50400001928E-02 0. -1.
       -1   -1    0    0    0  501  0.00000000000E+00  0.00000000000E+00 -0.12631525256E+04  0.12631525256E+04  0.50400001928E-02 0.  1.
    10030    2    1    2    0    0  0.00000000000E+00  0.00000000000E+00 -0.81347699670E+03  0.17128280545E+04  0.15073271444E+04 0.  0.
        4    1    3    3  502    0 -0.61018888588E+03 -0.21436292627E+03  0.32958739042E+02  0.64758770217E+03  0.12699999809E+01 0. -1.
       -4    1    3    3    0  502  0.61018888588E+03  0.21436292627E+03 -0.84643573574E+03  0.10652403523E+04  0.12699999809E+01 0.  1.
</event>
<event>
 5   0  0.6668433E-05  0.1501706E+04  0.7818609E-02  0.8883319E-01
       -1   -1    0    0    0  501  0.00000000000E+00  0.00000000000E+00  0.61517452823E+03  0.61517452826E+03  0.50400001928E-02 0. -1.
        1   -1    0    0  501    0  0.00000000000E+00  0.00000000000E+00 -0.91645563019E+03  0.91645563020E+03  0.50400001928E-02 0.  1.
    10030    2    1    2    0    0  0.00000000000E+00  0.00000000000E+00 -0.30128110196E+03  0.15316301585E+04  0.15017059099E+04 0.  0.
        1    1    3    3  502    0  0.33764994253E+03  0.64487234116E+02 -0.83148588921E+03  0.89974155791E+03  0.50400001928E-02 0.  1.
       -1    1    3    3    0  502 -0.33764994253E+03 -0.64487234116E+02  0.53020478725E+03  0.63188860055E+03  0.50400001928E-02 0. -1.
</event>
<event>
 5   0  0.6361716E-05  0.1505980E+04  0.7818609E-02  0.8880486E-01
       -1   -1    0    0    0  501  0.00000000000E+00  0.00000000000E+00  0.29334487938E+03  0.29334487942E+03  0.50400001928E-02 0. -1.
        1   -1    0    0  501    0  0.00000000000E+00  0.00000000000E+00 -0.19328582652E+04  0.19328582652E+04  0.50400001928E-02 0.  1.
    10030    2    1    2    0    0  0.00000000000E+00  0.00000000000E+00 -0.16395133858E+04  0.22262031447E+04  0.15059801788E+04 0.  0.
        3    1    3    3  502    0  0.68608096809E+03 -0.27602644157E+03 -0.61019862739E+03  0.95877007999E+03  0.10100000352E+00 0. -1.
       -3    1    3    3    0  502 -0.68608096809E+03  0.27602644157E+03 -0.10293147585E+04  0.12674330647E+04  0.10100000352E+00 0.  1.
</event>
<event>
 5   0  0.6361716E-05  0.1497979E+04  0.7818609E-02  0.8885798E-01
        1   -1    0    0  501    0  0.00000000000E+00  0.00000000000E+00  0.10077545869E+04  0.10077545869E+04  0.50400001928E-02 0.  1.
       -1   -1    0    0    0  501  0.00000000000E+00  0.00000000000E+00 -0.55666847333E+03  0.55666847336E+03  0.50400001928E-02 0. -1.
    10030    2    1    2    0    0  0.00000000000E+00  0.00000000000E+00  0.45108611357E+03  0.15644230603E+04  0.14979789150E+04 0.  0.
        3    1    3    3  502    0 -0.64684133423E+03  0.34605129870E+03  0.67745122279E+02  0.73671203654E+03  0.10100000352E+00 0. -1.
       -3    1    3    3    0  502  0.64684133423E+03 -0.34605129870E+03  0.38334099129E+03  0.82771102373E+03  0.10100000352E+00 0.  1.
</event>
<event>
 5   0  0.1254487E-04  0.1499699E+04  0.7818609E-02  0.8884653E-01
        2   -1    0    0  501    0  0.00000000000E+00  0.00000000000E+00  0.14914887844E+04  0.14914887844E+04  0.25500000920E-02 0.  1.
       -2   -1    0    0    0  501  0.00000000000E+00  0.00000000000E+00 -0.37698854065E+03  0.37698854066E+03  0.25500000920E-02 0. -1.
    10030    2    1    2    0    0  0.00000000000E+00  0.00000000000E+00  0.11145002437E+04  0.18684773250E+04  0.14996988767E+04 0.  0.
        5    1    3    3  502    0 -0.64933408870E+03 -0.13608147809E+03  0.99260168553E+03  0.11939150403E+04  0.46999998093E+01 0. -1.
       -5    1    3    3    0  502  0.64933408870E+03  0.13608147809E+03  0.12189855818E+03  0.67456228468E+03  0.46999998093E+01 0.  1.
</event>
<event>
 5   0  0.1219810E-04  0.1505011E+04  0.7818609E-02  0.8881127E-01
       -2   -1    0    0    0  501  0.00000000000E+00  0.00000000000E+00  0.11678474302E+04  0.11678474302E+04  0.25500000920E-02 0. -1.
        2   -1    0    0  501    0  0.00000000000E+00  0.00000000000E+00 -0.48487891586E+03  0.48487891587E+03  0.25500000920E-02 0.  1.
    10030    2    1    2    0    0  0.00000000000E+00  0.00000000000E+00  0.68296851438E+03  0.16527263461E+04  0.15050110908E+04 0.  0.
        1    1    3    3  502    0  0.42531461027E+03  0.54395875903E+03  0.12990943020E+02  0.69061741497E+03  0.50400001928E-02 0.  1.
       -1    1    3    3    0  502 -0.42531461027E+03 -0.54395875903E+03  0.66997757136E+03  0.96210893114E+03  0.50400001928E-02 0. -1.
</event>
<event>
 5   0  0.6542036E-05  0.1505193E+04  0.7818609E-02  0.8881007E-01
       -1   -1    0    0    0  501  0.00000000000E+00  0.00000000000E+00  0.73954636826E+03  0.73954636827E+03  0.50400001928E-02 0. -1.
        1   -1    0    0  501    0  0.00000000000E+00  0.00000000000E+00 -0.76587653513E+03  0.76587653515E+03  0.50400001928E-02 0.  1.
    10030    2    1    2    0    0  0.00000000000E+00  0.00000000000E+00 -0.26330166874E+02  0.15054229034E+04  0.15051926257E+04 0.  0.
        4    1    3    3  502    0 -0.36662837728E+03  0.45581804317E+02 -0.66893720917E+03  0.76418104571E+03  0.12699999809E+01 0.  1.
       -4    1    3    3    0  502  0.36662837728E+03 -0.45581804317E+02  0.64260704229E+03  0.74124185771E+03  0.12699999809E+01 0. -1.
</event>
<event>
 5   0  0.6361716E-05  0.1501266E+04  0.7818609E-02  0.8883612E-01
        1   -1    0    0  501    0  0.00000000000E+00  0.00000000000E+00  0.37567863895E+03  0.37567863898E+03  0.50400001928E-02 0. -1.
       -1   -1    0    0    0  501  0.00000000000E+00  0.00000000000E+00 -0.14998181617E+04  0.14998181617E+04  0.50400001928E-02 0.  1.
    10030    2    1    2    0    0  0.00000000000E+00  0.00000000000E+00 -0.11241395227E+04  0.18754968006E+04  0.15012656603E+04 0.  0.
        3    1    3    3  502    0 -0.46392699494E+03  0.51441739586E+03 -0.20086635140E+03  0.72124948189E+03  0.10100000352E+00 0. -1.
       -3    1    3    3    0  502  0.46392699494E+03 -0.51441739586E+03 -0.92327317130E+03  0.11542473188E+04  0.10100000352E+00 0.  1.
</event>
<event>
 5   0  0.1254487E-04  0.1496418E+04  0.7818609E-02  0.8886838E-01
       -2   -1    0    0    0  501  0.00000000000E+00  0.00000000000E+00  0.75277659400E+03  0.75277659400E+03  0.25500000920E-02 0. -1.
        2   -1    0    0  501    0  0.00000000000E+00  0.00000000000E+00 -0.74366941118E+03  0.74366941118E+03  0.25500000920E-02 0.  1.
    10030    2    1    2    0    0  0.00000000000E+00  0.00000000000E+00  0.91071828242E+01  0.14964460052E+04  0.14964182923E+04 0.  0.
        5    1    3    3  502    0  0.21987214880E+02  0.12611854893E+03  0.74172768058E+03  0.75270935170E+03  0.46999998093E+01 0. -1.
       -5    1    3    3    0  502 -0.21987214880E+02 -0.12611854893E+03 -0.73262049776E+03  0.74373665348E+03  0.46999998093E+01 0.  1.
</event>
<event>
 5   0  0.6364378E-05  0.1501595E+04  0.7818609E-02  0.8883393E-01
        1   -1    0    0  501    0  0.00000000000E+00  0.00000000000E+00  0.89448925053E+03  0.89448925054E+03  0.50400001928E-02 0.  1.
       -1   -1    0    0    0  501  0.00000000000E+00  0.00000000000E+00 -0.63018845970E+03  0.63018845972E+03  0.50400001928E-02 0. -1.
    10030    2    1    2    0    0  0.00000000000E+00  0.00000000000E+00  0.26430079082E+03  0.15246777103E+04  0.15015948895E+04 0.  0.
        5    1    3    3  502    0 -0.42400064630E+03 -0.80685534146E+01 -0.49691596367E+03  0.65329106420E+03  0.46999998093E+01 0. -1.
       -5    1    3    3    0  502  0.42400064630E+03  0.80685534146E+01  0.76121675449E+03  0.87138664606E+03  0.46999998093E+01 0.  1.
</event>
<event>
 5   0  0.6361716E-05  0.1500731E+04  0.7818609E-02  0.8883967E-01
        1   -1    0    0  501    0  0.00000000000E+00  0.00000000000E+00  0.60301243985E+03  0.60301243987E+03  0.50400001928E-02 0.  1.
       -1   -1    0    0    0  501  0.00000000000E+00  0.00000000000E+00 -0.93372540215E+03  0.93372540217E+03  0.50400001928E-02 0. -1.
    10030    2    1    2    0    0  0.00000000000E+00  0.00000000000E+00 -0.33071296231E+03  0.15367378420E+04  0.15007305327E+04 0.  0.
        3    1    3    3  502    0 -0.64514342131E+03  0.32287976563E+03 -0.37667316378E+03  0.81384523076E+03  0.10100000352E+00 0. -1.
       -3    1    3    3    0  502  0.64514342131E+03 -0.32287976563E+03  0.45960201475E+02  0.72289261128E+03  0.10100000352E+00 0.  1.
</event>
<event>
 5   0  0.1216921E-04  0.1497076E+04  0.7818609E-02  0.8886400E-01
       -2   -1    0    0    0  501  0.00000000000E+00  0.00000000000E+00  0.33490976148E+03  0.33490976149E+03  0.25500000920E-02 0. -1.
        2   -1    0    0  501    0  0.00000000000E+00  0.00000000000E+00 -0.16730155329E+04  0.16730155329E+04  0.25500000920E-02 0.  1.
    10030    2    1    2    0    0  0.00000000000E+00  0.00000000000E+00 -0.13381057715E+04  0.20079252944E+04  0.14970761278E+04 0.  0.
        4    1    3    3  502    0  0.12056376840E+03 -0.45594750962E+03  0.11057505119E+03  0.48440913350E+03  0.12699999809E+01 0. -1.
       -4    1    3    3    0  502 -0.12056376840E+03  0.45594750962E+03 -0.14486808226E+04  0.15235161609E+04  0.12699999809E+01 0.  1.
</event>
<event>
 5   0  0.1228286E-04  0.1498295E+04  0.7818609E-02  0.8885587E-01
       -2   -1    0    0    0  501  0.00000000000E+00  0.00000000000E+00  0.62737298637E+03  0.62737298638E+03  0.25500000920E-02 0. -1.
        2   -1    0    0  501    0  0.00000000000E+00  0.00000000000E+00 -0.89455876231E+03  0.89455876231E+03  0.25500000920E-02 0.  1.
    10030    2    1    2    0    0  0.00000000000E+00  0.00000000000E+00 -0.26718577594E+03  0.15219317487E+04  0.14982950340E+04 0.  0.
        2    1    3    3  502    0 -0.11453064616E+03 -0.51270465390E+03  0.40890998076E+03  0.66572569682E+03  0.25500000920E-02 0. -1.
       -2    1    3    3    0  502  0.11453064616E+03  0.51270465390E+03 -0.67609575669E+03  0.85620605187E+03  0.25500000920E-02 0.  1.
</event>
<event>
 5   0  0.6509279E-05  0.1504127E+04  0.7818609E-02  0.8881713E-01
        1   -1    0    0  501    0  0.00000000000E+00  0.00000000000E+00  0.39809871389E+03  0.39809871392E+03  0.50400001928E-02 0.  1.
       -1   -1    0    0    0  501  0.00000000000E+00  0.00000000000E+00 -0.14207521740E+04  0.14207521740E+04  0.50400001928E-02 0. -1.
    10030    2    1    2    0    0  0.00000000000E+00  0.00000000000E+00 -0.10226534601E+04  0.18188508879E+04  0.15041271399E+04 0.  0.
        2    1    3    3  502    0  0.70842326869E+03 -0.23056579047E+03 -0.38697178994E+03  0.83950656791E+03  0.25500000920E-02 0.  1.
       -2    1    3    3    0  502 -0.70842326869E+03  0.23056579047E+03 -0.63568167015E+03  0.97934432001E+03  0.25500000920E-02 0. -1.
</event>
<event>
 5   0  0.1228286E-04  0.1499403E+04  0.7818609E-02  0.8884850E-01
       -2   -1    0    0    0  501  0.00000000000E+00  0.00000000000E+00  0.10083979676E+04  0.10083979677E+04  0.25500000920E-02 0. -1.
        2   -1    0    0  501    0  0.00000000000E+00  0.00000000000E+00 -0.55737167709E+03  0.55737167709E+03  0.25500000920E-02 0.  1.
    10030    2    1    2    0    0  0.00000000000E+00  0.00000000000E+00  0.45102629056E+03  0.15657696447E+04  0.14994031698E+04 0.  0.
        2    1    3    3  502    0 -0.32918120711E+03  0.52193897834E+03 -0.21909221116E+03  0.65481444794E+03  0.25500000920E-02 0.  1.
       -2    1    3    3    0  502  0.32918120711E+03 -0.52193897834E+03  0.67011850173E+03  0.91095519681E+03  0.25500000920E-02 0. -1.
</event>
<event>
 5   0  0.6509279E-05  0.1502983E+04  0.7818609E-02  0.8882471E-01
       -1   -1    0    0    0  501  0.00000000000E+00  0.00000000000E+00  0.14605790076E+04  0.14605790076E+04  0.50400001928E-02 0.  1.
        1   -1    0    0  501    0  0.00000000000E+00  0.00000000000E+00 -0.38665471306E+03  0.38665471310E+03  0.50400001928E-02 0. -1.
    10030    2    1    2    0    0  0.00000000000E+00  0.00000000000E+00  0.10739242946E+04  0.18472337207E+04  0.15029833760E+04 0.  0.
        2    1    3    3  502    0  0.27475666269E+02 -0.74773463310E+03  0.62279983983E+03  0.97352022797E+03  0.25500000920E-02 0.  1.
       -2    1    3    3    0  502 -0.27475666269E+02  0.74773463310E+03  0.45112445473E+03  0.87371349276E+03  0.25500000920E-02 0. -1.
</event>
<event>
 5   0  0.4462875E-05  0.1495871E+04  0.7818609E-02  0.8887203E-01
        3   -1    0    0  501    0  0.00000000000E+00  0.00000000000E+00  0.18078036346E+04  0.18078036374E+04  0.10100000352E+00 0. -1.
       -3   -1    0    0    0  501  0.00000000000E+00  0.00000000000E+00 -0.30944048795E+03  0.30944050443E+03  0.10100000352E+00 0.  1.
    10030    2    1    2    0    0  0.00000000000E+00  0.00000000000E+00  0.14983631466E+04  0.21172441418E+04  0.14958711966E+04 0.  0.
        5    1    3    3  502    0  0.24246896346E+03 -0.28955395815E+03  0.16629076998E+04  0.17052615052E+04  0.46999998093E+01 0. -1.
       -5    1    3    3    0  502 -0.24246896346E+03  0.28955395815E+03 -0.16454455319E+03  0.41198263665E+03  0.46999998093E+01 0.  1.
</event>
<event>
 5   0  0.6668433E-05  0.1497256E+04  0.7818609E-02  0.8886280E-01
       -1   -1    0    0    0  501  0.00000000000E+00  0.00000000000E+00  0.59300270432E+03  0.59300270435E+03  0.50400001928E-02 0.  1.
        1   -1    0    0  501    0  0.00000000000E+00  0.00000000000E+00 -0.94509528635E+03  0.94509528636E+03  0.50400001928E-02 0. -1.
    10030    2    1    2    0    0  0.00000000000E+00  0.00000000000E+00 -0.35209258203E+03  0.15380979907E+04  0.14972562382E+04 0.  0.
        1    1    3    3  502    0 -0.99713026707E+02 -0.19326355023E+03 -0.91193185397E+03  0.93750370338E+03  0.50400001928E-02 0. -1.
       -1    1    3    3    0  502  0.99713026707E+02  0.19326355023E+03  0.55983927194E+03  0.60059428733E+03  0.50400001928E-02 0.  1.
</event>
<event>
 5   0  0.1228286E-04  0.1501021E+04  0.7818609E-02  0.8883774E-01
       -2   -1    0    0    0  501  0.00000000000E+00  0.00000000000E+00  0.76173069316E+03  0.76173069317E+03  0.25500000920E-02 0.  1.
        2   -1    0    0  501    0  0.00000000000E+00  0.00000000000E+00 -0.73945555804E+03  0.73945555805E+03  0.25500000920E-02 0. -1.
    10030    2    1    2    0    0  0.00000000000E+00  0.00000000000E+00  0.22275135119E+02  0.15011862512E+04  0.15010209789E+04 0.  0.
        2    1    3    3  502    0  0.23672406311E+03 -0.40402544423E+03  0.59770973592E+03  0.75929689191E+03  0.25500000920E-02 0.  1.
       -2    1    3    3    0  502 -0.23672406311E+03  0.40402544423E+03 -0.57543460080E+03  0.74188935931E+03  0.25500000920E-02 0. -1.
</event>
<event>
 5   0  0.1216921E-04  0.1500721E+04  0.7818609E-02  0.8883974E-01
        2   -1    0    0  501    0  0.00000000000E+00  0.00000000000E+00  0.11195850134E+04  0.11195850134E+04  0.25500000920E-02 0.  1.
       -2   -1    0    0    0  501  0.00000000000E+00  0.00000000000E+00 -0.50290118252E+03  0.50290118252E+03  0.25500000920E-02 0. -1.
    10030    2    1    2    0    0  0.00000000000E+00  0.00000000000E+00  0.61668383085E+03  0.16224861959E+04  0.15007206631E+04 0.  0.
        4    1    3    3  502    0  0.41033501321E+03  0.62109885507E+03  0.20634524520E+03  0.77247562030E+03  0.12699999809E+01 0.  1.
       -4    1    3    3    0  502 -0.41033501321E+03 -0.62109885507E+03  0.41033858566E+03  0.85001057559E+03  0.12699999809E+01 0. -1.
</event>
<event>
 5   0  0.1219810E-04  0.1496554E+04  0.7818609E-02  0.8886748E-01
        2   -1    0    0  501    0  0.00000000000E+00  0.00000000000E+00  0.12993135572E+04  0.12993135572E+04  0.25500000920E-02 0.  1.
       -2   -1    0    0    0  501  0.00000000000E+00  0.00000000000E+00 -0.43093401132E+03  0.43093401133E+03  0.25500000920E-02 0. -1.
    10030    2    1    2    0    0  0.00000000000E+00  0.00000000000E+00  0.86837954586E+03  0.17302475685E+04  0.14965539124E+04 0.  0.
        1    1    3    3  502    0  0.86407812348E+02  0.55468493736E+03 -0.13781668313E+03  0.57804422663E+03  0.50400001928E-02 0. -1.
       -1    1    3    3    0  502 -0.86407812348E+02 -0.55468493736E+03  0.10061962290E+04  0.11522033419E+04  0.50400001928E-02 0.  1.
</event>
<event>
 5   0  0.1219810E-04  0.1505818E+04  0.7818609E-02  0.8880593E-01
       -2   -1    0    0    0  501  0.00000000000E+00  0.00000000000E+00  0.21147993425E+03  0.21147993427E+03  0.25500000920E-02 0.  1.
        2   -1    0    0  501    0  0.00000000000E+00  0.00000000000E+00 -0.26804986093E+04  0.26804986093E+04  0.25500000920E-02 0. -1.
    10030    2    1    2    0    0  0.00000000000E+00  0.00000000000E+00 -0.24690186750E+04  0.28919785435E+04  0.15058176114E+04 0.  0.
        1    1    3    3  502    0 -0.36504186655E+03  0.39882115696E+03 -0.22408373907E+04  0.23051390611E+04  0.50400001928E-02 0. -1.
       -1    1    3    3    0  502  0.36504186655E+03 -0.39882115696E+03 -0.22818128433E+03  0.58683948241E+03  0.50400001928E-02 0.  1.
</event>
<event>
 5   0  0.6509279E-05  0.1499939E+04  0.7818609E-02  0.8884493E-01
       -1   -1    0    0    0  501  0.00000000000E+00  0.00000000000E+00  0.73558027518E+03  0.73558027520E+03  0.50400001928E-02 0. -1.
        1   -1    0    0  501    0  0.00000000000E+00  0.00000000000E+00 -0.76464026535E+03  0.76464026537E+03  0.50400001928E-02 0.  1.
    10030    2    1    2    0    0  0.00000000000E+00  0.00000000000E+00 -0.29059990171E+02  0.15002205406E+04  0.14999390612E+04 0.  0.
        2    1    3    3  502    0  0.21749675940E+03 -0.55843419817E+03 -0.46550340116E+03  0.75884584108E+03  0.25500000920E-02 0.  1.
       -2    1    3    3    0  502 -0.21749675940E+03  0.55843419817E+03  0.43644341099E+03  0.74137469948E+03  0.25500000920E-02 0. -1.
</event>
<event>
 5   0  0.6509279E-05  0.1498121E+04  0.7818609E-02  0.8885703E-01
        1   -1    0    0  501    0  0.00000000000E+00  0.00000000000E+00  0.13846215260E+04  0.13846215260E+04  0.50400001928E-02 0. -1.
       -1   -1    0    0    0  501  0.00000000000E+00  0.00000000000E+00 -0.40523100581E+03  0.40523100584E+03  0.50400001928E-02 0.  1.
    10030    2    1    2    0    0  0.00000000000E+00  0.00000000000E+00  0.97939052015E+03  0.17898525318E+04  0.14981209212E+04 0.  0.
        2    1    3    3  502    0 -0.40912048271E+03 -0.62702636517E+03  0.46167780410E+03  0.87959537675E+03  0.25500000920E-02 0. -1.
       -2    1    3    3    0  502  0.40912048271E+03  0.62702636517E+03  0.51771271605E+03  0.91025715507E+03  0.25500000920E-02 0.  1.
</event>
<event>
 5   0  0.1219810E-04  0.1495910E+04  0.7818609E-02  0.8887177E-01
        2   -1    0    0  501    0  0.00000000000E+00  0.00000000000E+00  0.93353015255E+03  0.93353015256E+03  0.25500000920E-02 0.  1.
       -2   -1    0    0    0  501  0.00000000000E+00  0.00000000000E+00 -0.59926991365E+03  0.59926991366E+03  0.25500000920E-02 0. -1.
    10030    2    1    2    0    0  0.00000000000E+00  0.00000000000E+00  0.33426023890E+03  0.15328000662E+04  0.14959098020E+04 0.  0.
        1    1    3    3  502    0  0.25369019318E+02 -0.43045756040E+03 -0.45908703608E+03  0.62983982501E+03  0.50400001928E-02 0.  1.
       -1    1    3    3    0  502 -0.25369019318E+02  0.43045756040E+03  0.79334727498E+03  0.90296024120E+03  0.50400001928E-02 0. -1.
</event>
<event>
 5   0  0.1254487E-04  0.1497699E+04  0.7818609E-02  0.8885985E-01
        2   -1    0    0  501    0  0.00000000000E+00  0.00000000000E+00  0.66553775497E+03  0.66553775497E+03  0.25500000920E-02 0. -1.
       -2   -1    0    0    0  501  0.00000000000E+00  0.00000000000E+00 -0.84258977818E+03  0.84258977818E+03  0.25500000920E-02 0.  1.
    10030    2    1    2    0    0  0.00000000000E+00  0.00000000000E+00 -0.17705202321E+03  0.15081275332E+04  0.14976986470E+04 0.  0.
        5    1    3    3  502    0  0.44535453690E+03  0.74627979992E+01  0.51762645468E+03  0.68290233084E+03  0.46999998093E+01 0. -1.
       -5    1    3    3    0  502 -0.44535453690E+03 -0.74627979992E+01 -0.69467847789E+03  0.82522520231E+03  0.46999998093E+01 0.  1.
</event>
<event>
 5   0  0.1216921E-04  0.1526221E+04  0.7818609E-02  0.8867201E-01
       -2   -1    0    0    0  501  0.00000000000E+00  0.00000000000E+00  0.84518885376E+03  0.84518885377E+03  0.25500000920E-02 0.  1.
        2   -1    0    0  501    0  0.00000000000E+00  0.00000000000E+00 -0.68900332439E+03  0.68900332439E+03  0.25500000920E-02 0. -1.
    10030    2    1    2    0    0  0.00000000000E+00  0.00000000000E+00  0.15618552937E+03  0.15341921782E+04  0.15262213863E+04 0.  0.
        4    1    3    3  502    0 -0.46374504325E+03 -0.60436374651E+03  0.32898939089E+02  0.76249521725E+03  0.12699999809E+01 0. -1.
       -4    1    3    3    0  502  0.46374504325E+03  0.60436374651E+03  0.12328659028E+03  0.77169696091E+03  0.12699999809E+01 0.  1.
</event>
<event>
 5   0  0.6668433E-05  0.1493684E+04  0.7818609E-02  0.8888664E-01
       -1   -1    0    0    0  501  0.00000000000E+00  0.00000000000E+00  0.62452786515E+03  0.62452786517E+03  0.50400001928E-02 0. -1.
        1   -1    0    0  501    0  0.00000000000E+00  0.00000000000E+00 -0.89311115360E+03  0.89311115362E+03  0.50400001928E-02 0.  1.
    10030    2    1    2    0    0  0.00000000000E+00  0.00000000000E+00 -0.26858328845E+03  0.15176390188E+04  0.14936837713E+04 0.  0.
        1    1    3    3  502    0  0.96095095371E+02 -0.55927217306E+03  0.35903956756E+03  0.67151250324E+03  0.50400001928E-02 0. -1.
       -1    1    3    3    0  502 -0.96095095371E+02  0.55927217306E+03 -0.62762285601E+03  0.84612651555E+03  0.50400001928E-02 0.  1.
</event>
<event>
 5   0  0.1186664E-04  0.1499919E+04  0.7818609E-02  0.8884507E-01
        2   -1    0    0  501    0  0.00000000000E+00  0.00000000000E+00  0.18662890941E+04  0.18662890941E+04  0.25500000920E-02 0. -1.
       -2   -1    0    0    0  501  0.00000000000E+00  0.00000000000E+00 -0.30136784250E+03  0.30136784251E+03  0.25500000920E-02 0.  1.
    10030    2    1    2    0    0  0.00000000000E+00  0.00000000000E+00  0.15649212516E+04  0.21676569366E+04  0.14999193549E+04 0.  0.
        3    1    3    3  502    0 -0.47066300463E+03 -0.49398221801E+03  0.12323220246E+04  0.14086020297E+04  0.10100000352E+00 0. -1.
       -3    1    3    3    0  502  0.47066300463E+03  0.49398221801E+03  0.33259922697E+03  0.75905490685E+03  0.10100000352E+00 0.  1.
</event>
<event>
 5   0  0.1219810E-04  0.1502490E+04  0.7818609E-02  0.8882799E-01
       -2   -1    0    0    0  501  0.00000000000E+00  0.00000000000E+00  0.78715214871E+03  0.78715214871E+03  0.25500000920E-02 0.  1.
        2   -1    0    0  501    0  0.00000000000E+00  0.00000000000E+00 -0.71697571089E+03  0.71697571089E+03  0.25500000920E-02 0. -1.
    10030    2    1    2    0    0  0.00000000000E+00  0.00000000000E+00  0.70176437819E+02  0.15041278596E+04  0.15024898953E+04 0.  0.
        1    1    3    3  502    0  0.27629508577E+03  0.18950272178E+03  0.70821898046E+03  0.78346945077E+03  0.50400001928E-02 0.  1.
       -1    1    3    3    0  502 -0.27629508577E+03 -0.18950272178E+03 -0.63804254264E+03  0.72065840884E+03  0.50400001928E-02 0. -1.
</event>
<event>
 5   0  0.6542036E-05  0.1491660E+04  0.7818609E-02  0.8890018E-01
        1   -1    0    0  501    0  0.00000000000E+00  0.00000000000E+00  0.37443566538E+03  0.37443566541E+03  0.50400001928E-02 0. -1.
       -1   -1    0    0    0  501  0.00000000000E+00  0.00000000000E+00 -0.14856028509E+04  0.14856028509E+04  0.50400001928E-02 0.  1.
    10030    2    1    2    0    0  0.00000000000E+00  0.00000000000E+00 -0.11111671855E+04  0.18600385163E+04  0.14916604064E+04 0.  0.
        4    1    3    3  502    0  0.59083468177E+03 -0.37523103126E+03 -0.23432022036E+03  0.73809994349E+03  0.12699999809E+01 0.  1.
       -4    1    3    3    0  502 -0.59083468177E+03  0.37523103126E+03 -0.87684696518E+03  0.11219385729E+04  0.12699999809E+01 0. -1.
</event>
<event>
 5   0  0.1186664E-04  0.1500042E+04  0.7818609E-02  0.8884425E-01
       -2   -1    0    0    0  501  0.00000000000E+00  0.00000000000E+00  0.40161520166E+03  0.40161520167E+03  0.25500000920E-02 0.  1.
        2   -1    0    0  501    0  0.00000000000E+00  0.00000000000E+00 -0.14006726607E+04  0.14006726607E+04  0.25500000920E-02 0. -1.
    10030    2    1    2    0    0  0.00000000000E+00  0.00000000000E+00 -0.99905745901E+03  0.18022878623E+04  0.15000419102E+04 0.  0.
        3    1    3    3  502    0 -0.14413472318E+03  0.66873245044E+03 -0.13007538529E+03  0.69634583703E+03  0.10100000352E+00 0.  1.
       -3    1    3    3    0  502  0.14413472318E+03 -0.66873245044E+03 -0.86898207372E+03  0.11059420253E+04  0.10100000352E+00 0. -1.
</event>
<event>
 5   0  0.1219810E-04  0.1496591E+04  0.7818609E-02  0.8886723E-01
       -2   -1    0    0    0  501  0.00000000000E+00  0.00000000000E+00  0.33177873212E+03  0.33177873213E+03  0.25500000920E-02 0.  1.
        2   -1    0    0  501    0  0.00000000000E+00  0.00000000000E+00 -0.16877094549E+04  0.16877094549E+04  0.25500000920E-02 0. -1.
    10030    2    1    2    0    0  0.00000000000E+00  0.00000000000E+00 -0.13559307228E+04  0.20194881870E+04  0.14965909303E+04 0.  0.
        1    1    3    3  502    0 -0.11053906043E+03  0.23531722125E+02 -0.16761266601E+04  0.16799325006E+04  0.50400001928E-02 0. -1.
       -1    1    3    3    0  502  0.11053906043E+03 -0.23531722125E+02  0.32019593737E+03  0.33955568639E+03  0.50400001928E-02 0.  1.
</event>
<event>
 5   0  0.6509279E-05  0.1500640E+04  0.7818609E-02  0.8884027E-01
       -1   -1    0    0    0  501  0.00000000000E+00  0.00000000000E+00  0.81205811028E+03  0.81205811030E+03  0.50400001928E-02 0.  1.
        1   -1    0    0  501    0  0.00000000000E+00  0.00000000000E+00 -0.69327563791E+03  0.69327563793E+03  0.50400001928E-02 0. -1.
    10030    2    1    2    0    0  0.00000000000E+00  0.00000000000E+00  0.11878247238E+03  0.15053337482E+04  0.15006400027E+04 0.  0.
        2    1    3    3  502    0  0.60997355512E+03  0.54310635219E+02 -0.37551150104E+03  0.71834968536E+03  0.25500000920E-02 0. -1.
       -2    1    3    3    0  502 -0.60997355512E+03 -0.54310635219E+02  0.49429397341E+03  0.78698406286E+03  0.25500000920E-02 0.  1.
</event>
<event>
 5   0  0.1254487E-04  0.1492074E+04  0.7818609E-02  0.8889741E-01
       -2   -1    0    0    0  501  0.00000000000E+00  0.00000000000E+00  0.21883891819E+03  0.21883891820E+03  0.25500000920E-02 0. -1.
        2   -1    0    0  501    0  0.00000000000E+00  0.00000000000E+00 -0.25432901625E+04  0.25432901625E+04  0.25500000920E-02 0.  1.
    10030    2    1    2    0    0  0.00000000000E+00  0.00000000000E+00 -0.23244512443E+04  0.27621290807E+04  0.14920735475E+04 0.  0.
        5    1    3    3  502    0  0.24518314924E+03  0.64551018313E+02  0.13660995041E+03  0.28803815578E+03  0.46999998093E+01 0. -1.
       -5    1    3    3    0  502 -0.24518314924E+03 -0.64551018313E+02 -0.24610611947E+04  0.24740909250E+04  0.46999998093E+01 0.  1.
</event>
<event>
 5   0  0.6668433E-05  0.1514155E+04  0.7818609E-02  0.8875094E-01
        1   -1    0    0  501    0  0.00000000000E+00  0.00000000000E+00  0.69523687517E+03  0.69523687519E+03  0.50400001928E-02 0.  1.
       -1   -1    0    0    0  501  0.00000000000E+00  0.00000000000E+00 -0.82441845406E+03  0.82441845407E+03  0.50400001928E-02 0. -1.
    10030    2    1    2    0    0  0.00000000000E+00  0.00000000000E+00 -0.12918157888E+03  0.15196553293E+04  0.15141546947E+04 0.  0.
        1    1    3    3  502    0 -0.40661789684E+03 -0.81956372121E+02 -0.70022493163E+03  0.81386111584E+03  0.50400001928E-02 0. -1.
       -1    1    3    3    0  502  0.40661789684E+03  0.81956372121E+02  0.57104335275E+03  0.70579421343E+03  0.50400001928E-02 0.  1.
</event>
<event>
 5   0  0.1219810E-04  0.1501343E+04  0.7818609E-02  0.8883561E-01
        2   -1    0    0  501    0  0.00000000000E+00  0.00000000000E+00  0.12256508520E+04  0.12256508520E+04  0.25500000920E-02 0. -1.
       -2   -1    0    0    0  501  0.00000000000E+00  0.00000000000E+00 -0.45976184268E+03  0.45976184269E+03  0.25500000920E-02 0.  1.
    10030    2    1    2    0    0  0.00000000000E+00  0.00000000000E+00  0.76588900932E+03  0.16854126947E+04  0.15013427246E+04 0.  0.
        1    1    3    3  502    0  0.36443897690E+03 -0.25470118372E+03  0.10619285445E+04  0.11512517945E+04  0.50400001928E-02 0. -1.
       -1    1    3    3    0  502 -0.36443897690E+03  0.25470118372E+03 -0.29603953513E+03  0.53416090016E+03  0.50400001928E-02 0.  1.
</event>
<event>
 5   0  0.1228286E-04  0.1501586E+04  0.7818609E-02  0.8883399E-01
        2   -1    0    0  501    0  0.00000000000E+00  0.00000000000E+00  0.88234001665E+03  0.88234001666E+03  0.25500000920E-02 0.  1.
       -2   -1    0    0    0  501  0.00000000000E+00  0.00000000000E+00 -0.63885855352E+03  0.63885855352E+03  0.25500000920E-02 0. -1.
    10030    2    1    2    0    0  0.00000000000E+00  0.00000000000E+00  0.24348146314E+03  0.15211985702E+04  0.15015864501E+04 0.  0.
        2    1    3    3  502    0 -0.61040585527E+03  0.91451090250E+02 -0.31131391354E+03  0.69128500839E+03  0.25500000920E-02 0. -1.
       -2    1    3    3    0  502  0.61040585527E+03 -0.91451090250E+02  0.55479537668E+03  0.82991356179E+03  0.25500000920E-02 0.  1.
</event>
<event>
 5   0  0.4462875E-05  0.1500596E+04  0.7818609E-02  0.8884057E-01
       -3   -1    0    0    0  501  0.00000000000E+00  0.00000000000E+00  0.49335228915E+03  0.49335229949E+03  0.10100000352E+00 0. -1.
        3   -1    0    0  501    0  0.00000000000E+00  0.00000000000E+00 -0.11410650634E+04  0.11410650679E+04  0.10100000352E+00 0.  1.
    10030    2    1    2    0    0  0.00000000000E+00  0.00000000000E+00 -0.64771277423E+03  0.16344173673E+04  0.15005959792E+04 0.  0.
        2    1    3    3  502    0  0.22104634014E+02  0.11255765030E+03 -0.11314582379E+04  0.11372579230E+04  0.25500000920E-02 0.  1.
       -2    1    3    3    0  502 -0.22104634014E+02 -0.11255765030E+03  0.48374546362E+03  0.49715944431E+03  0.25500000920E-02 0. -1.
</event>
<event>
 5   0  0.6361716E-05  0.1500326E+04  0.7818609E-02  0.8884236E-01
       -1   -1    0    0    0  501  0.00000000000E+00  0.00000000000E+00  0.39558012105E+03  0.39558012108E+03  0.50400001928E-02 0. -1.
        1   -1    0    0  501    0  0.00000000000E+00  0.00000000000E+00 -0.14225799388E+04  0.14225799388E+04  0.50400001928E-02 0.  1.
    10030    2    1    2    0    0  0.00000000000E+00  0.00000000000E+00 -0.10269998177E+04  0.18181600599E+04  0.15003257572E+04 0.  0.
        3    1    3    3  502    0 -0.38760883164E+03  0.58789326800E+03 -0.20009075917E+03  0.73204878460E+03  0.10100000352E+00 0. -1.
       -3    1    3    3    0  502  0.38760883164E+03 -0.58789326800E+03 -0.82690905856E+03  0.10861112753E+04  0.10100000352E+00 0.  1.
</event>
<event>
 5   0  0.1186664E-04  0.1481866E+04  0.7818609E-02  0.8896602E-01
       -2   -1    0    0    0  501  0.00000000000E+00  0.00000000000E+00  0.26256689287E+03  0.26256689289E+03  0.25500000920E-02 0. -1.
        2   -1    0    0  501    0  0.00000000000E+00  0.00000000000E+00 -0.20908266766E+04  0.20908266766E+04  0.25500000920E-02 0.  1.
    10030    2    1    2    0    0  0.00000000000E+00  0.00000000000E+00 -0.18282597837E+04  0.23533935695E+04  0.14818662072E+04 0.  0.
        3    1    3    3  502    0 -0.73982748230E+03 -0.39341709351E+02 -0.92914422936E+03  0.11883608386E+04  0.10100000352E+00 0. -1.
       -3    1    3    3    0  502  0.73982748230E+03  0.39341709351E+02 -0.89911555439E+03  0.11650327309E+04  0.10100000352E+00 0.  1.
</event>
<event>
 5   0  0.1254487E-04  0.1498231E+04  0.7818609E-02  0.8885630E-01
       -2   -1    0    0    0  501  0.00000000000E+00  0.00000000000E+00  0.37240261262E+03  0.37240261263E+03  0.25500000920E-02 0. -1.
        2   -1    0    0  501    0  0.00000000000E+00  0.00000000000E+00 -0.15069011663E+04  0.15069011663E+04  0.25500000920E-02 0.  1.
    10030    2    1    2    0    0  0.00000000000E+00  0.00000000000E+00 -0.11344985537E+04  0.18793037790E+04  0.14982308651E+04 0.  0.
        5    1    3    3  502    0 -0.71310945023E+03  0.10127476073E+03 -0.82544460635E+03  0.10955193076E+04  0.46999998093E+01 0.  1.
       -5    1    3    3    0  502  0.71310945023E+03 -0.10127476073E+03 -0.30905394734E+03  0.78378447135E+03  0.46999998093E+01 0. -1.
</event>
<event>
 5   0  0.4462875E-05  0.1493935E+04  0.7818609E-02  0.8888496E-01
       -3   -1    0    0    0  501  0.00000000000E+00  0.00000000000E+00  0.33055459320E+03  0.33055460863E+03  0.10100000352E+00 0.  1.
        3   -1    0    0  501    0  0.00000000000E+00  0.00000000000E+00 -0.16879516485E+04  0.16879516515E+04  0.10100000352E+00 0. -1.
    10030    2    1    2    0    0  0.00000000000E+00  0.00000000000E+00 -0.13573970553E+04  0.20185062601E+04  0.14939346560E+04 0.  0.
        2    1    3    3  502    0 -0.34480052162E+03 -0.16976842039E+03 -0.15441118430E+04  0.15912228317E+04  0.25500000920E-02 0. -1.
       -2    1    3    3    0  502  0.34480052162E+03  0.16976842039E+03  0.18671478774E+03  0.42728342846E+03  0.25500000920E-02 0.  1.
</event>
<event>
 5   0  0.1219810E-04  0.1502540E+04  0.7818609E-02  0.8882766E-01
       -2   -1    0    0    0  501  0.00000000000E+00  0.00000000000E+00  0.29843025936E+03  0.29843025937E+03  0.25500000920E-02 0. -1.
        2   -1    0    0  501    0  0.00000000000E+00  0.00000000000E+00 -0.18912509876E+04  0.18912509876E+04  0.25500000920E-02 0.  1.
    10030    2    1    2    0    0  0.00000000000E+00  0.00000000000E+00 -0.15928207282E+04  0.21896812469E+04  0.15025398800E+04 0.  0.
        1    1    3    3  502    0 -0.43975098907E+03  0.54545021763E+03 -0.11915285961E+04  0.13822580323E+04  0.50400001928E-02 0.  1.
       -1    1    3    3    0  502  0.43975098907E+03 -0.54545021763E+03 -0.40129213206E+03  0.80742321467E+03  0.50400001928E-02 0. -1.
</event>
<event>
 5   0  0.6668433E-05  0.1510143E+04  0.7818609E-02  0.8877736E-01
       -1   -1    0    0    0  501  0.00000000000E+00  0.00000000000E+00  0.14757738771E+04  0.14757738771E+04  0.50400001928E-02 0. -1.
        1   -1    0    0  501    0  0.00000000000E+00  0.00000000000E+00 -0.38632794172E+03  0.38632794175E+03  0.50400001928E-02 0.  1.
    10030    2    1    2    0    0  0.00000000000E+00  0.00000000000E+00  0.10894459354E+04  0.18621018189E+04  0.15101426216E+04 0.  0.
        1    1    3    3  502    0  0.18767746500E+03  0.55359373163E+03  0.11340755344E+04  0.12758589923E+04  0.50400001928E-02 0. -1.
       -1    1    3    3    0  502 -0.18767746500E+03 -0.55359373163E+03 -0.44629598972E+02  0.58624282656E+03  0.50400001928E-02 0.  1.
</event>
<event>
 5   0  0.1186664E-04  0.1501018E+04  0.7818609E-02  0.8883776E-01
        2   -1    0    0  501    0  0.00000000000E+00  0.00000000000E+00  0.13532484977E+04  0.13532484977E+04  0.25500000920E-02 0. -1.
       -2   -1    0    0    0  501  0.00000000000E+00  0.00000000000E+00 -0.41623067664E+03  0.41623067665E+03  0.25500000920E-02 0.  1.
    10030    2    1    2    0    0  0.00000000000E+00  0.00000000000E+00  0.93701782102E+03  0.17694791743E+04  0.15010177052E+04 0.  0.
        3    1    3    3  502    0 -0.44902256350E+03 -0.49502821615E+03  0.65987445621E+02  0.67158659196E+03  0.10100000352E+00 0.  1.
       -3    1    3    3    0  502  0.44902256350E+03  0.49502821615E+03  0.87103037540E+03  0.10978925824E+04  0.10100000352E+00 0. -1.
</event>
<event>
 5   0  0.1216921E-04  0.1489958E+04  0.7818609E-02  0.8891158E-01
       -2   -1    0    0    0  501  0.00000000000E+00  0.00000000000E+00  0.76074178182E+03  0.76074178182E+03  0.25500000920E-02 0. -1.
        2   -1    0    0  501    0  0.00000000000E+00  0.00000000000E+00 -0.72954281830E+03  0.72954281830E+03  0.25500000920E-02 0.  1.
    10030    2    1    2    0    0  0.00000000000E+00  0.00000000000E+00  0.31198963522E+02  0.14902846001E+04  0.14899579907E+04 0.  0.
        4    1    3    3  502    0  0.17930769858E+03  0.66123232029E+03  0.30826002980E+03  0.75126912024E+03  0.12699999809E+01 0. -1.
       -4    1    3    3    0  502 -0.17930769858E+03 -0.66123232029E+03 -0.27706106628E+03  0.73901547988E+03  0.12699999809E+01 0.  1.
</event>
<event>
 5   0  0.1228286E-04  0.1501629E+04  0.7818609E-02  0.8883370E-01
       -2   -1    0    0    0  501  0.00000000000E+00  0.00000000000E+00  0.62396981584E+03  0.62396981585E+03  0.25500000920E-02 0.  1.
        2   -1    0    0  501    0  0.00000000000E+00  0.00000000000E+00 -0.90344518528E+03  0.90344518528E+03  0.25500000920E-02 0. -1.
    10030    2    1    2    0    0  0.00000000000E+00  0.00000000000E+00 -0.27947536944E+03  0.15274150011E+04  0.15016291498E+04 0.  0.
        2    1    3    3  502    0 -0.60455288131E+03  0.14995302017E+03 -0.56616501575E+03  0.84173209492E+03  0.25500000920E-02 0. -1.
       -2    1    3    3    0  502  0.60455288131E+03 -0.14995302017E+03  0.28668964632E+03  0.68568290621E+03  0.25500000920E-02 0.  1.
</event>
<event>
 5   0  0.1216921E-04  0.1501247E+04  0.7818609E-02  0.8883624E-01
       -2   -1    0    0    0  501  0.00000000000E+00  0.00000000000E+00  0.10773045813E+04  0.10773045813E+04  0.25500000920E-02 0.  1.
        2   -1    0    0  501    0  0.00000000000E+00  0.00000000000E+00 -0.52300461099E+03  0.52300461099E+03  0.25500000920E-02 0. -1.
    10030    2    1    2    0    0  0.00000000000E+00  0.00000000000E+00  0.55429997029E+03  0.16003091923E+04  0.15012465000E+04 0.  0.
        4    1    3    3  502    0  0.41175123400E+03  0.26436498315E+03 -0.32962579270E+03  0.58998533806E+03  0.12699999809E+01 0. -1.
       -4    1    3    3    0  502 -0.41175123400E+03 -0.26436498315E+03  0.88392576298E+03  0.10103238542E+04  0.12699999809E+01 0.  1.
</event>
<event>
 5   0  0.1219810E-04  0.1501099E+04  0.7818609E-02  0.8883722E-01
        2   -1    0    0  501    0  0.00000000000E+00  0.00000000000E+00  0.14326497706E+04  0.14326497706E+04  0.25500000920E-02 0. -1.
       -2   -1    0    0    0  501  0.00000000000E+00  0.00000000000E+00 -0.39320465312E+03  0.39320465313E+03  0.25500000920E-02 0.  1.
    10030    2    1    2    0    0  0.00000000000E+00  0.00000000000E+00  0.10394451174E+04  0.18258544237E+04  0.15010990055E+04 0.  0.
        1    1    3    3  502    0 -0.33655635328E+03 -0.30638234903E+03  0.12456515757E+04  0.13261931122E+04  0.50400001928E-02 0. -1.
       -1    1    3    3    0  502  0.33655635328E+03  0.30638234903E+03 -0.20620645829E+03  0.49966131148E+03  0.50400001928E-02 0.  1.
</event>
<event>
 5   0  0.4462875E-05  0.1499875E+04  0.7818609E-02  0.8884536E-01
        3   -1    0    0  501    0  0.00000000000E+00  0.00000000000E+00  0.47318393207E+03  0.47318394284E+03  0.10100000352E+00 0.  1.
       -3   -1    0    0    0  501  0.00000000000E+00  0.00000000000E+00 -0.11885569961E+04  0.11885570004E+04  0.10100000352E+00 0. -1.
    10030    2    1    2    0    0  0.00000000000E+00  0.00000000000E+00 -0.71537306403E+03  0.16617409432E+04  0.14998747753E+04 0.  0.
        2    1    3    3  502    0 -0.31062380270E+03 -0.51689603519E+03  0.13622384534E+03  0.61824395998E+03  0.25500000920E-02 0.  1.
       -2    1    3    3    0  502  0.31062380270E+03  0.51689603519E+03 -0.85159690937E+03  0.10434969833E+04  0.25500000920E-02 0. -1.
</event>
<event>
 5   0  0.6668433E-05  0.1497376E+04  0.7818609E-02  0.8886199E-01
       -1   -1    0    0    0  501  0.00000000000E+00  0.00000000000E+00  0.12890249181E+04  0.12890249181E+04  0.50400001928E-02 0.  1.
        1   -1    0    0  501    0  0.00000000000E+00  0.00000000000E+00 -0.43485115533E+03  0.43485115536E+03  0.50400001928E-02 0. -1.
    10030    2    1    2    0    0  0.00000000000E+00  0.00000000000E+00  0.85417376274E+03  0.17238760734E+04  0.14973763387E+04 0.  0.
        1    1    3    3  502    0  0.46769910510E+03 -0.67359103935E+02  0.10956675361E+04  0.11932171016E+04  0.50400001928E-02 0.  1.
       -1    1    3    3    0  502 -0.46769910510E+03  0.67359103935E+02 -0.24149377338E+03  0.53065897185E+03  0.50400001928E-02 0. -1.
</event>
<event>
 5   0  0.1219810E-04  0.1499261E+04  0.7818609E-02  0.8884944E-01
       -2   -1    0    0    0  501  0.00000000000E+00  0.00000000000E+00  0.16870859972E+04  0.16870859972E+04  0.25500000920E-02 0. -1.
        2   -1    0    0  501    0  0.00000000000E+00  0.00000000000E+00 -0.33308674549E+03  0.33308674550E+03  0.25500000920E-02 0.  1.
    10030    2    1    2    0    0  0.00000000000E+00  0.00000000000E+00  0.13539992517E+04  0.20201727427E+04  0.14992611303E+04 0.  0.
        1    1    3    3  502    0  0.18720006646E+03  0.56419248513E+03  0.61600487609E+02  0.59762165728E+03  0.50400001928E-02 0.  1.
       -1    1    3    3    0  502 -0.18720006646E+03 -0.56419248513E+03  0.12923987641E+04  0.14225510854E+04  0.50400001928E-02 0. -1.
</event>
<event>
 5   0  0.6509279E-05  0.1505393E+04  0.7818609E-02  0.8880875E-01
        1   -1    0    0  501    0  0.00000000000E+00  0.00000000000E+00  0.69570005779E+03  0.69570005781E+03  0.50400001928E-02 0.  1.
       -1   -1    0    0    0  501  0.00000000000E+00  0.00000000000E+00 -0.81436246397E+03  0.81436246398E+03  0.50400001928E-02 0. -1.
    10030    2    1    2    0    0  0.00000000000E+00  0.00000000000E+00 -0.11866240618E+03  0.15100625218E+04  0.15053929896E+04 0.  0.
        2    1    3    3  502    0  0.69019691339E+03 -0.21747844513E+02  0.24110955448E+03  0.73142228928E+03  0.25500000920E-02 0.  1.
       -2    1    3    3    0  502 -0.69019691339E+03  0.21747844513E+02 -0.35977196066E+03  0.77864023251E+03  0.25500000920E-02 0. -1.
</event>
<event>
 5   0  0.6361716E-05  0.1499177E+04  0.7818609E-02  0.8885000E-01
       -1   -1    0    0    0  501  0.00000000000E+00  0.00000000000E+00  0.95713372044E+03  0.95713372045E+03  0.50400001928E-02 0. -1.
        1   -1    0    0  501    0  0.00000000000E+00  0.00000000000E+00 -0.58704761763E+03  0.58704761765E+03  0.50400001928E-02 0.  1.
    10030    2    1    2    0    0  0.00000000000E+00  0.00000000000E+00  0.37008610282E+03  0.15441813381E+04  0.14991772015E+04 0.  0.
        3    1    3    3  502    0 -0.64554720869E+03 -0.37401432827E+03  0.11030350674E+03  0.75417822177E+03  0.10100000352E+00 0.  1.
       -3    1    3    3    0  502  0.64554720869E+03  0.37401432827E+03  0.25978259608E+03  0.79000311633E+03  0.10100000352E+00 0. -1.
</event>
<event>
 5   0  0.6542036E-05  0.1501790E+04  0.7818609E-02  0.8883264E-01
       -1   -1    0    0    0  501  0.00000000000E+00  0.00000000000E+00  0.87921726847E+03  0.87921726848E+03  0.50400001928E-02 0.  1.
        1   -1    0    0  501    0  0.00000000000E+00  0.00000000000E+00 -0.64130103217E+03  0.64130103219E+03  0.50400001928E-02 0. -1.
    10030    2    1    2    0    0  0.00000000000E+00  0.00000000000E+00  0.23791623630E+03  0.15205183007E+04  0.15017895216E+04 0.  0.
        4    1    3    3  502    0  0.41764305588E+03  0.37551524716E+03 -0.38565878270E+03  0.68130149900E+03  0.12699999809E+01 0.  1.
       -4    1    3    3    0  502 -0.41764305588E+03 -0.37551524716E+03  0.62357501900E+03  0.83921680166E+03  0.12699999809E+01 0. -1.
</event>
<event>
 5   0  0.1219810E-04  0.1488551E+04  0.7818609E-02  0.8892103E-01
       -2   -1    0    0    0  501  0.00000000000E+00  0.00000000000E+00  0.62850592696E+03  0.62850592696E+03  0.25500000920E-02 0.  1.
        2   -1    0    0  501    0  0.00000000000E+00  0.00000000000E+00 -0.88136912122E+03  0.88136912122E+03  0.25500000920E-02 0. -1.
    10030    2    1    2    0    0  0.00000000000E+00  0.00000000000E+00 -0.25286319426E+03  0.15098750482E+04  0.14885505924E+04 0.  0.
        1    1    3    3  502    0 -0.19877523831E+03  0.66243980784E+03  0.15247590619E+03  0.70822806805E+03  0.50400001928E-02 0. -1.
       -1    1    3    3    0  502  0.19877523831E+03 -0.66243980784E+03 -0.40533910045E+03  0.80164698013E+03  0.50400001928E-02 0.  1.
</event>
<event>
 5   0  0.6509279E-05  0.1499286E+04  0.7818609E-02  0.8884928E-01
       -1   -1    0    0    0  501  0.00000000000E+00  0.00000000000E+00  0.61061234228E+03  0.61061234230E+03  0.50400001928E-02 0.  1.
        1   -1    0    0  501    0  0.00000000000E+00  0.00000000000E+00 -0.92033011822E+03  0.92033011823E+03  0.50400001928E-02 0. -1.
    10030    2    1    2    0    0  0.00000000000E+00  0.00000000000E+00 -0.30971777594E+03  0.15309424605E+04  0.14992864025E+04 0.  0.
        2    1    3    3  502    0  0.17838888983E+03 -0.26903778209E+03  0.53600686230E+03  0.62570542642E+03  0.25500000920E-02 0.  1.
       -2    1    3    3    0  502 -0.17838888983E+03  0.26903778209E+03 -0.84572463824E+03  0.90523703412E+03  0.25500000920E-02 0. -1.
</event>
<event>
 5   0  0.6364378E-05  0.1504973E+04  0.7818609E-02  0.8881153E-01
        1   -1    0    0  501    0  0.00000000000E+00  0.00000000000E+00  0.74305585937E+03  0.74305585939E+03  0.50400001928E-02 0.  1.
       -1   -1    0    0    0  501  0.00000000000E+00  0.00000000000E+00 -0.76203673980E+03  0.76203673981E+03  0.50400001928E-02 0. -1.
    10030    2    1    2    0    0  0.00000000000E+00  0.00000000000E+00 -0.18980880427E+02  0.15050925992E+04  0.15049729095E+04 0.  0.
        5    1    3    3  502    0  0.60405959399E+03 -0.17359818557E+03  0.40429293519E+03  0.74732803411E+03  0.46999998093E+01 0.  1.
       -5    1    3    3    0  502 -0.60405959399E+03  0.17359818557E+03 -0.42327381562E+03  0.75776456509E+03  0.46999998093E+01 0. -1.
</event>
<event>
 5   0  0.6364378E-05  0.1513165E+04  0.7818609E-02  0.8875745E-01
       -1   -1    0    0    0  501  0.00000000000E+00  0.00000000000E+00  0.73694167478E+03  0.73694167480E+03  0.50400001928E-02 0. -1.
        1   -1    0    0  501    0  0.00000000000E+00  0.00000000000E+00 -0.77674704279E+03  0.77674704280E+03  0.50400001928E-02 0.  1.
    10030    2    1    2    0    0  0.00000000000E+00  0.00000000000E+00 -0.39805368009E+02  0.15136887176E+04  0.15131652476E+04 0.  0.
        5    1    3    3  502    0 -0.11174445139E+03  0.44179664536E+02  0.72732059008E+03  0.73719467980E+03  0.46999998093E+01 0. -1.
       -5    1    3    3    0  502  0.11174445139E+03 -0.44179664536E+02 -0.76712595808E+03  0.77649403780E+03  0.46999998093E+01 0.  1.
</event>
<event>
 5   0  0.1219810E-04  0.1500027E+04  0.7818609E-02  0.8884435E-01
        2   -1    0    0  501    0  0.00000000000E+00  0.00000000000E+00  0.85088455456E+03  0.85088455456E+03  0.25500000920E-02 0. -1.
       -2   -1    0    0    0  501  0.00000000000E+00  0.00000000000E+00 -0.66110097816E+03  0.66110097817E+03  0.25500000920E-02 0.  1.
    10030    2    1    2    0    0  0.00000000000E+00  0.00000000000E+00  0.18978357640E+03  0.15119855327E+04  0.15000274815E+04 0.  0.
        1    1    3    3  502    0  0.57146699286E+03 -0.13314116988E+03 -0.37597191549E+03  0.69689021826E+03  0.50400001928E-02 0.  1.
       -1    1    3    3    0  502 -0.57146699286E+03  0.13314116988E+03  0.56575549189E+03  0.81509531447E+03  0.50400001928E-02 0. -1.
</event>
<event>
 5   0  0.6364378E-05  0.1494875E+04  0.7818609E-02  0.8887868E-01
        1   -1    0    0  501    0  0.00000000000E+00  0.00000000000E+00  0.18488220492E+04  0.18488220492E+04  0.50400001928E-02 0. -1.
       -1   -1    0    0    0  501  0.00000000000E+00  0.00000000000E+00 -0.30217229128E+03  0.30217229132E+03  0.50400001928E-02 0.  1.
    10030    2    1    2    0    0  0.00000000000E+00  0.00000000000E+00  0.15466497579E+04  0.21509943405E+04  0.14948749711E+04 0.  0.
        5    1    3    3  502    0 -0.64111644312E+03 -0.28711605383E+03  0.11406699302E+04  0.13396327488E+04  0.46999998093E+01 0. -1.
       -5    1    3    3    0  502  0.64111644312E+03  0.28711605383E+03  0.40597982773E+03  0.81136159173E+03  0.46999998093E+01 0.  1.
</event>
<event>
 5   0  0.1228286E-04  0.1498483E+04  0.7818609E-02  0.8885462E-01
        2   -1    0    0  501    0  0.00000000000E+00  0.00000000000E+00  0.19634522457E+04  0.19634522457E+04  0.25500000920E-02 0. -1.
       -2   -1    0    0    0  501  0.00000000000E+00  0.00000000000E+00 -0.28590611225E+03  0.28590611226E+03  0.25500000920E-02 0.  1.
    10030    2    1    2    0    0  0.00000000000E+00  0.00000000000E+00  0.16775461335E+04  0.22493583580E+04  0.14984832307E+04 0.  0.
        2    1    3    3  502    0  0.50407470892E+03 -0.55252941099E+03  0.77192926989E+03  0.10748278280E+04  0.25500000920E-02 0. -1.
       -2    1    3    3    0  502 -0.50407470892E+03  0.55252941099E+03  0.90561686358E+03  0.11745305300E+04  0.25500000920E-02 0.  1.
</event>
<event>
 5   0  0.6509279E-05  0.1501164E+04  0.7818609E-02  0.8883679E-01
        1   -1    0    0  501    0  0.00000000000E+00  0.00000000000E+00  0.52306945615E+03  0.52306945617E+03  0.50400001928E-02 0. -1.
       -1   -1    0    0    0  501  0.00000000000E+00  0.00000000000E+00 -0.10770529007E+04  0.10770529007E+04  0.50400001928E-02 0.  1.
    10030    2    1    2    0    0  0.00000000000E+00  0.00000000000E+00 -0.55398344457E+03  0.16001223569E+04  0.15011641816E+04 0.  0.
        2    1    3    3  502    0 -0.11250294940E+03 -0.54436950596E+03  0.26061552854E+03  0.61393446423E+03  0.25500000920E-02 0. -1.
       -2    1    3    3    0  502  0.11250294940E+03  0.54436950596E+03 -0.81459897311E+03  0.98618789267E+03  0.25500000920E-02 0.  1.
</event>
<event>
 5   0  0.1254487E-04  0.1491014E+04  0.7818609E-02  0.8890451E-01
        2   -1    0    0  501    0  0.00000000000E+00  0.00000000000E+00  0.75230751295E+03  0.75230751296E+03  0.25500000920E-02 0.  1.
       -2   -1    0    0    0  501  0.00000000000E+00  0.00000000000E+00 -0.73876797574E+03  0.73876797575E+03  0.25500000920E-02 0. -1.
    10030    2    1    2    0    0  0.00000000000E+00  0.00000000000E+00  0.13539537211E+02  0.14910754887E+04  0.14910140153E+04 0.  0.
        5    1    3    3  502    0 -0.67449183410E+03 -0.12941382228E+03  0.29673247201E+03  0.74817071689E+03  0.46999998093E+01 0.  1.
       -5    1    3    3    0  502  0.67449183410E+03  0.12941382228E+03 -0.28319293480E+03  0.74290477181E+03  0.46999998093E+01 0. -1.
</event>
<event>
 5   0  0.1216921E-04  0.1503697E+04  0.7818609E-02  0.8881998E-01
       -2   -1    0    0    0  501  0.00000000000E+00  0.00000000000E+00  0.60158344129E+03  0.60158344130E+03  0.25500000920E-02 0.  1.
        2   -1    0    0  501    0  0.00000000000E+00  0.00000000000E+00 -0.93964767680E+03  0.93964767681E+03  0.25500000920E-02 0. -1.
    10030    2    1    2    0    0  0.00000000000E+00  0.00000000000E+00 -0.33806423551E+03  0.15412311181E+04  0.15036974204E+04 0.  0.
        4    1    3    3  502    0 -0.26806591811E+03 -0.57475030078E+03  0.24487653350E+03  0.67982598822E+03  0.12699999809E+01 0.  1.
       -4    1    3    3    0  502  0.26806591811E+03  0.57475030078E+03 -0.58294076901E+03  0.86140512988E+03  0.12699999809E+01 0. -1.
</event>
<event>
 5   0  0.1216921E-04  0.1496767E+04  0.7818609E-02  0.8886606E-01
        2   -1    0    0  501    0  0.00000000000E+00  0.00000000000E+00  0.85366842337E+03  0.85366842337E+03  0.25500000920E-02 0. -1.
       -2   -1    0    0    0  501  0.00000000000E+00  0.00000000000E+00 -0.65608338307E+03  0.65608338307E+03  0.25500000920E-02 0.  1.
    10030    2    1    2    0    0  0.00000000000E+00  0.00000000000E+00  0.19758504030E+03  0.15097518064E+04  0.14967667383E+04 0.  0.
        4    1    3    3  502    0  0.15571728009E+03  0.36325128568E+03  0.73981878845E+03  0.83876863348E+03  0.12699999809E+01 0. -1.
       -4    1    3    3    0  502 -0.15571728009E+03 -0.36325128568E+03 -0.54223374815E+03  0.67098317296E+03  0.12699999809E+01 0.  1.
</event>
<event>
 5   0  0.4462875E-05  0.1497697E+04  0.7818609E-02  0.8885986E-01
        3   -1    0    0  501    0  0.00000000000E+00  0.00000000000E+00  0.74449442491E+03  0.74449443176E+03  0.10100000352E+00 0. -1.
       -3   -1    0    0    0  501  0.00000000000E+00  0.00000000000E+00 -0.75322774001E+03  0.75322774678E+03  0.10100000352E+00 0.  1.
    10030    2    1    2    0    0  0.00000000000E+00  0.00000000000E+00 -0.87333151010E+01  0.14977221785E+04  0.14976967161E+04 0.  0.
        2    1    3    3  502    0  0.14316605616E+03 -0.36430052120E+03 -0.64278370938E+03  0.75258374048E+03  0.25500000920E-02 0.  1.
       -2    1    3    3    0  502 -0.14316605616E+03  0.36430052120E+03  0.63405039428E+03  0.74513843806E+03  0.25500000920E-02 0. -1.
</event>
<event>
 5   0  0.4462875E-05  0.1494075E+04  0.7818609E-02  0.8888403E-01
        3   -1    0    0  501    0  0.00000000000E+00  0.00000000000E+00  0.13871397456E+04  0.13871397492E+04  0.10100000352E+00 0.  1.
       -3   -1    0    0    0  501  0.00000000000E+00  0.00000000000E+00 -0.40231341506E+03  0.40231342774E+03  0.10100000352E+00 0. -1.
    10030    2    1    2    0    0  0.00000000000E+00  0.00000000000E+00  0.98482633050E+03  0.17894531770E+04  0.14940748881E+04 0.  0.
        1    1    3    3  502    0  0.19958831988E+03 -0.54243605302E+03  0.10592587690E+04  0.12066903118E+04  0.50400001928E-02 0.  1.
       -1    1    3    3    0  502 -0.19958831988E+03  0.54243605302E+03 -0.74432438460E+02  0.58276286513E+03  0.50400001928E-02 0. -1.
</event>
<event>
 5   0  0.6364378E-05  0.1501028E+04  0.7818609E-02  0.8883770E-01
        1   -1    0    0  501    0  0.00000000000E+00  0.00000000000E+00  0.11561730850E+04  0.11561730850E+04  0.50400001928E-02 0.  1.
       -1   -1    0    0    0  501  0.00000000000E+00  0.00000000000E+00 -0.48718595766E+03  0.48718595769E+03  0.50400001928E-02 0. -1.
    10030    2    1    2    0    0  0.00000000000E+00  0.00000000000E+00  0.66898712735E+03  0.16433590427E+04  0.15010280366E+04 0.  0.
        5    1    3    3  502    0  0.60027388479E+03  0.43502706341E+03  0.20647929095E+03  0.76956680688E+03  0.46999998093E+01 0.  1.
       -5    1    3    3    0  502 -0.60027388479E+03 -0.43502706341E+03  0.46250783640E+03  0.87379223583E+03  0.46999998093E+01 0. -1.
</event>
<event>
 5   0  0.1219810E-04  0.1498992E+04  0.7818609E-02  0.8885123E-01
       -2   -1    0    0    0  501  0.00000000000E+00  0.00000000000E+00  0.57606073139E+03  0.57606073140E+03  0.25500000920E-02 0. -1.
        2   -1    0    0  501    0  0.00000000000E+00  0.00000000000E+00 -0.97514768763E+03  0.97514768763E+03  0.25500000920E-02 0.  1.
    10030    2    1    2    0    0  0.00000000000E+00  0.00000000000E+00 -0.39908695624E+03  0.15512084190E+04  0.14989920482E+04 0.  0.
        1    1    3    3  502    0 -0.57568641291E+03  0.26262007418E+03 -0.61523288381E+03  0.88255065051E+03  0.50400001928E-02 0.  1.
       -1    1    3    3    0  502  0.57568641291E+03 -0.26262007418E+03  0.21614592757E+03  0.66865776852E+03  0.50400001928E-02 0. -1.
</event>
<event>
 5   0  0.1254487E-04  0.1512283E+04  0.7818609E-02  0.8876326E-01
       -2   -1    0    0    0  501  0.00000000000E+00  0.00000000000E+00  0.38610567545E+03  0.38610567546E+03  0.25500000920E-02 0.  1.
        2   -1    0    0  501    0  0.00000000000E+00  0.00000000000E+00 -0.14808125534E+04  0.14808125534E+04  0.25500000920E-02 0. -1.
    10030    2    1    2    0    0  0.00000000000E+00  0.00000000000E+00 -0.10947068779E+04  0.18669182289E+04  0.15122832157E+04 0.  0.
        5    1    3    3  502    0 -0.53977449013E+03 -0.51820102794E+03 -0.41302932154E+03  0.85469533519E+03  0.46999998093E+01 0. -1.
       -5    1    3    3    0  502  0.53977449013E+03  0.51820102794E+03 -0.68167755640E+03  0.10122228937E+04  0.46999998093E+01 0.  1.
</event>
<event>
 5   0  0.6364378E-05  0.1495407E+04  0.7818609E-02  0.8887513E-01
       -1   -1    0    0    0  501  0.00000000000E+00  0.00000000000E+00  0.74666719907E+03  0.74666719909E+03  0.50400001928E-02 0.  1.
        1   -1    0    0  501    0  0.00000000000E+00  0.00000000000E+00 -0.74874134479E+03  0.74874134480E+03  0.50400001928E-02 0. -1.
    10030    2    1    2    0    0  0.00000000000E+00  0.00000000000E+00 -0.20741457181E+01  0.14954085439E+04  0.14954071055E+04 0.  0.
        5    1    3    3  502    0  0.33125466035E+03  0.42512921268E+03 -0.51927884266E+03  0.74842307815E+03  0.46999998093E+01 0. -1.
       -5    1    3    3    0  502 -0.33125466035E+03 -0.42512921268E+03  0.51720469694E+03  0.74698546573E+03  0.46999998093E+01 0.  1.
</event>
<event>
 5   0  0.1216921E-04  0.1454135E+04  0.7818609E-02  0.8915539E-01
       -2   -1    0    0    0  501  0.00000000000E+00  0.00000000000E+00  0.27779656848E+03  0.27779656849E+03  0.25500000920E-02 0. -1.
        2   -1    0    0  501    0  0.00000000000E+00  0.00000000000E+00 -0.19029301358E+04  0.19029301358E+04  0.25500000920E-02 0.  1.
    10030    2    1    2    0    0  0.00000000000E+00  0.00000000000E+00 -0.16251335673E+04  0.21807267043E+04  0.14541354294E+04 0.  0.
        4    1    3    3  502    0 -0.36865129408E+03  0.29947254070E+03 -0.16381200966E+04  0.17055868911E+04  0.12699999809E+01 0.  1.
       -4    1    3    3    0  502  0.36865129408E+03 -0.29947254070E+03  0.12986529271E+02  0.47513981321E+03  0.12699999809E+01 0. -1.
</event>
<event>
 5   0  0.1219810E-04  0.1500172E+04  0.7818609E-02  0.8884339E-01
       -2   -1    0    0    0  501  0.00000000000E+00  0.00000000000E+00  0.25823706731E+03  0.25823706732E+03  0.25500000920E-02 0.  1.
        2   -1    0    0  501    0  0.00000000000E+00  0.00000000000E+00 -0.21787297218E+04  0.21787297218E+04  0.25500000920E-02 0. -1.
    10030    2    1    2    0    0  0.00000000000E+00  0.00000000000E+00 -0.19204926545E+04  0.24369667891E+04  0.15001716886E+04 0.  0.
        1    1    3    3  502    0  0.26736095860E+03  0.68240766867E+03 -0.70101070053E+03  0.10141884000E+04  0.50400001928E-02 0.  1.
       -1    1    3    3    0  502 -0.26736095860E+03 -0.68240766867E+03 -0.12194819539E+04  0.14227783891E+04  0.50400001928E-02 0. -1.
</event>
<event>
 5   0  0.6361716E-05  0.1490502E+04  0.7818609E-02  0.8890793E-01
       -1   -1    0    0    0  501  0.00000000000E+00  0.00000000000E+00  0.41417647567E+03  0.41417647570E+03  0.50400001928E-02 0.  1.
        1   -1    0    0  501    0  0.00000000000E+00  0.00000000000E+00 -0.13409728114E+04  0.13409728114E+04  0.50400001928E-02 0. -1.
    10030    2    1    2    0    0  0.00000000000E+00  0.00000000000E+00 -0.92679633573E+03  0.17551492871E+04  0.14905024563E+04 0.  0.
        3    1    3    3  502    0  0.21667383157E+02  0.11968306416E+03  0.40241013261E+03  0.42038962447E+03  0.10100000352E+00 0.  1.
       -3    1    3    3    0  502 -0.21667383157E+02 -0.11968306416E+03 -0.13292064683E+04  0.13347596626E+04  0.10100000352E+00 0. -1.
</event>
<event>
 5   0  0.1186664E-04  0.1501464E+04  0.7818609E-02  0.8883480E-01
       -2   -1    0    0    0  501  0.00000000000E+00  0.00000000000E+00  0.57833834109E+03  0.57833834109E+03  0.25500000920E-02 0.  1.
        2   -1    0    0  501    0  0.00000000000E+00  0.00000000000E+00 -0.97451347024E+03  0.97451347025E+03  0.25500000920E-02 0. -1.
    10030    2    1    2    0    0  0.00000000000E+00  0.00000000000E+00 -0.39617512916E+03  0.15528518113E+04  0.15014639573E+04 0.  0.
        3    1    3    3  502    0 -0.31487438780E+03 -0.40420781360E+03 -0.76556405497E+03  0.92120473790E+03  0.10100000352E+00 0. -1.
       -3    1    3    3    0  502  0.31487438780E+03  0.40420781360E+03  0.36938892582E+03  0.63164707344E+03  0.10100000352E+00 0.  1.
</event>
<event>
 5   0  0.6361716E-05  0.1518839E+04  0.7818609E-02  0.8872021E-01
        1   -1    0    0  501    0  0.00000000000E+00  0.00000000000E+00  0.16266371181E+04  0.16266371181E+04  0.50400001928E-02 0.  1.
       -1   -1    0    0    0  501  0.00000000000E+00  0.00000000000E+00 -0.35454639867E+03  0.35454639870E+03  0.50400001928E-02 0. -1.
    10030    2    1    2    0    0  0.00000000000E+00  0.00000000000E+00  0.12720907195E+04  0.19811835168E+04  0.15188394678E+04 0.  0.
        3    1    3    3  502    0 -0.84914084988E+02  0.69875559914E+03  0.10078549571E+04  0.12293255931E+04  0.10100000352E+00 0.  1.
       -3    1    3    3    0  502  0.84914084988E+02 -0.69875559914E+03  0.26423576240E+03  0.75185792374E+03  0.10100000352E+00 0. -1.
</event>
<event>
 5   0  0.6364378E-05  0.1500614E+04  0.7818609E-02  0.8884045E-01
       -1   -1    0    0    0  501  0.00000000000E+00  0.00000000000E+00  0.50677790765E+03  0.50677790767E+03  0.50400001928E-02 0.  1.
        1   -1    0    0  501    0  0.00000000000E+00  0.00000000000E+00 -0.11108623133E+04  0.11108623133E+04  0.50400001928E-02 0. -1.
    10030    2    1    2    0    0  0.00000000000E+00  0.00000000000E+00 -0.60408440569E+03  0.16176402210E+04  0.15006138462E+04 0.  0.
        5    1    3    3  502    0  0.32846868005E+03 -0.22958918447E+03 -0.98580768972E+03  0.10641624681E+04  0.46999998093E+01 0. -1.
       -5    1    3    3    0  502 -0.32846868005E+03  0.22958918447E+03  0.38172328403E+03  0.55347775292E+03  0.46999998093E+01 0.  1.
</event>
<event>
 5   0  0.6668433E-05  0.1500107E+04  0.7818609E-02  0.8884382E-01
        1   -1    0    0  501    0  0.00000000000E+00  0.00000000000E+00  0.53882625676E+03  0.53882625678E+03  0.50400001928E-02 0. -1.
       -1   -1    0    0    0  501  0.00000000000E+00  0.00000000000E+00 -0.10440841540E+04  0.10440841541E+04  0.50400001928E-02 0.  1.
    10030    2    1    2    0    0  0.00000000000E+00  0.00000000000E+00 -0.50525789729E+03  0.15829104108E+04  0.15001066049E+04 0.  0.
        1    1    3    3  502    0  0.49919000665E+02 -0.10122247967E+03  0.52981491879E+03  0.54170263541E+03  0.50400001928E-02 0. -1.
       -1    1    3    3    0  502 -0.49919000665E+02  0.10122247967E+03 -0.10350728161E+04  0.10412077754E+04  0.50400001928E-02 0.  1.
</event>
<event>
 5   0  0.6668433E-05  0.1502024E+04  0.7818609E-02  0.8883108E-01
       -1   -1    0    0    0  501  0.00000000000E+00  0.00000000000E+00  0.68727200975E+03  0.68727200977E+03  0.50400001928E-02 0.  1.
        1   -1    0    0  501    0  0.00000000000E+00  0.00000000000E+00 -0.82066381817E+03  0.82066381818E+03  0.50400001928E-02 0. -1.
    10030    2    1    2    0    0  0.00000000000E+00  0.00000000000E+00 -0.13339180841E+03  0.15079358280E+04  0.15020243296E+04 0.  0.
        1    1    3    3  502    0 -0.34033041770E+03 -0.28548422276E+03  0.54123936941E+03  0.70019003826E+03  0.50400001928E-02 0.  1.
       -1    1    3    3    0  502  0.34033041770E+03  0.28548422276E+03 -0.67463117782E+03  0.80774578970E+03  0.50400001928E-02 0. -1.
</event>
<event>
 5   0  0.1186664E-04  0.1501761E+04  0.7818609E-02  0.8883282E-01
        2   -1    0    0  501    0  0.00000000000E+00  0.00000000000E+00  0.60014520357E+03  0.60014520358E+03  0.25500000920E-02 0. -1.
       -2   -1    0    0    0  501  0.00000000000E+00  0.00000000000E+00 -0.93947574560E+03  0.93947574560E+03  0.25500000920E-02 0.  1.
    10030    2    1    2    0    0  0.00000000000E+00  0.00000000000E+00 -0.33933054203E+03  0.15396209492E+04  0.15017614492E+04 0.  0.
        3    1    3    3  502    0  0.25149882840E+03  0.13181149572E+03  0.54298177618E+03  0.61274395187E+03  0.10100000352E+00 0. -1.
       -3    1    3    3    0  502 -0.25149882840E+03 -0.13181149572E+03 -0.88231231821E+03  0.92687699731E+03  0.10100000352E+00 0.  1.
</event>
<event>
 5   0  0.6668433E-05  0.1500327E+04  0.7818609E-02  0.8884236E-01
       -1   -1    0    0    0  501  0.00000000000E+00  0.00000000000E+00  0.63488094446E+03  0.63488094448E+03  0.50400001928E-02 0.  1.
        1   -1    0    0  501    0  0.00000000000E+00  0.00000000000E+00 -0.88637891565E+03  0.88637891567E+03  0.50400001928E-02 0. -1.
    10030    2    1    2    0    0  0.00000000000E+00  0.00000000000E+00 -0.25149797119E+03  0.15212598601E+04  0.15003267419E+04 0.  0.
        1    1    3    3  502    0 -0.22929473024E+03 -0.22200062167E+03  0.56260798936E+03  0.64682926577E+03  0.50400001928E-02 0.  1.
       -1    1    3    3    0  502  0.22929473024E+03  0.22200062167E+03 -0.81410596056E+03  0.87443059437E+03  0.50400001928E-02 0. -1.
</event>
<event>
 5   0  0.6509279E-05  0.1478865E+04  0.7818609E-02  0.8898630E-01
        1   -1    0    0  501    0  0.00000000000E+00  0.00000000000E+00  0.14399508173E+04  0.14399508173E+04  0.50400001928E-02 0. -1.
       -1   -1    0    0    0  501  0.00000000000E+00  0.00000000000E+00 -0.37970782459E+03  0.37970782462E+03  0.50400001928E-02 0.  1.
    10030    2    1    2    0    0  0.00000000000E+00  0.00000000000E+00  0.10602429927E+04  0.18196586419E+04  0.14788652304E+04 0.  0.
        2    1    3    3  502    0 -0.77430511390E+01 -0.27214893652E+03  0.13760322354E+04  0.14027079922E+04  0.25500000920E-02 0. -1.
       -2    1    3    3    0  502  0.77430511390E+01  0.27214893652E+03 -0.31578924270E+03  0.41695064973E+03  0.25500000920E-02 0.  1.
</event>
<event>
 5   0  0.6364378E-05  0.1503013E+04  0.7818609E-02  0.8882452E-01
        1   -1    0    0  501    0  0.00000000000E+00  0.00000000000E+00  0.14049216921E+04  0.14049216921E+04  0.50400001928E-02 0. -1.
       -1   -1    0    0    0  501  0.00000000000E+00  0.00000000000E+00 -0.40198822407E+03  0.40198822410E+03  0.50400001928E-02 0.  1.
    10030    2    1    2    0    0  0.00000000000E+00  0.00000000000E+00  0.10029334680E+04  0.18069099162E+04  0.15030129420E+04 0.  0.
        5    1    3    3  502    0  0.56727775768E+03  0.40179193079E+03  0.15826448628E+03  0.71295900837E+03  0.46999998093E+01 0.  1.
       -5    1    3    3    0  502 -0.56727775768E+03 -0.40179193079E+03  0.84466898174E+03  0.10939509078E+04  0.46999998093E+01 0. -1.
</event>
<event>
 5   0  0.1219810E-04  0.1501731E+04  0.7818609E-02  0.8883302E-01
        2   -1    0    0  501    0  0.00000000000E+00  0.00000000000E+00  0.50374565378E+03  0.50374565379E+03  0.25500000920E-02 0.  1.
       -2   -1    0    0    0  501  0.00000000000E+00  0.00000000000E+00 -0.11192140537E+04  0.11192140537E+04  0.25500000920E-02 0. -1.
    10030    2    1    2    0    0  0.00000000000E+00  0.00000000000E+00 -0.61546839987E+03  0.16229597074E+04  0.15017312878E+04 0.  0.
        1    1    3    3  502    0  0.19892919676E+03 -0.87899487793E+02 -0.10844295427E+04  0.11060228652E+04  0.50400001928E-02 0. -1.
       -1    1    3    3    0  502 -0.19892919676E+03  0.87899487793E+02  0.46896114286E+03  0.51693684219E+03  0.50400001928E-02 0.  1.
</event>
<event>
 5   0  0.1186664E-04  0.1502166E+04  0.7818609E-02  0.8883014E-01
       -2   -1    0    0    0  501  0.00000000000E+00  0.00000000000E+00  0.52678365383E+03  0.52678365383E+03  0.25500000920E-02 0. -1.
        2   -1    0    0  501    0  0.00000000000E+00  0.00000000000E+00 -0.10708875041E+04  0.10708875041E+04  0.25500000920E-02 0.  1.
    10030    2    1    2    0    0  0.00000000000E+00  0.00000000000E+00 -0.54410385029E+03  0.15976711580E+04  0.15021664785E+04 0.  0.
        3    1    3    3  502    0 -0.14183136590E+03 -0.16136121671E+03 -0.10375121993E+04  0.10595211903E+04  0.10100000352E+00 0.  1.
       -3    1    3    3    0  502  0.14183136590E+03  0.16136121671E+03  0.49340834906E+03  0.53814996770E+03  0.10100000352E+00 0. -1.
</event>
<event>
 5   0  0.6668433E-05  0.1503242E+04  0.7818609E-02  0.8882300E-01
        1   -1    0    0  501    0  0.00000000000E+00  0.00000000000E+00  0.54487504256E+03  0.54487504259E+03  0.50400001928E-02 0.  1.
       -1   -1    0    0    0  501  0.00000000000E+00  0.00000000000E+00 -0.10368145420E+04  0.10368145420E+04  0.50400001928E-02 0. -1.
    10030    2    1    2    0    0  0.00000000000E+00  0.00000000000E+00 -0.49193949943E+03  0.15816895846E+04  0.15032423194E+04 0.  0.
        1    1    3    3  502    0 -0.46859110994E+02 -0.88856502219E+01  0.54328125232E+03  0.54537074565E+03  0.50400001928E-02 0.  1.
       -1    1    3    3    0  502  0.46859110994E+02  0.88856502219E+01 -0.10352207517E+04  0.10363188389E+04  0.50400001928E-02 0. -1.
</event>
<event>
 5   0  0.6509279E-05  0.1477102E+04  0.7818609E-02  0.8899824E-01
        1   -1    0    0  501    0  0.00000000000E+00  0.00000000000E+00  0.12315747806E+04  0.12315747806E+04  0.50400001928E-02 0.  1.
       -1   -1    0    0    0  501  0.00000000000E+00  0.00000000000E+00 -0.44289420378E+03  0.44289420381E+03  0.50400001928E-02 0. -1.
    10030    2    1    2    0    0  0.00000000000E+00  0.00000000000E+00  0.78868057684E+03  0.16744689844E+04  0.14771016646E+04 0.  0.
        2    1    3    3  502    0 -0.54219292803E+03  0.30108800437E+03 -0.60281751585E+02  0.62310596784E+03  0.25500000920E-02 0. -1.
       -2    1    3    3    0  502  0.54219292803E+03 -0.30108800437E+03  0.84896232843E+03  0.10513630166E+04  0.25500000920E-02 0.  1.
</event>
<event>
 5   0  0.6542036E-05  0.1496764E+04  0.7818609E-02  0.8886607E-01
        1   -1    0    0  501    0  0.00000000000E+00  0.00000000000E+00  0.24119794463E+04  0.24119794463E+04  0.50400001928E-02 0. -1.
       -1   -1    0    0    0  501  0.00000000000E+00  0.00000000000E+00 -0.23220594686E+03  0.23220594691E+03  0.50400001928E-02 0.  1.
    10030    2    1    2    0    0  0.00000000000E+00  0.00000000000E+00  0.21797734995E+04  0.26441853933E+04  0.14967644721E+04 0.  0.
        4    1    3    3  502    0  0.72590572843E+03 -0.17589926679E+03  0.11726474219E+04  0.13903176858E+04  0.12699999809E+01 0. -1.
       -4    1    3    3    0  502 -0.72590572843E+03  0.17589926679E+03  0.10071260776E+04  0.12538677074E+04  0.12699999809E+01 0.  1.
</event>
<event>
 5   0  0.6361716E-05  0.1500697E+04  0.7818609E-02  0.8883989E-01
       -1   -1    0    0    0  501  0.00000000000E+00  0.00000000000E+00  0.21612025147E+03  0.21612025153E+03  0.50400001928E-02 0.  1.
        1   -1    0    0  501    0  0.00000000000E+00  0.00000000000E+00 -0.26051381361E+04  0.26051381361E+04  0.50400001928E-02 0. -1.
    10030    2    1    2    0    0  0.00000000000E+00  0.00000000000E+00 -0.23890178846E+04  0.28212583876E+04  0.15006973168E+04 0.  0.
        3    1    3    3  502    0  0.19779207579E+03  0.62241928215E+03 -0.18890679250E+04  0.19987759013E+04  0.10100000352E+00 0. -1.
       -3    1    3    3    0  502 -0.19779207579E+03 -0.62241928215E+03 -0.49994995962E+03  0.82248248635E+03  0.10100000352E+00 0.  1.
</event>
<event>
 5   0  0.4462875E-05  0.1500453E+04  0.7818609E-02  0.8884152E-01
        3   -1    0    0  501    0  0.00000000000E+00  0.00000000000E+00  0.43929176415E+03  0.43929177576E+03  0.10100000352E+00 0. -1.
       -3   -1    0    0    0  501  0.00000000000E+00  0.00000000000E+00 -0.12812439783E+04  0.12812439823E+04  0.10100000352E+00 0.  1.
    10030    2    1    2    0    0  0.00000000000E+00  0.00000000000E+00 -0.84195221418E+03  0.17205357581E+04  0.15004531862E+04 0.  0.
        5    1    3    3  502    0  0.30669653626E+03 -0.42115376132E+02  0.36261777290E+03  0.47681255172E+03  0.46999998093E+01 0. -1.
       -5    1    3    3    0  502 -0.30669653626E+03  0.42115376132E+02 -0.12045699871E+04  0.12437232064E+04  0.46999998093E+01 0.  1.
</event>
<event>
 5   0  0.6668433E-05  0.1502777E+04  0.7818609E-02  0.8882608E-01
        1   -1    0    0  501    0  0.00000000000E+00  0.00000000000E+00  0.10154216610E+04  0.10154216611E+04  0.50400001928E-02 0. -1.
       -1   -1    0    0    0  501  0.00000000000E+00  0.00000000000E+00 -0.55601020185E+03  0.55601020187E+03  0.50400001928E-02 0.  1.
    10030    2    1    2    0    0  0.00000000000E+00  0.00000000000E+00  0.45941145920E+03  0.15714318629E+04  0.15027771661E+04 0.  0.
        1    1    3    3  502    0 -0.46076210451E+03 -0.59168868976E+03  0.18079738561E+03  0.77141747271E+03  0.50400001928E-02 0. -1.
       -1    1    3    3    0  502  0.46076210451E+03  0.59168868976E+03  0.27861407359E+03  0.80001439022E+03  0.50400001928E-02 0.  1.
</event>
<event>
 5   0  0.1216921E-04  0.1486700E+04  0.7818609E-02  0.8893346E-01
       -2   -1    0    0    0  501  0.00000000000E+00  0.00000000000E+00  0.43266058007E+03  0.43266058008E+03  0.25500000920E-02 0. -1.
        2   -1    0    0  501    0  0.00000000000E+00  0.00000000000E+00 -0.12771424133E+04  0.12771424133E+04  0.25500000920E-02 0.  1.
    10030    2    1    2    0    0  0.00000000000E+00  0.00000000000E+00 -0.84448183319E+03  0.17098029933E+04  0.14866999393E+04 0.  0.
        4    1    3    3  502    0  0.81877935329E+02  0.75370833783E+02  0.42302455245E+03  0.43741987124E+03  0.12699999809E+01 0. -1.
       -4    1    3    3    0  502 -0.81877935329E+02 -0.75370833783E+02 -0.12675063856E+04  0.12723831221E+04  0.12699999809E+01 0.  1.
</event>
<event>
 5   0  0.1216921E-04  0.1482733E+04  0.7818609E-02  0.8896017E-01
       -2   -1    0    0    0  501  0.00000000000E+00  0.00000000000E+00  0.26648083703E+03  0.26648083704E+03  0.25500000920E-02 0. -1.
        2   -1    0    0  501    0  0.00000000000E+00  0.00000000000E+00 -0.20625278719E+04  0.20625278719E+04  0.25500000920E-02 0.  1.
    10030    2    1    2    0    0  0.00000000000E+00  0.00000000000E+00 -0.17960470349E+04  0.23290087090E+04  0.14827328198E+04 0.  0.
        4    1    3    3  502    0  0.26714705282E+03 -0.33486219867E+03  0.52409036876E+02  0.43156524416E+03  0.12699999809E+01 0. -1.
       -4    1    3    3    0  502 -0.26714705282E+03  0.33486219867E+03 -0.18484560718E+04  0.18974434648E+04  0.12699999809E+01 0.  1.
</event>
<event>
 5   0  0.6668433E-05  0.1480125E+04  0.7818609E-02  0.8897778E-01
        1   -1    0    0  501    0  0.00000000000E+00  0.00000000000E+00  0.10197885377E+04  0.10197885377E+04  0.50400001928E-02 0.  1.
       -1   -1    0    0    0  501  0.00000000000E+00  0.00000000000E+00 -0.53706498138E+03  0.53706498140E+03  0.50400001928E-02 0. -1.
    10030    2    1    2    0    0  0.00000000000E+00  0.00000000000E+00  0.48272355633E+03  0.15568535191E+04  0.14801252812E+04 0.  0.
        1    1    3    3  502    0  0.13983873782E+03  0.72671766108E+03  0.23674319929E+03  0.77699470651E+03  0.50400001928E-02 0. -1.
       -1    1    3    3    0  502 -0.13983873782E+03 -0.72671766108E+03  0.24598035704E+03  0.77985881260E+03  0.50400001928E-02 0.  1.
</event>
<event>
 5   0  0.6542036E-05  0.1502033E+04  0.7818609E-02  0.8883102E-01
       -1   -1    0    0    0  501  0.00000000000E+00  0.00000000000E+00  0.54886703471E+03  0.54886703474E+03  0.50400001928E-02 0. -1.
        1   -1    0    0  501    0  0.00000000000E+00  0.00000000000E+00 -0.10276186836E+04  0.10276186836E+04  0.50400001928E-02 0.  1.
    10030    2    1    2    0    0  0.00000000000E+00  0.00000000000E+00 -0.47875164891E+03  0.15764857184E+04  0.15020333148E+04 0.  0.
        4    1    3    3  502    0 -0.79829997967E+02  0.72689419086E+03 -0.59791092006E+02  0.73370605890E+03  0.12699999809E+01 0. -1.
       -4    1    3    3    0  502  0.79829997967E+02 -0.72689419086E+03 -0.41896055691E+03  0.84277965947E+03  0.12699999809E+01 0.  1.
</event>
<event>
 5   0  0.1216921E-04  0.1499201E+04  0.7818609E-02  0.8884984E-01
       -2   -1    0    0    0  501  0.00000000000E+00  0.00000000000E+00  0.30244621182E+03  0.30244621183E+03  0.25500000920E-02 0.  1.
        2   -1    0    0  501    0  0.00000000000E+00  0.00000000000E+00 -0.18578548094E+04  0.18578548094E+04  0.25500000920E-02 0. -1.
    10030    2    1    2    0    0  0.00000000000E+00  0.00000000000E+00 -0.15554085976E+04  0.21603010212E+04  0.14992013197E+04 0.  0.
        4    1    3    3  502    0 -0.19764188736E+03 -0.20229390187E+03  0.22261642439E+03  0.35992335806E+03  0.12699999809E+01 0.  1.
       -4    1    3    3    0  502  0.19764188736E+03  0.20229390187E+03 -0.17780250220E+04  0.18003776631E+04  0.12699999809E+01 0. -1.
</event>
<event>
 5   0  0.1216921E-04  0.1501790E+04  0.7818609E-02  0.8883263E-01
       -2   -1    0    0    0  501  0.00000000000E+00  0.00000000000E+00  0.10120282083E+04  0.10120282083E+04  0.25500000920E-02 0. -1.
        2   -1    0    0  501    0  0.00000000000E+00  0.00000000000E+00 -0.55714206527E+03  0.55714206528E+03  0.25500000920E-02 0.  1.
    10030    2    1    2    0    0  0.00000000000E+00  0.00000000000E+00  0.45488614304E+03  0.15691702736E+04  0.15017902465E+04 0.  0.
        4    1    3    3  502    0  0.74891240291E+03 -0.43355161769E+02  0.19290844202E+03  0.77457390686E+03  0.12699999809E+01 0. -1.
       -4    1    3    3    0  502 -0.74891240291E+03  0.43355161769E+02  0.26197770102E+03  0.79459636673E+03  0.12699999809E+01 0.  1.
</event>
<event>
 5   0  0.1254487E-04  0.1501573E+04  0.7818609E-02  0.8883408E-01
       -2   -1    0    0    0  501  0.00000000000E+00  0.00000000000E+00  0.47989702845E+03  0.47989702846E+03  0.25500000920E-02 0. -1.
        2   -1    0    0  501    0  0.00000000000E+00  0.00000000000E+00 -0.11745853945E+04  0.11745853945E+04  0.25500000920E-02 0.  1.
    10030    2    1    2    0    0  0.00000000000E+00  0.00000000000E+00 -0.69468836609E+03  0.16544824230E+04  0.15015725630E+04 0.  0.
        5    1    3    3  502    0 -0.51811255017E+03 -0.21254704581E+03  0.20361766217E+03  0.59590192454E+03  0.46999998093E+01 0. -1.
       -5    1    3    3    0  502  0.51811255017E+03  0.21254704581E+03 -0.89830602825E+03  0.10585804985E+04  0.46999998093E+01 0.  1.
</event>
<event>
 5   0  0.1219810E-04  0.1487125E+04  0.7818609E-02  0.8893060E-01
       -2   -1    0    0    0  501  0.00000000000E+00  0.00000000000E+00  0.30714496986E+03  0.30714496987E+03  0.25500000920E-02 0.  1.
        2   -1    0    0  501    0  0.00000000000E+00  0.00000000000E+00 -0.18000786976E+04  0.18000786976E+04  0.25500000920E-02 0. -1.
    10030    2    1    2    0    0  0.00000000000E+00  0.00000000000E+00 -0.14929337277E+04  0.21072236675E+04  0.14871249004E+04 0.  0.
        1    1    3    3  502    0  0.61624554071E+03  0.38886683103E+03 -0.53672948257E+03  0.90501630715E+03  0.50400001928E-02 0. -1.
       -1    1    3    3    0  502 -0.61624554071E+03 -0.38886683103E+03 -0.95620424518E+03  0.12022073603E+04  0.50400001928E-02 0.  1.
</event>
<event>
 5   0  0.4462875E-05  0.1495033E+04  0.7818609E-02  0.8887763E-01
       -3   -1    0    0    0  501  0.00000000000E+00  0.00000000000E+00  0.48509449376E+03  0.48509450427E+03  0.10100000352E+00 0.  1.
        3   -1    0    0  501    0  0.00000000000E+00  0.00000000000E+00 -0.11519009636E+04  0.11519009680E+04  0.10100000352E+00 0. -1.
    10030    2    1    2    0    0  0.00000000000E+00  0.00000000000E+00 -0.66680646984E+03  0.16369954723E+04  0.14950328786E+04 0.  0.
        2    1    3    3  502    0  0.24365342285E+02 -0.44747456154E+03 -0.98850707712E+03  0.10853448275E+04  0.25500000920E-02 0. -1.
       -2    1    3    3    0  502 -0.24365342285E+02  0.44747456154E+03  0.32170060728E+03  0.55165064476E+03  0.25500000920E-02 0.  1.
</event>
<event>
 5   0  0.1254487E-04  0.1499414E+04  0.7818609E-02  0.8884842E-01
        2   -1    0    0  501    0  0.00000000000E+00  0.00000000000E+00  0.20106537797E+04  0.20106537797E+04  0.25500000920E-02 0.  1.
       -2   -1    0    0    0  501  0.00000000000E+00  0.00000000000E+00 -0.27954134973E+03  0.27954134974E+03  0.25500000920E-02 0. -1.
    10030    2    1    2    0    0  0.00000000000E+00  0.00000000000E+00  0.17311124300E+04  0.22901951295E+04  0.14994143809E+04 0.  0.
        5    1    3    3  502    0 -0.39352971050E+03  0.43323501774E+03  0.14999160654E+03  0.60421667113E+03  0.46999998093E+01 0. -1.
       -5    1    3    3    0  502  0.39352971050E+03 -0.43323501774E+03  0.15811208234E+04  0.16859784583E+04  0.46999998093E+01 0.  1.
</event>
<event>
 5   0  0.6509279E-05  0.1501269E+04  0.7818609E-02  0.8883609E-01
       -1   -1    0    0    0  501  0.00000000000E+00  0.00000000000E+00  0.52619760319E+03  0.52619760321E+03  0.50400001928E-02 0. -1.
        1   -1    0    0  501    0  0.00000000000E+00  0.00000000000E+00 -0.10707999696E+04  0.10707999696E+04  0.50400001928E-02 0.  1.
    10030    2    1    2    0    0  0.00000000000E+00  0.00000000000E+00 -0.54460236636E+03  0.15969975728E+04  0.15012692996E+04 0.  0.
        2    1    3    3  502    0 -0.21681357303E+03  0.19199615828E+03 -0.10089779380E+04  0.10497176428E+04  0.25500000920E-02 0.  1.
       -2    1    3    3    0  502  0.21681357303E+03 -0.19199615828E+03  0.46437557162E+03  0.54727992999E+03  0.25500000920E-02 0. -1.
</event>
<event>
 5   0  0.1254487E-04  0.1502232E+04  0.7818609E-02  0.8882970E-01
        2   -1    0    0  501    0  0.00000000000E+00  0.00000000000E+00  0.12065089389E+04  0.12065089389E+04  0.25500000920E-02 0. -1.
       -2   -1    0    0    0  501  0.00000000000E+00  0.00000000000E+00 -0.46760974883E+03  0.46760974884E+03  0.25500000920E-02 0.  1.
    10030    2    1    2    0    0  0.00000000000E+00  0.00000000000E+00  0.73889919005E+03  0.16741186877E+04  0.15022321284E+04 0.  0.
        5    1    3    3  502    0 -0.10985233931E+03  0.20691556119E+02  0.11971706284E+04  0.12023873255E+04  0.46999998093E+01 0. -1.
       -5    1    3    3    0  502  0.10985233931E+03 -0.20691556119E+02 -0.45827143834E+03  0.47173136226E+03  0.46999998093E+01 0.  1.
</event>
<event>
 5   0  0.6361716E-05  0.1498852E+04  0.7818609E-02  0.8885217E-01
        1   -1    0    0  501    0  0.00000000000E+00  0.00000000000E+00  0.28739254000E+04  0.28739254000E+04  0.50400001928E-02 0.  1.
       -1   -1    0    0    0  501  0.00000000000E+00  0.00000000000E+00 -0.19542586818E+03  0.19542586825E+03  0.50400001928E-02 0. -1.
    10030    2    1    2    0    0  0.00000000000E+00  0.00000000000E+00  0.26784995318E+04  0.30693512683E+04  0.14988520494E+04 0.  0.
        3    1    3    3  502    0  0.62148345990E+03  0.28559144988E+03  0.19665431315E+04  0.20820893510E+04  0.10100000352E+00 0.  1.
       -3    1    3    3    0  502 -0.62148345990E+03 -0.28559144988E+03  0.71195640034E+03  0.98726191731E+03  0.10100000352E+00 0. -1.
</event>
<event>
 5   0  0.6542036E-05  0.1499871E+04  0.7818609E-02  0.8884539E-01
        1   -1    0    0  501    0  0.00000000000E+00  0.00000000000E+00  0.24005326561E+04  0.24005326561E+04  0.50400001928E-02 0. -1.
       -1   -1    0    0    0  501  0.00000000000E+00  0.00000000000E+00 -0.23428265745E+03  0.23428265751E+03  0.50400001928E-02 0.  1.
    10030    2    1    2    0    0  0.00000000000E+00  0.00000000000E+00  0.21662499986E+04  0.26348153136E+04  0.14998708878E+04 0.  0.
        4    1    3    3  502    0  0.77969831501E+02 -0.65100633694E+03  0.44364706167E+03  0.79165199020E+03  0.12699999809E+01 0.  1.
       -4    1    3    3    0  502 -0.77969831501E+02  0.65100633694E+03  0.17226029370E+04  0.18431633234E+04  0.12699999809E+01 0. -1.
</event>
<event>
 5   0  0.6361716E-05  0.1498710E+04  0.7818609E-02  0.8885311E-01
        1   -1    0    0  501    0  0.00000000000E+00  0.00000000000E+00  0.76701254144E+03  0.76701254146E+03  0.50400001928E-02 0. -1.
       -1   -1    0    0    0  501  0.00000000000E+00  0.00000000000E+00 -0.73210414331E+03  0.73210414332E+03  0.50400001928E-02 0.  1.
    10030    2    1    2    0    0  0.00000000000E+00  0.00000000000E+00  0.34908398135E+02  0.14991166848E+04  0.14987101916E+04 0.  0.
        3    1    3    3  502    0 -0.32294657940E+02  0.72903478789E+03 -0.15288110266E+03  0.74559191830E+03  0.10100000352E+00 0.  1.
       -3    1    3    3    0  502  0.32294657940E+02 -0.72903478789E+03  0.18778950080E+03  0.75352476648E+03  0.10100000352E+00 0. -1.
</event>
<event>
 5   0  0.6361716E-05  0.1502696E+04  0.7818609E-02  0.8882662E-01
       -1   -1    0    0    0  501  0.00000000000E+00  0.00000000000E+00  0.44329297789E+03  0.44329297791E+03  0.50400001928E-02 0. -1.
        1   -1    0    0  501    0  0.00000000000E+00  0.00000000000E+00 -0.12734782931E+04  0.12734782931E+04  0.50400001928E-02 0.  1.
    10030    2    1    2    0    0  0.00000000000E+00  0.00000000000E+00 -0.83018531524E+03  0.17167712711E+04  0.15026962233E+04 0.  0.
        3    1    3    3  502    0 -0.36283028665E+03  0.42911561151E+03  0.15469398936E+03  0.58285183838E+03  0.10100000352E+00 0. -1.
       -3    1    3    3    0  502  0.36283028665E+03 -0.42911561151E+03 -0.98487930460E+03  0.11339194327E+04  0.10100000352E+00 0.  1.
</event>
<event>
 5   0  0.1228286E-04  0.1503718E+04  0.7818609E-02  0.8881984E-01
       -2   -1    0    0    0  501  0.00000000000E+00  0.00000000000E+00  0.25807976577E+03  0.25807976578E+03  0.25500000920E-02 0. -1.
        2   -1    0    0  501    0  0.00000000000E+00  0.00000000000E+00 -0.21903767161E+04  0.21903767161E+04  0.25500000920E-02 0.  1.
    10030    2    1    2    0    0  0.00000000000E+00  0.00000000000E+00 -0.19322969503E+04  0.24484564818E+04  0.15037179388E+04 0.  0.
        2    1    3    3  502    0  0.65666691091E+03  0.15288001623E+03 -0.42437734146E+03  0.79666797300E+03  0.25500000920E-02 0. -1.
       -2    1    3    3    0  502 -0.65666691091E+03 -0.15288001623E+03 -0.15079196088E+04  0.16517885088E+04  0.25500000920E-02 0.  1.
</event>
<event>
 5   0  0.6364378E-05  0.1500913E+04  0.7818609E-02  0.8883846E-01
       -1   -1    0    0    0  501  0.00000000000E+00  0.00000000000E+00  0.50778520390E+03  0.50778520392E+03  0.50400001928E-02 0. -1.
        1   -1    0    0  501    0  0.00000000000E+00  0.00000000000E+00 -0.11091012337E+04  0.11091012337E+04  0.50400001928E-02 0.  1.
    10030    2    1    2    0    0  0.00000000000E+00  0.00000000000E+00 -0.60131602978E+03  0.16168864376E+04  0.15009133168E+04 0.  0.
        5    1    3    3  502    0 -0.20936803411E+03 -0.70300607888E+03 -0.47136540661E+03  0.87192887164E+03  0.46999998093E+01 0.  1.
       -5    1    3    3    0  502  0.20936803411E+03  0.70300607888E+03 -0.12995062317E+03  0.74495756598E+03  0.46999998093E+01 0. -1.
</event>
<event>
 5   0  0.6509279E-05  0.1502908E+04  0.7818609E-02  0.8882521E-01
        1   -1    0    0  501    0  0.00000000000E+00  0.00000000000E+00  0.12714226996E+04  0.12714226996E+04  0.50400001928E-02 0. -1.
       -1   -1    0    0    0  501  0.00000000000E+00  0.00000000000E+00 -0.44413510337E+03  0.44413510340E+03  0.50400001928E-02 0.  1.
    10030    2    1    2    0    0  0.00000000000E+00  0.00000000000E+00  0.82728759621E+03  0.17155578030E+04  0.15029084498E+04 0.  0.
        2    1    3    3  502    0  0.94631480012E+02  0.50325470101E+03 -0.21413838574E+03  0.55504563718E+03  0.25500000920E-02 0.  1.
       -2    1    3    3    0  502 -0.94631480012E+02 -0.50325470101E+03  0.10414259820E+04  0.11605121658E+04  0.25500000920E-02 0. -1.
</event>
<event>
 5   0  0.6361716E-05  0.1504041E+04  0.7818609E-02  0.8881770E-01
       -1   -1    0    0    0  501  0.00000000000E+00  0.00000000000E+00  0.91479750793E+03  0.91479750794E+03  0.50400001928E-02 0.  1.
        1   -1    0    0  501    0  0.00000000000E+00  0.00000000000E+00 -0.61820785184E+03  0.61820785186E+03  0.50400001928E-02 0. -1.
    10030    2    1    2    0    0  0.00000000000E+00  0.00000000000E+00  0.29658965609E+03  0.15330053598E+04  0.15040412259E+04 0.  0.
        3    1    3    3  502    0 -0.55328361173E+03  0.10737541060E+02  0.66731307986E+03  0.86691683947E+03  0.10100000352E+00 0.  1.
       -3    1    3    3    0  502  0.55328361173E+03 -0.10737541060E+02 -0.37072342377E+03  0.66608852034E+03  0.10100000352E+00 0. -1.
</event>
<event>
 5   0  0.1219810E-04  0.1511096E+04  0.7818609E-02  0.8877108E-01
       -2   -1    0    0    0  501  0.00000000000E+00  0.00000000000E+00  0.16368741658E+04  0.16368741658E+04  0.25500000920E-02 0.  1.
        2   -1    0    0  501    0  0.00000000000E+00  0.00000000000E+00 -0.34874566029E+03  0.34874566030E+03  0.25500000920E-02 0. -1.
    10030    2    1    2    0    0  0.00000000000E+00  0.00000000000E+00  0.12881285055E+04  0.19856198261E+04  0.15110959755E+04 0.  0.
        1    1    3    3  502    0  0.47344754284E+03 -0.29377661995E+03  0.13145982083E+04  0.14278045130E+04  0.50400001928E-02 0.  1.
       -1    1    3    3    0  502 -0.47344754284E+03  0.29377661995E+03 -0.26469702795E+02  0.55781531303E+03  0.50400001928E-02 0. -1.
</event>
<event>
 5   0  0.1228286E-04  0.1495819E+04  0.7818609E-02  0.8887238E-01
        2   -1    0    0  501    0  0.00000000000E+00  0.00000000000E+00  0.20332857775E+04  0.20332857775E+04  0.25500000920E-02 0. -1.
       -2   -1    0    0    0  501  0.00000000000E+00  0.00000000000E+00 -0.27510580606E+03  0.27510580607E+03  0.25500000920E-02 0.  1.
    10030    2    1    2    0    0  0.00000000000E+00  0.00000000000E+00  0.17581799715E+04  0.23083915836E+04  0.14958191372E+04 0.  0.
        2    1    3    3  502    0 -0.38724136230E+03  0.51470919360E+03  0.14656942679E+04  0.16009812971E+04  0.25500000920E-02 0. -1.
       -2    1    3    3    0  502  0.38724136230E+03 -0.51470919360E+03  0.29248570356E+03  0.70741028650E+03  0.25500000920E-02 0.  1.
</event>
<event>
 5   0  0.6361716E-05  0.1504413E+04  0.7818609E-02  0.8881524E-01
        1   -1    0    0  501    0  0.00000000000E+00  0.00000000000E+00  0.15148153808E+04  0.15148153809E+04  0.50400001928E-02 0.  1.
       -1   -1    0    0    0  501  0.00000000000E+00  0.00000000000E+00 -0.37352051382E+03  0.37352051385E+03  0.50400001928E-02 0. -1.
    10030    2    1    2    0    0  0.00000000000E+00  0.00000000000E+00  0.11412948670E+04  0.18883358947E+04  0.15044130011E+04 0.  0.
        3    1    3    3  502    0  0.53382003983E+03  0.51350889544E+03  0.40622424128E+03  0.84479190635E+03  0.10100000352E+00 0. -1.
       -3    1    3    3    0  502 -0.53382003983E+03 -0.51350889544E+03  0.73507062574E+03  0.10435439884E+04  0.10100000352E+00 0.  1.
</event>
<event>
 5   0  0.1219810E-04  0.1500655E+04  0.7818609E-02  0.8884017E-01
        2   -1    0    0  501    0  0.00000000000E+00  0.00000000000E+00  0.73680891065E+03  0.73680891065E+03  0.25500000920E-02 0.  1.
       -2   -1    0    0    0  501  0.00000000000E+00  0.00000000000E+00 -0.76409412861E+03  0.76409412862E+03  0.25500000920E-02 0. -1.
    10030    2    1    2    0    0  0.00000000000E+00  0.00000000000E+00 -0.27285217968E+02  0.15009030393E+04  0.15006550070E+04 0.  0.
        1    1    3    3  502    0  0.77202529378E+02 -0.16411764148E+03 -0.74184023169E+03  0.76368957055E+03  0.50400001928E-02 0. -1.
       -1    1    3    3    0  502 -0.77202529378E+02  0.16411764148E+03  0.71455501373E+03  0.73721346871E+03  0.50400001928E-02 0.  1.
</event>
<event>
 5   0  0.6668433E-05  0.1497109E+04  0.7818609E-02  0.8886377E-01
       -1   -1    0    0    0  501  0.00000000000E+00  0.00000000000E+00  0.37568238972E+03  0.37568238975E+03  0.50400001928E-02 0.  1.
        1   -1    0    0  501    0  0.00000000000E+00  0.00000000000E+00 -0.14915101588E+04  0.14915101588E+04  0.50400001928E-02 0. -1.
    10030    2    1    2    0    0  0.00000000000E+00  0.00000000000E+00 -0.11158277691E+04  0.18671925486E+04  0.14971093491E+04 0.  0.
        1    1    3    3  502    0 -0.41798354602E+03 -0.20847852386E+03  0.17162854953E+03  0.49762425453E+03  0.50400001928E-02 0.  1.
       -1    1    3    3    0  502  0.41798354602E+03  0.20847852386E+03 -0.12874563186E+04  0.13695682940E+04  0.50400001928E-02 0. -1.
</event>
<event>
 5   0  0.6361716E-05  0.1499209E+04  0.7818609E-02  0.8884979E-01
        1   -1    0    0  501    0  0.00000000000E+00  0.00000000000E+00  0.23190004082E+04  0.23190004082E+04  0.50400001928E-02 0. -1.
       -1   -1    0    0    0  501  0.00000000000E+00  0.00000000000E+00 -0.24230568775E+03  0.24230568780E+03  0.50400001928E-02 0.  1.
    10030    2    1    2    0    0  0.00000000000E+00  0.00000000000E+00  0.20766947204E+04  0.25613060960E+04  0.14992091100E+04 0.  0.
        3    1    3    3  502    0 -0.59740688630E+03  0.21158887404E+03  0.35445518039E+03  0.72615654271E+03  0.10100000352E+00 0.  1.
       -3    1    3    3    0  502  0.59740688630E+03 -0.21158887404E+03  0.17222395400E+04  0.18351495533E+04  0.10100000352E+00 0. -1.
</event>
<event>
 5   0  0.1216921E-04  0.1515953E+04  0.7818609E-02  0.8873913E-01
       -2   -1    0    0    0  501  0.00000000000E+00  0.00000000000E+00  0.33067542997E+03  0.33067542998E+03  0.25500000920E-02 0. -1.
        2   -1    0    0  501    0  0.00000000000E+00  0.00000000000E+00 -0.17374382256E+04  0.17374382256E+04  0.25500000920E-02 0.  1.
    10030    2    1    2    0    0  0.00000000000E+00  0.00000000000E+00 -0.14067627957E+04  0.20681136556E+04  0.15159526804E+04 0.  0.
        4    1    3    3  502    0  0.19256521621E+03  0.19128366030E+03  0.26210258917E+03  0.37731973357E+03  0.12699999809E+01 0. -1.
       -4    1    3    3    0  502 -0.19256521621E+03 -0.19128366030E+03 -0.16688653848E+04  0.16907939220E+04  0.12699999809E+01 0.  1.
</event>
<event>
 5   0  0.4462875E-05  0.1500435E+04  0.7818609E-02  0.8884164E-01
        4   -1    0    0  501    0  0.00000000000E+00  0.00000000000E+00  0.56092881880E+03  0.56093025650E+03  0.12699999809E+01 0. -1.
       -4   -1    0    0    0  501  0.00000000000E+00  0.00000000000E+00 -0.10033791252E+04  0.10033799289E+04  0.12699999809E+01 0.  1.
    10030    2    1    2    0    0  0.00000000000E+00  0.00000000000E+00 -0.44245030637E+03  0.15643101854E+04  0.15004346312E+04 0.  0.
        3    1    3    3  502    0 -0.70594728294E+02 -0.55773247761E+03 -0.73913960129E+03  0.92864228454E+03  0.10100000352E+00 0.  1.
       -3    1    3    3    0  502  0.70594728294E+02  0.55773247761E+03  0.29668929492E+03  0.63566790085E+03  0.10100000352E+00 0. -1.
</event>
<event>
 5   0  0.1219810E-04  0.1500212E+04  0.7818609E-02  0.8884312E-01
        2   -1    0    0  501    0  0.00000000000E+00  0.00000000000E+00  0.12359818123E+04  0.12359818123E+04  0.25500000920E-02 0.  1.
       -2   -1    0    0    0  501  0.00000000000E+00  0.00000000000E+00 -0.45523254743E+03  0.45523254744E+03  0.25500000920E-02 0. -1.
    10030    2    1    2    0    0  0.00000000000E+00  0.00000000000E+00  0.78074926491E+03  0.16912143598E+04  0.15002121837E+04 0.  0.
        1    1    3    3  502    0 -0.68273375411E+03 -0.84479680628E+02  0.53314545142E+02  0.69000335955E+03  0.50400001928E-02 0.  1.
       -1    1    3    3    0  502  0.68273375411E+03  0.84479680628E+02  0.72743471976E+03  0.10012110002E+04  0.50400001928E-02 0. -1.
</event>
<event>
 5   0  0.1254487E-04  0.1498709E+04  0.7818609E-02  0.8885312E-01
        2   -1    0    0  501    0  0.00000000000E+00  0.00000000000E+00  0.60218848041E+03  0.60218848042E+03  0.25500000920E-02 0. -1.
       -2   -1    0    0    0  501  0.00000000000E+00  0.00000000000E+00 -0.93248542356E+03  0.93248542356E+03  0.25500000920E-02 0.  1.
    10030    2    1    2    0    0  0.00000000000E+00  0.00000000000E+00 -0.33029694315E+03  0.15346739040E+04  0.14987087512E+04 0.  0.
        5    1    3    3  502    0  0.50113704365E+03 -0.32671285141E+03  0.29693456959E+03  0.66788610736E+03  0.46999998093E+01 0. -1.
       -5    1    3    3    0  502 -0.50113704365E+03  0.32671285141E+03 -0.62723151274E+03  0.86678779662E+03  0.46999998093E+01 0.  1.
</event>
<event>
 5   0  0.1216921E-04  0.1495563E+04  0.7818609E-02  0.8887409E-01
        2   -1    0    0  501    0  0.00000000000E+00  0.00000000000E+00  0.74351503155E+03  0.74351503155E+03  0.25500000920E-02 0.  1.
       -2   -1    0    0    0  501  0.00000000000E+00  0.00000000000E+00 -0.75207277382E+03  0.75207277383E+03  0.25500000920E-02 0. -1.
    10030    2    1    2    0    0  0.00000000000E+00  0.00000000000E+00 -0.85577422737E+01  0.14955878054E+04  0.14955633215E+04 0.  0.
        4    1    3    3  502    0  0.11940117958E+02  0.47968749139E+03  0.56925745158E+03  0.74451213213E+03  0.12699999809E+01 0.  1.
       -4    1    3    3    0  502 -0.11940117958E+02 -0.47968749139E+03 -0.57781519385E+03  0.75107567325E+03  0.12699999809E+01 0. -1.
</event>
<event>
 5   0  0.6361716E-05  0.1499451E+04  0.7818609E-02  0.8884818E-01
       -1   -1    0    0    0  501  0.00000000000E+00  0.00000000000E+00  0.49320797692E+03  0.49320797695E+03  0.50400001928E-02 0.  1.
        1   -1    0    0  501    0  0.00000000000E+00  0.00000000000E+00 -0.11396571597E+04  0.11396571597E+04  0.50400001928E-02 0. -1.
    10030    2    1    2    0    0  0.00000000000E+00  0.00000000000E+00 -0.64644918275E+03  0.16328651366E+04  0.14994505689E+04 0.  0.
        3    1    3    3  502    0  0.59468710392E+03 -0.95868452289E+02 -0.80930857630E+03  0.10088725854E+04  0.10100000352E+00 0. -1.
       -3    1    3    3    0  502 -0.59468710392E+03  0.95868452289E+02  0.16285939355E+03  0.62399255122E+03  0.10100000352E+00 0.  1.
</event>
<event>
 5   0  0.6361716E-05  0.1474737E+04  0.7818609E-02  0.8901428E-01
        1   -1    0    0  501    0  0.00000000000E+00  0.00000000000E+00  0.22042776289E+04  0.22042776289E+04  0.50400001928E-02 0.  1.
       -1   -1    0    0    0  501  0.00000000000E+00  0.00000000000E+00 -0.24666245619E+03  0.24666245624E+03  0.50400001928E-02 0. -1.
    10030    2    1    2    0    0  0.00000000000E+00  0.00000000000E+00  0.19576151727E+04  0.24509400851E+04  0.14747373110E+04 0.  0.
        3    1    3    3  502    0 -0.57948782464E+03 -0.44875281345E+03  0.11130793610E+04  0.13327156113E+04  0.10100000352E+00 0.  1.
       -3    1    3    3    0  502  0.57948782464E+03  0.44875281345E+03  0.84453581173E+03  0.11182244739E+04  0.10100000352E+00 0. -1.
</event>
<event>
 5   0  0.1186664E-04  0.1497051E+04  0.7818609E-02  0.8886416E-01
       -2   -1    0    0    0  501  0.00000000000E+00  0.00000000000E+00  0.48319582825E+03  0.48319582825E+03  0.25500000920E-02 0.  1.
        2   -1    0    0  501    0  0.00000000000E+00  0.00000000000E+00 -0.11595516640E+04  0.11595516640E+04  0.25500000920E-02 0. -1.
    10030    2    1    2    0    0  0.00000000000E+00  0.00000000000E+00 -0.67635583576E+03  0.16427474923E+04  0.14970511370E+04 0.  0.
        3    1    3    3  502    0  0.50647154121E+03  0.38707772060E+03  0.92369618040E+02  0.64410770868E+03  0.10100000352E+00 0.  1.
       -3    1    3    3    0  502 -0.50647154121E+03 -0.38707772060E+03 -0.76872545380E+03  0.99863978359E+03  0.10100000352E+00 0. -1.
</event>
<event>
 5   0  0.1216921E-04  0.1500106E+04  0.7818609E-02  0.8884382E-01
       -2   -1    0    0    0  501  0.00000000000E+00  0.00000000000E+00  0.11806013031E+04  0.11806013031E+04  0.25500000920E-02 0.  1.
        2   -1    0    0  501    0  0.00000000000E+00  0.00000000000E+00 -0.47651949737E+03  0.47651949738E+03  0.25500000920E-02 0. -1.
    10030    2    1    2    0    0  0.00000000000E+00  0.00000000000E+00  0.70408180569E+03  0.16571208005E+04  0.15001060490E+04 0.  0.
        4    1    3    3  502    0  0.33803753232E+03 -0.65638945899E+03  0.20606803888E+03  0.76653906924E+03  0.12699999809E+01 0. -1.
       -4    1    3    3    0  502 -0.33803753232E+03  0.65638945899E+03  0.49801376682E+03  0.89058173121E+03  0.12699999809E+01 0.  1.
</event>
<event>
 5   0  0.6509279E-05  0.1504815E+04  0.7818609E-02  0.8881257E-01
        1   -1    0    0  501    0  0.00000000000E+00  0.00000000000E+00  0.22125993127E+04  0.22125993127E+04  0.50400001928E-02 0. -1.
       -1   -1    0    0    0  501  0.00000000000E+00  0.00000000000E+00 -0.25586053084E+03  0.25586053089E+03  0.50400001928E-02 0.  1.
    10030    2    1    2    0    0  0.00000000000E+00  0.00000000000E+00  0.19567387819E+04  0.24684598436E+04  0.15048147192E+04 0.  0.
        2    1    3    3  502    0  0.60213575667E+02 -0.56009512504E+03  0.17965605688E+04  0.18828069739E+04  0.25500000920E-02 0. -1.
       -2    1    3    3    0  502 -0.60213575667E+02  0.56009512504E+03  0.16017821307E+03  0.58565286966E+03  0.25500000920E-02 0.  1.
</event>
<event>
 5   0  0.6668433E-05  0.1500104E+04  0.7818609E-02  0.8884384E-01
        1   -1    0    0  501    0  0.00000000000E+00  0.00000000000E+00  0.19939653246E+04  0.19939653246E+04  0.50400001928E-02 0.  1.
       -1   -1    0    0    0  501  0.00000000000E+00  0.00000000000E+00 -0.28214036249E+03  0.28214036254E+03  0.50400001928E-02 0. -1.
    10030    2    1    2    0    0  0.00000000000E+00  0.00000000000E+00  0.17118249621E+04  0.22761056871E+04  0.15001041291E+04 0.  0.
        1    1    3    3  502    0 -0.19393905290E+02 -0.38540726984E+03 -0.11996313723E+03  0.40411142217E+03  0.50400001928E-02 0. -1.
       -1    1    3    3    0  502  0.19393905290E+02  0.38540726984E+03  0.18317880993E+04  0.18719942649E+04  0.50400001928E-02 0.  1.
</event>
<event>
 5   0  0.6509279E-05  0.1500599E+04  0.7818609E-02  0.8884055E-01
       -1   -1    0    0    0  501  0.00000000000E+00  0.00000000000E+00  0.33341235643E+03  0.33341235647E+03  0.50400001928E-02 0.  1.
        1   -1    0    0  501    0  0.00000000000E+00  0.00000000000E+00 -0.16884470016E+04  0.16884470016E+04  0.50400001928E-02 0. -1.
    10030    2    1    2    0    0  0.00000000000E+00  0.00000000000E+00 -0.13550346452E+04  0.20218593581E+04  0.15005986719E+04 0.  0.
        2    1    3    3  502    0  0.11853118932E+03 -0.51167157434E+02  0.31833417487E+03  0.34351763818E+03  0.25500000920E-02 0.  1.
       -2    1    3    3    0  502 -0.11853118932E+03  0.51167157434E+02 -0.16733688200E+04  0.16783417199E+04  0.25500000920E-02 0. -1.
</event>
<event>
 5   0  0.1216921E-04  0.1503806E+04  0.7818609E-02  0.8881926E-01
       -2   -1    0    0    0  501  0.00000000000E+00  0.00000000000E+00  0.84107299041E+03  0.84107299041E+03  0.25500000920E-02 0.  1.
        2   -1    0    0  501    0  0.00000000000E+00  0.00000000000E+00 -0.67218707429E+03  0.67218707430E+03  0.25500000920E-02 0. -1.
    10030    2    1    2    0    0  0.00000000000E+00  0.00000000000E+00  0.16888591611E+03  0.15132600647E+04  0.15038063608E+04 0.  0.
        4    1    3    3  502    0 -0.52111187718E+03 -0.26831433465E+01  0.62987623474E+03  0.81750258213E+03  0.12699999809E+01 0.  1.
       -4    1    3    3    0  502  0.52111187718E+03  0.26831433465E+01 -0.46099031863E+03  0.69575748258E+03  0.12699999809E+01 0. -1.
</event>
<event>
 5   0  0.1216921E-04  0.1496252E+04  0.7818609E-02  0.8886949E-01
        2   -1    0    0  501    0  0.00000000000E+00  0.00000000000E+00  0.16166909238E+04  0.16166909238E+04  0.25500000920E-02 0. -1.
       -2   -1    0    0    0  501  0.00000000000E+00  0.00000000000E+00 -0.34619619775E+03  0.34619619776E+03  0.25500000920E-02 0.  1.
    10030    2    1    2    0    0  0.00000000000E+00  0.00000000000E+00  0.12704947260E+04  0.19628871216E+04  0.14962516510E+04 0.  0.
        4    1    3    3  502    0 -0.10083692609E+03 -0.67416091337E+03  0.23083896272E+03  0.71968691970E+03  0.12699999809E+01 0.  1.
       -4    1    3    3    0  502  0.10083692609E+03  0.67416091337E+03  0.10396557633E+04  0.12432002019E+04  0.12699999809E+01 0. -1.
</event>
<event>
 5   0  0.1254487E-04  0.1500216E+04  0.7818609E-02  0.8884309E-01
        2   -1    0    0  501    0  0.00000000000E+00  0.00000000000E+00  0.81123462702E+03  0.81123462702E+03  0.25500000920E-02 0. -1.
       -2   -1    0    0    0  501  0.00000000000E+00  0.00000000000E+00 -0.69358701387E+03  0.69358701388E+03  0.25500000920E-02 0.  1.
    10030    2    1    2    0    0  0.00000000000E+00  0.00000000000E+00  0.11764761315E+03  0.15048216409E+04  0.15002157212E+04 0.  0.
        5    1    3    3  502    0 -0.42923428179E+03  0.26694659635E+03 -0.49707724684E+03  0.70895023329E+03  0.46999998093E+01 0.  1.
       -5    1    3    3    0  502  0.42923428179E+03 -0.26694659635E+03  0.61472485998E+03  0.79587140761E+03  0.46999998093E+01 0. -1.
</event>
<event>
 5   0  0.6361716E-05  0.1498049E+04  0.7818609E-02  0.8885751E-01
        1   -1    0    0  501    0  0.00000000000E+00  0.00000000000E+00  0.90126054760E+03  0.90126054762E+03  0.50400001928E-02 0. -1.
       -1   -1    0    0    0  501  0.00000000000E+00  0.00000000000E+00 -0.62250360525E+03  0.62250360527E+03  0.50400001928E-02 0.  1.
    10030    2    1    2    0    0  0.00000000000E+00  0.00000000000E+00  0.27875694235E+03  0.15237641529E+04  0.14980493185E+04 0.  0.
        3    1    3    3  502    0  0.48314017528E+02  0.74705744079E+03  0.11427970044E+03  0.75729051510E+03  0.10100000352E+00 0.  1.
       -3    1    3    3    0  502 -0.48314017528E+02 -0.74705744079E+03  0.16447724191E+03  0.76647363779E+03  0.10100000352E+00 0. -1.
</event>
<event>
 5   0  0.6509279E-05  0.1507745E+04  0.7818609E-02  0.8879319E-01
       -1   -1    0    0    0  501  0.00000000000E+00  0.00000000000E+00  0.84592525377E+03  0.84592525379E+03  0.50400001928E-02 0.  1.
        1   -1    0    0  501    0  0.00000000000E+00  0.00000000000E+00 -0.67183681898E+03  0.67183681900E+03  0.50400001928E-02 0. -1.
    10030    2    1    2    0    0  0.00000000000E+00  0.00000000000E+00  0.17408843479E+03  0.15177620728E+04  0.15077449806E+04 0.  0.
        2    1    3    3  502    0  0.34749533242E+03  0.66193164966E+03  0.18473128823E+03  0.77008581583E+03  0.25500000920E-02 0.  1.
       -2    1    3    3    0  502 -0.34749533242E+03 -0.66193164966E+03 -0.10642853434E+02  0.74767625696E+03  0.25500000920E-02 0. -1.
</event>
<event>
 5   0  0.1219810E-04  0.1499464E+04  0.7818609E-02  0.8884809E-01
       -2   -1    0    0    0  501  0.00000000000E+00  0.00000000000E+00  0.12744215746E+04  0.12744215746E+04  0.25500000920E-02 0. -1.
        2   -1    0    0  501    0  0.00000000000E+00  0.00000000000E+00 -0.44106134885E+03  0.44106134886E+03  0.25500000920E-02 0.  1.
    10030    2    1    2    0    0  0.00000000000E+00  0.00000000000E+00  0.83336022575E+03  0.17154829235E+04  0.14994640359E+04 0.  0.
        1    1    3    3  502    0  0.36540439530E+03 -0.64525337880E+03  0.54317968460E+03  0.91919337723E+03  0.50400001928E-02 0.  1.
       -1    1    3    3    0  502 -0.36540439530E+03  0.64525337880E+03  0.29018054115E+03  0.79628954624E+03  0.50400001928E-02 0. -1.
</event>
<event>
 5   0  0.6542036E-05  0.1511416E+04  0.7818609E-02  0.8876897E-01
       -1   -1    0    0    0  501  0.00000000000E+00  0.00000000000E+00  0.53056016416E+03  0.53056016419E+03  0.50400001928E-02 0.  1.
        1   -1    0    0  501    0  0.00000000000E+00  0.00000000000E+00 -0.10763992756E+04  0.10763992756E+04  0.50400001928E-02 0. -1.
    10030    2    1    2    0    0  0.00000000000E+00  0.00000000000E+00 -0.54583911147E+03  0.16069594398E+04  0.15114159936E+04 0.  0.
        4    1    3    3  502    0 -0.75050576448E+03 -0.69159829745E+02 -0.33164691967E+03  0.82342776052E+03  0.12699999809E+01 0. -1.
       -4    1    3    3    0  502  0.75050576448E+03  0.69159829745E+02 -0.21419219181E+03  0.78353167932E+03  0.12699999809E+01 0.  1.
</event>
<event>
 5   0  0.1219810E-04  0.1501586E+04  0.7818609E-02  0.8883399E-01
        2   -1    0    0  501    0  0.00000000000E+00  0.00000000000E+00  0.18210409831E+04  0.18210409831E+04  0.25500000920E-02 0. -1.
       -2   -1    0    0    0  501  0.00000000000E+00  0.00000000000E+00 -0.30954275716E+03  0.30954275717E+03  0.25500000920E-02 0.  1.
    10030    2    1    2    0    0  0.00000000000E+00  0.00000000000E+00  0.15114982260E+04  0.21305837403E+04  0.15015858908E+04 0.  0.
        1    1    3    3  502    0  0.15843567760E+03 -0.97517248149E+01 -0.28546128258E+03  0.32662685737E+03  0.50400001928E-02 0.  1.
       -1    1    3    3    0  502 -0.15843567760E+03  0.97517248149E+01  0.17969595086E+04  0.18039568830E+04  0.50400001928E-02 0. -1.
</event>
<event>
 5   0  0.1228286E-04  0.1501491E+04  0.7818609E-02  0.8883462E-01
       -2   -1    0    0    0  501  0.00000000000E+00  0.00000000000E+00  0.27772555911E+03  0.27772555912E+03  0.25500000920E-02 0.  1.
        2   -1    0    0  501    0  0.00000000000E+00  0.00000000000E+00 -0.20294082673E+04  0.20294082673E+04  0.25500000920E-02 0. -1.
    10030    2    1    2    0    0  0.00000000000E+00  0.00000000000E+00 -0.17516827081E+04  0.23071338264E+04  0.15014906536E+04 0.  0.
        2    1    3    3  502    0  0.36207203204E+03  0.56658075380E+03 -0.13889441848E+04  0.15431383137E+04  0.25500000920E-02 0. -1.
       -2    1    3    3    0  502 -0.36207203204E+03 -0.56658075380E+03 -0.36273852339E+03  0.76399551263E+03  0.25500000920E-02 0.  1.
</event>
<event>
 5   0  0.6542036E-05  0.1501913E+04  0.7818609E-02  0.8883182E-01
       -1   -1    0    0    0  501  0.00000000000E+00  0.00000000000E+00  0.13066341829E+04  0.13066341829E+04  0.50400001928E-02 0.  1.
        1   -1    0    0  501    0  0.00000000000E+00  0.00000000000E+00 -0.43159387908E+03  0.43159387911E+03  0.50400001928E-02 0. -1.
    10030    2    1    2    0    0  0.00000000000E+00  0.00000000000E+00  0.87504030378E+03  0.17382280620E+04  0.15019125348E+04 0.  0.
        4    1    3    3  502    0  0.68998148478E+03  0.22612184380E+03  0.21572005539E+03  0.75745778284E+03  0.12699999809E+01 0. -1.
       -4    1    3    3    0  502 -0.68998148478E+03 -0.22612184380E+03  0.65932024840E+03  0.98077027913E+03  0.12699999809E+01 0.  1.
</event>
<event>
 5   0  0.1216921E-04  0.1501181E+04  0.7818609E-02  0.8883668E-01
        2   -1    0    0  501    0  0.00000000000E+00  0.00000000000E+00  0.71092918486E+03  0.71092918486E+03  0.25500000920E-02 0. -1.
       -2   -1    0    0    0  501  0.00000000000E+00  0.00000000000E+00 -0.79246441283E+03  0.79246441283E+03  0.25500000920E-02 0.  1.
    10030    2    1    2    0    0  0.00000000000E+00  0.00000000000E+00 -0.81535227971E+02  0.15033935977E+04  0.15011809738E+04 0.  0.
        4    1    3    3  502    0 -0.48926697267E+03  0.21257679449E+02  0.52888568915E+03  0.72080215355E+03  0.12699999809E+01 0. -1.
       -4    1    3    3    0  502  0.48926697267E+03 -0.21257679449E+02 -0.61042091712E+03  0.78259144414E+03  0.12699999809E+01 0.  1.
</event>
<event>
 5   0  0.6361716E-05  0.1499554E+04  0.7818609E-02  0.8884750E-01
        1   -1    0    0  501    0  0.00000000000E+00  0.00000000000E+00  0.56720103179E+03  0.56720103182E+03  0.50400001928E-02 0.  1.
       -1   -1    0    0    0  501  0.00000000000E+00  0.00000000000E+00 -0.99112206088E+03  0.99112206089E+03  0.50400001928E-02 0. -1.
    10030    2    1    2    0    0  0.00000000000E+00  0.00000000000E+00 -0.42392102908E+03  0.15583230927E+04  0.14995538744E+04 0.  0.
        3    1    3    3  502    0  0.42678613589E+03  0.59235569482E+03 -0.38933607468E+03  0.82741420355E+03  0.10100000352E+00 0.  1.
       -3    1    3    3    0  502 -0.42678613589E+03 -0.59235569482E+03 -0.34584954400E+02  0.73090888916E+03  0.10100000352E+00 0. -1.
</event>
<event>
 5   0  0.1254487E-04  0.1497657E+04  0.7818609E-02  0.8886012E-01
       -2   -1    0    0    0  501  0.00000000000E+00  0.00000000000E+00  0.73247471134E+03  0.73247471134E+03  0.25500000920E-02 0. -1.
        2   -1    0    0  501    0  0.00000000000E+00  0.00000000000E+00 -0.76554760225E+03  0.76554760225E+03  0.25500000920E-02 0.  1.
    10030    2    1    2    0    0  0.00000000000E+00  0.00000000000E+00 -0.33072890913E+02  0.14980223136E+04  0.14976571824E+04 0.  0.
        5    1    3    3  502    0 -0.10446359640E+03 -0.72710834192E+03 -0.16190936594E+03  0.75222065688E+03  0.46999998093E+01 0. -1.
       -5    1    3    3    0  502  0.10446359640E+03  0.72710834192E+03  0.12883647502E+03  0.74580165671E+03  0.46999998093E+01 0.  1.
</event>
<event>
 5   0  0.1254487E-04  0.1498826E+04  0.7818609E-02  0.8885234E-01
        2   -1    0    0  501    0  0.00000000000E+00  0.00000000000E+00  0.99401879960E+03  0.99401879960E+03  0.25500000920E-02 0. -1.
       -2   -1    0    0    0  501  0.00000000000E+00  0.00000000000E+00 -0.56499929467E+03  0.56499929468E+03  0.25500000920E-02 0.  1.
    10030    2    1    2    0    0  0.00000000000E+00  0.00000000000E+00  0.42901950493E+03  0.15590180943E+04  0.14988261015E+04 0.  0.
        5    1    3    3  502    0  0.39882641008E+03 -0.51685988312E+03  0.59724204366E+03  0.88483150535E+03  0.46999998093E+01 0. -1.
       -5    1    3    3    0  502 -0.39882641008E+03  0.51685988312E+03 -0.16822253873E+03  0.67418658893E+03  0.46999998093E+01 0.  1.
</event>
<event>
 5   0  0.1219810E-04  0.1495884E+04  0.7818609E-02  0.8887195E-01
       -2   -1    0    0    0  501  0.00000000000E+00  0.00000000000E+00  0.66194781158E+03  0.66194781159E+03  0.25500000920E-02 0. -1.
        2   -1    0    0  501    0  0.00000000000E+00  0.00000000000E+00 -0.84510735894E+03  0.84510735894E+03  0.25500000920E-02 0.  1.
    10030    2    1    2    0    0  0.00000000000E+00  0.00000000000E+00 -0.18315954736E+03  0.15070551705E+04  0.14958836409E+04 0.  0.
        1    1    3    3  502    0 -0.54027015553E+03  0.17768491980E+03  0.39779803269E+03  0.69405118437E+03  0.50400001928E-02 0. -1.
       -1    1    3    3    0  502  0.54027015553E+03 -0.17768491980E+03 -0.58095758005E+03  0.81300398617E+03  0.50400001928E-02 0.  1.
</event>
<event>
 5   0  0.6542036E-05  0.1503493E+04  0.7818609E-02  0.8882134E-01
        1   -1    0    0  501    0  0.00000000000E+00  0.00000000000E+00  0.59763888663E+03  0.59763888666E+03  0.50400001928E-02 0. -1.
       -1   -1    0    0    0  501  0.00000000000E+00  0.00000000000E+00 -0.94559197410E+03  0.94559197411E+03  0.50400001928E-02 0.  1.
    10030    2    1    2    0    0  0.00000000000E+00  0.00000000000E+00 -0.34795308746E+03  0.15432308608E+04  0.15034926467E+04 0.  0.
        4    1    3    3  502    0  0.62431345682E+03 -0.20348006036E+03  0.20168793377E+03  0.68691415974E+03  0.12699999809E+01 0. -1.
       -4    1    3    3    0  502 -0.62431345682E+03  0.20348006036E+03 -0.54964102123E+03  0.85631670102E+03  0.12699999809E+01 0.  1.
</event>
<event>
 5   0  0.6361716E-05  0.1509556E+04  0.7818609E-02  0.8878123E-01
       -1   -1    0    0    0  501  0.00000000000E+00  0.00000000000E+00  0.76438055259E+03  0.76438055261E+03  0.50400001928E-02 0. -1.
        1   -1    0    0  501    0  0.00000000000E+00  0.00000000000E+00 -0.74529573410E+03  0.74529573412E+03  0.50400001928E-02 0.  1.
    10030    2    1    2    0    0  0.00000000000E+00  0.00000000000E+00  0.19084818488E+02  0.15096762867E+04  0.15095556500E+04 0.  0.
        3    1    3    3  502    0  0.41256569473E+03 -0.58549347492E+03  0.24762968792E+03  0.75784796245E+03  0.10100000352E+00 0.  1.
       -3    1    3    3    0  502 -0.41256569473E+03  0.58549347492E+03 -0.22854486943E+03  0.75182832428E+03  0.10100000352E+00 0. -1.
</event>
<event>
 5   0  0.6361716E-05  0.1494312E+04  0.7818609E-02  0.8888244E-01
       -1   -1    0    0    0  501  0.00000000000E+00  0.00000000000E+00  0.48768819216E+03  0.48768819218E+03  0.50400001928E-02 0.  1.
        1   -1    0    0  501    0  0.00000000000E+00  0.00000000000E+00 -0.11446695333E+04  0.11446695333E+04  0.50400001928E-02 0. -1.
    10030    2    1    2    0    0  0.00000000000E+00  0.00000000000E+00 -0.65698134117E+03  0.16323577255E+04  0.14943116346E+04 0.  0.
        3    1    3    3  502    0 -0.90534246693E+02 -0.71973857683E+03 -0.52396809126E+03  0.89485341797E+03  0.10100000352E+00 0. -1.
       -3    1    3    3    0  502  0.90534246693E+02  0.71973857683E+03 -0.13301324991E+03  0.73750430755E+03  0.10100000352E+00 0.  1.
</event>
<event>
 5   0  0.1216921E-04  0.1479056E+04  0.7818609E-02  0.8898501E-01
       -2   -1    0    0    0  501  0.00000000000E+00  0.00000000000E+00  0.36921338660E+03  0.36921338660E+03  0.25500000920E-02 0. -1.
        2   -1    0    0  501    0  0.00000000000E+00  0.00000000000E+00 -0.14812620975E+04  0.14812620975E+04  0.25500000920E-02 0.  1.
    10030    2    1    2    0    0  0.00000000000E+00  0.00000000000E+00 -0.11120487109E+04  0.18504754841E+04  0.14790561794E+04 0.  0.
        4    1    3    3  502    0  0.95484415025E+02 -0.66342796670E+02 -0.14697538776E+04  0.14743461987E+04  0.12699999809E+01 0.  1.
       -4    1    3    3    0  502 -0.95484415025E+02  0.66342796670E+02  0.35770516665E+03  0.37612928539E+03  0.12699999809E+01 0. -1.
</event>
<event>
 5   0  0.6364378E-05  0.1501074E+04  0.7818609E-02  0.8883739E-01
       -1   -1    0    0    0  501  0.00000000000E+00  0.00000000000E+00  0.75218877192E+03  0.75218877194E+03  0.50400001928E-02 0. -1.
        1   -1    0    0  501    0  0.00000000000E+00  0.00000000000E+00 -0.74888904905E+03  0.74888904907E+03  0.50400001928E-02 0.  1.
    10030    2    1    2    0    0  0.00000000000E+00  0.00000000000E+00  0.32997228684E+01  0.15010778210E+04  0.15010741942E+04 0.  0.
        5    1    3    3  502    0  0.46511807143E+02 -0.51751268978E+01  0.75071356056E+03  0.75218552907E+03  0.46999998093E+01 0. -1.
       -5    1    3    3    0  502 -0.46511807143E+02  0.51751268978E+01 -0.74741383769E+03  0.74889229193E+03  0.46999998093E+01 0.  1.
</event>
<event>
 5   0  0.6542036E-05  0.1495181E+04  0.7818609E-02  0.8887664E-01
       -1   -1    0    0    0  501  0.00000000000E+00  0.00000000000E+00  0.25586214795E+03  0.25586214800E+03  0.50400001928E-02 0. -1.
        1   -1    0    0  501    0  0.00000000000E+00  0.00000000000E+00 -0.21843472089E+04  0.21843472090E+04  0.50400001928E-02 0.  1.
    10030    2    1    2    0    0  0.00000000000E+00  0.00000000000E+00 -0.19284850610E+04  0.24402093569E+04  0.14951812851E+04 0.  0.
        4    1    3    3  502    0 -0.30870011414E+03  0.59845234407E+03 -0.43426817643E+03  0.80126863819E+03  0.12699999809E+01 0. -1.
       -4    1    3    3    0  502  0.30870011414E+03 -0.59845234407E+03 -0.14942168846E+04  0.16389407188E+04  0.12699999809E+01 0.  1.
</event>
<event>
 5   0  0.6509279E-05  0.1500837E+04  0.7818609E-02  0.8883897E-01
       -1   -1    0    0    0  501  0.00000000000E+00  0.00000000000E+00  0.62483269155E+03  0.62483269157E+03  0.50400001928E-02 0.  1.
        1   -1    0    0  501    0  0.00000000000E+00  0.00000000000E+00 -0.90124582251E+03  0.90124582253E+03  0.50400001928E-02 0. -1.
    10030    2    1    2    0    0  0.00000000000E+00  0.00000000000E+00 -0.27641313097E+03  0.15260785141E+04  0.15008369039E+04 0.  0.
        2    1    3    3  502    0 -0.35955212771E+03 -0.13650683882E+03  0.51700328780E+03  0.64436344495E+03  0.25500000920E-02 0.  1.
       -2    1    3    3    0  502  0.35955212771E+03  0.13650683882E+03 -0.79341641877E+03  0.88171506915E+03  0.25500000920E-02 0. -1.
</event>
<event>
 5   0  0.1186664E-04  0.1501830E+04  0.7818609E-02  0.8883237E-01
        2   -1    0    0  501    0  0.00000000000E+00  0.00000000000E+00  0.92477844237E+03  0.92477844238E+03  0.25500000920E-02 0.  1.
       -2   -1    0    0    0  501  0.00000000000E+00  0.00000000000E+00 -0.60973892525E+03  0.60973892526E+03  0.25500000920E-02 0. -1.
    10030    2    1    2    0    0  0.00000000000E+00  0.00000000000E+00  0.31503951712E+03  0.15345173676E+04  0.15018301017E+04 0.  0.
        3    1    3    3  502    0  0.65785803312E+03  0.25071677503E+03  0.42442798128E+03  0.82205548141E+03  0.10100000352E+00 0.  1.
       -3    1    3    3    0  502 -0.65785803312E+03 -0.25071677503E+03 -0.10938846416E+03  0.71246188622E+03  0.10100000352E+00 0. -1.
</event>
<event>
 5   0  0.1216921E-04  0.1498929E+04  0.7818609E-02  0.8885165E-01
       -2   -1    0    0    0  501  0.00000000000E+00  0.00000000000E+00  0.14433072818E+04  0.14433072818E+04  0.25500000920E-02 0. -1.
        2   -1    0    0  501    0  0.00000000000E+00  0.00000000000E+00 -0.38917379554E+03  0.38917379555E+03  0.25500000920E-02 0.  1.
    10030    2    1    2    0    0  0.00000000000E+00  0.00000000000E+00  0.10541334862E+04  0.18324810773E+04  0.14989294486E+04 0.  0.
        4    1    3    3  502    0 -0.24930093201E+03 -0.54429857028E+03 -0.24133967199E+02  0.59916270710E+03  0.12699999809E+01 0.  1.
       -4    1    3    3    0  502  0.24930093201E+03  0.54429857028E+03  0.10782674534E+04  0.12333183702E+04  0.12699999809E+01 0. -1.
</event>
<event>
 5   0  0.1186664E-04  0.1480286E+04  0.7818609E-02  0.8897669E-01
        2   -1    0    0  501    0  0.00000000000E+00  0.00000000000E+00  0.96910073362E+03  0.96910073362E+03  0.25500000920E-02 0.  1.
       -2   -1    0    0    0  501  0.00000000000E+00  0.00000000000E+00 -0.56527835973E+03  0.56527835974E+03  0.25500000920E-02 0. -1.
    10030    2    1    2    0    0  0.00000000000E+00  0.00000000000E+00  0.40382237389E+03  0.15343790934E+04  0.14802860171E+04 0.  0.
        3    1    3    3  502    0 -0.13545974188E+03  0.35733801870E+03  0.85892847050E+03  0.94010527545E+03  0.10100000352E+00 0.  1.
       -3    1    3    3    0  502  0.13545974188E+03 -0.35733801870E+03 -0.45510609662E+03  0.59427381791E+03  0.10100000352E+00 0. -1.
</event>
<event>
 5   0  0.1186664E-04  0.1501130E+04  0.7818609E-02  0.8883702E-01
        2   -1    0    0  501    0  0.00000000000E+00  0.00000000000E+00  0.14523371199E+04  0.14523371199E+04  0.25500000920E-02 0.  1.
       -2   -1    0    0    0  501  0.00000000000E+00  0.00000000000E+00 -0.38789037340E+03  0.38789037341E+03  0.25500000920E-02 0. -1.
    10030    2    1    2    0    0  0.00000000000E+00  0.00000000000E+00  0.10644467465E+04  0.18402274933E+04  0.15011296916E+04 0.  0.
        3    1    3    3  502    0 -0.29119930847E+03  0.65733226042E+03  0.79647369294E+03  0.10729646274E+04  0.10100000352E+00 0.  1.
       -3    1    3    3    0  502  0.29119930847E+03 -0.65733226042E+03  0.26797305358E+03  0.76726286596E+03  0.10100000352E+00 0. -1.
</event>
<event>
 5   0  0.6364378E-05  0.1501672E+04  0.7818609E-02  0.8883342E-01
        1   -1    0    0  501    0  0.00000000000E+00  0.00000000000E+00  0.14044611407E+04  0.14044611407E+04  0.50400001928E-02 0. -1.
       -1   -1    0    0    0  501  0.00000000000E+00  0.00000000000E+00 -0.40140294045E+03  0.40140294048E+03  0.50400001928E-02 0.  1.
    10030    2    1    2    0    0  0.00000000000E+00  0.00000000000E+00  0.10030582002E+04  0.18058640811E+04  0.15016721768E+04 0.  0.
        5    1    3    3  502    0  0.49791364887E+03 -0.48895245810E+03  0.16839316343E+03  0.71789334549E+03  0.46999998093E+01 0.  1.
       -5    1    3    3    0  502 -0.49791364887E+03  0.48895245810E+03  0.83466503678E+03  0.10879707357E+04  0.46999998093E+01 0. -1.
</event>
<event>
 5   0  0.6542036E-05  0.1512906E+04  0.7818609E-02  0.8875915E-01
        1   -1    0    0  501    0  0.00000000000E+00  0.00000000000E+00  0.10545930960E+04  0.10545930960E+04  0.50400001928E-02 0.  1.
       -1   -1    0    0    0  501  0.00000000000E+00  0.00000000000E+00 -0.54259924210E+03  0.54259924213E+03  0.50400001928E-02 0. -1.
    10030    2    1    2    0    0  0.00000000000E+00  0.00000000000E+00  0.51199385392E+03  0.15971923382E+04  0.15129063615E+04 0.  0.
        4    1    3    3  502    0  0.23106148747E+03  0.10573939661E+02 -0.50434873484E+03  0.55486077391E+03  0.12699999809E+01 0. -1.
       -4    1    3    3    0  502 -0.23106148747E+03 -0.10573939661E+02  0.10163425888E+04  0.10423315642E+04  0.12699999809E+01 0.  1.
</event>
<event>
 5   0  0.6364378E-05  0.1497955E+04  0.7818609E-02  0.8885814E-01
       -1   -1    0    0    0  501  0.00000000000E+00  0.00000000000E+00  0.23389917571E+03  0.23389917577E+03  0.50400001928E-02 0.  1.
        1   -1    0    0  501    0  0.00000000000E+00  0.00000000000E+00 -0.23983303960E+04  0.23983303960E+04  0.50400001928E-02 0. -1.
    10030    2    1    2    0    0  0.00000000000E+00  0.00000000000E+00 -0.21644312203E+04  0.26322295718E+04  0.14979552768E+04 0.  0.
        5    1    3    3  502    0 -0.31557826899E+03  0.50236898140E+03 -0.18855169670E+04  0.19766538797E+04  0.46999998093E+01 0. -1.
       -5    1    3    3    0  502  0.31557826899E+03 -0.50236898140E+03 -0.27891425327E+03  0.65557569205E+03  0.46999998093E+01 0.  1.
</event>
<event>
 5   0  0.6361716E-05  0.1494408E+04  0.7818609E-02  0.8888180E-01
        1   -1    0    0  501    0  0.00000000000E+00  0.00000000000E+00  0.93814898176E+03  0.93814898177E+03  0.50400001928E-02 0. -1.
       -1   -1    0    0    0  501  0.00000000000E+00  0.00000000000E+00 -0.59512265445E+03  0.59512265447E+03  0.50400001928E-02 0.  1.
    10030    2    1    2    0    0  0.00000000000E+00  0.00000000000E+00  0.34302632731E+03  0.15332716362E+04  0.14944078591E+04 0.  0.
        3    1    3    3  502    0 -0.26452220970E+03  0.73590257927E+02 -0.54148815371E+03  0.60712186281E+03  0.10100000352E+00 0.  1.
       -3    1    3    3    0  502  0.26452220970E+03 -0.73590257927E+02  0.88451448102E+03  0.92614977343E+03  0.10100000352E+00 0. -1.
</event>
<event>
 5   0  0.1216921E-04  0.1499229E+04  0.7818609E-02  0.8884966E-01
        2   -1    0    0  501    0  0.00000000000E+00  0.00000000000E+00  0.13556148981E+04  0.13556148981E+04  0.25500000920E-02 0. -1.
       -2   -1    0    0    0  501  0.00000000000E+00  0.00000000000E+00 -0.41451463891E+03  0.41451463891E+03  0.25500000920E-02 0.  1.
    10030    2    1    2    0    0  0.00000000000E+00  0.00000000000E+00  0.94110025924E+03  0.17701295371E+04  0.14992294288E+04 0.  0.
        4    1    3    3  502    0 -0.25761547550E+03  0.29108110120E+03 -0.28622397552E+03  0.48272115942E+03  0.12699999809E+01 0.  1.
       -4    1    3    3    0  502  0.25761547550E+03 -0.29108110120E+03  0.12273242348E+04  0.12874083776E+04  0.12699999809E+01 0. -1.
</event>
<event>
 5   0  0.1219810E-04  0.1496086E+04  0.7818609E-02  0.8887060E-01
       -2   -1    0    0    0  501  0.00000000000E+00  0.00000000000E+00  0.47518748478E+03  0.47518748478E+03  0.25500000920E-02 0.  1.
        2   -1    0    0  501    0  0.00000000000E+00  0.00000000000E+00 -0.11775730479E+04  0.11775730479E+04  0.25500000920E-02 0. -1.
    10030    2    1    2    0    0  0.00000000000E+00  0.00000000000E+00 -0.70238556315E+03  0.16527605327E+04  0.14960855254E+04 0.  0.
        1    1    3    3  502    0 -0.60767771253E+02 -0.57617530338E+03 -0.87392336955E+03  0.10485288542E+04  0.50400001928E-02 0. -1.
       -1    1    3    3    0  502  0.60767771253E+02  0.57617530338E+03  0.17153780640E+03  0.60423167850E+03  0.50400001928E-02 0.  1.
</event>
<event>
 5   0  0.1228286E-04  0.1501343E+04  0.7818609E-02  0.8883560E-01
        2   -1    0    0  501    0  0.00000000000E+00  0.00000000000E+00  0.14921179190E+04  0.14921179190E+04  0.25500000920E-02 0.  1.
       -2   -1    0    0    0  501  0.00000000000E+00  0.00000000000E+00 -0.37765633695E+03  0.37765633696E+03  0.25500000920E-02 0. -1.
    10030    2    1    2    0    0  0.00000000000E+00  0.00000000000E+00  0.11144615821E+04  0.18697742560E+04  0.15013431155E+04 0.  0.
        2    1    3    3  502    0  0.14925976898E+03 -0.73554331864E+03  0.53938478263E+03  0.92425018040E+03  0.25500000920E-02 0. -1.
       -2    1    3    3    0  502 -0.14925976898E+03  0.73554331864E+03  0.57507679944E+03  0.94552407557E+03  0.25500000920E-02 0.  1.
</event>
<event>
 5   0  0.6361716E-05  0.1496873E+04  0.7818609E-02  0.8886535E-01
        1   -1    0    0  501    0  0.00000000000E+00  0.00000000000E+00  0.19361831535E+04  0.19361831535E+04  0.50400001928E-02 0.  1.
       -1   -1    0    0    0  501  0.00000000000E+00  0.00000000000E+00 -0.28931008797E+03  0.28931008801E+03  0.50400001928E-02 0. -1.
    10030    2    1    2    0    0  0.00000000000E+00  0.00000000000E+00  0.16468730655E+04  0.22254932415E+04  0.14968731656E+04 0.  0.
        3    1    3    3  502    0 -0.12851446073E+03  0.10710127170E+02 -0.27266728991E+03  0.30162581890E+03  0.10100000352E+00 0. -1.
       -3    1    3    3    0  502  0.12851446073E+03 -0.10710127170E+02  0.19195403554E+04  0.19238674226E+04  0.10100000352E+00 0.  1.
</event>
<event>
 5   0  0.1186664E-04  0.1494959E+04  0.7818609E-02  0.8887812E-01
        2   -1    0    0  501    0  0.00000000000E+00  0.00000000000E+00  0.14995149268E+04  0.14995149268E+04  0.25500000920E-02 0. -1.
       -2   -1    0    0    0  501  0.00000000000E+00  0.00000000000E+00 -0.37260415020E+03  0.37260415021E+03  0.25500000920E-02 0.  1.
    10030    2    1    2    0    0  0.00000000000E+00  0.00000000000E+00  0.11269107766E+04  0.18721190770E+04  0.14949588423E+04 0.  0.
        3    1    3    3  502    0 -0.37890536639E+03 -0.61066934211E+03  0.82082770486E+03  0.10909832507E+04  0.10100000352E+00 0. -1.
       -3    1    3    3    0  502  0.37890536639E+03  0.61066934211E+03  0.30608307170E+03  0.78113582626E+03  0.10100000352E+00 0.  1.
</event>
<event>
 5   0  0.1254487E-04  0.1503872E+04  0.7818609E-02  0.8881882E-01
        2   -1    0    0  501    0  0.00000000000E+00  0.00000000000E+00  0.43732113746E+03  0.43732113747E+03  0.25500000920E-02 0.  1.
       -2   -1    0    0    0  501  0.00000000000E+00  0.00000000000E+00 -0.12928896278E+04  0.12928896278E+04  0.25500000920E-02 0. -1.
    10030    2    1    2    0    0  0.00000000000E+00  0.00000000000E+00 -0.85556849032E+03  0.17302107652E+04  0.15038722853E+04 0.  0.
        5    1    3    3  502    0 -0.70068627299E+03 -0.66645651924E+02 -0.73214192106E+03  0.10156066062E+04  0.46999998093E+01 0. -1.
       -5    1    3    3    0  502  0.70068627299E+03  0.66645651924E+02 -0.12342656926E+03  0.71460415901E+03  0.46999998093E+01 0.  1.
</event>
<event>
 5   0  0.1219810E-04  0.1499475E+04  0.7818609E-02  0.8884802E-01
       -2   -1    0    0    0  501  0.00000000000E+00  0.00000000000E+00  0.45677967133E+03  0.45677967134E+03  0.25500000920E-02 0. -1.
        2   -1    0    0  501    0  0.00000000000E+00  0.00000000000E+00 -0.12305858566E+04  0.12305858566E+04  0.25500000920E-02 0.  1.
    10030    2    1    2    0    0  0.00000000000E+00  0.00000000000E+00 -0.77380618531E+03  0.16873655280E+04  0.14994753791E+04 0.  0.
        1    1    3    3  502    0 -0.52649760496E+03 -0.35972198199E+03 -0.83065962996E+03  0.10471843454E+04  0.50400001928E-02 0.  1.
       -1    1    3    3    0  502  0.52649760496E+03  0.35972198199E+03  0.56853444653E+02  0.64018118259E+03  0.50400001928E-02 0. -1.
</event>
<event>
 5   0  0.6361716E-05  0.1499609E+04  0.7818609E-02  0.8884713E-01
       -1   -1    0    0    0  501  0.00000000000E+00  0.00000000000E+00  0.79796187647E+03  0.79796187648E+03  0.50400001928E-02 0. -1.
        1   -1    0    0  501    0  0.00000000000E+00  0.00000000000E+00 -0.70455388325E+03  0.70455388327E+03  0.50400001928E-02 0.  1.
    10030    2    1    2    0    0  0.00000000000E+00  0.00000000000E+00  0.93407993219E+02  0.15025157597E+04  0.14996094675E+04 0.  0.
        3    1    3    3  502    0  0.70285441403E+03 -0.10034100486E+03  0.28828221460E+03  0.76627624917E+03  0.10100000352E+00 0. -1.
       -3    1    3    3    0  502 -0.70285441403E+03  0.10034100486E+03 -0.19487422138E+03  0.73623951058E+03  0.10100000352E+00 0.  1.
</event>
<event>
 5   0  0.6542036E-05  0.1499354E+04  0.7818609E-02  0.8884882E-01
       -1   -1    0    0    0  501  0.00000000000E+00  0.00000000000E+00  0.93296100518E+03  0.93296100520E+03  0.50400001928E-02 0.  1.
        1   -1    0    0  501    0  0.00000000000E+00  0.00000000000E+00 -0.60240007708E+03  0.60240007710E+03  0.50400001928E-02 0. -1.
    10030    2    1    2    0    0  0.00000000000E+00  0.00000000000E+00  0.33056092810E+03  0.15353610823E+04  0.14993542363E+04 0.  0.
        4    1    3    3  502    0  0.70049458555E+02 -0.70542293582E+03  0.41503457834E+03  0.82145222572E+03  0.12699999809E+01 0.  1.
       -4    1    3    3    0  502 -0.70049458555E+02  0.70542293582E+03 -0.84473650236E+02  0.71390885658E+03  0.12699999809E+01 0. -1.
</event>
<event>
 5   0  0.6361716E-05  0.1500803E+04  0.7818609E-02  0.8883919E-01
        1   -1    0    0  501    0  0.00000000000E+00  0.00000000000E+00  0.41845572540E+03  0.41845572543E+03  0.50400001928E-02 0. -1.
       -1   -1    0    0    0  501  0.00000000000E+00  0.00000000000E+00 -0.13456670040E+04  0.13456670040E+04  0.50400001928E-02 0.  1.
    10030    2    1    2    0    0  0.00000000000E+00  0.00000000000E+00 -0.92721127855E+03  0.17641227294E+04  0.15008025351E+04 0.  0.
        3    1    3    3  502    0 -0.37486511842E+03  0.52306177521E+03 -0.98982073046E+01  0.64359572901E+03  0.10100000352E+00 0. -1.
       -3    1    3    3    0  502  0.37486511842E+03 -0.52306177521E+03 -0.91731307125E+03  0.11205270004E+04  0.10100000352E+00 0.  1.
</event>
<event>
 5   0  0.1219810E-04  0.1499099E+04  0.7818609E-02  0.8885052E-01
        2   -1    0    0  501    0  0.00000000000E+00  0.00000000000E+00  0.24252621770E+04  0.24252621770E+04  0.25500000920E-02 0. -1.
       -2   -1    0    0    0  501  0.00000000000E+00  0.00000000000E+00 -0.23165515793E+03  0.23165515795E+03  0.25500000920E-02 0.  1.
    10030    2    1    2    0    0  0.00000000000E+00  0.00000000000E+00  0.21936070190E+04  0.26569173349E+04  0.14990990530E+04 0.  0.
        1    1    3    3  502    0  0.73844065265E+02 -0.14047448619E+03  0.23951440319E+04  0.24003960008E+04  0.50400001928E-02 0. -1.
       -1    1    3    3    0  502 -0.73844065265E+02  0.14047448619E+03 -0.20153701288E+03  0.25652133407E+03  0.50400001928E-02 0.  1.
</event>
<event>
 5   0  0.1254487E-04  0.1500440E+04  0.7818609E-02  0.8884160E-01
       -2   -1    0    0    0  501  0.00000000000E+00  0.00000000000E+00  0.30058433943E+03  0.30058433944E+03  0.25500000920E-02 0.  1.
        2   -1    0    0  501    0  0.00000000000E+00  0.00000000000E+00 -0.18724525775E+04  0.18724525775E+04  0.25500000920E-02 0. -1.
    10030    2    1    2    0    0  0.00000000000E+00  0.00000000000E+00 -0.15718682380E+04  0.21730369169E+04  0.15004398304E+04 0.  0.
        5    1    3    3  502    0  0.25786963532E+03  0.35902630628E+03 -0.16637930097E+04  0.17215184886E+04  0.46999998093E+01 0. -1.
       -5    1    3    3    0  502 -0.25786963532E+03 -0.35902630628E+03  0.91924771714E+02  0.45151842828E+03  0.46999998093E+01 0.  1.
</event>
<event>
 5   0  0.1228286E-04  0.1500006E+04  0.7818609E-02  0.8884449E-01
       -2   -1    0    0    0  501  0.00000000000E+00  0.00000000000E+00  0.95797806553E+03  0.95797806553E+03  0.25500000920E-02 0. -1.
        2   -1    0    0  501    0  0.00000000000E+00  0.00000000000E+00 -0.58717859962E+03  0.58717859963E+03  0.25500000920E-02 0.  1.
    10030    2    1    2    0    0  0.00000000000E+00  0.00000000000E+00  0.37079946591E+03  0.15451566652E+04  0.15000056253E+04 0.  0.
        2    1    3    3  502    0  0.52916217490E+03 -0.51874292015E+03  0.66168563492E+02  0.74396579448E+03  0.25500000920E-02 0.  1.
       -2    1    3    3    0  502 -0.52916217490E+03  0.51874292015E+03  0.30463090241E+03  0.80119087068E+03  0.25500000920E-02 0. -1.
</event>
<event>
 5   0  0.1186664E-04  0.1501169E+04  0.7818609E-02  0.8883676E-01
       -2   -1    0    0    0  501  0.00000000000E+00  0.00000000000E+00  0.55193844536E+03  0.55193844537E+03  0.25500000920E-02 0.  1.
        2   -1    0    0  501    0  0.00000000000E+00  0.00000000000E+00 -0.10207240310E+04  0.10207240310E+04  0.25500000920E-02 0. -1.
    10030    2    1    2    0    0  0.00000000000E+00  0.00000000000E+00 -0.46878558568E+03  0.15726624764E+04  0.15011686579E+04 0.  0.
        3    1    3    3  502    0 -0.46793926207E+02  0.40848711245E+03 -0.89225271633E+03  0.98242878244E+03  0.10100000352E+00 0. -1.
       -3    1    3    3    0  502  0.46793926207E+02 -0.40848711245E+03  0.42346713065E+03  0.59023369398E+03  0.10100000352E+00 0.  1.
</event>
<event>
 5   0  0.1228286E-04  0.1501581E+04  0.7818609E-02  0.8883402E-01
        2   -1    0    0  501    0  0.00000000000E+00  0.00000000000E+00  0.92041290634E+03  0.92041290635E+03  0.25500000920E-02 0.  1.
       -2   -1    0    0    0  501  0.00000000000E+00  0.00000000000E+00 -0.61242747181E+03  0.61242747181E+03  0.25500000920E-02 0. -1.
    10030    2    1    2    0    0  0.00000000000E+00  0.00000000000E+00  0.30798543454E+03  0.15328403782E+04  0.15015806995E+04 0.  0.
        2    1    3    3  502    0  0.45503978029E+03 -0.52944636310E+03  0.43598890614E+03  0.82308017795E+03  0.25500000920E-02 0.  1.
       -2    1    3    3    0  502 -0.45503978029E+03  0.52944636310E+03 -0.12800347161E+03  0.70976020021E+03  0.25500000920E-02 0. -1.
</event>
<event>
 5   0  0.1186664E-04  0.1501271E+04  0.7818609E-02  0.8883608E-01
       -2   -1    0    0    0  501  0.00000000000E+00  0.00000000000E+00  0.24990608296E+03  0.24990608297E+03  0.25500000920E-02 0.  1.
        2   -1    0    0  501    0  0.00000000000E+00  0.00000000000E+00 -0.22546607466E+04  0.22546607466E+04  0.25500000920E-02 0. -1.
    10030    2    1    2    0    0  0.00000000000E+00  0.00000000000E+00 -0.20047546636E+04  0.25045668296E+04  0.15012707092E+04 0.  0.
        3    1    3    3  502    0 -0.72866761367E+03 -0.17947870266E+03 -0.10305082918E+04  0.12748005513E+04  0.10100000352E+00 0. -1.
       -3    1    3    3    0  502  0.72866761367E+03  0.17947870266E+03 -0.97424637182E+03  0.12297662783E+04  0.10100000352E+00 0.  1.
</event>
<event>
 5   0  0.1186664E-04  0.1501102E+04  0.7818609E-02  0.8883720E-01
       -2   -1    0    0    0  501  0.00000000000E+00  0.00000000000E+00  0.21190966241E+04  0.21190966241E+04  0.25500000920E-02 0.  1.
        2   -1    0    0  501    0  0.00000000000E+00  0.00000000000E+00 -0.26583356367E+03  0.26583356368E+03  0.25500000920E-02 0. -1.
    10030    2    1    2    0    0  0.00000000000E+00  0.00000000000E+00  0.18532630605E+04  0.23849301878E+04  0.15011022715E+04 0.  0.
        3    1    3    3  502    0 -0.37735861978E+03  0.36980531448E+03  0.17735773863E+04  0.18506032136E+04  0.10100000352E+00 0.  1.
       -3    1    3    3    0  502  0.37735861978E+03 -0.36980531448E+03  0.79685674119E+02  0.53432697425E+03  0.10100000352E+00 0. -1.
</event>
<event>
 5   0  0.1216921E-04  0.1498323E+04  0.7818609E-02  0.8885569E-01
       -2   -1    0    0    0  501  0.00000000000E+00  0.00000000000E+00  0.60957123443E+03  0.60957123443E+03  0.25500000920E-02 0.  1.
        2   -1    0    0  501    0  0.00000000000E+00  0.00000000000E+00 -0.92071752564E+03  0.92071752565E+03  0.25500000920E-02 0. -1.
    10030    2    1    2    0    0  0.00000000000E+00  0.00000000000E+00 -0.31114629121E+03  0.15302887601E+04  0.14983229541E+04 0.  0.
        4    1    3    3  502    0 -0.72417651910E+03 -0.19074580421E+03 -0.17664615097E+03  0.76942905339E+03  0.12699999809E+01 0.  1.
       -4    1    3    3    0  502  0.72417651910E+03  0.19074580421E+03 -0.13450014024E+03  0.76085970669E+03  0.12699999809E+01 0. -1.
</event>
<event>
 5   0  0.6364378E-05  0.1500685E+04  0.7818609E-02  0.8883998E-01
        1   -1    0    0  501    0  0.00000000000E+00  0.00000000000E+00  0.62742612577E+03  0.62742612579E+03  0.50400001928E-02 0. -1.
       -1   -1    0    0    0  501  0.00000000000E+00  0.00000000000E+00 -0.89733852698E+03  0.89733852700E+03  0.50400001928E-02 0.  1.
    10030    2    1    2    0    0  0.00000000000E+00  0.00000000000E+00 -0.26991240121E+03  0.15247646528E+04  0.15006846911E+04 0.  0.
        5    1    3    3  502    0  0.41772457163E+03  0.40623713833E+03  0.34535434066E+03  0.67735820724E+03  0.46999998093E+01 0. -1.
       -5    1    3    3    0  502 -0.41772457163E+03 -0.40623713833E+03 -0.61526674187E+03  0.84740644555E+03  0.46999998093E+01 0.  1.
</event>
<event>
 5   0  0.6509279E-05  0.1495136E+04  0.7818609E-02  0.8887694E-01
        1   -1    0    0  501    0  0.00000000000E+00  0.00000000000E+00  0.50491696091E+03  0.50491696094E+03  0.50400001928E-02 0. -1.
       -1   -1    0    0    0  501  0.00000000000E+00  0.00000000000E+00 -0.11068310083E+04  0.11068310083E+04  0.50400001928E-02 0.  1.
    10030    2    1    2    0    0  0.00000000000E+00  0.00000000000E+00 -0.60191404737E+03  0.16117479692E+04  0.14951357784E+04 0.  0.
        2    1    3    3  502    0  0.14506334282E+03  0.59913734186E+03  0.15493242246E+03  0.63562015652E+03  0.25500000920E-02 0. -1.
       -2    1    3    3    0  502 -0.14506334282E+03 -0.59913734186E+03 -0.75684646983E+03  0.97612781271E+03  0.25500000920E-02 0.  1.
</event>
<event>
 5   0  0.6509279E-05  0.1483136E+04  0.7818609E-02  0.8895745E-01
        1   -1    0    0  501    0  0.00000000000E+00  0.00000000000E+00  0.13184867958E+04  0.13184867958E+04  0.50400001928E-02 0. -1.
       -1   -1    0    0    0  501  0.00000000000E+00  0.00000000000E+00 -0.41708678890E+03  0.41708678893E+03  0.50400001928E-02 0.  1.
    10030    2    1    2    0    0  0.00000000000E+00  0.00000000000E+00  0.90140000692E+03  0.17355735848E+04  0.14831364387E+04 0.  0.
        2    1    3    3  502    0 -0.39856415543E+03  0.25568593659E+03 -0.21713210995E+03  0.52093669226E+03  0.25500000920E-02 0.  1.
       -2    1    3    3    0  502  0.39856415543E+03 -0.25568593659E+03  0.11185321169E+04  0.12146368925E+04  0.25500000920E-02 0. -1.
</event>
<event>
 5   0  0.6361716E-05  0.1500580E+04  0.7818609E-02  0.8884067E-01
       -1   -1    0    0    0  501  0.00000000000E+00  0.00000000000E+00  0.60857941938E+03  0.60857941940E+03  0.50400001928E-02 0.  1.
        1   -1    0    0  501    0  0.00000000000E+00  0.00000000000E+00 -0.92499857665E+03  0.92499857666E+03  0.50400001928E-02 0. -1.
    10030    2    1    2    0    0  0.00000000000E+00  0.00000000000E+00 -0.31641915727E+03  0.15335779961E+04  0.15005800168E+04 0.  0.
        3    1    3    3  502    0 -0.37500484301E+03  0.62035445271E+03 -0.35602951281E+03  0.80760467029E+03  0.10100000352E+00 0. -1.
       -3    1    3    3    0  502  0.37500484301E+03 -0.62035445271E+03  0.39610355547E+02  0.72597332578E+03  0.10100000352E+00 0.  1.
</event>
<event>
 5   0  0.1219810E-04  0.1500818E+04  0.7818609E-02  0.8883909E-01
        2   -1    0    0  501    0  0.00000000000E+00  0.00000000000E+00  0.17599126540E+04  0.17599126540E+04  0.25500000920E-02 0. -1.
       -2   -1    0    0    0  501  0.00000000000E+00  0.00000000000E+00 -0.31996673408E+03  0.31996673409E+03  0.25500000920E-02 0.  1.
    10030    2    1    2    0    0  0.00000000000E+00  0.00000000000E+00  0.14399459199E+04  0.20798793881E+04  0.15008177827E+04 0.  0.
        1    1    3    3  502    0 -0.28710437302E+03 -0.35397955575E+03  0.15461222685E+04  0.16119009015E+04  0.50400001928E-02 0. -1.
       -1    1    3    3    0  502  0.28710437302E+03  0.35397955575E+03 -0.10617634863E+03  0.46797848661E+03  0.50400001928E-02 0.  1.
</event>
<event>
 5   0  0.6361716E-05  0.1505362E+04  0.7818609E-02  0.8880895E-01
       -1   -1    0    0    0  501  0.00000000000E+00  0.00000000000E+00  0.41075861323E+03  0.41075861326E+03  0.50400001928E-02 0. -1.
        1   -1    0    0  501    0  0.00000000000E+00  0.00000000000E+00 -0.13792246409E+04  0.13792246409E+04  0.50400001928E-02 0.  1.
    10030    2    1    2    0    0  0.00000000000E+00  0.00000000000E+00 -0.96846602766E+03  0.17899832542E+04  0.15053616188E+04 0.  0.
        3    1    3    3  502    0  0.49516740990E+03  0.38508632927E+03 -0.97887285561E+03  0.11626152943E+04  0.10100000352E+00 0.  1.
       -3    1    3    3    0  502 -0.49516740990E+03 -0.38508632927E+03  0.10406827948E+02  0.62736795988E+03  0.10100000352E+00 0. -1.
</event>
<event>
 5   0  0.1186664E-04  0.1497470E+04  0.7818609E-02  0.8886137E-01
       -2   -1    0    0    0  501  0.00000000000E+00  0.00000000000E+00  0.66109145701E+03  0.66109145702E+03  0.25500000920E-02 0. -1.
        2   -1    0    0  501    0  0.00000000000E+00  0.00000000000E+00 -0.84799822327E+03  0.84799822328E+03  0.25500000920E-02 0.  1.
    10030    2    1    2    0    0  0.00000000000E+00  0.00000000000E+00 -0.18690676626E+03  0.15090896803E+04  0.14974703750E+04 0.  0.
        3    1    3    3  502    0 -0.32618243018E+03 -0.41654940384E+03 -0.62737181273E+03  0.82067276377E+03  0.10100000352E+00 0.  1.
       -3    1    3    3    0  502  0.32618243018E+03  0.41654940384E+03  0.44046504647E+03  0.68841691652E+03  0.10100000352E+00 0. -1.
</event>
<event>
 5   0  0.6668433E-05  0.1500572E+04  0.7818609E-02  0.8884072E-01
       -1   -1    0    0    0  501  0.00000000000E+00  0.00000000000E+00  0.35465816100E+03  0.35465816103E+03  0.50400001928E-02 0.  1.
        1   -1    0    0  501    0  0.00000000000E+00  0.00000000000E+00 -0.15872446392E+04  0.15872446392E+04  0.50400001928E-02 0. -1.
    10030    2    1    2    0    0  0.00000000000E+00  0.00000000000E+00 -0.12325864782E+04  0.19419028002E+04  0.15005722439E+04 0.  0.
        1    1    3    3  502    0 -0.75002111448E+02 -0.24143734440E+03  0.29787484493E+03  0.39070030875E+03  0.50400001928E-02 0.  1.
       -1    1    3    3    0  502  0.75002111448E+02  0.24143734440E+03 -0.15304613231E+04  0.15512024915E+04  0.50400001928E-02 0. -1.
</event>
<event>
 5   0  0.1216921E-04  0.1497498E+04  0.7818609E-02  0.8886118E-01
        2   -1    0    0  501    0  0.00000000000E+00  0.00000000000E+00  0.58261430253E+03  0.58261430253E+03  0.25500000920E-02 0. -1.
       -2   -1    0    0    0  501  0.00000000000E+00  0.00000000000E+00 -0.96225827511E+03  0.96225827512E+03  0.25500000920E-02 0.  1.
    10030    2    1    2    0    0  0.00000000000E+00  0.00000000000E+00 -0.37964397258E+03  0.15448725777E+04  0.14974984926E+04 0.  0.
        4    1    3    3  502    0  0.13992767401E+02 -0.39981732873E+03  0.46310965900E+03  0.61198191399E+03  0.12699999809E+01 0. -1.
       -4    1    3    3    0  502 -0.13992767401E+02  0.39981732873E+03 -0.84275363158E+03  0.93289066366E+03  0.12699999809E+01 0.  1.
</event>
<event>
 5   0  0.1216921E-04  0.1500499E+04  0.7818609E-02  0.8884121E-01
       -2   -1    0    0    0  501  0.00000000000E+00  0.00000000000E+00  0.59532153639E+03  0.59532153639E+03  0.25500000920E-02 0.  1.
        2   -1    0    0  501    0  0.00000000000E+00  0.00000000000E+00 -0.94549575829E+03  0.94549575829E+03  0.25500000920E-02 0. -1.
    10030    2    1    2    0    0  0.00000000000E+00  0.00000000000E+00 -0.35017422190E+03  0.15408172947E+04  0.15004985671E+04 0.  0.
        4    1    3    3  502    0  0.70595736807E+03 -0.15879510240E+03 -0.37860616858E+03  0.81666145609E+03  0.12699999809E+01 0.  1.
       -4    1    3    3    0  502 -0.70595736807E+03  0.15879510240E+03  0.28431946675E+02  0.72415583860E+03  0.12699999809E+01 0. -1.
</event>
<event>
 5   0  0.6364378E-05  0.1499962E+04  0.7818609E-02  0.8884478E-01
       -1   -1    0    0    0  501  0.00000000000E+00  0.00000000000E+00  0.35245910223E+03  0.35245910227E+03  0.50400001928E-02 0. -1.
        1   -1    0    0  501    0  0.00000000000E+00  0.00000000000E+00 -0.15958480880E+04  0.15958480880E+04  0.50400001928E-02 0.  1.
    10030    2    1    2    0    0  0.00000000000E+00  0.00000000000E+00 -0.12433889857E+04  0.19483071902E+04  0.14999615787E+04 0.  0.
        5    1    3    3  502    0  0.54352386730E+03 -0.39653421282E+02 -0.12909248327E+04  0.14012493004E+04  0.46999998093E+01 0.  1.
       -5    1    3    3    0  502 -0.54352386730E+03  0.39653421282E+02  0.47535846930E+02  0.54705788989E+03  0.46999998093E+01 0. -1.
</event>
<event>
 5   0  0.6361716E-05  0.1499673E+04  0.7818609E-02  0.8884671E-01
       -1   -1    0    0    0  501  0.00000000000E+00  0.00000000000E+00  0.12630451449E+04  0.12630451450E+04  0.50400001928E-02 0.  1.
        1   -1    0    0  501    0  0.00000000000E+00  0.00000000000E+00 -0.44515792620E+03  0.44515792623E+03  0.50400001928E-02 0. -1.
    10030    2    1    2    0    0  0.00000000000E+00  0.00000000000E+00  0.81788721874E+03  0.17082030712E+04  0.14996727076E+04 0.  0.
        3    1    3    3  502    0 -0.64904285358E+03 -0.27442736886E+03  0.11700972111E+03  0.71432366026E+03  0.10100000352E+00 0. -1.
       -3    1    3    3    0  502  0.64904285358E+03  0.27442736886E+03  0.70087749763E+03  0.99387941092E+03  0.10100000352E+00 0.  1.
</event>
<event>
 5   0  0.6509279E-05  0.1497549E+04  0.7818609E-02  0.8886084E-01
       -1   -1    0    0    0  501  0.00000000000E+00  0.00000000000E+00  0.60684159044E+03  0.60684159047E+03  0.50400001928E-02 0. -1.
        1   -1    0    0  501    0  0.00000000000E+00  0.00000000000E+00 -0.92390380783E+03  0.92390380784E+03  0.50400001928E-02 0.  1.
    10030    2    1    2    0    0  0.00000000000E+00  0.00000000000E+00 -0.31706221738E+03  0.15307453983E+04  0.14975490058E+04 0.  0.
        2    1    3    3  502    0  0.40562021204E+03 -0.59156631842E+03  0.61139224705E+02  0.71987253755E+03  0.25500000920E-02 0. -1.
       -2    1    3    3    0  502 -0.40562021204E+03  0.59156631842E+03 -0.37820144209E+03  0.81087286076E+03  0.25500000920E-02 0.  1.
</event>
<event>
 5   0  0.1216921E-04  0.1525284E+04  0.7818609E-02  0.8867811E-01
       -2   -1    0    0    0  501  0.00000000000E+00  0.00000000000E+00  0.97967531716E+03  0.97967531716E+03  0.25500000920E-02 0.  1.
        2   -1    0    0  501    0  0.00000000000E+00  0.00000000000E+00 -0.59368944236E+03  0.59368944237E+03  0.25500000920E-02 0. -1.
    10030    2    1    2    0    0  0.00000000000E+00  0.00000000000E+00  0.38598587480E+03  0.15733647595E+04  0.15252840952E+04 0.  0.
        4    1    3    3  502    0 -0.61756526448E+03  0.16935315216E+03  0.62023993294E+03  0.89149679379E+03  0.12699999809E+01 0.  1.
       -4    1    3    3    0  502  0.61756526448E+03 -0.16935315216E+03 -0.23425405814E+03  0.68186796573E+03  0.12699999809E+01 0. -1.
</event>
<event>
 5   0  0.6361716E-05  0.1498910E+04  0.7818609E-02  0.8885178E-01
        1   -1    0    0  501    0  0.00000000000E+00  0.00000000000E+00  0.75817544501E+03  0.75817544502E+03  0.50400001928E-02 0.  1.
       -1   -1    0    0    0  501  0.00000000000E+00  0.00000000000E+00 -0.74083436579E+03  0.74083436581E+03  0.50400001928E-02 0. -1.
    10030    2    1    2    0    0  0.00000000000E+00  0.00000000000E+00  0.17341079213E+02  0.14990098108E+04  0.14989095036E+04 0.  0.
        3    1    3    3  502    0 -0.22348358150E+03 -0.61635156598E+02 -0.70407527482E+03  0.74125960806E+03  0.10100000352E+00 0. -1.
       -3    1    3    3    0  502  0.22348358150E+03  0.61635156598E+02  0.72141635403E+03  0.75775020277E+03  0.10100000352E+00 0.  1.
</event>
<event>
 5   0  0.1228286E-04  0.1491109E+04  0.7818609E-02  0.8890387E-01
       -2   -1    0    0    0  501  0.00000000000E+00  0.00000000000E+00  0.37675956373E+03  0.37675956374E+03  0.25500000920E-02 0. -1.
        2   -1    0    0  501    0  0.00000000000E+00  0.00000000000E+00 -0.14753479003E+04  0.14753479003E+04  0.25500000920E-02 0.  1.
    10030    2    1    2    0    0  0.00000000000E+00  0.00000000000E+00 -0.10985883366E+04  0.18521074641E+04  0.14911088911E+04 0.  0.
        2    1    3    3  502    0  0.34267495393E+03  0.50994930582E+03 -0.10738917273E+04  0.12372218315E+04  0.25500000920E-02 0.  1.
       -2    1    3    3    0  502 -0.34267495393E+03 -0.50994930582E+03 -0.24696609331E+02  0.61488563252E+03  0.25500000920E-02 0. -1.
</event>
<event>
 5   0  0.1216921E-04  0.1502843E+04  0.7818609E-02  0.8882565E-01
        2   -1    0    0  501    0  0.00000000000E+00  0.00000000000E+00  0.56780153370E+03  0.56780153371E+03  0.25500000920E-02 0.  1.
       -2   -1    0    0    0  501  0.00000000000E+00  0.00000000000E+00 -0.99442168236E+03  0.99442168236E+03  0.25500000920E-02 0. -1.
    10030    2    1    2    0    0  0.00000000000E+00  0.00000000000E+00 -0.42662014865E+03  0.15622232161E+04  0.15028428479E+04 0.  0.
        4    1    3    3  502    0  0.36385870832E+03  0.17314472412E+03 -0.87261010962E+03  0.96115673614E+03  0.12699999809E+01 0. -1.
       -4    1    3    3    0  502 -0.36385870832E+03 -0.17314472412E+03  0.44598996097E+03  0.60106647993E+03  0.12699999809E+01 0.  1.
</event>
<event>
 5   0  0.6364378E-05  0.1501578E+04  0.7818609E-02  0.8883404E-01
       -1   -1    0    0    0  501  0.00000000000E+00  0.00000000000E+00  0.12210552313E+04  0.12210552313E+04  0.50400001928E-02 0. -1.
        1   -1    0    0  501    0  0.00000000000E+00  0.00000000000E+00 -0.46163672937E+03  0.46163672939E+03  0.50400001928E-02 0.  1.
    10030    2    1    2    0    0  0.00000000000E+00  0.00000000000E+00  0.75941850193E+03  0.16826919607E+04  0.15015777614E+04 0.  0.
        5    1    3    3  502    0  0.32333226905E+03 -0.59422476690E+03  0.74458121908E+03  0.10060169539E+04  0.46999998093E+01 0. -1.
       -5    1    3    3    0  502 -0.32333226905E+03  0.59422476690E+03  0.14837282846E+02  0.67667500676E+03  0.46999998093E+01 0.  1.
</event>
<event>
 5   0  0.6509279E-05  0.1502590E+04  0.7818609E-02  0.8882732E-01
        1   -1    0    0  501    0  0.00000000000E+00  0.00000000000E+00  0.34424297436E+03  0.34424297440E+03  0.50400001928E-02 0.  1.
       -1   -1    0    0    0  501  0.00000000000E+00  0.00000000000E+00 -0.16396678710E+04  0.16396678710E+04  0.50400001928E-02 0. -1.
    10030    2    1    2    0    0  0.00000000000E+00  0.00000000000E+00 -0.12954248966E+04  0.19839108454E+04  0.15025899573E+04 0.  0.
        2    1    3    3  502    0  0.67619856159E+02 -0.38866995959E+03  0.19647914703E+03  0.44072762298E+03  0.25500000920E-02 0.  1.
       -2    1    3    3    0  502 -0.67619856159E+02  0.38866995959E+03 -0.14919040437E+04  0.15431832224E+04  0.25500000920E-02 0. -1.
</event>
<event>
 5   0  0.1228286E-04  0.1512003E+04  0.7818609E-02  0.8876510E-01
        2   -1    0    0  501    0  0.00000000000E+00  0.00000000000E+00  0.59810080173E+03  0.59810080174E+03  0.25500000920E-02 0. -1.
       -2   -1    0    0    0  501  0.00000000000E+00  0.00000000000E+00 -0.95558837759E+03  0.95558837759E+03  0.25500000920E-02 0.  1.
    10030    2    1    2    0    0  0.00000000000E+00  0.00000000000E+00 -0.35748757586E+03  0.15536891793E+04  0.15120028767E+04 0.  0.
        2    1    3    3  502    0 -0.74546876003E+03  0.32640836511E+02 -0.30353786262E+03  0.80555839667E+03  0.25500000920E-02 0.  1.
       -2    1    3    3    0  502  0.74546876003E+03 -0.32640836511E+02 -0.53949713237E+02  0.74813078266E+03  0.25500000920E-02 0. -1.
</event>
<event>
 5   0  0.1186664E-04  0.1499792E+04  0.7818609E-02  0.8884591E-01
        2   -1    0    0  501    0  0.00000000000E+00  0.00000000000E+00  0.17778202588E+04  0.17778202588E+04  0.25500000920E-02 0.  1.
       -2   -1    0    0    0  501  0.00000000000E+00  0.00000000000E+00 -0.31631092405E+03  0.31631092406E+03  0.25500000920E-02 0. -1.
    10030    2    1    2    0    0  0.00000000000E+00  0.00000000000E+00  0.14615093348E+04  0.20941311829E+04  0.14997919441E+04 0.  0.
        3    1    3    3  502    0 -0.48142313809E+03 -0.34181938518E+02 -0.70627155344E+02  0.48777540742E+03  0.10100000352E+00 0. -1.
       -3    1    3    3    0  502  0.48142313809E+03  0.34181938518E+02  0.15321364901E+04  0.16063557755E+04  0.10100000352E+00 0.  1.
</event>
<event>
 5   0  0.1254487E-04  0.1500453E+04  0.7818609E-02  0.8884152E-01
       -2   -1    0    0    0  501  0.00000000000E+00  0.00000000000E+00  0.22626464019E+03  0.22626464020E+03  0.25500000920E-02 0. -1.
        2   -1    0    0  501    0  0.00000000000E+00  0.00000000000E+00 -0.24875294535E+04  0.24875294535E+04  0.25500000920E-02 0.  1.
    10030    2    1    2    0    0  0.00000000000E+00  0.00000000000E+00 -0.22612648133E+04  0.27137940937E+04  0.15004532072E+04 0.  0.
        5    1    3    3  502    0  0.10192299009E+03  0.22925782466E+03 -0.24093750731E+04  0.24224074345E+04  0.46999998093E+01 0.  1.
       -5    1    3    3    0  502 -0.10192299009E+03 -0.22925782466E+03  0.14811025979E+03  0.29138665915E+03  0.46999998093E+01 0. -1.
</event>
<event>
 5   0  0.6509279E-05  0.1498736E+04  0.7818609E-02  0.8885294E-01
       -1   -1    0    0    0  501  0.00000000000E+00  0.00000000000E+00  0.14492135828E+04  0.14492135829E+04  0.50400001928E-02 0. -1.
        1   -1    0    0  501    0  0.00000000000E+00  0.00000000000E+00 -0.38748790702E+03  0.38748790706E+03  0.50400001928E-02 0.  1.
    10030    2    1    2    0    0  0.00000000000E+00  0.00000000000E+00  0.10617256758E+04  0.18367014899E+04  0.14987364519E+04 0.  0.
        2    1    3    3  502    0 -0.13312185908E+03 -0.37495272901E+03  0.13090714967E+04  0.13682028950E+04  0.25500000920E-02 0. -1.
       -2    1    3    3    0  502  0.13312185908E+03  0.37495272901E+03 -0.24734582086E+03  0.46849859494E+03  0.25500000920E-02 0.  1.
</event>
<event>
 5   0  0.1228286E-04  0.1500770E+04  0.7818609E-02  0.8883941E-01
       -2   -1    0    0    0  501  0.00000000000E+00  0.00000000000E+00  0.24132696016E+03  0.24132696017E+03  0.25500000920E-02 0. -1.
        2   -1    0    0  501    0  0.00000000000E+00  0.00000000000E+00 -0.23332552390E+04  0.23332552390E+04  0.25500000920E-02 0.  1.
    10030    2    1    2    0    0  0.00000000000E+00  0.00000000000E+00 -0.20919282789E+04  0.25745821992E+04  0.15007696614E+04 0.  0.
        2    1    3    3  502    0 -0.24828059226E+03 -0.35102144618E+03 -0.21009918502E+04  0.21445339967E+04  0.25500000920E-02 0.  1.
       -2    1    3    3    0  502  0.24828059226E+03  0.35102144618E+03  0.90635713487E+01  0.43004820253E+03  0.25500000920E-02 0. -1.
</event>
<event>
 5   0  0.6509279E-05  0.1498110E+04  0.7818609E-02  0.8885711E-01
        1   -1    0    0  501    0  0.00000000000E+00  0.00000000000E+00  0.79873494410E+03  0.79873494411E+03  0.50400001928E-02 0. -1.
       -1   -1    0    0    0  501  0.00000000000E+00  0.00000000000E+00 -0.70246464364E+03  0.70246464366E+03  0.50400001928E-02 0.  1.
    10030    2    1    2    0    0  0.00000000000E+00  0.00000000000E+00  0.96270300453E+02  0.15011995878E+04  0.14981095526E+04 0.  0.
        2    1    3    3  502    0 -0.63681246574E+03  0.38029832785E+03  0.15287884995E+03  0.75731689368E+03  0.25500000920E-02 0. -1.
       -2    1    3    3    0  502  0.63681246574E+03 -0.38029832785E+03 -0.56608549495E+02  0.74388269409E+03  0.25500000920E-02 0.  1.
</event>
<event>
 5   0  0.1254487E-04  0.1502418E+04  0.7818609E-02  0.8882847E-01
       -2   -1    0    0    0  501  0.00000000000E+00  0.00000000000E+00  0.34513358408E+03  0.34513358409E+03  0.25500000920E-02 0.  1.
        2   -1    0    0  501    0  0.00000000000E+00  0.00000000000E+00 -0.16350621636E+04  0.16350621636E+04  0.25500000920E-02 0. -1.
    10030    2    1    2    0    0  0.00000000000E+00  0.00000000000E+00 -0.12899285795E+04  0.19801957477E+04  0.15024178709E+04 0.  0.
        5    1    3    3  502    0  0.35373727194E+03 -0.30482163510E+03 -0.14205147702E+04  0.14953028420E+04  0.46999998093E+01 0. -1.
       -5    1    3    3    0  502 -0.35373727194E+03  0.30482163510E+03  0.13058619073E+03  0.48489290569E+03  0.46999998093E+01 0.  1.
</event>
<event>
 5   0  0.6668433E-05  0.1500539E+04  0.7818609E-02  0.8884095E-01
       -1   -1    0    0    0  501  0.00000000000E+00  0.00000000000E+00  0.49458257428E+03  0.49458257431E+03  0.50400001928E-02 0. -1.
        1   -1    0    0  501    0  0.00000000000E+00  0.00000000000E+00 -0.11381395784E+04  0.11381395784E+04  0.50400001928E-02 0.  1.
    10030    2    1    2    0    0  0.00000000000E+00  0.00000000000E+00 -0.64355700408E+03  0.16327221527E+04  0.15005385734E+04 0.  0.
        1    1    3    3  502    0  0.14845430346E+03  0.66311432694E+02 -0.11187395200E+04  0.11304928129E+04  0.50400001928E-02 0.  1.
       -1    1    3    3    0  502 -0.14845430346E+03 -0.66311432694E+02  0.47518251591E+03  0.50222933982E+03  0.50400001928E-02 0. -1.
</event>
<event>
 5   0  0.6542036E-05  0.1504438E+04  0.7818609E-02  0.8881507E-01
       -1   -1    0    0    0  501  0.00000000000E+00  0.00000000000E+00  0.67492596690E+03  0.67492596692E+03  0.50400001928E-02 0. -1.
        1   -1    0    0  501    0  0.00000000000E+00  0.00000000000E+00 -0.83836341879E+03  0.83836341881E+03  0.50400001928E-02 0.  1.
    10030    2    1    2    0    0  0.00000000000E+00  0.00000000000E+00 -0.16343745189E+03  0.15132893857E+04  0.15044377569E+04 0.  0.
        4    1    3    3  502    0 -0.47287568056E+03  0.45249497001E+03 -0.45466767844E+03  0.79692372149E+03  0.12699999809E+01 0.  1.
       -4    1    3    3    0  502  0.47287568056E+03 -0.45249497001E+03  0.29123022655E+03  0.71636566424E+03  0.12699999809E+01 0. -1.
</event>
<event>
 5   0  0.6668433E-05  0.1498173E+04  0.7818609E-02  0.8885669E-01
       -1   -1    0    0    0  501  0.00000000000E+00  0.00000000000E+00  0.89089107319E+03  0.89089107321E+03  0.50400001928E-02 0. -1.
        1   -1    0    0  501    0  0.00000000000E+00  0.00000000000E+00 -0.62985289331E+03  0.62985289333E+03  0.50400001928E-02 0.  1.
    10030    2    1    2    0    0  0.00000000000E+00  0.00000000000E+00  0.26103817989E+03  0.15207439665E+04  0.14981726471E+04 0.  0.
        1    1    3    3  502    0  0.74571502160E+03 -0.35873424015E+02  0.19269984376E+03  0.77104541098E+03  0.50400001928E-02 0.  1.
       -1    1    3    3    0  502 -0.74571502160E+03  0.35873424015E+02  0.68338336130E+02  0.74969855555E+03  0.50400001928E-02 0. -1.
</event>
<event>
 5   0  0.1254487E-04  0.1497230E+04  0.7818609E-02  0.8886297E-01
       -2   -1    0    0    0  501  0.00000000000E+00  0.00000000000E+00  0.41065726768E+03  0.41065726769E+03  0.25500000920E-02 0. -1.
        2   -1    0    0  501    0  0.00000000000E+00  0.00000000000E+00 -0.13647011267E+04  0.13647011267E+04  0.25500000920E-02 0.  1.
    10030    2    1    2    0    0  0.00000000000E+00  0.00000000000E+00 -0.95404385898E+03  0.17753583943E+04  0.14972300236E+04 0.  0.
        5    1    3    3  502    0  0.67899463346E+03  0.20994257357E+03 -0.75584686051E+03  0.10375144158E+04  0.46999998093E+01 0.  1.
       -5    1    3    3    0  502 -0.67899463346E+03 -0.20994257357E+03 -0.19819699847E+03  0.73784397854E+03  0.46999998093E+01 0. -1.
</event>
<event>
 5   0  0.6364378E-05  0.1502415E+04  0.7818609E-02  0.8882849E-01
       -1   -1    0    0    0  501  0.00000000000E+00  0.00000000000E+00  0.64474726018E+03  0.64474726020E+03  0.50400001928E-02 0. -1.
        1   -1    0    0  501    0  0.00000000000E+00  0.00000000000E+00 -0.87524640689E+03  0.87524640691E+03  0.50400001928E-02 0.  1.
    10030    2    1    2    0    0  0.00000000000E+00  0.00000000000E+00 -0.23049914671E+03  0.15199936671E+04  0.15024150197E+04 0.  0.
        5    1    3    3  502    0 -0.60214702844E+03  0.39325044600E+03 -0.33472948836E+03  0.79327982296E+03  0.46999998093E+01 0.  1.
       -5    1    3    3    0  502  0.60214702844E+03 -0.39325044600E+03  0.10423034165E+03  0.72671384414E+03  0.46999998093E+01 0. -1.
</event>
<event>
 5   0  0.6361716E-05  0.1498210E+04  0.7818609E-02  0.8885644E-01
       -1   -1    0    0    0  501  0.00000000000E+00  0.00000000000E+00  0.12015813818E+04  0.12015813818E+04  0.50400001928E-02 0. -1.
        1   -1    0    0  501    0  0.00000000000E+00  0.00000000000E+00 -0.46701623351E+03  0.46701623353E+03  0.50400001928E-02 0.  1.
    10030    2    1    2    0    0  0.00000000000E+00  0.00000000000E+00  0.73456514826E+03  0.16685976153E+04  0.14982096131E+04 0.  0.
        3    1    3    3  502    0 -0.53601295566E+03 -0.32611832561E+03 -0.88523279304E+02  0.63363982838E+03  0.10100000352E+00 0.  1.
       -3    1    3    3    0  502  0.53601295566E+03  0.32611832561E+03  0.82308842756E+03  0.10349577869E+04  0.10100000352E+00 0. -1.
</event>
<event>
 5   0  0.1219810E-04  0.1501167E+04  0.7818609E-02  0.8883677E-01
       -2   -1    0    0    0  501  0.00000000000E+00  0.00000000000E+00  0.66409977219E+03  0.66409977219E+03  0.25500000920E-02 0. -1.
        2   -1    0    0  501    0  0.00000000000E+00  0.00000000000E+00 -0.84832990195E+03  0.84832990196E+03  0.25500000920E-02 0.  1.
    10030    2    1    2    0    0  0.00000000000E+00  0.00000000000E+00 -0.18423012976E+03  0.15124296741E+04  0.15011671388E+04 0.  0.
        1    1    3    3  502    0  0.76908236871E+02 -0.79966622297E+02  0.65579264616E+03  0.66511166910E+03  0.50400001928E-02 0. -1.
       -1    1    3    3    0  502 -0.76908236871E+02  0.79966622297E+02 -0.84002277593E+03  0.84731800505E+03  0.50400001928E-02 0.  1.
</event>
<event>
 5   0  0.6361716E-05  0.1500903E+04  0.7818609E-02  0.8883853E-01
       -1   -1    0    0    0  501  0.00000000000E+00  0.00000000000E+00  0.77265157693E+03  0.77265157695E+03  0.50400001928E-02 0. -1.
        1   -1    0    0  501    0  0.00000000000E+00  0.00000000000E+00 -0.72888923399E+03  0.72888923401E+03  0.50400001928E-02 0.  1.
    10030    2    1    2    0    0  0.00000000000E+00  0.00000000000E+00  0.43762342937E+02  0.15015408110E+04  0.15009029497E+04 0.  0.
        3    1    3    3  502    0 -0.17533411415E+03 -0.63679428543E+03  0.37830269241E+03  0.76115829551E+03  0.10100000352E+00 0.  1.
       -3    1    3    3    0  502  0.17533411415E+03  0.63679428543E+03 -0.33454034947E+03  0.74038251544E+03  0.10100000352E+00 0. -1.
</event>
<event>
 5   0  0.1186664E-04  0.1498908E+04  0.7818609E-02  0.8885179E-01
       -2   -1    0    0    0  501  0.00000000000E+00  0.00000000000E+00  0.94071440596E+03  0.94071440596E+03  0.25500000920E-02 0.  1.
        2   -1    0    0  501    0  0.00000000000E+00  0.00000000000E+00 -0.59707965084E+03  0.59707965085E+03  0.25500000920E-02 0. -1.
    10030    2    1    2    0    0  0.00000000000E+00  0.00000000000E+00  0.34363475512E+03  0.15377940568E+04  0.14989081747E+04 0.  0.
        3    1    3    3  502    0  0.35525940937E+02  0.30260519188E+03 -0.53067213244E+03  0.61191904447E+03  0.10100000352E+00 0. -1.
       -3    1    3    3    0  502 -0.35525940937E+02 -0.30260519188E+03  0.87430688756E+03  0.92587501233E+03  0.10100000352E+00 0.  1.
</event>
<event>
 5   0  0.6668433E-05  0.1498092E+04  0.7818609E-02  0.8885723E-01
        1   -1    0    0  501    0  0.00000000000E+00  0.00000000000E+00  0.99279141946E+03  0.99279141948E+03  0.50400001928E-02 0. -1.
       -1   -1    0    0    0  501  0.00000000000E+00  0.00000000000E+00 -0.56514384668E+03  0.56514384671E+03  0.50400001928E-02 0.  1.
    10030    2    1    2    0    0  0.00000000000E+00  0.00000000000E+00  0.42764757278E+03  0.15579352662E+04  0.14980920690E+04 0.  0.
        1    1    3    3  502    0  0.16580335565E+03  0.72857206568E+03  0.15917014115E+03  0.76396540595E+03  0.50400001928E-02 0. -1.
       -1    1    3    3    0  502 -0.16580335565E+03 -0.72857206568E+03  0.26847743163E+03  0.79396986023E+03  0.50400001928E-02 0.  1.
</event>
<event>
 5   0  0.6668433E-05  0.1496007E+04  0.7818609E-02  0.8887113E-01
       -1   -1    0    0    0  501  0.00000000000E+00  0.00000000000E+00  0.32631422032E+03  0.32631422036E+03  0.50400001928E-02 0.  1.
        1   -1    0    0  501    0  0.00000000000E+00  0.00000000000E+00 -0.17146327265E+04  0.17146327265E+04  0.50400001928E-02 0. -1.
    10030    2    1    2    0    0  0.00000000000E+00  0.00000000000E+00 -0.13883185062E+04  0.20409469469E+04  0.14960067397E+04 0.  0.
        1    1    3    3  502    0 -0.69261350675E+03 -0.28105236599E+03 -0.73287018590E+03  0.10468059092E+04  0.50400001928E-02 0.  1.
       -1    1    3    3    0  502  0.69261350675E+03  0.28105236599E+03 -0.65544832028E+03  0.99414103765E+03  0.50400001928E-02 0. -1.
</event>
<event>
 5   0  0.1219810E-04  0.1513021E+04  0.7818609E-02  0.8875840E-01
       -2   -1    0    0    0  501  0.00000000000E+00  0.00000000000E+00  0.41938524256E+03  0.41938524257E+03  0.25500000920E-02 0. -1.
        2   -1    0    0  501    0  0.00000000000E+00  0.00000000000E+00 -0.13646350528E+04  0.13646350529E+04  0.25500000920E-02 0.  1.
    10030    2    1    2    0    0  0.00000000000E+00  0.00000000000E+00 -0.94524981029E+03  0.17840202954E+04  0.15130205586E+04 0.  0.
        1    1    3    3  502    0  0.46716110243E+03 -0.59502317782E+03 -0.46794918588E+03  0.88953275283E+03  0.50400001928E-02 0. -1.
       -1    1    3    3    0  502 -0.46716110243E+03  0.59502317782E+03 -0.47730062441E+03  0.89448754259E+03  0.50400001928E-02 0.  1.
</event>
<event>
 5   0  0.6361716E-05  0.1511403E+04  0.7818609E-02  0.8876905E-01
       -1   -1    0    0    0  501  0.00000000000E+00  0.00000000000E+00  0.97005971613E+03  0.97005971614E+03  0.50400001928E-02 0. -1.
        1   -1    0    0  501    0  0.00000000000E+00  0.00000000000E+00 -0.58871100018E+03  0.58871100020E+03  0.50400001928E-02 0.  1.
    10030    2    1    2    0    0  0.00000000000E+00  0.00000000000E+00  0.38134871595E+03  0.15587707163E+04  0.15114030908E+04 0.  0.
        3    1    3    3  502    0 -0.57124567578E+03  0.30707667905E+03  0.59073213490E+03  0.87725832816E+03  0.10100000352E+00 0. -1.
       -3    1    3    3    0  502  0.57124567578E+03 -0.30707667905E+03 -0.20938341894E+03  0.68151238818E+03  0.10100000352E+00 0.  1.
</event>
<event>
 5   0  0.6361716E-05  0.1487607E+04  0.7818609E-02  0.8892737E-01
       -1   -1    0    0    0  501  0.00000000000E+00  0.00000000000E+00  0.57520781323E+03  0.57520781325E+03  0.50400001928E-02 0. -1.
        1   -1    0    0  501    0  0.00000000000E+00  0.00000000000E+00 -0.96181462290E+03  0.96181462292E+03  0.50400001928E-02 0.  1.
    10030    2    1    2    0    0  0.00000000000E+00  0.00000000000E+00 -0.38660680967E+03  0.15370224362E+04  0.14876065152E+04 0.  0.
        3    1    3    3  502    0  0.20530019631E+03 -0.52235177720E+03 -0.69761954970E+03  0.89536171242E+03  0.10100000352E+00 0.  1.
       -3    1    3    3    0  502 -0.20530019631E+03  0.52235177720E+03  0.31101274003E+03  0.64166072375E+03  0.10100000352E+00 0. -1.
</event>
<event>
 5   0  0.1186664E-04  0.1498379E+04  0.7818609E-02  0.8885532E-01
        2   -1    0    0  501    0  0.00000000000E+00  0.00000000000E+00  0.24327252780E+04  0.24327252780E+04  0.25500000920E-02 0.  1.
       -2   -1    0    0    0  501  0.00000000000E+00  0.00000000000E+00 -0.23072267845E+03  0.23072267846E+03  0.25500000920E-02 0. -1.
    10030    2    1    2    0    0  0.00000000000E+00  0.00000000000E+00  0.22020025996E+04  0.26634479565E+04  0.14983789802E+04 0.  0.
        3    1    3    3  502    0 -0.41306904785E+03 -0.17749518614E+03  0.21662795984E+04  0.22124416124E+04  0.10100000352E+00 0.  1.
       -3    1    3    3    0  502  0.41306904785E+03  0.17749518614E+03  0.35723001111E+02  0.45100634408E+03  0.10100000352E+00 0. -1.
</event>
<event>
 5   0  0.1254487E-04  0.1496968E+04  0.7818609E-02  0.8886472E-01
       -2   -1    0    0    0  501  0.00000000000E+00  0.00000000000E+00  0.48579310414E+03  0.48579310415E+03  0.25500000920E-02 0. -1.
        2   -1    0    0  501    0  0.00000000000E+00  0.00000000000E+00 -0.11532243615E+04  0.11532243615E+04  0.25500000920E-02 0.  1.
    10030    2    1    2    0    0  0.00000000000E+00  0.00000000000E+00 -0.66743125731E+03  0.16390174656E+04  0.14969681925E+04 0.  0.
        5    1    3    3  502    0 -0.47721329186E+03 -0.55167840460E+03 -0.15009754322E+03  0.74473683305E+03  0.46999998093E+01 0. -1.
       -5    1    3    3    0  502  0.47721329186E+03  0.55167840460E+03 -0.51733371409E+03  0.89428063255E+03  0.46999998093E+01 0.  1.
</event>
<event>
 5   0  0.1228286E-04  0.1500586E+04  0.7818609E-02  0.8884063E-01
       -2   -1    0    0    0  501  0.00000000000E+00  0.00000000000E+00  0.10392036785E+04  0.10392036785E+04  0.25500000920E-02 0.  1.
        2   -1    0    0  501    0  0.00000000000E+00  0.00000000000E+00 -0.54170269338E+03  0.54170269339E+03  0.25500000920E-02 0. -1.
    10030    2    1    2    0    0  0.00000000000E+00  0.00000000000E+00  0.49750098510E+03  0.15809063719E+04  0.15005857944E+04 0.  0.
        2    1    3    3  502    0  0.21507919838E+03  0.45676409459E+03  0.83347832045E+03  0.97446324218E+03  0.25500000920E-02 0.  1.
       -2    1    3    3    0  502 -0.21507919838E+03 -0.45676409459E+03 -0.33597733535E+03  0.60644312970E+03  0.25500000920E-02 0. -1.
</event>
<event>
 5   0  0.1228286E-04  0.1501055E+04  0.7818609E-02  0.8883752E-01
       -2   -1    0    0    0  501  0.00000000000E+00  0.00000000000E+00  0.30221535549E+03  0.30221535550E+03  0.25500000920E-02 0.  1.
        2   -1    0    0  501    0  0.00000000000E+00  0.00000000000E+00 -0.18638743528E+04  0.18638743528E+04  0.25500000920E-02 0. -1.
    10030    2    1    2    0    0  0.00000000000E+00  0.00000000000E+00 -0.15616589973E+04  0.21660897083E+04  0.15010548959E+04 0.  0.
        2    1    3    3  502    0 -0.43479491790E+03 -0.32888075766E+03 -0.15251977433E+04  0.16197028523E+04  0.25500000920E-02 0. -1.
       -2    1    3    3    0  502  0.43479491790E+03  0.32888075766E+03 -0.36461253979E+02  0.54638685603E+03  0.25500000920E-02 0.  1.
</event>
<event>
 5   0  0.1186664E-04  0.1502079E+04  0.7818609E-02  0.8883072E-01
       -2   -1    0    0    0  501  0.00000000000E+00  0.00000000000E+00  0.36449584644E+03  0.36449584645E+03  0.25500000920E-02 0. -1.
        2   -1    0    0  501    0  0.00000000000E+00  0.00000000000E+00 -0.15475072628E+04  0.15475072628E+04  0.25500000920E-02 0.  1.
    10030    2    1    2    0    0  0.00000000000E+00  0.00000000000E+00 -0.11830114164E+04  0.19120031093E+04  0.15020785194E+04 0.  0.
        3    1    3    3  502    0  0.81001098016E+01  0.14667493380E+03  0.34603071532E+03  0.37592075512E+03  0.10100000352E+00 0. -1.
       -3    1    3    3    0  502 -0.81001098016E+01 -0.14667493380E+03 -0.15290421317E+04  0.15360823542E+04  0.10100000352E+00 0.  1.
</event>
<event>
 5   0  0.6509279E-05  0.1498667E+04  0.7818609E-02  0.8885340E-01
        1   -1    0    0  501    0  0.00000000000E+00  0.00000000000E+00  0.87002690786E+03  0.87002690788E+03  0.50400001928E-02 0.  1.
       -1   -1    0    0    0  501  0.00000000000E+00  0.00000000000E+00 -0.64538301808E+03  0.64538301810E+03  0.50400001928E-02 0. -1.
    10030    2    1    2    0    0  0.00000000000E+00  0.00000000000E+00  0.22464388978E+03  0.15154099260E+04  0.14986668631E+04 0.  0.
        2    1    3    3  502    0  0.56403272444E+03  0.47574492022E+03  0.24429615116E+03  0.77726877773E+03  0.25500000920E-02 0.  1.
       -2    1    3    3    0  502 -0.56403272444E+03 -0.47574492022E+03 -0.19652261379E+02  0.73814114825E+03  0.25500000920E-02 0. -1.
</event>
<event>
 5   0  0.1219810E-04  0.1499894E+04  0.7818609E-02  0.8884523E-01
        2   -1    0    0  501    0  0.00000000000E+00  0.00000000000E+00  0.14193773235E+04  0.14193773235E+04  0.25500000920E-02 0. -1.
       -2   -1    0    0    0  501  0.00000000000E+00  0.00000000000E+00 -0.39624467025E+03  0.39624467026E+03  0.25500000920E-02 0.  1.
    10030    2    1    2    0    0  0.00000000000E+00  0.00000000000E+00  0.10231326532E+04  0.18156219937E+04  0.14998942623E+04 0.  0.
        1    1    3    3  502    0  0.48513772826E+03 -0.13769977316E+03 -0.16034388899E+03  0.52917861415E+03  0.50400001928E-02 0.  1.
       -1    1    3    3    0  502 -0.48513772826E+03  0.13769977316E+03  0.11834765422E+04  0.12864433796E+04  0.50400001928E-02 0. -1.
</event>
<event>
 5   0  0.6361716E-05  0.1497536E+04  0.7818609E-02  0.8886093E-01
       -1   -1    0    0    0  501  0.00000000000E+00  0.00000000000E+00  0.45246711220E+03  0.45246711223E+03  0.50400001928E-02 0. -1.
        1   -1    0    0  501    0  0.00000000000E+00  0.00000000000E+00 -0.12391031917E+04  0.12391031917E+04  0.50400001928E-02 0.  1.
    10030    2    1    2    0    0  0.00000000000E+00  0.00000000000E+00 -0.78663607948E+03  0.16915703039E+04  0.14975358999E+04 0.  0.
        3    1    3    3  502    0 -0.15504724114E+03  0.60340234608E+03 -0.86248970142E+03  0.10639654757E+04  0.10100000352E+00 0.  1.
       -3    1    3    3    0  502  0.15504724114E+03 -0.60340234608E+03  0.75853621940E+02  0.62760482822E+03  0.10100000352E+00 0. -1.
</event>
<event>
 5   0  0.6361716E-05  0.1499844E+04  0.7818609E-02  0.8884557E-01
       -1   -1    0    0    0  501  0.00000000000E+00  0.00000000000E+00  0.60899530831E+03  0.60899530833E+03  0.50400001928E-02 0.  1.
        1   -1    0    0  501    0  0.00000000000E+00  0.00000000000E+00 -0.92346030648E+03  0.92346030649E+03  0.50400001928E-02 0. -1.
    10030    2    1    2    0    0  0.00000000000E+00  0.00000000000E+00 -0.31446499817E+03  0.15324556148E+04  0.14998439840E+04 0.  0.
        3    1    3    3  502    0  0.28683635880E+02  0.19915788660E+02  0.60816416205E+03  0.60916586231E+03  0.10100000352E+00 0.  1.
       -3    1    3    3    0  502 -0.28683635880E+02 -0.19915788660E+02 -0.92262916022E+03  0.92328975251E+03  0.10100000352E+00 0. -1.
</event>
<event>
 5   0  0.6542036E-05  0.1500417E+04  0.7818609E-02  0.8884176E-01
       -1   -1    0    0    0  501  0.00000000000E+00  0.00000000000E+00  0.74562429546E+03  0.74562429547E+03  0.50400001928E-02 0.  1.
        1   -1    0    0  501    0  0.00000000000E+00  0.00000000000E+00 -0.75482048994E+03  0.75482048996E+03  0.50400001928E-02 0. -1.
    10030    2    1    2    0    0  0.00000000000E+00  0.00000000000E+00 -0.91961944862E+01  0.15004447854E+04  0.15004166035E+04 0.  0.
        4    1    3    3  502    0  0.37908006971E+03 -0.30179343742E+03  0.56815161050E+03  0.74671202182E+03  0.12699999809E+01 0.  1.
       -4    1    3    3    0  502 -0.37908006971E+03  0.30179343742E+03 -0.57734780498E+03  0.75373276361E+03  0.12699999809E+01 0. -1.
</event>
<event>
 5   0  0.1216921E-04  0.1498235E+04  0.7818609E-02  0.8885627E-01
        2   -1    0    0  501    0  0.00000000000E+00  0.00000000000E+00  0.55362893233E+03  0.55362893234E+03  0.25500000920E-02 0.  1.
       -2   -1    0    0    0  501  0.00000000000E+00  0.00000000000E+00 -0.10136344464E+04  0.10136344464E+04  0.25500000920E-02 0. -1.
    10030    2    1    2    0    0  0.00000000000E+00  0.00000000000E+00 -0.46000551412E+03  0.15672633788E+04  0.14982354373E+04 0.  0.
        4    1    3    3  502    0  0.54707706821E+03  0.49339537591E+03 -0.87939181087E+02  0.74193478689E+03  0.12699999809E+01 0. -1.
       -4    1    3    3    0  502 -0.54707706821E+03 -0.49339537591E+03 -0.37206633303E+03  0.82532859190E+03  0.12699999809E+01 0.  1.
</event>
<event>
 5   0  0.6361716E-05  0.1496135E+04  0.7818609E-02  0.8887027E-01
        1   -1    0    0  501    0  0.00000000000E+00  0.00000000000E+00  0.79222611627E+03  0.79222611629E+03  0.50400001928E-02 0.  1.
       -1   -1    0    0    0  501  0.00000000000E+00  0.00000000000E+00 -0.70637011405E+03  0.70637011407E+03  0.50400001928E-02 0. -1.
    10030    2    1    2    0    0  0.00000000000E+00  0.00000000000E+00  0.85856002220E+02  0.14985962304E+04  0.14961348230E+04 0.  0.
        3    1    3    3  502    0 -0.51072218101E+03  0.13178719512E+03  0.57427204968E+03  0.77973932068E+03  0.10100000352E+00 0.  1.
       -3    1    3    3    0  502  0.51072218101E+03 -0.13178719512E+03 -0.48841604746E+03  0.71885690968E+03  0.10100000352E+00 0. -1.
</event>
<event>
 5   0  0.1254487E-04  0.1500396E+04  0.7818609E-02  0.8884189E-01
        2   -1    0    0  501    0  0.00000000000E+00  0.00000000000E+00  0.15393604748E+04  0.15393604748E+04  0.25500000920E-02 0. -1.
       -2   -1    0    0    0  501  0.00000000000E+00  0.00000000000E+00 -0.36560464700E+03  0.36560464701E+03  0.25500000920E-02 0.  1.
    10030    2    1    2    0    0  0.00000000000E+00  0.00000000000E+00  0.11737558278E+04  0.19049651218E+04  0.15003964050E+04 0.  0.
        5    1    3    3  502    0  0.57016477032E+02  0.62560619686E+03  0.11074946960E+04  0.12732637527E+04  0.46999998093E+01 0. -1.
       -5    1    3    3    0  502 -0.57016477032E+02 -0.62560619686E+03  0.66261131818E+02  0.63170136915E+03  0.46999998093E+01 0.  1.
</event>
<event>
 5   0  0.6361716E-05  0.1499849E+04  0.7818609E-02  0.8884553E-01
       -1   -1    0    0    0  501  0.00000000000E+00  0.00000000000E+00  0.56684920328E+03  0.56684920330E+03  0.50400001928E-02 0. -1.
        1   -1    0    0  501    0  0.00000000000E+00  0.00000000000E+00 -0.99212742612E+03  0.99212742613E+03  0.50400001928E-02 0.  1.
    10030    2    1    2    0    0  0.00000000000E+00  0.00000000000E+00 -0.42527822284E+03  0.15589766294E+04  0.14998488471E+04 0.  0.
        3    1    3    3  502    0 -0.43370369668E+03 -0.47027862841E+03  0.19410026634E+03  0.66853257845E+03  0.10100000352E+00 0. -1.
       -3    1    3    3    0  502  0.43370369668E+03  0.47027862841E+03 -0.61937848918E+03  0.89044405098E+03  0.10100000352E+00 0.  1.
</event>
<event>
 5   0  0.1219810E-04  0.1499754E+04  0.7818609E-02  0.8884616E-01
       -2   -1    0    0    0  501  0.00000000000E+00  0.00000000000E+00  0.78383259533E+03  0.78383259534E+03  0.25500000920E-02 0. -1.
        2   -1    0    0  501    0  0.00000000000E+00  0.00000000000E+00 -0.71739263322E+03  0.71739263323E+03  0.25500000920E-02 0.  1.
    10030    2    1    2    0    0  0.00000000000E+00  0.00000000000E+00  0.66439962110E+02  0.15012252286E+04  0.14997542860E+04 0.  0.
        1    1    3    3  502    0 -0.30577865437E+03 -0.63320868297E+03  0.29397866185E+03  0.76215305241E+03  0.50400001928E-02 0. -1.
       -1    1    3    3    0  502  0.30577865437E+03  0.63320868297E+03 -0.22753869974E+03  0.73907217615E+03  0.50400001928E-02 0.  1.
</event>
<event>
 5   0  0.6361716E-05  0.1494610E+04  0.7818609E-02  0.8888045E-01
        1   -1    0    0  501    0  0.00000000000E+00  0.00000000000E+00  0.55966831562E+03  0.55966831564E+03  0.50400001928E-02 0. -1.
       -1   -1    0    0    0  501  0.00000000000E+00  0.00000000000E+00 -0.99784973359E+03  0.99784973360E+03  0.50400001928E-02 0.  1.
    10030    2    1    2    0    0  0.00000000000E+00  0.00000000000E+00 -0.43818141797E+03  0.15575180492E+04  0.14946101561E+04 0.  0.
        3    1    3    3  502    0 -0.12092148455E+03 -0.49396540609E+03  0.35153416385E+03  0.61822334670E+03  0.10100000352E+00 0. -1.
       -3    1    3    3    0  502  0.12092148455E+03  0.49396540609E+03 -0.78971558183E+03  0.93929470254E+03  0.10100000352E+00 0.  1.
</event>
<event>
 5   0  0.1254487E-04  0.1499728E+04  0.7818609E-02  0.8884634E-01
        2   -1    0    0  501    0  0.00000000000E+00  0.00000000000E+00  0.87931221467E+03  0.87931221468E+03  0.25500000920E-02 0.  1.
       -2   -1    0    0    0  501  0.00000000000E+00  0.00000000000E+00 -0.63947255103E+03  0.63947255104E+03  0.25500000920E-02 0. -1.
    10030    2    1    2    0    0  0.00000000000E+00  0.00000000000E+00  0.23983966364E+03  0.15187847657E+04  0.14997280088E+04 0.  0.
        5    1    3    3  502    0  0.20362055794E+03  0.38983512934E+03 -0.49512026291E+03  0.66226801555E+03  0.46999998093E+01 0. -1.
       -5    1    3    3    0  502 -0.20362055794E+03 -0.38983512934E+03  0.73495992655E+03  0.85651675017E+03  0.46999998093E+01 0.  1.
</event>
<event>
 5   0  0.1186664E-04  0.1505033E+04  0.7818609E-02  0.8881113E-01
        2   -1    0    0  501    0  0.00000000000E+00  0.00000000000E+00  0.24507390248E+04  0.24507390248E+04  0.25500000920E-02 0.  1.
       -2   -1    0    0    0  501  0.00000000000E+00  0.00000000000E+00 -0.23106532505E+03  0.23106532506E+03  0.25500000920E-02 0. -1.
    10030    2    1    2    0    0  0.00000000000E+00  0.00000000000E+00  0.22196736997E+04  0.26818043498E+04  0.15050326367E+04 0.  0.
        3    1    3    3  502    0  0.23185576906E+03  0.47939663600E+03  0.20572644866E+04  0.21250683307E+04  0.10100000352E+00 0.  1.
       -3    1    3    3    0  502 -0.23185576906E+03 -0.47939663600E+03  0.16240921313E+03  0.55673601910E+03  0.10100000352E+00 0. -1.
</event>
<event>
 5   0  0.1186664E-04  0.1499592E+04  0.7818609E-02  0.8884725E-01
        2   -1    0    0  501    0  0.00000000000E+00  0.00000000000E+00  0.13336505726E+04  0.13336505726E+04  0.25500000920E-02 0. -1.
       -2   -1    0    0    0  501  0.00000000000E+00  0.00000000000E+00 -0.42154502352E+03  0.42154502352E+03  0.25500000920E-02 0.  1.
    10030    2    1    2    0    0  0.00000000000E+00  0.00000000000E+00  0.91210554912E+03  0.17551955962E+04  0.14995916271E+04 0.  0.
        3    1    3    3  502    0 -0.69509943705E+02 -0.66560639227E+02  0.13263914801E+04  0.13298783101E+04  0.10100000352E+00 0. -1.
       -3    1    3    3    0  502  0.69509943705E+02  0.66560639227E+02 -0.41428593101E+03  0.42531728604E+03  0.10100000352E+00 0.  1.
</event>
<event>
 5   0  0.6668433E-05  0.1504933E+04  0.7818609E-02  0.8881179E-01
        1   -1    0    0  501    0  0.00000000000E+00  0.00000000000E+00  0.57002248121E+03  0.57002248124E+03  0.50400001928E-02 0. -1.
       -1   -1    0    0    0  501  0.00000000000E+00  0.00000000000E+00 -0.99330381775E+03  0.99330381776E+03  0.50400001928E-02 0.  1.
    10030    2    1    2    0    0  0.00000000000E+00  0.00000000000E+00 -0.42328133653E+03  0.15633262990E+04  0.15049325657E+04 0.  0.
        1    1    3    3  502    0 -0.22331296984E+03  0.24719415583E+03  0.48924781645E+03  0.59189277669E+03  0.50400001928E-02 0. -1.
       -1    1    3    3    0  502  0.22331296984E+03 -0.24719415583E+03 -0.91252915299E+03  0.97143352230E+03  0.50400001928E-02 0.  1.
</event>
<event>
 5   0  0.6542036E-05  0.1487382E+04  0.7818609E-02  0.8892887E-01
       -1   -1    0    0    0  501  0.00000000000E+00  0.00000000000E+00  0.39147267909E+03  0.39147267913E+03  0.50400001928E-02 0.  1.
        1   -1    0    0  501    0  0.00000000000E+00  0.00000000000E+00 -0.14128102748E+04  0.14128102748E+04  0.50400001928E-02 0. -1.
    10030    2    1    2    0    0  0.00000000000E+00  0.00000000000E+00 -0.10213375957E+04  0.18042829539E+04  0.14873824301E+04 0.  0.
        4    1    3    3  502    0  0.70265820269E+03  0.56666077710E+01 -0.80610375910E+03  0.10693762404E+04  0.12699999809E+01 0. -1.
       -4    1    3    3    0  502 -0.70265820269E+03 -0.56666077710E+01 -0.21523383662E+03  0.73490671352E+03  0.12699999809E+01 0.  1.
</event>
<event>
 5   0  0.6668433E-05  0.1497790E+04  0.7818609E-02  0.8885924E-01
        1   -1    0    0  501    0  0.00000000000E+00  0.00000000000E+00  0.21206757621E+04  0.21206757621E+04  0.50400001928E-02 0. -1.
       -1   -1    0    0    0  501  0.00000000000E+00  0.00000000000E+00 -0.26446463328E+03  0.26446463333E+03  0.50400001928E-02 0.  1.
    10030    2    1    2    0    0  0.00000000000E+00  0.00000000000E+00  0.18562111288E+04  0.23851403955E+04  0.14977900224E+04 0.  0.
        1    1    3    3  502    0 -0.70527839815E+03 -0.15908241604E+03  0.61719662020E+03  0.95060849039E+03  0.50400001928E-02 0.  1.
       -1    1    3    3    0  502  0.70527839815E+03  0.15908241604E+03  0.12390145086E+04  0.14345319051E+04  0.50400001928E-02 0. -1.
</event>
<event>
 5   0  0.4462875E-05  0.1501985E+04  0.7818609E-02  0.8883134E-01
       -3   -1    0    0    0  501  0.00000000000E+00  0.00000000000E+00  0.53753274397E+03  0.53753275346E+03  0.10100000352E+00 0.  1.
        3   -1    0    0  501    0  0.00000000000E+00  0.00000000000E+00 -0.10492187761E+04  0.10492187809E+04  0.10100000352E+00 0. -1.
    10030    2    1    2    0    0  0.00000000000E+00  0.00000000000E+00 -0.51168603211E+03  0.15867515344E+04  0.15019846326E+04 0.  0.
        1    1    3    3  502    0 -0.17133686594E+03  0.28203633733E+03  0.45683183882E+03  0.56355669297E+03  0.50400001928E-02 0.  1.
       -1    1    3    3    0  502  0.17133686594E+03 -0.28203633733E+03 -0.96851787093E+03  0.10231948414E+04  0.50400001928E-02 0. -1.
</event>
<event>
 5   0  0.6364378E-05  0.1498714E+04  0.7818609E-02  0.8885308E-01
       -1   -1    0    0    0  501  0.00000000000E+00  0.00000000000E+00  0.62874289838E+03  0.62874289840E+03  0.50400001928E-02 0. -1.
        1   -1    0    0  501    0  0.00000000000E+00  0.00000000000E+00 -0.89310950609E+03  0.89310950610E+03  0.50400001928E-02 0.  1.
    10030    2    1    2    0    0  0.00000000000E+00  0.00000000000E+00 -0.26436660770E+03  0.15218524045E+04  0.14987144617E+04 0.  0.
        5    1    3    3  502    0 -0.25220356603E+03 -0.15089756742E+03  0.56776065624E+03  0.63933634915E+03  0.46999998093E+01 0. -1.
       -5    1    3    3    0  502  0.25220356603E+03  0.15089756742E+03 -0.83212726394E+03  0.88251605536E+03  0.46999998093E+01 0.  1.
</event>
<event>
 5   0  0.6542036E-05  0.1499579E+04  0.7818609E-02  0.8884733E-01
       -1   -1    0    0    0  501  0.00000000000E+00  0.00000000000E+00  0.99867183583E+03  0.99867183584E+03  0.50400001928E-02 0.  1.
        1   -1    0    0  501    0  0.00000000000E+00  0.00000000000E+00 -0.56293195807E+03  0.56293195810E+03  0.50400001928E-02 0. -1.
    10030    2    1    2    0    0  0.00000000000E+00  0.00000000000E+00  0.43573987775E+03  0.15616037939E+04  0.14995789970E+04 0.  0.
        4    1    3    3  502    0 -0.11514640080E+03  0.25103679318E+03 -0.50803035659E+03  0.57825134782E+03  0.12699999809E+01 0. -1.
       -4    1    3    3    0  502  0.11514640080E+03 -0.25103679318E+03  0.94377023434E+03  0.98335244611E+03  0.12699999809E+01 0.  1.
</event>
<event>
 5   0  0.6509279E-05  0.1502097E+04  0.7818609E-02  0.8883060E-01
       -1   -1    0    0    0  501  0.00000000000E+00  0.00000000000E+00  0.46132798352E+03  0.46132798354E+03  0.50400001928E-02 0.  1.
        1   -1    0    0  501    0  0.00000000000E+00  0.00000000000E+00 -0.12227178885E+04  0.12227178886E+04  0.50400001928E-02 0. -1.
    10030    2    1    2    0    0  0.00000000000E+00  0.00000000000E+00 -0.76138990503E+03  0.16840458721E+04  0.15020971712E+04 0.  0.
        2    1    3    3  502    0  0.35095132371E+03 -0.61123747390E+02  0.36058384482E+03  0.50687636881E+03  0.25500000920E-02 0.  1.
       -2    1    3    3    0  502 -0.35095132371E+03  0.61123747390E+02 -0.11219737498E+04  0.11771695033E+04  0.25500000920E-02 0. -1.
</event>
<event>
 5   0  0.1228286E-04  0.1500519E+04  0.7818609E-02  0.8884108E-01
        2   -1    0    0  501    0  0.00000000000E+00  0.00000000000E+00  0.10158248730E+04  0.10158248730E+04  0.25500000920E-02 0.  1.
       -2   -1    0    0    0  501  0.00000000000E+00  0.00000000000E+00 -0.55412022668E+03  0.55412022668E+03  0.25500000920E-02 0. -1.
    10030    2    1    2    0    0  0.00000000000E+00  0.00000000000E+00  0.46170464633E+03  0.15699450997E+04  0.15005187222E+04 0.  0.
        2    1    3    3  502    0 -0.65461807303E+03  0.36577089120E+03  0.20574313818E+03  0.77758819776E+03  0.25500000920E-02 0.  1.
       -2    1    3    3    0  502  0.65461807303E+03 -0.36577089120E+03  0.25596150815E+03  0.79235690194E+03  0.25500000920E-02 0. -1.
</event>
<event>
 5   0  0.6364378E-05  0.1500705E+04  0.7818609E-02  0.8883984E-01
       -1   -1    0    0    0  501  0.00000000000E+00  0.00000000000E+00  0.55828513870E+03  0.55828513873E+03  0.50400001928E-02 0.  1.
        1   -1    0    0  501    0  0.00000000000E+00  0.00000000000E+00 -0.10084970328E+04  0.10084970328E+04  0.50400001928E-02 0. -1.
    10030    2    1    2    0    0  0.00000000000E+00  0.00000000000E+00 -0.45021189410E+03  0.15667821715E+04  0.15007050421E+04 0.  0.
        5    1    3    3  502    0 -0.53743995448E+02  0.32695722200E+02  0.55551170507E+03  0.55908207963E+03  0.46999998093E+01 0.  1.
       -5    1    3    3    0  502  0.53743995448E+02 -0.32695722200E+02 -0.10057235992E+04  0.10077000919E+04  0.46999998093E+01 0. -1.
</event>
<event>
 5   0  0.6361716E-05  0.1502838E+04  0.7818609E-02  0.8882568E-01
       -1   -1    0    0    0  501  0.00000000000E+00  0.00000000000E+00  0.61941598903E+03  0.61941598905E+03  0.50400001928E-02 0.  1.
        1   -1    0    0  501    0  0.00000000000E+00  0.00000000000E+00 -0.91155262959E+03  0.91155262960E+03  0.50400001928E-02 0. -1.
    10030    2    1    2    0    0  0.00000000000E+00  0.00000000000E+00 -0.29213664056E+03  0.15309686187E+04  0.15028376807E+04 0.  0.
        3    1    3    3  502    0 -0.62443808814E+03 -0.41790042228E+03 -0.13775626510E+03  0.76389821811E+03  0.10100000352E+00 0. -1.
       -3    1    3    3    0  502  0.62443808814E+03  0.41790042228E+03 -0.15438037546E+03  0.76707040054E+03  0.10100000352E+00 0.  1.
</event>
<event>
 5   0  0.1228286E-04  0.1500572E+04  0.7818609E-02  0.8884073E-01
       -2   -1    0    0    0  501  0.00000000000E+00  0.00000000000E+00  0.34572833128E+03  0.34572833129E+03  0.25500000920E-02 0.  1.
        2   -1    0    0  501    0  0.00000000000E+00  0.00000000000E+00 -0.16282409738E+04  0.16282409738E+04  0.25500000920E-02 0. -1.
    10030    2    1    2    0    0  0.00000000000E+00  0.00000000000E+00 -0.12825126425E+04  0.19739693051E+04  0.15005719374E+04 0.  0.
        2    1    3    3  502    0  0.52560451798E+02  0.28612124025E+03  0.26851920735E+03  0.39589206854E+03  0.25500000920E-02 0.  1.
       -2    1    3    3    0  502 -0.52560451798E+02 -0.28612124025E+03 -0.15510318498E+04  0.15780772365E+04  0.25500000920E-02 0. -1.
</event>
<event>
 5   0  0.6509279E-05  0.1499986E+04  0.7818609E-02  0.8884462E-01
       -1   -1    0    0    0  501  0.00000000000E+00  0.00000000000E+00  0.30353433944E+03  0.30353433948E+03  0.50400001928E-02 0. -1.
        1   -1    0    0  501    0  0.00000000000E+00  0.00000000000E+00 -0.18531321269E+04  0.18531321269E+04  0.50400001928E-02 0.  1.
    10030    2    1    2    0    0  0.00000000000E+00  0.00000000000E+00 -0.15495977874E+04  0.21566664664E+04  0.14999856480E+04 0.  0.
        2    1    3    3  502    0  0.22785992480E+03  0.54737038996E+03 -0.11442403148E+03  0.60384381103E+03  0.25500000920E-02 0. -1.
       -2    1    3    3    0  502 -0.22785992480E+03 -0.54737038996E+03 -0.14351737560E+04  0.15528226553E+04  0.25500000920E-02 0.  1.
</event>
<event>
 5   0  0.6364378E-05  0.1500874E+04  0.7818609E-02  0.8883872E-01
        1   -1    0    0  501    0  0.00000000000E+00  0.00000000000E+00  0.12861723225E+04  0.12861723225E+04  0.50400001928E-02 0. -1.
       -1   -1    0    0    0  501  0.00000000000E+00  0.00000000000E+00 -0.43785373752E+03  0.43785373755E+03  0.50400001928E-02 0.  1.
    10030    2    1    2    0    0  0.00000000000E+00  0.00000000000E+00  0.84831858498E+03  0.17240260601E+04  0.15008735570E+04 0.  0.
        5    1    3    3  502    0 -0.71589551377E+03  0.67138487584E+02  0.67084335898E+03  0.98339557932E+03  0.46999998093E+01 0. -1.
       -5    1    3    3    0  502  0.71589551377E+03 -0.67138487584E+02  0.17747522600E+03  0.74063048073E+03  0.46999998093E+01 0.  1.
</event>
<event>
 5   0  0.1219810E-04  0.1497081E+04  0.7818609E-02  0.8886396E-01
        2   -1    0    0  501    0  0.00000000000E+00  0.00000000000E+00  0.12051819773E+04  0.12051819773E+04  0.25500000920E-02 0. -1.
       -2   -1    0    0    0  501  0.00000000000E+00  0.00000000000E+00 -0.46491961713E+03  0.46491961714E+03  0.25500000920E-02 0.  1.
    10030    2    1    2    0    0  0.00000000000E+00  0.00000000000E+00  0.74026236020E+03  0.16701015945E+04  0.14970808174E+04 0.  0.
        1    1    3    3  502    0  0.64861518835E+03  0.87534018413E+01 -0.46583098047E+02  0.65034473140E+03  0.50400001928E-02 0. -1.
       -1    1    3    3    0  502 -0.64861518835E+03 -0.87534018413E+01  0.78684545824E+03  0.10197568631E+04  0.50400001928E-02 0.  1.
</event>
<event>
 5   0  0.1228286E-04  0.1498539E+04  0.7818609E-02  0.8885425E-01
       -2   -1    0    0    0  501  0.00000000000E+00  0.00000000000E+00  0.87412967027E+03  0.87412967027E+03  0.25500000920E-02 0. -1.
        2   -1    0    0  501    0  0.00000000000E+00  0.00000000000E+00 -0.64224402533E+03  0.64224402534E+03  0.25500000920E-02 0.  1.
    10030    2    1    2    0    0  0.00000000000E+00  0.00000000000E+00  0.23188564493E+03  0.15163736956E+04  0.14985386990E+04 0.  0.
        2    1    3    3  502    0 -0.22172146199E+03  0.45364251021E+03 -0.44422731335E+03  0.67252497330E+03  0.25500000920E-02 0. -1.
       -2    1    3    3    0  502  0.22172146199E+03 -0.45364251021E+03  0.67611295828E+03  0.84384872231E+03  0.25500000920E-02 0.  1.
</event>
<event>
 5   0  0.1216921E-04  0.1500436E+04  0.7818609E-02  0.8884163E-01
       -2   -1    0    0    0  501  0.00000000000E+00  0.00000000000E+00  0.23935735742E+03  0.23935735743E+03  0.25500000920E-02 0.  1.
        2   -1    0    0  501    0  0.00000000000E+00  0.00000000000E+00 -0.23514102824E+04  0.23514102824E+04  0.25500000920E-02 0. -1.
    10030    2    1    2    0    0  0.00000000000E+00  0.00000000000E+00 -0.21120529250E+04  0.25907676399E+04  0.15004364051E+04 0.  0.
        4    1    3    3  502    0 -0.33093365955E+03 -0.37586995263E+03 -0.20205422615E+04  0.20816791183E+04  0.12699999809E+01 0. -1.
       -4    1    3    3    0  502  0.33093365955E+03  0.37586995263E+03 -0.91510663500E+02  0.50908852152E+03  0.12699999809E+01 0.  1.
</event>
<event>
 5   0  0.1254487E-04  0.1496253E+04  0.7818609E-02  0.8886949E-01
        2   -1    0    0  501    0  0.00000000000E+00  0.00000000000E+00  0.16886088615E+04  0.16886088615E+04  0.25500000920E-02 0. -1.
       -2   -1    0    0    0  501  0.00000000000E+00  0.00000000000E+00 -0.33145223717E+03  0.33145223718E+03  0.25500000920E-02 0.  1.
    10030    2    1    2    0    0  0.00000000000E+00  0.00000000000E+00  0.13571566243E+04  0.20200610986E+04  0.14962528995E+04 0.  0.
        5    1    3    3  502    0  0.14793538267E+03  0.37874166265E+03  0.15263822914E+04  0.15796186610E+04  0.46999998093E+01 0. -1.
       -5    1    3    3    0  502 -0.14793538267E+03 -0.37874166265E+03 -0.16922566716E+03  0.44044243767E+03  0.46999998093E+01 0.  1.
</event>
<event>
 5   0  0.1216921E-04  0.1499051E+04  0.7818609E-02  0.8885084E-01
       -2   -1    0    0    0  501  0.00000000000E+00  0.00000000000E+00  0.51712538553E+03  0.51712538554E+03  0.25500000920E-02 0. -1.
        2   -1    0    0  501    0  0.00000000000E+00  0.00000000000E+00 -0.10863677012E+04  0.10863677012E+04  0.25500000920E-02 0.  1.
    10030    2    1    2    0    0  0.00000000000E+00  0.00000000000E+00 -0.56924231565E+03  0.16034930867E+04  0.14990507881E+04 0.  0.
        4    1    3    3  502    0  0.33548677918E+03  0.55194572999E+03  0.12212337974E+03  0.65735165675E+03  0.12699999809E+01 0.  1.
       -4    1    3    3    0  502 -0.33548677918E+03 -0.55194572999E+03 -0.69136569539E+03  0.94614142997E+03  0.12699999809E+01 0. -1.
</event>
<event>
 5   0  0.1219810E-04  0.1499259E+04  0.7818609E-02  0.8884946E-01
       -2   -1    0    0    0  501  0.00000000000E+00  0.00000000000E+00  0.79236009608E+03  0.79236009608E+03  0.25500000920E-02 0. -1.
        2   -1    0    0  501    0  0.00000000000E+00  0.00000000000E+00 -0.70920329386E+03  0.70920329386E+03  0.25500000920E-02 0.  1.
    10030    2    1    2    0    0  0.00000000000E+00  0.00000000000E+00  0.83156802223E+02  0.15015633899E+04  0.14992590037E+04 0.  0.
        1    1    3    3  502    0 -0.65056436467E+03 -0.88812147566E+02 -0.32067187512E+03  0.73072022119E+03  0.50400001928E-02 0.  1.
       -1    1    3    3    0  502  0.65056436467E+03  0.88812147566E+02  0.40382867734E+03  0.77084316875E+03  0.50400001928E-02 0. -1.
</event>
<event>
 5   0  0.6542036E-05  0.1498858E+04  0.7818609E-02  0.8885213E-01
       -1   -1    0    0    0  501  0.00000000000E+00  0.00000000000E+00  0.25400445485E+03  0.25400445490E+03  0.50400001928E-02 0. -1.
        1   -1    0    0  501    0  0.00000000000E+00  0.00000000000E+00 -0.22111573419E+04  0.22111573419E+04  0.50400001928E-02 0.  1.
    10030    2    1    2    0    0  0.00000000000E+00  0.00000000000E+00 -0.19571528871E+04  0.24651617968E+04  0.14988579856E+04 0.  0.
        4    1    3    3  502    0  0.20501171415E+03 -0.27141544977E+03 -0.20768893950E+04  0.21045586998E+04  0.12699999809E+01 0.  1.
       -4    1    3    3    0  502 -0.20501171415E+03  0.27141544977E+03  0.11973650790E+03  0.36060309696E+03  0.12699999809E+01 0. -1.
</event>
<event>
 5   0  0.1228286E-04  0.1501476E+04  0.7818609E-02  0.8883472E-01
        2   -1    0    0  501    0  0.00000000000E+00  0.00000000000E+00  0.16145306217E+04  0.16145306217E+04  0.25500000920E-02 0.  1.
       -2   -1    0    0    0  501  0.00000000000E+00  0.00000000000E+00 -0.34908431947E+03  0.34908431948E+03  0.25500000920E-02 0. -1.
    10030    2    1    2    0    0  0.00000000000E+00  0.00000000000E+00  0.12654463022E+04  0.19636149412E+04  0.15014757052E+04 0.  0.
        2    1    3    3  502    0 -0.47869923182E+02 -0.15975928426E+03  0.15899975424E+04  0.15987203455E+04  0.25500000920E-02 0.  1.
       -2    1    3    3    0  502  0.47869923182E+02  0.15975928426E+03 -0.32455124014E+03  0.36489459565E+03  0.25500000920E-02 0. -1.
</event>
<event>
 5   0  0.1186664E-04  0.1495072E+04  0.7818609E-02  0.8887737E-01
       -2   -1    0    0    0  501  0.00000000000E+00  0.00000000000E+00  0.10850024265E+04  0.10850024265E+04  0.25500000920E-02 0.  1.
        2   -1    0    0  501    0  0.00000000000E+00  0.00000000000E+00 -0.51503084211E+03  0.51503084211E+03  0.25500000920E-02 0. -1.
    10030    2    1    2    0    0  0.00000000000E+00  0.00000000000E+00  0.56997158438E+03  0.16000332686E+04  0.14950715212E+04 0.  0.
        3    1    3    3  502    0 -0.44066984236E+03 -0.48529776903E+03  0.66952447630E+03  0.93699886295E+03  0.10100000352E+00 0.  1.
       -3    1    3    3    0  502  0.44066984236E+03  0.48529776903E+03 -0.99552891924E+02  0.66303440565E+03  0.10100000352E+00 0. -1.
</event>
<event>
 5   0  0.4462875E-05  0.1499618E+04  0.7818609E-02  0.8884707E-01
       -4   -1    0    0    0  501  0.00000000000E+00  0.00000000000E+00  0.12434396359E+04  0.12434402845E+04  0.12699999809E+01 0.  1.
        4   -1    0    0  501    0  0.00000000000E+00  0.00000000000E+00 -0.45214197723E+03  0.45214376085E+03  0.12699999809E+01 0. -1.
    10030    2    1    2    0    0  0.00000000000E+00  0.00000000000E+00  0.79129765867E+03  0.16955840453E+04  0.14996177080E+04 0.  0.
        3    1    3    3  502    0 -0.64916927467E+03 -0.29352685320E+03  0.65993377966E+03  0.97112891238E+03  0.10100000352E+00 0.  1.
       -3    1    3    3    0  502  0.64916927467E+03  0.29352685320E+03  0.13136387901E+03  0.72445513293E+03  0.10100000352E+00 0. -1.
</event>
<event>
 5   0  0.1219810E-04  0.1500177E+04  0.7818609E-02  0.8884335E-01
        2   -1    0    0  501    0  0.00000000000E+00  0.00000000000E+00  0.11742735801E+04  0.11742735801E+04  0.25500000920E-02 0. -1.
       -2   -1    0    0    0  501  0.00000000000E+00  0.00000000000E+00 -0.47913243454E+03  0.47913243454E+03  0.25500000920E-02 0.  1.
    10030    2    1    2    0    0  0.00000000000E+00  0.00000000000E+00  0.69514114555E+03  0.16534060146E+04  0.15001767352E+04 0.  0.
        1    1    3    3  502    0 -0.25266414456E+03 -0.39548991252E+03  0.99246999835E+03  0.10978379382E+04  0.50400001928E-02 0. -1.
       -1    1    3    3    0  502  0.25266414456E+03  0.39548991252E+03 -0.29732885279E+03  0.55556807646E+03  0.50400001928E-02 0.  1.
</event>
<event>
 5   0  0.6668433E-05  0.1512925E+04  0.7818609E-02  0.8875903E-01
        1   -1    0    0  501    0  0.00000000000E+00  0.00000000000E+00  0.17743984709E+04  0.17743984709E+04  0.50400001928E-02 0. -1.
       -1   -1    0    0    0  501  0.00000000000E+00  0.00000000000E+00 -0.32249563737E+03  0.32249563741E+03  0.50400001928E-02 0.  1.
    10030    2    1    2    0    0  0.00000000000E+00  0.00000000000E+00  0.14519028335E+04  0.20968941083E+04  0.15129253331E+04 0.  0.
        1    1    3    3  502    0 -0.52074603946E+03 -0.30709350902E+03  0.13561607267E+04  0.14848079935E+04  0.50400001928E-02 0. -1.
       -1    1    3    3    0  502  0.52074603946E+03  0.30709350902E+03  0.95742106821E+02  0.61208611481E+03  0.50400001928E-02 0.  1.
</event>
<event>
 5   0  0.1228286E-04  0.1503525E+04  0.7818609E-02  0.8882112E-01
       -2   -1    0    0    0  501  0.00000000000E+00  0.00000000000E+00  0.59515592930E+03  0.59515592930E+03  0.25500000920E-02 0.  1.
        2   -1    0    0  501    0  0.00000000000E+00  0.00000000000E+00 -0.94957756779E+03  0.94957756779E+03  0.25500000920E-02 0. -1.
    10030    2    1    2    0    0  0.00000000000E+00  0.00000000000E+00 -0.35442163849E+03  0.15447334971E+04  0.15035248183E+04 0.  0.
        2    1    3    3  502    0 -0.62632411532E+03 -0.20182110129E+03 -0.55067479670E+03  0.85805383636E+03  0.25500000920E-02 0. -1.
       -2    1    3    3    0  502  0.62632411532E+03  0.20182110129E+03  0.19625315821E+03  0.68667966074E+03  0.25500000920E-02 0.  1.
</event>
<event>
 5   0  0.6364378E-05  0.1501077E+04  0.7818609E-02  0.8883737E-01
        1   -1    0    0  501    0  0.00000000000E+00  0.00000000000E+00  0.16894785995E+04  0.16894785995E+04  0.50400001928E-02 0.  1.
       -1   -1    0    0    0  501  0.00000000000E+00  0.00000000000E+00 -0.33342127286E+03  0.33342127290E+03  0.50400001928E-02 0. -1.
    10030    2    1    2    0    0  0.00000000000E+00  0.00000000000E+00  0.13560573267E+04  0.20228998724E+04  0.15010770869E+04 0.  0.
        5    1    3    3  502    0  0.39753549075E+03  0.28302204149E+03 -0.90417274321E+02  0.49631977179E+03  0.46999998093E+01 0. -1.
       -5    1    3    3    0  502 -0.39753549075E+03 -0.28302204149E+03  0.14464746010E+04  0.15265801007E+04  0.46999998093E+01 0.  1.
</event>
<event>
 5   0  0.1254487E-04  0.1493445E+04  0.7818609E-02  0.8888824E-01
        2   -1    0    0  501    0  0.00000000000E+00  0.00000000000E+00  0.12954626078E+04  0.12954626078E+04  0.25500000920E-02 0. -1.
       -2   -1    0    0    0  501  0.00000000000E+00  0.00000000000E+00 -0.43042106274E+03  0.43042106274E+03  0.25500000920E-02 0.  1.
    10030    2    1    2    0    0  0.00000000000E+00  0.00000000000E+00  0.86504154511E+03  0.17258836706E+04  0.14934448666E+04 0.  0.
        5    1    3    3  502    0 -0.55524920084E+03 -0.63306314458E+02 -0.13979839141E+03  0.57608596990E+03  0.46999998093E+01 0.  1.
       -5    1    3    3    0  502  0.55524920084E+03  0.63306314458E+02  0.10048399365E+04  0.11497977007E+04  0.46999998093E+01 0. -1.
</event>
<event>
 5   0  0.6542036E-05  0.1496909E+04  0.7818609E-02  0.8886511E-01
        1   -1    0    0  501    0  0.00000000000E+00  0.00000000000E+00  0.59756180696E+03  0.59756180698E+03  0.50400001928E-02 0.  1.
       -1   -1    0    0    0  501  0.00000000000E+00  0.00000000000E+00 -0.93744947000E+03  0.93744947002E+03  0.50400001928E-02 0. -1.
    10030    2    1    2    0    0  0.00000000000E+00  0.00000000000E+00 -0.33988766305E+03  0.15350112770E+04  0.14969088139E+04 0.  0.
        4    1    3    3  502    0 -0.35067299648E+03 -0.37257171849E+03  0.39022181535E+03  0.64347176624E+03  0.12699999809E+01 0.  1.
       -4    1    3    3    0  502  0.35067299648E+03  0.37257171849E+03 -0.73010947840E+03  0.89153951075E+03  0.12699999809E+01 0. -1.
</event>
<event>
 5   0  0.1216921E-04  0.1499150E+04  0.7818609E-02  0.8885019E-01
       -2   -1    0    0    0  501  0.00000000000E+00  0.00000000000E+00  0.33172168498E+03  0.33172168499E+03  0.25500000920E-02 0. -1.
        2   -1    0    0  501    0  0.00000000000E+00  0.00000000000E+00 -0.16937766963E+04  0.16937766963E+04  0.25500000920E-02 0.  1.
    10030    2    1    2    0    0  0.00000000000E+00  0.00000000000E+00 -0.13620550113E+04  0.20254983813E+04  0.14991497053E+04 0.  0.
        4    1    3    3  502    0  0.66286084345E+02 -0.28290902473E+03  0.25253094650E+03  0.38497383429E+03  0.12699999809E+01 0. -1.
       -4    1    3    3    0  502 -0.66286084345E+02  0.28290902473E+03 -0.16145859578E+04  0.16405245470E+04  0.12699999809E+01 0.  1.
</event>
<event>
 5   0  0.6668433E-05  0.1501839E+04  0.7818609E-02  0.8883231E-01
        1   -1    0    0  501    0  0.00000000000E+00  0.00000000000E+00  0.12943033790E+04  0.12943033790E+04  0.50400001928E-02 0. -1.
       -1   -1    0    0    0  501  0.00000000000E+00  0.00000000000E+00 -0.43566303914E+03  0.43566303917E+03  0.50400001928E-02 0.  1.
    10030    2    1    2    0    0  0.00000000000E+00  0.00000000000E+00  0.85864033986E+03  0.17299664182E+04  0.15018390642E+04 0.  0.
        1    1    3    3  502    0 -0.63517067739E+03  0.39194385221E+03  0.33420394841E+03  0.81777383906E+03  0.50400001928E-02 0.  1.
       -1    1    3    3    0  502  0.63517067739E+03 -0.39194385221E+03  0.52443639145E+03  0.91219257912E+03  0.50400001928E-02 0. -1.
</event>
<event>
 5   0  0.1219810E-04  0.1501516E+04  0.7818609E-02  0.8883445E-01
       -2   -1    0    0    0  501  0.00000000000E+00  0.00000000000E+00  0.33533613516E+03  0.33533613517E+03  0.25500000920E-02 0.  1.
        2   -1    0    0  501    0  0.00000000000E+00  0.00000000000E+00 -0.16808141820E+04  0.16808141820E+04  0.25500000920E-02 0. -1.
    10030    2    1    2    0    0  0.00000000000E+00  0.00000000000E+00 -0.13454780469E+04  0.20161503172E+04  0.15015162094E+04 0.  0.
        1    1    3    3  502    0  0.23577428406E+03 -0.11090681761E+03  0.27267779444E+03  0.37715118298E+03  0.50400001928E-02 0.  1.
       -1    1    3    3    0  502 -0.23577428406E+03  0.11090681761E+03 -0.16181558413E+04  0.16389991342E+04  0.50400001928E-02 0. -1.
</event>
<event>
 5   0  0.6542036E-05  0.1500184E+04  0.7818609E-02  0.8884331E-01
        1   -1    0    0  501    0  0.00000000000E+00  0.00000000000E+00  0.51188865276E+03  0.51188865278E+03  0.50400001928E-02 0.  1.
       -1   -1    0    0    0  501  0.00000000000E+00  0.00000000000E+00 -0.10991411876E+04  0.10991411876E+04  0.50400001928E-02 0. -1.
    10030    2    1    2    0    0  0.00000000000E+00  0.00000000000E+00 -0.58725253482E+03  0.16110298404E+04  0.15001838577E+04 0.  0.
        4    1    3    3  502    0 -0.68052990513E+03 -0.26001962901E+03 -0.48544426504E+03  0.87543640923E+03  0.12699999809E+01 0.  1.
       -4    1    3    3    0  502  0.68052990513E+03  0.26001962901E+03 -0.10180826978E+03  0.73559343114E+03  0.12699999809E+01 0. -1.
</event>
<event>
 5   0  0.1186664E-04  0.1502226E+04  0.7818609E-02  0.8882974E-01
        2   -1    0    0  501    0  0.00000000000E+00  0.00000000000E+00  0.14553456534E+04  0.14553456534E+04  0.25500000920E-02 0. -1.
       -2   -1    0    0    0  501  0.00000000000E+00  0.00000000000E+00 -0.38765402468E+03  0.38765402469E+03  0.25500000920E-02 0.  1.
    10030    2    1    2    0    0  0.00000000000E+00  0.00000000000E+00  0.10676916288E+04  0.18429996781E+04  0.15022258151E+04 0.  0.
        3    1    3    3  502    0 -0.86192116056E+02 -0.19176266864E+03  0.14185102987E+04  0.14340060947E+04  0.10100000352E+00 0. -1.
       -3    1    3    3    0  502  0.86192116056E+02  0.19176266864E+03 -0.35081866990E+03  0.40899358345E+03  0.10100000352E+00 0.  1.
</event>
<event>
 5   0  0.6361716E-05  0.1502365E+04  0.7818609E-02  0.8882882E-01
        1   -1    0    0  501    0  0.00000000000E+00  0.00000000000E+00  0.10026614006E+04  0.10026614007E+04  0.50400001928E-02 0. -1.
       -1   -1    0    0    0  501  0.00000000000E+00  0.00000000000E+00 -0.56277757594E+03  0.56277757596E+03  0.50400001928E-02 0.  1.
    10030    2    1    2    0    0  0.00000000000E+00  0.00000000000E+00  0.43988382470E+03  0.15654389766E+04  0.15023652719E+04 0.  0.
        3    1    3    3  502    0  0.61361506704E+02 -0.71947084551E+03  0.43568978296E+03  0.84334401594E+03  0.10100000352E+00 0. -1.
       -3    1    3    3    0  502 -0.61361506704E+02  0.71947084551E+03  0.41940417439E+01  0.72209496067E+03  0.10100000352E+00 0.  1.
</event>
<event>
 5   0  0.1219810E-04  0.1501599E+04  0.7818609E-02  0.8883390E-01
       -2   -1    0    0    0  501  0.00000000000E+00  0.00000000000E+00  0.53966568259E+03  0.53966568260E+03  0.25500000920E-02 0. -1.
        2   -1    0    0  501    0  0.00000000000E+00  0.00000000000E+00 -0.10445355116E+04  0.10445355116E+04  0.25500000920E-02 0.  1.
    10030    2    1    2    0    0  0.00000000000E+00  0.00000000000E+00 -0.50486982901E+03  0.15842011942E+04  0.15015991074E+04 0.  0.
        1    1    3    3  502    0 -0.54783715087E+02  0.27783121046E+03 -0.98603336660E+03  0.10258914353E+04  0.50400001928E-02 0.  1.
       -1    1    3    3    0  502  0.54783715087E+02 -0.27783121046E+03  0.48116353760E+03  0.55830975890E+03  0.50400001928E-02 0. -1.
</event>
<event>
 5   0  0.6542036E-05  0.1497850E+04  0.7818609E-02  0.8885884E-01
       -1   -1    0    0    0  501  0.00000000000E+00  0.00000000000E+00  0.47280346850E+03  0.47280346853E+03  0.50400001928E-02 0. -1.
        1   -1    0    0  501    0  0.00000000000E+00  0.00000000000E+00 -0.11863037271E+04  0.11863037271E+04  0.50400001928E-02 0.  1.
    10030    2    1    2    0    0  0.00000000000E+00  0.00000000000E+00 -0.71350025863E+03  0.16591071957E+04  0.14978498148E+04 0.  0.
        4    1    3    3  502    0  0.68207376788E+03  0.44615282185E+02 -0.69575856666E+03  0.97534442338E+03  0.12699999809E+01 0.  1.
       -4    1    3    3    0  502 -0.68207376788E+03 -0.44615282185E+02 -0.17741691965E+02  0.68376277229E+03  0.12699999809E+01 0. -1.
</event>
<event>
 5   0  0.1186664E-04  0.1510965E+04  0.7818609E-02  0.8877194E-01
        2   -1    0    0  501    0  0.00000000000E+00  0.00000000000E+00  0.19842851421E+04  0.19842851421E+04  0.25500000920E-02 0.  1.
       -2   -1    0    0    0  501  0.00000000000E+00  0.00000000000E+00 -0.28763710388E+03  0.28763710390E+03  0.25500000920E-02 0. -1.
    10030    2    1    2    0    0  0.00000000000E+00  0.00000000000E+00  0.16966480382E+04  0.22719222459E+04  0.15109652962E+04 0.  0.
        3    1    3    3  502    0  0.52307256015E+03  0.53703163470E+03  0.70770397677E+03  0.10309475296E+04  0.10100000352E+00 0. -1.
       -3    1    3    3    0  502 -0.52307256015E+03 -0.53703163470E+03  0.98894406140E+03  0.12409747164E+04  0.10100000352E+00 0.  1.
</event>
<event>
 5   0  0.6542036E-05  0.1501430E+04  0.7818609E-02  0.8883503E-01
       -1   -1    0    0    0  501  0.00000000000E+00  0.00000000000E+00  0.42653698338E+03  0.42653698341E+03  0.50400001928E-02 0.  1.
        1   -1    0    0  501    0  0.00000000000E+00  0.00000000000E+00 -0.13212757211E+04  0.13212757211E+04  0.50400001928E-02 0. -1.
    10030    2    1    2    0    0  0.00000000000E+00  0.00000000000E+00 -0.89473873774E+03  0.17478127045E+04  0.15014299322E+04 0.  0.
        4    1    3    3  502    0  0.58997749192E+03  0.32648280852E+03 -0.83153409431E+03  0.10705676196E+04  0.12699999809E+01 0. -1.
       -4    1    3    3    0  502 -0.58997749192E+03 -0.32648280852E+03 -0.63204643434E+02  0.67724508494E+03  0.12699999809E+01 0.  1.
</event>
<event>
 5   0  0.4462875E-05  0.1492569E+04  0.7818609E-02  0.8889410E-01
        3   -1    0    0  501    0  0.00000000000E+00  0.00000000000E+00  0.15386466180E+04  0.15386466213E+04  0.10100000352E+00 0.  1.
       -3   -1    0    0    0  501  0.00000000000E+00  0.00000000000E+00 -0.36196778984E+03  0.36196780393E+03  0.10100000352E+00 0. -1.
    10030    2    1    2    0    0  0.00000000000E+00  0.00000000000E+00  0.11766788281E+04  0.19006144252E+04  0.14925689695E+04 0.  0.
        1    1    3    3  502    0 -0.38198840081E+03  0.58284362545E+03  0.24827488997E+03  0.73977175608E+03  0.50400001928E-02 0.  1.
       -1    1    3    3    0  502  0.38198840081E+03 -0.58284362545E+03  0.92840393815E+03  0.11608426691E+04  0.50400001928E-02 0. -1.
</event>
<event>
 5   0  0.6542036E-05  0.1509235E+04  0.7818609E-02  0.8878335E-01
        1   -1    0    0  501    0  0.00000000000E+00  0.00000000000E+00  0.88216083860E+03  0.88216083861E+03  0.50400001928E-02 0. -1.
       -1   -1    0    0    0  501  0.00000000000E+00  0.00000000000E+00 -0.64551453200E+03  0.64551453202E+03  0.50400001928E-02 0.  1.
    10030    2    1    2    0    0  0.00000000000E+00  0.00000000000E+00  0.23664630659E+03  0.15276753706E+04  0.15092350922E+04 0.  0.
        4    1    3    3  502    0  0.24667383407E+03  0.59792788220E+03  0.51176277580E+03  0.82478390159E+03  0.12699999809E+01 0. -1.
       -4    1    3    3    0  502 -0.24667383407E+03 -0.59792788220E+03 -0.27511646921E+03  0.70289146904E+03  0.12699999809E+01 0.  1.
</event>
<event>
 5   0  0.6364378E-05  0.1500280E+04  0.7818609E-02  0.8884267E-01
       -1   -1    0    0    0  501  0.00000000000E+00  0.00000000000E+00  0.10837601728E+04  0.10837601728E+04  0.50400001928E-02 0. -1.
        1   -1    0    0  501    0  0.00000000000E+00  0.00000000000E+00 -0.51921996096E+03  0.51921996098E+03  0.50400001928E-02 0.  1.
    10030    2    1    2    0    0  0.00000000000E+00  0.00000000000E+00  0.56454021186E+03  0.16029801338E+04  0.15002798601E+04 0.  0.
        5    1    3    3  502    0 -0.90865847616E+02 -0.70083362165E+03  0.55101011117E+03  0.89613536930E+03  0.46999998093E+01 0. -1.
       -5    1    3    3    0  502  0.90865847616E+02  0.70083362165E+03  0.13530100692E+02  0.70684476452E+03  0.46999998093E+01 0.  1.
</event>
<event>
 5   0  0.1228286E-04  0.1500984E+04  0.7818609E-02  0.8883799E-01
        2   -1    0    0  501    0  0.00000000000E+00  0.00000000000E+00  0.55291789576E+03  0.55291789576E+03  0.25500000920E-02 0. -1.
       -2   -1    0    0    0  501  0.00000000000E+00  0.00000000000E+00 -0.10186648397E+04  0.10186648397E+04  0.25500000920E-02 0.  1.
    10030    2    1    2    0    0  0.00000000000E+00  0.00000000000E+00 -0.46574694398E+03  0.15715827355E+04  0.15009837037E+04 0.  0.
        2    1    3    3  502    0 -0.25121726339E+03  0.44328595602E+03  0.34406615628E+03  0.61481222510E+03  0.25500000920E-02 0. -1.
       -2    1    3    3    0  502  0.25121726339E+03 -0.44328595602E+03 -0.80981310026E+03  0.95677051041E+03  0.25500000920E-02 0.  1.
</event>
<event>
 5   0  0.1216921E-04  0.1499575E+04  0.7818609E-02  0.8884735E-01
       -2   -1    0    0    0  501  0.00000000000E+00  0.00000000000E+00  0.48764966708E+03  0.48764966709E+03  0.25500000920E-02 0. -1.
        2   -1    0    0  501    0  0.00000000000E+00  0.00000000000E+00 -0.11528391736E+04  0.11528391736E+04  0.25500000920E-02 0.  1.
    10030    2    1    2    0    0  0.00000000000E+00  0.00000000000E+00 -0.66518950651E+03  0.16404888407E+04  0.14995754589E+04 0.  0.
        4    1    3    3  502    0  0.17863215591E+03  0.65711934435E+03  0.10682747431E+02  0.68105140323E+03  0.12699999809E+01 0.  1.
       -4    1    3    3    0  502 -0.17863215591E+03 -0.65711934435E+03 -0.67587225394E+03  0.95943743746E+03  0.12699999809E+01 0. -1.
</event>
<event>
 5   0  0.1254487E-04  0.1502922E+04  0.7818609E-02  0.8882512E-01
       -2   -1    0    0    0  501  0.00000000000E+00  0.00000000000E+00  0.95948933337E+03  0.95948933337E+03  0.25500000920E-02 0.  1.
        2   -1    0    0  501    0  0.00000000000E+00  0.00000000000E+00 -0.58853582788E+03  0.58853582789E+03  0.25500000920E-02 0. -1.
    10030    2    1    2    0    0  0.00000000000E+00  0.00000000000E+00  0.37095350549E+03  0.15480251613E+04  0.15029222856E+04 0.  0.
        5    1    3    3  502    0 -0.68267442894E+03  0.21614767262E+03 -0.49192843992E+02  0.71777866937E+03  0.46999998093E+01 0.  1.
       -5    1    3    3    0  502  0.68267442894E+03 -0.21614767262E+03  0.42014634948E+03  0.83024649188E+03  0.46999998093E+01 0. -1.
</event>
<event>
 5   0  0.4462875E-05  0.1500429E+04  0.7818609E-02  0.8884168E-01
       -4   -1    0    0    0  501  0.00000000000E+00  0.00000000000E+00  0.16787605076E+04  0.16787609880E+04  0.12699999809E+01 0. -1.
        4   -1    0    0  501    0  0.00000000000E+00  0.00000000000E+00 -0.33525868048E+03  0.33526108593E+03  0.12699999809E+01 0.  1.
    10030    2    1    2    0    0  0.00000000000E+00  0.00000000000E+00  0.13435018272E+04  0.20140220739E+04  0.15004291902E+04 0.  0.
        4    1    3    3  502    0 -0.50934279773E+03 -0.22679247634E+03  0.13455192042E+04  0.14564643678E+04  0.12699999809E+01 0. -1.
       -4    1    3    3    0  502  0.50934279773E+03  0.22679247634E+03 -0.20173770773E+01  0.55755770610E+03  0.12699999809E+01 0.  1.
</event>
<event>
 5   0  0.6542036E-05  0.1519683E+04  0.7818609E-02  0.8871468E-01
        1   -1    0    0  501    0  0.00000000000E+00  0.00000000000E+00  0.65915949136E+03  0.65915949138E+03  0.50400001928E-02 0. -1.
       -1   -1    0    0    0  501  0.00000000000E+00  0.00000000000E+00 -0.87590205404E+03  0.87590205405E+03  0.50400001928E-02 0.  1.
    10030    2    1    2    0    0  0.00000000000E+00  0.00000000000E+00 -0.21674256267E+03  0.15350615454E+04  0.15196830623E+04 0.  0.
        4    1    3    3  502    0 -0.72100504846E+03 -0.11976190989E+03  0.10149632344E+03  0.73789857809E+03  0.12699999809E+01 0.  1.
       -4    1    3    3    0  502  0.72100504846E+03  0.11976190989E+03 -0.31823888612E+03  0.79716296735E+03  0.12699999809E+01 0. -1.
</event>
<event>
 5   0  0.6668433E-05  0.1498351E+04  0.7818609E-02  0.8885550E-01
       -1   -1    0    0    0  501  0.00000000000E+00  0.00000000000E+00  0.23486283073E+03  0.23486283078E+03  0.50400001928E-02 0. -1.
        1   -1    0    0  501    0  0.00000000000E+00  0.00000000000E+00 -0.23897511909E+04  0.23897511909E+04  0.50400001928E-02 0.  1.
    10030    2    1    2    0    0  0.00000000000E+00  0.00000000000E+00 -0.21548883602E+04  0.26246140217E+04  0.14983507327E+04 0.  0.
        1    1    3    3  502    0 -0.49900433723E+03 -0.47690930880E+03 -0.56730271099E+03  0.89346526699E+03  0.50400001928E-02 0. -1.
       -1    1    3    3    0  502  0.49900433723E+03  0.47690930880E+03 -0.15875856492E+04  0.17311487547E+04  0.50400001928E-02 0.  1.
</event>
<event>
 5   0  0.1186664E-04  0.1489221E+04  0.7818609E-02  0.8891653E-01
       -2   -1    0    0    0  501  0.00000000000E+00  0.00000000000E+00  0.34351173345E+03  0.34351173346E+03  0.25500000920E-02 0. -1.
        2   -1    0    0  501    0  0.00000000000E+00  0.00000000000E+00 -0.16140491986E+04  0.16140491986E+04  0.25500000920E-02 0.  1.
    10030    2    1    2    0    0  0.00000000000E+00  0.00000000000E+00 -0.12705374652E+04  0.19575609321E+04  0.14892210556E+04 0.  0.
        3    1    3    3  502    0  0.49581236531E+03  0.55122725566E+03 -0.54454593755E+03  0.91989764500E+03  0.10100000352E+00 0.  1.
       -3    1    3    3    0  502 -0.49581236531E+03 -0.55122725566E+03 -0.72599152764E+03  0.10376632871E+04  0.10100000352E+00 0. -1.
</event>
<event>
 5   0  0.1219810E-04  0.1496616E+04  0.7818609E-02  0.8886706E-01
        2   -1    0    0  501    0  0.00000000000E+00  0.00000000000E+00  0.43220335827E+03  0.43220335828E+03  0.25500000920E-02 0.  1.
       -2   -1    0    0    0  501  0.00000000000E+00  0.00000000000E+00 -0.12956053902E+04  0.12956053902E+04  0.25500000920E-02 0. -1.
    10030    2    1    2    0    0  0.00000000000E+00  0.00000000000E+00 -0.86340203189E+03  0.17278087484E+04  0.14966161841E+04 0.  0.
        1    1    3    3  502    0 -0.37289998370E+03 -0.61612838307E+03 -0.19709376822E+03  0.74666895996E+03  0.50400001928E-02 0.  1.
       -1    1    3    3    0  502  0.37289998370E+03  0.61612838307E+03 -0.66630826367E+03  0.98113978848E+03  0.50400001928E-02 0. -1.
</event>
<event>
 5   0  0.1254487E-04  0.1498238E+04  0.7818609E-02  0.8885626E-01
        2   -1    0    0  501    0  0.00000000000E+00  0.00000000000E+00  0.21722083460E+04  0.21722083460E+04  0.25500000920E-02 0. -1.
       -2   -1    0    0    0  501  0.00000000000E+00  0.00000000000E+00 -0.25834490699E+03  0.25834490700E+03  0.25500000920E-02 0.  1.
    10030    2    1    2    0    0  0.00000000000E+00  0.00000000000E+00  0.19138634390E+04  0.24305532530E+04  0.14982375821E+04 0.  0.
        5    1    3    3  502    0  0.56570937438E+03  0.10372713771E+02  0.16049190516E+03  0.58814490653E+03  0.46999998093E+01 0.  1.
       -5    1    3    3    0  502 -0.56570937438E+03 -0.10372713771E+02  0.17533715339E+04  0.18424083465E+04  0.46999998093E+01 0. -1.
</event>
<event>
 5   0  0.6361716E-05  0.1501012E+04  0.7818609E-02  0.8883780E-01
       -1   -1    0    0    0  501  0.00000000000E+00  0.00000000000E+00  0.32165780273E+03  0.32165780277E+03  0.50400001928E-02 0. -1.
        1   -1    0    0  501    0  0.00000000000E+00  0.00000000000E+00 -0.17511135400E+04  0.17511135400E+04  0.50400001928E-02 0.  1.
    10030    2    1    2    0    0  0.00000000000E+00  0.00000000000E+00 -0.14294557373E+04  0.20727713428E+04  0.15010121034E+04 0.  0.
        3    1    3    3  502    0 -0.31204926359E+02  0.20354796817E+03  0.28188185523E+03  0.34908868971E+03  0.10100000352E+00 0. -1.
       -3    1    3    3    0  502  0.31204926359E+02 -0.20354796817E+03 -0.17113375925E+04  0.17236826530E+04  0.10100000352E+00 0.  1.
</event>
<event>
 5   0  0.1228286E-04  0.1499832E+04  0.7818609E-02  0.8884565E-01
       -2   -1    0    0    0  501  0.00000000000E+00  0.00000000000E+00  0.48203268370E+03  0.48203268371E+03  0.25500000920E-02 0.  1.
        2   -1    0    0  501    0  0.00000000000E+00  0.00000000000E+00 -0.11666719466E+04  0.11666719466E+04  0.25500000920E-02 0. -1.
    10030    2    1    2    0    0  0.00000000000E+00  0.00000000000E+00 -0.68463926286E+03  0.16487046303E+04  0.14998320031E+04 0.  0.
        2    1    3    3  502    0 -0.18352705454E+03 -0.24203608905E+03  0.41138321069E+03  0.51137050580E+03  0.25500000920E-02 0.  1.
       -2    1    3    3    0  502  0.18352705454E+03  0.24203608905E+03 -0.10960224736E+04  0.11373341245E+04  0.25500000920E-02 0. -1.
</event>
<event>
 5   0  0.6668433E-05  0.1499970E+04  0.7818609E-02  0.8884473E-01
        1   -1    0    0  501    0  0.00000000000E+00  0.00000000000E+00  0.20002137116E+04  0.20002137116E+04  0.50400001928E-02 0. -1.
       -1   -1    0    0    0  501  0.00000000000E+00  0.00000000000E+00 -0.28120868790E+03  0.28120868794E+03  0.50400001928E-02 0.  1.
    10030    2    1    2    0    0  0.00000000000E+00  0.00000000000E+00  0.17190050237E+04  0.22814223995E+04  0.14999699642E+04 0.  0.
        1    1    3    3  502    0  0.70827843320E+03  0.13524421366E+03  0.54584093733E+03  0.90437363139E+03  0.50400001928E-02 0. -1.
       -1    1    3    3    0  502 -0.70827843320E+03 -0.13524421366E+03  0.11731640864E+04  0.13770487681E+04  0.50400001928E-02 0.  1.
</event>
<event>
 5   0  0.1186664E-04  0.1500770E+04  0.7818609E-02  0.8883941E-01
       -2   -1    0    0    0  501  0.00000000000E+00  0.00000000000E+00  0.95685130254E+03  0.95685130254E+03  0.25500000920E-02 0. -1.
        2   -1    0    0  501    0  0.00000000000E+00  0.00000000000E+00 -0.58846944175E+03  0.58846944175E+03  0.25500000920E-02 0.  1.
    10030    2    1    2    0    0  0.00000000000E+00  0.00000000000E+00  0.36838186079E+03  0.15453207443E+04  0.15007701381E+04 0.  0.
        3    1    3    3  502    0 -0.48052428205E+03  0.40400348143E+03  0.60743455025E+03  0.87355545999E+03  0.10100000352E+00 0. -1.
       -3    1    3    3    0  502  0.48052428205E+03 -0.40400348143E+03 -0.23905268946E+03  0.67176528430E+03  0.10100000352E+00 0.  1.
</event>
<event>
 5   0  0.1228286E-04  0.1502329E+04  0.7818609E-02  0.8882906E-01
        2   -1    0    0  501    0  0.00000000000E+00  0.00000000000E+00  0.11537805476E+04  0.11537805476E+04  0.25500000920E-02 0.  1.
       -2   -1    0    0    0  501  0.00000000000E+00  0.00000000000E+00 -0.48904276068E+03  0.48904276069E+03  0.25500000920E-02 0. -1.
    10030    2    1    2    0    0  0.00000000000E+00  0.00000000000E+00  0.66473778692E+03  0.16428233083E+04  0.15023288911E+04 0.  0.
        2    1    3    3  502    0 -0.69591341911E+03  0.64970789517E+02  0.63329761482E+03  0.94317684414E+03  0.25500000920E-02 0.  1.
       -2    1    3    3    0  502  0.69591341911E+03 -0.64970789517E+02  0.31440172104E+02  0.69964646416E+03  0.25500000920E-02 0. -1.
</event>
<event>
 5   0  0.6361716E-05  0.1496797E+04  0.7818609E-02  0.8886586E-01
        1   -1    0    0  501    0  0.00000000000E+00  0.00000000000E+00  0.57084652025E+03  0.57084652028E+03  0.50400001928E-02 0.  1.
       -1   -1    0    0    0  501  0.00000000000E+00  0.00000000000E+00 -0.98117433362E+03  0.98117433364E+03  0.50400001928E-02 0. -1.
    10030    2    1    2    0    0  0.00000000000E+00  0.00000000000E+00 -0.41032781337E+03  0.15520208539E+04  0.14967965181E+04 0.  0.
        3    1    3    3  502    0 -0.68626573413E+03 -0.23720603420E+03 -0.17166565822E+02  0.72630714004E+03  0.10100000352E+00 0. -1.
       -3    1    3    3    0  502  0.68626573413E+03  0.23720603420E+03 -0.39316124755E+03  0.82571371387E+03  0.10100000352E+00 0.  1.
</event>
<event>
 5   0  0.1254487E-04  0.1501171E+04  0.7818609E-02  0.8883675E-01
        2   -1    0    0  501    0  0.00000000000E+00  0.00000000000E+00  0.97729541677E+03  0.97729541677E+03  0.25500000920E-02 0. -1.
       -2   -1    0    0    0  501  0.00000000000E+00  0.00000000000E+00 -0.57646707671E+03  0.57646707671E+03  0.25500000920E-02 0.  1.
    10030    2    1    2    0    0  0.00000000000E+00  0.00000000000E+00  0.40082834006E+03  0.15537624935E+04  0.15011710522E+04 0.  0.
        5    1    3    3  502    0 -0.55812711247E+03 -0.35638869790E+03  0.56611626129E+03  0.87122241073E+03  0.46999998093E+01 0. -1.
       -5    1    3    3    0  502  0.55812711247E+03  0.35638869790E+03 -0.16528792123E+03  0.68254008276E+03  0.46999998093E+01 0.  1.
</event>
<event>
 5   0  0.1228286E-04  0.1500259E+04  0.7818609E-02  0.8884281E-01
        2   -1    0    0  501    0  0.00000000000E+00  0.00000000000E+00  0.15573456646E+04  0.15573456646E+04  0.25500000920E-02 0.  1.
       -2   -1    0    0    0  501  0.00000000000E+00  0.00000000000E+00 -0.36131625063E+03  0.36131625064E+03  0.25500000920E-02 0. -1.
    10030    2    1    2    0    0  0.00000000000E+00  0.00000000000E+00  0.11960294139E+04  0.19186619152E+04  0.15002590396E+04 0.  0.
        2    1    3    3  502    0  0.61499893404E+03 -0.41977268349E+02  0.51361879758E+02  0.61856594040E+03  0.25500000920E-02 0. -1.
       -2    1    3    3    0  502 -0.61499893404E+03  0.41977268349E+02  0.11446675342E+04  0.13000959748E+04  0.25500000920E-02 0.  1.
</event>
<event>
 5   0  0.4462875E-05  0.1500149E+04  0.7818609E-02  0.8884354E-01
       -4   -1    0    0    0  501  0.00000000000E+00  0.00000000000E+00  0.40141661337E+03  0.40141862237E+03  0.12699999809E+01 0.  1.
        4   -1    0    0  501    0  0.00000000000E+00  0.00000000000E+00 -0.14015606171E+04  0.14015611925E+04  0.12699999809E+01 0. -1.
    10030    2    1    2    0    0  0.00000000000E+00  0.00000000000E+00 -0.10001440037E+04  0.18029798149E+04  0.15001493874E+04 0.  0.
        4    1    3    3  502    0 -0.32096108089E+03 -0.17935439132E+03 -0.12858267921E+04  0.13373616434E+04  0.12699999809E+01 0. -1.
       -4    1    3    3    0  502  0.32096108089E+03  0.17935439132E+03  0.28568278835E+03  0.46561817146E+03  0.12699999809E+01 0.  1.
</event>
<event>
 5   0  0.6668433E-05  0.1517691E+04  0.7818609E-02  0.8872773E-01
        1   -1    0    0  501    0  0.00000000000E+00  0.00000000000E+00  0.55688134845E+03  0.55688134847E+03  0.50400001928E-02 0.  1.
       -1   -1    0    0    0  501  0.00000000000E+00  0.00000000000E+00 -0.10340559652E+04  0.10340559652E+04  0.50400001928E-02 0. -1.
    10030    2    1    2    0    0  0.00000000000E+00  0.00000000000E+00 -0.47717461675E+03  0.15909373137E+04  0.15176909834E+04 0.  0.
        1    1    3    3  502    0  0.42396103794E+03 -0.20928079107E+03 -0.86078609502E+03  0.98208661156E+03  0.50400001928E-02 0. -1.
       -1    1    3    3    0  502 -0.42396103794E+03  0.20928079107E+03  0.38361147826E+03  0.60885070213E+03  0.50400001928E-02 0.  1.
</event>
<event>
 5   0  0.1216921E-04  0.1502243E+04  0.7818609E-02  0.8882963E-01
        2   -1    0    0  501    0  0.00000000000E+00  0.00000000000E+00  0.12620305422E+04  0.12620305422E+04  0.25500000920E-02 0. -1.
       -2   -1    0    0    0  501  0.00000000000E+00  0.00000000000E+00 -0.44704419501E+03  0.44704419502E+03  0.25500000920E-02 0.  1.
    10030    2    1    2    0    0  0.00000000000E+00  0.00000000000E+00  0.81498634717E+03  0.17090747372E+04  0.15022428936E+04 0.  0.
        4    1    3    3  502    0  0.36454544296E+03 -0.58809441837E+03  0.74960199759E+02  0.69596628464E+03  0.12699999809E+01 0. -1.
       -4    1    3    3    0  502 -0.36454544296E+03  0.58809441837E+03  0.74002614741E+03  0.10131084526E+04  0.12699999809E+01 0.  1.
</event>
<event>
 5   0  0.1186664E-04  0.1499214E+04  0.7818609E-02  0.8884976E-01
       -2   -1    0    0    0  501  0.00000000000E+00  0.00000000000E+00  0.37467446375E+03  0.37467446376E+03  0.25500000920E-02 0. -1.
        2   -1    0    0  501    0  0.00000000000E+00  0.00000000000E+00 -0.14997310796E+04  0.14997310796E+04  0.25500000920E-02 0.  1.
    10030    2    1    2    0    0  0.00000000000E+00  0.00000000000E+00 -0.11250566158E+04  0.18744055433E+04  0.14992143783E+04 0.  0.
        3    1    3    3  502    0  0.54615314948E+02  0.69878264817E+03 -0.23025365789E+03  0.73776471804E+03  0.10100000352E+00 0. -1.
       -3    1    3    3    0  502 -0.54615314948E+02 -0.69878264817E+03 -0.89480295793E+03  0.11366408253E+04  0.10100000352E+00 0.  1.
</event>
<event>
 5   0  0.4462875E-05  0.1498146E+04  0.7818609E-02  0.8885686E-01
        4   -1    0    0  501    0  0.00000000000E+00  0.00000000000E+00  0.32694466586E+03  0.32694713247E+03  0.12699999809E+01 0.  1.
       -4   -1    0    0    0  501  0.00000000000E+00  0.00000000000E+00 -0.17162159798E+04  0.17162164497E+04  0.12699999809E+01 0. -1.
    10030    2    1    2    0    0  0.00000000000E+00  0.00000000000E+00 -0.13892713139E+04  0.20431635821E+04  0.14981464013E+04 0.  0.
        4    1    3    3  502    0  0.47930365683E+03  0.56973642955E+03 -0.58236090034E+03  0.94523934839E+03  0.12699999809E+01 0.  1.
       -4    1    3    3    0  502 -0.47930365683E+03 -0.56973642955E+03 -0.80691041356E+03  0.10979242337E+04  0.12699999809E+01 0. -1.
</event>
<event>
 5   0  0.1186664E-04  0.1500001E+04  0.7818609E-02  0.8884452E-01
       -2   -1    0    0    0  501  0.00000000000E+00  0.00000000000E+00  0.78895364147E+03  0.78895364148E+03  0.25500000920E-02 0.  1.
        2   -1    0    0  501    0  0.00000000000E+00  0.00000000000E+00 -0.71297050871E+03  0.71297050871E+03  0.25500000920E-02 0. -1.
    10030    2    1    2    0    0  0.00000000000E+00  0.00000000000E+00  0.75983132763E+02  0.15019241502E+04  0.15000009055E+04 0.  0.
        3    1    3    3  502    0 -0.18177100806E+03  0.60891290997E+03  0.43685522535E+03  0.77114079740E+03  0.10100000352E+00 0.  1.
       -3    1    3    3    0  502  0.18177100806E+03 -0.60891290997E+03 -0.36087209259E+03  0.73078335279E+03  0.10100000352E+00 0. -1.
</event>
<event>
 5   0  0.6361716E-05  0.1501341E+04  0.7818609E-02  0.8883562E-01
        1   -1    0    0  501    0  0.00000000000E+00  0.00000000000E+00  0.10183007514E+04  0.10183007515E+04  0.50400001928E-02 0.  1.
       -1   -1    0    0    0  501  0.00000000000E+00  0.00000000000E+00 -0.55337870261E+03  0.55337870264E+03  0.50400001928E-02 0. -1.
    10030    2    1    2    0    0  0.00000000000E+00  0.00000000000E+00  0.46492204884E+03  0.15716794541E+04  0.15013406659E+04 0.  0.
        3    1    3    3  502    0 -0.22541727605E+03  0.74663071559E+02 -0.51302484991E+03  0.56531586694E+03  0.10100000352E+00 0. -1.
       -3    1    3    3    0  502  0.22541727605E+03 -0.74663071559E+02  0.97794689874E+03  0.10063635872E+04  0.10100000352E+00 0.  1.
</event>
<event>
 5   0  0.6361716E-05  0.1499960E+04  0.7818609E-02  0.8884480E-01
        1   -1    0    0  501    0  0.00000000000E+00  0.00000000000E+00  0.58402116120E+03  0.58402116122E+03  0.50400001928E-02 0. -1.
       -1   -1    0    0    0  501  0.00000000000E+00  0.00000000000E+00 -0.96309835198E+03  0.96309835199E+03  0.50400001928E-02 0.  1.
    10030    2    1    2    0    0  0.00000000000E+00  0.00000000000E+00 -0.37907719078E+03  0.15471195132E+04  0.14999597567E+04 0.  0.
        3    1    3    3  502    0  0.38640951149E+03  0.54255834369E+03 -0.54503108786E+03  0.86066297923E+03  0.10100000352E+00 0.  1.
       -3    1    3    3    0  502 -0.38640951149E+03 -0.54255834369E+03  0.16595389708E+03  0.68645653398E+03  0.10100000352E+00 0. -1.
</event>
<event>
 5   0  0.1216921E-04  0.1504645E+04  0.7818609E-02  0.8881370E-01
       -2   -1    0    0    0  501  0.00000000000E+00  0.00000000000E+00  0.71964370824E+03  0.71964370824E+03  0.25500000920E-02 0. -1.
        2   -1    0    0  501    0  0.00000000000E+00  0.00000000000E+00 -0.78648549065E+03  0.78648549065E+03  0.25500000920E-02 0.  1.
    10030    2    1    2    0    0  0.00000000000E+00  0.00000000000E+00 -0.66841782409E+02  0.15061291989E+04  0.15046452538E+04 0.  0.
        4    1    3    3  502    0 -0.11717638971E+03  0.58955913215E+03 -0.48627999482E+03  0.77316241688E+03  0.12699999809E+01 0.  1.
       -4    1    3    3    0  502  0.11717638971E+03 -0.58955913215E+03  0.41943821241E+03  0.73296678201E+03  0.12699999809E+01 0. -1.
</event>
<event>
 5   0  0.6364378E-05  0.1500894E+04  0.7818609E-02  0.8883859E-01
        1   -1    0    0  501    0  0.00000000000E+00  0.00000000000E+00  0.94681191665E+03  0.94681191667E+03  0.50400001928E-02 0.  1.
       -1   -1    0    0    0  501  0.00000000000E+00  0.00000000000E+00 -0.59480727677E+03  0.59480727679E+03  0.50400001928E-02 0. -1.
    10030    2    1    2    0    0  0.00000000000E+00  0.00000000000E+00  0.35200463988E+03  0.15416191935E+04  0.15008938907E+04 0.  0.
        5    1    3    3  502    0  0.63100342919E+03 -0.37359769698E+03  0.12278440945E+02  0.73342580875E+03  0.46999998093E+01 0. -1.
       -5    1    3    3    0  502 -0.63100342919E+03  0.37359769698E+03  0.33972619894E+03  0.80819338470E+03  0.46999998093E+01 0.  1.
</event>
<event>
 5   0  0.6364378E-05  0.1498660E+04  0.7818609E-02  0.8885345E-01
        1   -1    0    0  501    0  0.00000000000E+00  0.00000000000E+00  0.59150095544E+03  0.59150095546E+03  0.50400001928E-02 0. -1.
       -1   -1    0    0    0  501  0.00000000000E+00  0.00000000000E+00 -0.94927207432E+03  0.94927207433E+03  0.50400001928E-02 0.  1.
    10030    2    1    2    0    0  0.00000000000E+00  0.00000000000E+00 -0.35777111888E+03  0.15407730298E+04  0.14986598533E+04 0.  0.
        5    1    3    3  502    0  0.19905031582E+03 -0.70167564933E+03 -0.35547811541E+03  0.81139172145E+03  0.46999998093E+01 0.  1.
       -5    1    3    3    0  502 -0.19905031582E+03  0.70167564933E+03 -0.22930034703E+01  0.72938130834E+03  0.46999998093E+01 0. -1.
</event>
<event>
 5   0  0.4462875E-05  0.1499258E+04  0.7818609E-02  0.8884947E-01
        3   -1    0    0  501    0  0.00000000000E+00  0.00000000000E+00  0.11397851367E+04  0.11397851412E+04  0.10100000352E+00 0. -1.
       -3   -1    0    0    0  501  0.00000000000E+00  0.00000000000E+00 -0.49302581849E+03  0.49302582884E+03  0.10100000352E+00 0.  1.
    10030    2    1    2    0    0  0.00000000000E+00  0.00000000000E+00  0.64675931825E+03  0.16328109701E+04  0.14992578325E+04 0.  0.
        3    1    3    3  502    0 -0.70292434319E+03  0.19449884736E+03  0.51204855524E+03  0.89113756906E+03  0.10100000352E+00 0. -1.
       -3    1    3    3    0  502  0.70292434319E+03 -0.19449884736E+03  0.13471076301E+03  0.74167340099E+03  0.10100000352E+00 0.  1.
</event>
<event>
 5   0  0.6361716E-05  0.1498612E+04  0.7818609E-02  0.8885376E-01
       -1   -1    0    0    0  501  0.00000000000E+00  0.00000000000E+00  0.27865800828E+03  0.27865800833E+03  0.50400001928E-02 0.  1.
        1   -1    0    0  501    0  0.00000000000E+00  0.00000000000E+00 -0.20148706051E+04  0.20148706051E+04  0.50400001928E-02 0. -1.
    10030    2    1    2    0    0  0.00000000000E+00  0.00000000000E+00 -0.17362125968E+04  0.22935286134E+04  0.14986124647E+04 0.  0.
        3    1    3    3  502    0 -0.47497756934E+03 -0.55235399284E+03 -0.59968534027E+03  0.94356830295E+03  0.10100000352E+00 0. -1.
       -3    1    3    3    0  502  0.47497756934E+03  0.55235399284E+03 -0.11365272565E+04  0.13499603104E+04  0.10100000352E+00 0.  1.
</event>
<event>
 5   0  0.1219810E-04  0.1457252E+04  0.7818609E-02  0.8913388E-01
       -2   -1    0    0    0  501  0.00000000000E+00  0.00000000000E+00  0.35383263988E+03  0.35383263989E+03  0.25500000920E-02 0. -1.
        2   -1    0    0  501    0  0.00000000000E+00  0.00000000000E+00 -0.15004149384E+04  0.15004149384E+04  0.25500000920E-02 0.  1.
    10030    2    1    2    0    0  0.00000000000E+00  0.00000000000E+00 -0.11465822985E+04  0.18542475782E+04  0.14572519049E+04 0.  0.
        1    1    3    3  502    0  0.31407745609E+03 -0.54546401210E+03 -0.10403260696E+04  0.12159169248E+04  0.50400001928E-02 0. -1.
       -1    1    3    3    0  502 -0.31407745609E+03  0.54546401210E+03 -0.10625622889E+03  0.63833065344E+03  0.50400001928E-02 0.  1.
</event>
<event>
 5   0  0.6509279E-05  0.1498872E+04  0.7818609E-02  0.8885203E-01
        1   -1    0    0  501    0  0.00000000000E+00  0.00000000000E+00  0.17513881022E+04  0.17513881022E+04  0.50400001928E-02 0. -1.
       -1   -1    0    0    0  501  0.00000000000E+00  0.00000000000E+00 -0.32069089054E+03  0.32069089058E+03  0.50400001928E-02 0.  1.
    10030    2    1    2    0    0  0.00000000000E+00  0.00000000000E+00  0.14306972116E+04  0.20720789928E+04  0.14988718561E+04 0.  0.
        2    1    3    3  502    0  0.27926671374E+03 -0.68023237645E+03  0.51526318883E+03  0.89788759717E+03  0.25500000920E-02 0.  1.
       -2    1    3    3    0  502 -0.27926671374E+03  0.68023237645E+03  0.91543402280E+03  0.11741913956E+04  0.25500000920E-02 0. -1.
</event>
<event>
 5   0  0.6361716E-05  0.1501141E+04  0.7818609E-02  0.8883694E-01
       -1   -1    0    0    0  501  0.00000000000E+00  0.00000000000E+00  0.46480022765E+03  0.46480022768E+03  0.50400001928E-02 0. -1.
        1   -1    0    0  501    0  0.00000000000E+00  0.00000000000E+00 -0.12120392905E+04  0.12120392905E+04  0.50400001928E-02 0.  1.
    10030    2    1    2    0    0  0.00000000000E+00  0.00000000000E+00 -0.74723906287E+03  0.16768395182E+04  0.15011410836E+04 0.  0.
        3    1    3    3  502    0 -0.38184120449E+03 -0.36467185432E+03 -0.96950516418E+03  0.11039603889E+04  0.10100000352E+00 0.  1.
       -3    1    3    3    0  502  0.38184120449E+03  0.36467185432E+03  0.22226610131E+03  0.57287912928E+03  0.10100000352E+00 0. -1.
</event>
<event>
 5   0  0.6509279E-05  0.1500549E+04  0.7818609E-02  0.8884088E-01
        1   -1    0    0  501    0  0.00000000000E+00  0.00000000000E+00  0.77596021479E+03  0.77596021481E+03  0.50400001928E-02 0. -1.
       -1   -1    0    0    0  501  0.00000000000E+00  0.00000000000E+00 -0.72543883502E+03  0.72543883504E+03  0.50400001928E-02 0.  1.
    10030    2    1    2    0    0  0.00000000000E+00  0.00000000000E+00  0.50521379766E+02  0.15013990498E+04  0.15005487986E+04 0.  0.
        2    1    3    3  502    0  0.24742005336E+03 -0.70817507640E+03  0.38798050210E+02  0.75115505080E+03  0.25500000920E-02 0. -1.
       -2    1    3    3    0  502 -0.24742005336E+03  0.70817507640E+03  0.11723329556E+02  0.75024399904E+03  0.25500000920E-02 0.  1.
</event>
<event>
 5   0  0.6361716E-05  0.1501069E+04  0.7818609E-02  0.8883742E-01
        1   -1    0    0  501    0  0.00000000000E+00  0.00000000000E+00  0.73202953571E+03  0.73202953573E+03  0.50400001928E-02 0. -1.
       -1   -1    0    0    0  501  0.00000000000E+00  0.00000000000E+00 -0.76950751809E+03  0.76950751811E+03  0.50400001928E-02 0.  1.
    10030    2    1    2    0    0  0.00000000000E+00  0.00000000000E+00 -0.37477982384E+02  0.15015370538E+04  0.15010692605E+04 0.  0.
        3    1    3    3  502    0  0.11765887150E+03  0.38736743258E+03  0.61344299463E+03  0.73498942559E+03  0.10100000352E+00 0. -1.
       -3    1    3    3    0  502 -0.11765887150E+03 -0.38736743258E+03 -0.65092097701E+03  0.76654762825E+03  0.10100000352E+00 0.  1.
</event>
<event>
 5   0  0.1254487E-04  0.1501467E+04  0.7818609E-02  0.8883478E-01
        2   -1    0    0  501    0  0.00000000000E+00  0.00000000000E+00  0.11773442388E+04  0.11773442388E+04  0.25500000920E-02 0. -1.
       -2   -1    0    0    0  501  0.00000000000E+00  0.00000000000E+00 -0.47870510688E+03  0.47870510688E+03  0.25500000920E-02 0.  1.
    10030    2    1    2    0    0  0.00000000000E+00  0.00000000000E+00  0.69863913188E+03  0.16560493456E+04  0.15014668823E+04 0.  0.
        5    1    3    3  502    0  0.18892095534E+03  0.24786989365E+03 -0.40396511007E+03  0.51023574130E+03  0.46999998093E+01 0.  1.
       -5    1    3    3    0  502 -0.18892095534E+03 -0.24786989365E+03  0.11026042419E+04  0.11458136043E+04  0.46999998093E+01 0. -1.
</event>
<event>
 5   0  0.1219810E-04  0.1499446E+04  0.7818609E-02  0.8884821E-01
       -2   -1    0    0    0  501  0.00000000000E+00  0.00000000000E+00  0.52349066783E+03  0.52349066784E+03  0.25500000920E-02 0. -1.
        2   -1    0    0  501    0  0.00000000000E+00  0.00000000000E+00 -0.10737244272E+04  0.10737244273E+04  0.25500000920E-02 0.  1.
    10030    2    1    2    0    0  0.00000000000E+00  0.00000000000E+00 -0.55023375941E+03  0.15972150951E+04  0.14994461878E+04 0.  0.
        1    1    3    3  502    0  0.51038405740E+03  0.48055611757E+03 -0.55826598080E+03  0.89615120015E+03  0.50400001928E-02 0.  1.
       -1    1    3    3    0  502 -0.51038405740E+03 -0.48055611757E+03  0.80322213827E+01  0.70106389494E+03  0.50400001928E-02 0. -1.
</event>
<event>
 5   0  0.6668433E-05  0.1497999E+04  0.7818609E-02  0.8885785E-01
       -1   -1    0    0    0  501  0.00000000000E+00  0.00000000000E+00  0.56044016671E+03  0.56044016673E+03  0.50400001928E-02 0.  1.
        1   -1    0    0  501    0  0.00000000000E+00  0.00000000000E+00 -0.10009994301E+04  0.10009994301E+04  0.50400001928E-02 0. -1.
    10030    2    1    2    0    0  0.00000000000E+00  0.00000000000E+00 -0.44055926343E+03  0.15614395969E+04  0.14979990488E+04 0.  0.
        1    1    3    3  502    0  0.58559415118E+03  0.63462118381E+02  0.26197192472E+03  0.64465280557E+03  0.50400001928E-02 0.  1.
       -1    1    3    3    0  502 -0.58559415118E+03 -0.63462118381E+02 -0.70253118815E+03  0.91678679130E+03  0.50400001928E-02 0. -1.
</event>
<event>
 5   0  0.1228286E-04  0.1502366E+04  0.7818609E-02  0.8882881E-01
        2   -1    0    0  501    0  0.00000000000E+00  0.00000000000E+00  0.10509324641E+04  0.10509324641E+04  0.25500000920E-02 0.  1.
       -2   -1    0    0    0  501  0.00000000000E+00  0.00000000000E+00 -0.53692905322E+03  0.53692905322E+03  0.25500000920E-02 0. -1.
    10030    2    1    2    0    0  0.00000000000E+00  0.00000000000E+00  0.51400341087E+03  0.15878615173E+04  0.15023663640E+04 0.  0.
        2    1    3    3  502    0 -0.51304954681E+03 -0.54712324353E+03  0.30073891068E+03  0.80808884010E+03  0.25500000920E-02 0.  1.
       -2    1    3    3    0  502  0.51304954681E+03  0.54712324353E+03  0.21326450019E+03  0.77977267722E+03  0.25500000920E-02 0. -1.
</event>
<event>
 5   0  0.1254487E-04  0.1498875E+04  0.7818609E-02  0.8885201E-01
        2   -1    0    0  501    0  0.00000000000E+00  0.00000000000E+00  0.15950495983E+04  0.15950495984E+04  0.25500000920E-02 0.  1.
       -2   -1    0    0    0  501  0.00000000000E+00  0.00000000000E+00 -0.35212503750E+03  0.35212503751E+03  0.25500000920E-02 0. -1.
    10030    2    1    2    0    0  0.00000000000E+00  0.00000000000E+00  0.12429245609E+04  0.19471746359E+04  0.14988754446E+04 0.  0.
        5    1    3    3  502    0 -0.28599667683E+03  0.11915282736E+03 -0.26501180603E+03  0.40773133649E+03  0.46999998093E+01 0. -1.
       -5    1    3    3    0  502  0.28599667683E+03 -0.11915282736E+03  0.15079363669E+04  0.15394432994E+04  0.46999998093E+01 0.  1.
</event>
<event>
 5   0  0.6509279E-05  0.1498917E+04  0.7818609E-02  0.8885174E-01
        1   -1    0    0  501    0  0.00000000000E+00  0.00000000000E+00  0.87205697997E+03  0.87205697999E+03  0.50400001928E-02 0.  1.
       -1   -1    0    0    0  501  0.00000000000E+00  0.00000000000E+00 -0.64409517708E+03  0.64409517710E+03  0.50400001928E-02 0. -1.
    10030    2    1    2    0    0  0.00000000000E+00  0.00000000000E+00  0.22796180290E+03  0.15161521571E+04  0.14989165353E+04 0.  0.
        2    1    3    3  502    0  0.24004130152E+03  0.70852531429E+03  0.15988720595E+03  0.76497834352E+03  0.25500000920E-02 0.  1.
       -2    1    3    3    0  502 -0.24004130152E+03 -0.70852531429E+03  0.68074596950E+02  0.75117381356E+03  0.25500000920E-02 0. -1.
</event>
<event>
 5   0  0.1228286E-04  0.1501361E+04  0.7818609E-02  0.8883549E-01
        2   -1    0    0  501    0  0.00000000000E+00  0.00000000000E+00  0.20167891041E+04  0.20167891041E+04  0.25500000920E-02 0. -1.
       -2   -1    0    0    0  501  0.00000000000E+00  0.00000000000E+00 -0.27941486564E+03  0.27941486565E+03  0.25500000920E-02 0.  1.
    10030    2    1    2    0    0  0.00000000000E+00  0.00000000000E+00  0.17373742385E+04  0.22962039698E+04  0.15013605251E+04 0.  0.
        2    1    3    3  502    0 -0.27816839978E+03 -0.90652614672E+02 -0.18863053046E+03  0.34810491552E+03  0.25500000920E-02 0.  1.
       -2    1    3    3    0  502  0.27816839978E+03  0.90652614672E+02  0.19260047690E+04  0.19480990543E+04  0.25500000920E-02 0. -1.
</event>
<event>
 5   0  0.1186664E-04  0.1500807E+04  0.7818609E-02  0.8883916E-01
       -2   -1    0    0    0  501  0.00000000000E+00  0.00000000000E+00  0.39326283227E+03  0.39326283228E+03  0.25500000920E-02 0.  1.
        2   -1    0    0  501    0  0.00000000000E+00  0.00000000000E+00 -0.14318812415E+04  0.14318812415E+04  0.25500000920E-02 0. -1.
    10030    2    1    2    0    0  0.00000000000E+00  0.00000000000E+00 -0.10386184092E+04  0.18251440738E+04  0.15008073461E+04 0.  0.
        3    1    3    3  502    0 -0.25382845269E+03  0.54899767088E+03 -0.10594561248E+04  0.12199486123E+04  0.10100000352E+00 0. -1.
       -3    1    3    3    0  502  0.25382845269E+03 -0.54899767088E+03  0.20837715568E+02  0.60519546150E+03  0.10100000352E+00 0.  1.
</event>
<event>
 5   0  0.4462875E-05  0.1497099E+04  0.7818609E-02  0.8886384E-01
       -3   -1    0    0    0  501  0.00000000000E+00  0.00000000000E+00  0.44467218237E+03  0.44467219384E+03  0.10100000352E+00 0.  1.
        3   -1    0    0  501    0  0.00000000000E+00  0.00000000000E+00 -0.12600892203E+04  0.12600892243E+04  0.10100000352E+00 0. -1.
    10030    2    1    2    0    0  0.00000000000E+00  0.00000000000E+00 -0.81541703789E+03  0.17047614181E+04  0.14970993778E+04 0.  0.
        1    1    3    3  502    0  0.26173074210E+03 -0.23722325950E+03 -0.11592126619E+04  0.12118382118E+04  0.50400001928E-02 0. -1.
       -1    1    3    3    0  502 -0.26173074210E+03  0.23722325950E+03  0.34379562399E+03  0.49292320630E+03  0.50400001928E-02 0.  1.
</event>
<event>
 5   0  0.6364378E-05  0.1501169E+04  0.7818609E-02  0.8883676E-01
       -1   -1    0    0    0  501  0.00000000000E+00  0.00000000000E+00  0.29600588501E+03  0.29600588505E+03  0.50400001928E-02 0. -1.
        1   -1    0    0  501    0  0.00000000000E+00  0.00000000000E+00 -0.19032643045E+04  0.19032643045E+04  0.50400001928E-02 0.  1.
    10030    2    1    2    0    0  0.00000000000E+00  0.00000000000E+00 -0.16072584195E+04  0.21992701896E+04  0.15011694573E+04 0.  0.
        5    1    3    3  502    0 -0.71238241935E+03 -0.13736704667E+03 -0.10854231826E+04  0.13055742002E+04  0.46999998093E+01 0.  1.
       -5    1    3    3    0  502  0.71238241935E+03  0.13736704667E+03 -0.52183523687E+03  0.89369598933E+03  0.46999998093E+01 0. -1.
</event>
<event>
 5   0  0.1219810E-04  0.1500186E+04  0.7818609E-02  0.8884329E-01
        2   -1    0    0  501    0  0.00000000000E+00  0.00000000000E+00  0.17281706394E+04  0.17281706394E+04  0.25500000920E-02 0. -1.
       -2   -1    0    0    0  501  0.00000000000E+00  0.00000000000E+00 -0.32556934659E+03  0.32556934660E+03  0.25500000920E-02 0.  1.
    10030    2    1    2    0    0  0.00000000000E+00  0.00000000000E+00  0.14026012928E+04  0.20537399860E+04  0.15001858363E+04 0.  0.
        1    1    3    3  502    0 -0.21234265826E+03  0.27502716547E+03 -0.20875370823E+03  0.40534856233E+03  0.50400001928E-02 0.  1.
       -1    1    3    3    0  502  0.21234265826E+03 -0.27502716547E+03  0.16113550011E+04  0.16483914237E+04  0.50400001928E-02 0. -1.
</event>
<event>
 5   0  0.6542036E-05  0.1476851E+04  0.7818609E-02  0.8899994E-01
       -1   -1    0    0    0  501  0.00000000000E+00  0.00000000000E+00  0.67298944751E+03  0.67298944753E+03  0.50400001928E-02 0.  1.
        1   -1    0    0  501    0  0.00000000000E+00  0.00000000000E+00 -0.81022428191E+03  0.81022428193E+03  0.50400001928E-02 0. -1.
    10030    2    1    2    0    0  0.00000000000E+00  0.00000000000E+00 -0.13723483440E+03  0.14832137295E+04  0.14768512340E+04 0.  0.
        4    1    3    3  502    0 -0.52296061388E+03  0.43528596175E+03  0.21951420948E+03  0.71494739193E+03  0.12699999809E+01 0.  1.
       -4    1    3    3    0  502  0.52296061388E+03 -0.43528596175E+03 -0.35674904388E+03  0.76826633753E+03  0.12699999809E+01 0. -1.
</event>
<event>
 5   0  0.6509279E-05  0.1497574E+04  0.7818609E-02  0.8886068E-01
        1   -1    0    0  501    0  0.00000000000E+00  0.00000000000E+00  0.18556707716E+04  0.18556707716E+04  0.50400001928E-02 0. -1.
       -1   -1    0    0    0  501  0.00000000000E+00  0.00000000000E+00 -0.30214513080E+03  0.30214513084E+03  0.50400001928E-02 0.  1.
    10030    2    1    2    0    0  0.00000000000E+00  0.00000000000E+00  0.15535256408E+04  0.21578159025E+04  0.14975738888E+04 0.  0.
        2    1    3    3  502    0  0.58623631693E+03  0.97918869026E+00  0.14479813117E+04  0.15621535959E+04  0.25500000920E-02 0. -1.
       -2    1    3    3    0  502 -0.58623631693E+03 -0.97918869026E+00  0.10554432915E+03  0.59566230662E+03  0.25500000920E-02 0.  1.
</event>
<event>
 5   0  0.1216921E-04  0.1503947E+04  0.7818609E-02  0.8881832E-01
       -2   -1    0    0    0  501  0.00000000000E+00  0.00000000000E+00  0.40218999724E+03  0.40218999725E+03  0.25500000920E-02 0. -1.
        2   -1    0    0  501    0  0.00000000000E+00  0.00000000000E+00 -0.14059630682E+04  0.14059630682E+04  0.25500000920E-02 0.  1.
    10030    2    1    2    0    0  0.00000000000E+00  0.00000000000E+00 -0.10037730710E+04  0.18081530654E+04  0.15039471833E+04 0.  0.
        4    1    3    3  502    0 -0.45585370435E+02 -0.61182445407E+03 -0.10246403900E+04  0.11942766557E+04  0.12699999809E+01 0.  1.
       -4    1    3    3    0  502  0.45585370435E+02  0.61182445407E+03  0.20867319011E+02  0.61387640979E+03  0.12699999809E+01 0. -1.
</event>
<event>
 5   0  0.1228286E-04  0.1499827E+04  0.7818609E-02  0.8884568E-01
       -2   -1    0    0    0  501  0.00000000000E+00  0.00000000000E+00  0.31049930267E+03  0.31049930268E+03  0.25500000920E-02 0.  1.
        2   -1    0    0  501    0  0.00000000000E+00  0.00000000000E+00 -0.18111815705E+04  0.18111815705E+04  0.25500000920E-02 0. -1.
    10030    2    1    2    0    0  0.00000000000E+00  0.00000000000E+00 -0.15006822678E+04  0.21216808732E+04  0.14998274763E+04 0.  0.
        2    1    3    3  502    0 -0.43653808366E+03 -0.43991603815E+03 -0.15304618090E+03  0.63836882176E+03  0.25500000920E-02 0.  1.
       -2    1    3    3    0  502  0.43653808366E+03  0.43991603815E+03 -0.13476360869E+04  0.14833120514E+04  0.25500000920E-02 0. -1.
</event>
<event>
 5   0  0.1254487E-04  0.1499946E+04  0.7818609E-02  0.8884489E-01
        2   -1    0    0  501    0  0.00000000000E+00  0.00000000000E+00  0.10804666967E+04  0.10804666967E+04  0.25500000920E-02 0.  1.
       -2   -1    0    0    0  501  0.00000000000E+00  0.00000000000E+00 -0.52057096331E+03  0.52057096331E+03  0.25500000920E-02 0. -1.
    10030    2    1    2    0    0  0.00000000000E+00  0.00000000000E+00  0.55989573339E+03  0.16010376600E+04  0.14999461179E+04 0.  0.
        5    1    3    3  502    0 -0.73909359281E+03 -0.12668341751E+03  0.26780241423E+03  0.79627146769E+03  0.46999998093E+01 0.  1.
       -5    1    3    3    0  502  0.73909359281E+03  0.12668341751E+03  0.29209331917E+03  0.80476619232E+03  0.46999998093E+01 0. -1.
</event>
<event>
 5   0  0.6509279E-05  0.1499396E+04  0.7818609E-02  0.8884855E-01
        1   -1    0    0  501    0  0.00000000000E+00  0.00000000000E+00  0.94820638385E+03  0.94820638386E+03  0.50400001928E-02 0.  1.
       -1   -1    0    0    0  501  0.00000000000E+00  0.00000000000E+00 -0.59274735470E+03  0.59274735472E+03  0.50400001928E-02 0. -1.
    10030    2    1    2    0    0  0.00000000000E+00  0.00000000000E+00  0.35545902915E+03  0.15409537386E+04  0.14993956459E+04 0.  0.
        2    1    3    3  502    0 -0.49670961226E+02  0.43444647686E+03 -0.44811179965E+03  0.62611111685E+03  0.25500000920E-02 0. -1.
       -2    1    3    3    0  502  0.49670961226E+02 -0.43444647686E+03  0.80357082880E+03  0.91484262174E+03  0.25500000920E-02 0.  1.
</event>
<event>
 5   0  0.1216921E-04  0.1499480E+04  0.7818609E-02  0.8884799E-01
       -2   -1    0    0    0  501  0.00000000000E+00  0.00000000000E+00  0.47338808965E+03  0.47338808965E+03  0.25500000920E-02 0. -1.
        2   -1    0    0  501    0  0.00000000000E+00  0.00000000000E+00 -0.11874188773E+04  0.11874188773E+04  0.25500000920E-02 0.  1.
    10030    2    1    2    0    0  0.00000000000E+00  0.00000000000E+00 -0.71403078761E+03  0.16608069669E+04  0.14994798484E+04 0.  0.
        4    1    3    3  502    0 -0.25821670808E+03 -0.51544595470E+03 -0.88790514068E+03  0.10586489278E+04  0.12699999809E+01 0.  1.
       -4    1    3    3    0  502  0.25821670808E+03  0.51544595470E+03  0.17387435306E+03  0.60215803914E+03  0.12699999809E+01 0. -1.
</event>
<event>
 5   0  0.1186664E-04  0.1499529E+04  0.7818609E-02  0.8884766E-01
       -2   -1    0    0    0  501  0.00000000000E+00  0.00000000000E+00  0.51388012977E+03  0.51388012978E+03  0.25500000920E-02 0. -1.
        2   -1    0    0  501    0  0.00000000000E+00  0.00000000000E+00 -0.10939261073E+04  0.10939261073E+04  0.25500000920E-02 0.  1.
    10030    2    1    2    0    0  0.00000000000E+00  0.00000000000E+00 -0.58004597754E+03  0.16078062371E+04  0.14995291127E+04 0.  0.
        3    1    3    3  502    0  0.29716996580E+03 -0.53879568174E+03  0.16932261277E+03  0.63818565687E+03  0.10100000352E+00 0. -1.
       -3    1    3    3    0  502 -0.29716996580E+03  0.53879568174E+03 -0.74936859032E+03  0.96962058022E+03  0.10100000352E+00 0.  1.
</event>
<event>
 5   0  0.6361716E-05  0.1535308E+04  0.7818609E-02  0.8861307E-01
        1   -1    0    0  501    0  0.00000000000E+00  0.00000000000E+00  0.12234598933E+04  0.12234598934E+04  0.50400001928E-02 0. -1.
       -1   -1    0    0    0  501  0.00000000000E+00  0.00000000000E+00 -0.48166068839E+03  0.48166068842E+03  0.50400001928E-02 0.  1.
    10030    2    1    2    0    0  0.00000000000E+00  0.00000000000E+00  0.74179920495E+03  0.17051205818E+04  0.15353078316E+04 0.  0.
        3    1    3    3  502    0  0.51977843458E+03 -0.28250007430E+03 -0.17240833962E+03  0.61619847355E+03  0.10100000352E+00 0.  1.
       -3    1    3    3    0  502 -0.51977843458E+03  0.28250007430E+03  0.91420754457E+03  0.10889221082E+04  0.10100000352E+00 0. -1.
</event>
<event>
 5   0  0.1186664E-04  0.1499776E+04  0.7818609E-02  0.8884602E-01
        2   -1    0    0  501    0  0.00000000000E+00  0.00000000000E+00  0.59659632367E+03  0.59659632368E+03  0.25500000920E-02 0. -1.
       -2   -1    0    0    0  501  0.00000000000E+00  0.00000000000E+00 -0.94256671993E+03  0.94256671993E+03  0.25500000920E-02 0.  1.
    10030    2    1    2    0    0  0.00000000000E+00  0.00000000000E+00 -0.34597039626E+03  0.15391630436E+04  0.14997757698E+04 0.  0.
        3    1    3    3  502    0 -0.10881853980E+03 -0.46307827404E+03 -0.76790648966E+03  0.90330689666E+03  0.10100000352E+00 0.  1.
       -3    1    3    3    0  502  0.10881853980E+03  0.46307827404E+03  0.42193609340E+03  0.63585614695E+03  0.10100000352E+00 0. -1.
</event>
<event>
 5   0  0.6509279E-05  0.1499075E+04  0.7818609E-02  0.8885068E-01
       -1   -1    0    0    0  501  0.00000000000E+00  0.00000000000E+00  0.41305653356E+03  0.41305653359E+03  0.50400001928E-02 0. -1.
        1   -1    0    0  501    0  0.00000000000E+00  0.00000000000E+00 -0.13601196555E+04  0.13601196555E+04  0.50400001928E-02 0.  1.
    10030    2    1    2    0    0  0.00000000000E+00  0.00000000000E+00 -0.94706312194E+03  0.17731761891E+04  0.14990747949E+04 0.  0.
        2    1    3    3  502    0 -0.28262846819E+03 -0.16685061172E+03  0.32354265429E+03  0.46086638716E+03  0.25500000920E-02 0. -1.
       -2    1    3    3    0  502  0.28262846819E+03  0.16685061172E+03 -0.12706057762E+04  0.13123098019E+04  0.25500000920E-02 0.  1.
</event>
<event>
 5   0  0.6668433E-05  0.1499058E+04  0.7818609E-02  0.8885080E-01
        1   -1    0    0  501    0  0.00000000000E+00  0.00000000000E+00  0.10665404956E+04  0.10665404957E+04  0.50400001928E-02 0. -1.
       -1   -1    0    0    0  501  0.00000000000E+00  0.00000000000E+00 -0.52674380225E+03  0.52674380227E+03  0.50400001928E-02 0.  1.
    10030    2    1    2    0    0  0.00000000000E+00  0.00000000000E+00  0.53979669339E+03  0.15932842979E+04  0.14990578320E+04 0.  0.
        1    1    3    3  502    0  0.60706672432E+03 -0.33000521717E+03 -0.38806570071E+02  0.69205447837E+03  0.50400001928E-02 0.  1.
       -1    1    3    3    0  502 -0.60706672432E+03  0.33000521717E+03  0.57860326346E+03  0.90122981955E+03  0.50400001928E-02 0. -1.
</event>
<event>
 5   0  0.1216921E-04  0.1499132E+04  0.7818609E-02  0.8885030E-01
        2   -1    0    0  501    0  0.00000000000E+00  0.00000000000E+00  0.17107251419E+04  0.17107251419E+04  0.25500000920E-02 0.  1.
       -2   -1    0    0    0  501  0.00000000000E+00  0.00000000000E+00 -0.32842764614E+03  0.32842764615E+03  0.25500000920E-02 0. -1.
    10030    2    1    2    0    0  0.00000000000E+00  0.00000000000E+00  0.13822974958E+04  0.20391527881E+04  0.14991323245E+04 0.  0.
        4    1    3    3  502    0  0.47896865065E+03  0.21151860179E+03 -0.38438547509E+02  0.52500497335E+03  0.12699999809E+01 0. -1.
       -4    1    3    3    0  502 -0.47896865065E+03 -0.21151860179E+03  0.14207360433E+04  0.15141478147E+04  0.12699999809E+01 0.  1.
</event>
<event>
 5   0  0.1216921E-04  0.1500528E+04  0.7818609E-02  0.8884102E-01
        2   -1    0    0  501    0  0.00000000000E+00  0.00000000000E+00  0.10776669755E+04  0.10776669755E+04  0.25500000920E-02 0. -1.
       -2   -1    0    0    0  501  0.00000000000E+00  0.00000000000E+00 -0.52232823587E+03  0.52232823587E+03  0.25500000920E-02 0.  1.
    10030    2    1    2    0    0  0.00000000000E+00  0.00000000000E+00  0.55533873963E+03  0.15999952114E+04  0.15005277607E+04 0.  0.
        4    1    3    3  502    0  0.87628098320E+02  0.64594450558E+03 -0.11839795021E+03  0.66252749031E+03  0.12699999809E+01 0.  1.
       -4    1    3    3    0  502 -0.87628098320E+02 -0.64594450558E+03  0.67373668984E+03  0.93746772106E+03  0.12699999809E+01 0. -1.
</event>
<event>
 5   0  0.1216921E-04  0.1520110E+04  0.7818609E-02  0.8871189E-01
        2   -1    0    0  501    0  0.00000000000E+00  0.00000000000E+00  0.93379796192E+03  0.93379796192E+03  0.25500000920E-02 0.  1.
       -2   -1    0    0    0  501  0.00000000000E+00  0.00000000000E+00 -0.61863846877E+03  0.61863846878E+03  0.25500000920E-02 0. -1.
    10030    2    1    2    0    0  0.00000000000E+00  0.00000000000E+00  0.31515949314E+03  0.15524364307E+04  0.15201096557E+04 0.  0.
        4    1    3    3  502    0 -0.72118040960E+03 -0.23677144974E+03  0.19739374685E+03  0.78430083948E+03  0.12699999809E+01 0. -1.
       -4    1    3    3    0  502  0.72118040960E+03  0.23677144974E+03  0.11776574629E+03  0.76813559123E+03  0.12699999809E+01 0.  1.
</event>
<event>
 5   0  0.6361716E-05  0.1502329E+04  0.7818609E-02  0.8882906E-01
       -1   -1    0    0    0  501  0.00000000000E+00  0.00000000000E+00  0.38684226417E+03  0.38684226420E+03  0.50400001928E-02 0. -1.
        1   -1    0    0  501    0  0.00000000000E+00  0.00000000000E+00 -0.14586001134E+04  0.14586001134E+04  0.50400001928E-02 0.  1.
    10030    2    1    2    0    0  0.00000000000E+00  0.00000000000E+00 -0.10717578492E+04  0.18454423776E+04  0.15023290857E+04 0.  0.
        3    1    3    3  502    0  0.26260786231E+03  0.50311618317E+02  0.32640541413E+03  0.42194152777E+03  0.10100000352E+00 0. -1.
       -3    1    3    3    0  502 -0.26260786231E+03 -0.50311618317E+02 -0.13981632633E+04  0.14235008498E+04  0.10100000352E+00 0.  1.
</event>
<event>
 5   0  0.1186664E-04  0.1500090E+04  0.7818609E-02  0.8884393E-01
        2   -1    0    0  501    0  0.00000000000E+00  0.00000000000E+00  0.13088281443E+04  0.13088281443E+04  0.25500000920E-02 0. -1.
       -2   -1    0    0    0  501  0.00000000000E+00  0.00000000000E+00 -0.42982542723E+03  0.42982542724E+03  0.25500000920E-02 0.  1.
    10030    2    1    2    0    0  0.00000000000E+00  0.00000000000E+00  0.87900271711E+03  0.17386535716E+04  0.15000901524E+04 0.  0.
        3    1    3    3  502    0  0.57712922884E+03 -0.46812591232E+02 -0.11307658137E+03  0.58996261656E+03  0.10100000352E+00 0.  1.
       -3    1    3    3    0  502 -0.57712922884E+03  0.46812591232E+02  0.99207929849E+03  0.11486909550E+04  0.10100000352E+00 0. -1.
</event>
<event>
 5   0  0.1186664E-04  0.1506019E+04  0.7818609E-02  0.8880460E-01
        2   -1    0    0  501    0  0.00000000000E+00  0.00000000000E+00  0.11990692513E+04  0.11990692513E+04  0.25500000920E-02 0.  1.
       -2   -1    0    0    0  501  0.00000000000E+00  0.00000000000E+00 -0.47288599188E+03  0.47288599188E+03  0.25500000920E-02 0. -1.
    10030    2    1    2    0    0  0.00000000000E+00  0.00000000000E+00  0.72618325947E+03  0.16719552432E+04  0.15060186616E+04 0.  0.
        3    1    3    3  502    0  0.22280773517E+02  0.73069922869E+03  0.16262687021E+03  0.74890941027E+03  0.10100000352E+00 0. -1.
       -3    1    3    3    0  502 -0.22280773517E+02 -0.73069922869E+03  0.56355638926E+03  0.92304583296E+03  0.10100000352E+00 0.  1.
</event>
<event>
 5   0  0.6509279E-05  0.1514531E+04  0.7818609E-02  0.8874847E-01
        1   -1    0    0  501    0  0.00000000000E+00  0.00000000000E+00  0.11652700417E+04  0.11652700417E+04  0.50400001928E-02 0. -1.
       -1   -1    0    0    0  501  0.00000000000E+00  0.00000000000E+00 -0.49211836210E+03  0.49211836213E+03  0.50400001928E-02 0.  1.
    10030    2    1    2    0    0  0.00000000000E+00  0.00000000000E+00  0.67315167962E+03  0.16573884039E+04  0.15145306657E+04 0.  0.
        2    1    3    3  502    0  0.80322294919E+02 -0.66975749507E+03 -0.40011840254E+02  0.67574234782E+03  0.25500000920E-02 0.  1.
       -2    1    3    3    0  502 -0.80322294919E+02  0.66975749507E+03  0.71316351987E+03  0.98164605604E+03  0.25500000920E-02 0. -1.
</event>
<event>
 5   0  0.6668433E-05  0.1499877E+04  0.7818609E-02  0.8884535E-01
        1   -1    0    0  501    0  0.00000000000E+00  0.00000000000E+00  0.11218567718E+04  0.11218567719E+04  0.50400001928E-02 0.  1.
       -1   -1    0    0    0  501  0.00000000000E+00  0.00000000000E+00 -0.50131836862E+03  0.50131836864E+03  0.50400001928E-02 0. -1.
    10030    2    1    2    0    0  0.00000000000E+00  0.00000000000E+00  0.62053840322E+03  0.16231751405E+04  0.14998765372E+04 0.  0.
        1    1    3    3  502    0 -0.63284488570E+03 -0.11642860421E+03 -0.10656852738E+03  0.65223087959E+03  0.50400001928E-02 0. -1.
       -1    1    3    3    0  502  0.63284488570E+03  0.11642860421E+03  0.72710693060E+03  0.97094426091E+03  0.50400001928E-02 0.  1.
</event>
<event>
 5   0  0.6509279E-05  0.1495333E+04  0.7818609E-02  0.8887562E-01
        1   -1    0    0  501    0  0.00000000000E+00  0.00000000000E+00  0.74417462427E+03  0.74417462429E+03  0.50400001928E-02 0. -1.
       -1   -1    0    0    0  501  0.00000000000E+00  0.00000000000E+00 -0.75117466671E+03  0.75117466673E+03  0.50400001928E-02 0.  1.
    10030    2    1    2    0    0  0.00000000000E+00  0.00000000000E+00 -0.70000424395E+01  0.14953492910E+04  0.14953329066E+04 0.  0.
        2    1    3    3  502    0  0.16875638118E+03 -0.28080465191E+03  0.66857516413E+03  0.74452852116E+03  0.25500000920E-02 0. -1.
       -2    1    3    3    0  502 -0.16875638118E+03  0.28080465191E+03 -0.67557520657E+03  0.75082076986E+03  0.25500000920E-02 0.  1.
</event>
<event>
 5   0  0.1186664E-04  0.1502424E+04  0.7818609E-02  0.8882842E-01
       -2   -1    0    0    0  501  0.00000000000E+00  0.00000000000E+00  0.10043671881E+04  0.10043671881E+04  0.25500000920E-02 0.  1.
        2   -1    0    0  501    0  0.00000000000E+00  0.00000000000E+00 -0.56186591105E+03  0.56186591105E+03  0.25500000920E-02 0. -1.
    10030    2    1    2    0    0  0.00000000000E+00  0.00000000000E+00  0.44250127704E+03  0.15662330991E+04  0.15024242878E+04 0.  0.
        3    1    3    3  502    0  0.49571810296E+03  0.54312472312E+03  0.38139384087E+03  0.82836113774E+03  0.10100000352E+00 0.  1.
       -3    1    3    3    0  502 -0.49571810296E+03 -0.54312472312E+03  0.61107436176E+02  0.73787196140E+03  0.10100000352E+00 0. -1.
</event>
<event>
 5   0  0.6509279E-05  0.1500655E+04  0.7818609E-02  0.8884017E-01
       -1   -1    0    0    0  501  0.00000000000E+00  0.00000000000E+00  0.55618456455E+03  0.55618456457E+03  0.50400001928E-02 0.  1.
        1   -1    0    0  501    0  0.00000000000E+00  0.00000000000E+00 -0.10122389616E+04  0.10122389616E+04  0.50400001928E-02 0. -1.
    10030    2    1    2    0    0  0.00000000000E+00  0.00000000000E+00 -0.45605439701E+03  0.15684235261E+04  0.15006554382E+04 0.  0.
        2    1    3    3  502    0  0.34390348607E+03  0.33185088694E+03 -0.83259279093E+03  0.96000279917E+03  0.25500000920E-02 0. -1.
       -2    1    3    3    0  502 -0.34390348607E+03 -0.33185088694E+03  0.37653839393E+03  0.60842072697E+03  0.25500000920E-02 0.  1.
</event>
<event>
 5   0  0.1216921E-04  0.1505162E+04  0.7818609E-02  0.8881027E-01
       -2   -1    0    0    0  501  0.00000000000E+00  0.00000000000E+00  0.12292837525E+04  0.12292837525E+04  0.25500000920E-02 0. -1.
        2   -1    0    0  501    0  0.00000000000E+00  0.00000000000E+00 -0.46073859054E+03  0.46073859055E+03  0.25500000920E-02 0.  1.
    10030    2    1    2    0    0  0.00000000000E+00  0.00000000000E+00  0.76854516198E+03  0.16900223431E+04  0.15051624012E+04 0.  0.
        4    1    3    3  502    0 -0.38330098119E+03 -0.34588272913E+03  0.99908280957E+03  0.11245988519E+04  0.12699999809E+01 0. -1.
       -4    1    3    3    0  502  0.38330098119E+03  0.34588272913E+03 -0.23053764758E+03  0.56542349115E+03  0.12699999809E+01 0.  1.
</event>
<event>
 5   0  0.6361716E-05  0.1497672E+04  0.7818609E-02  0.8886002E-01
       -1   -1    0    0    0  501  0.00000000000E+00  0.00000000000E+00  0.98674602582E+03  0.98674602584E+03  0.50400001928E-02 0.  1.
        1   -1    0    0  501    0  0.00000000000E+00  0.00000000000E+00 -0.56828742885E+03  0.56828742887E+03  0.50400001928E-02 0. -1.
    10030    2    1    2    0    0  0.00000000000E+00  0.00000000000E+00  0.41845859698E+03  0.15550334547E+04  0.14976720094E+04 0.  0.
        3    1    3    3  502    0  0.21871556808E+03  0.30716699231E+03 -0.46251759580E+03  0.59675002934E+03  0.10100000352E+00 0. -1.
       -3    1    3    3    0  502 -0.21871556808E+03 -0.30716699231E+03  0.88097619278E+03  0.95828342537E+03  0.10100000352E+00 0.  1.
</event>
<event>
 5   0  0.6668433E-05  0.1497621E+04  0.7818609E-02  0.8886036E-01
       -1   -1    0    0    0  501  0.00000000000E+00  0.00000000000E+00  0.13277770725E+04  0.13277770725E+04  0.50400001928E-02 0. -1.
        1   -1    0    0  501    0  0.00000000000E+00  0.00000000000E+00 -0.42229783106E+03  0.42229783109E+03  0.50400001928E-02 0.  1.
    10030    2    1    2    0    0  0.00000000000E+00  0.00000000000E+00  0.90547924144E+03  0.17500749036E+04  0.14976212844E+04 0.  0.
        1    1    3    3  502    0 -0.23872362794E+03  0.63103957354E+03  0.73147835198E+02  0.67863872549E+03  0.50400001928E-02 0.  1.
       -1    1    3    3    0  502  0.23872362794E+03 -0.63103957354E+03  0.83233140624E+03  0.10714361781E+04  0.50400001928E-02 0. -1.
</event>
<event>
 5   0  0.1216921E-04  0.1498908E+04  0.7818609E-02  0.8885180E-01
       -2   -1    0    0    0  501  0.00000000000E+00  0.00000000000E+00  0.61201416007E+03  0.61201416008E+03  0.25500000920E-02 0.  1.
        2   -1    0    0  501    0  0.00000000000E+00  0.00000000000E+00 -0.91775807316E+03  0.91775807317E+03  0.25500000920E-02 0. -1.
    10030    2    1    2    0    0  0.00000000000E+00  0.00000000000E+00 -0.30574391309E+03  0.15297722332E+04  0.14989075172E+04 0.  0.
        4    1    3    3  502    0 -0.36525829914E+03  0.62290867156E+03 -0.35762836171E+03  0.80580921824E+03  0.12699999809E+01 0.  1.
       -4    1    3    3    0  502  0.36525829914E+03 -0.62290867156E+03  0.51884448623E+02  0.72396301501E+03  0.12699999809E+01 0. -1.
</event>
<event>
 5   0  0.1254487E-04  0.1499748E+04  0.7818609E-02  0.8884620E-01
       -2   -1    0    0    0  501  0.00000000000E+00  0.00000000000E+00  0.70812106918E+03  0.70812106919E+03  0.25500000920E-02 0.  1.
        2   -1    0    0  501    0  0.00000000000E+00  0.00000000000E+00 -0.79408891356E+03  0.79408891356E+03  0.25500000920E-02 0. -1.
    10030    2    1    2    0    0  0.00000000000E+00  0.00000000000E+00 -0.85967844373E+02  0.15022099827E+04  0.14997480995E+04 0.  0.
        5    1    3    3  502    0 -0.36606827091E+03  0.19387127715E+03 -0.66906753053E+03  0.78693424216E+03  0.46999998093E+01 0. -1.
       -5    1    3    3    0  502  0.36606827091E+03 -0.19387127715E+03  0.58309968616E+03  0.71527574059E+03  0.46999998093E+01 0.  1.
</event>
<event>
 5   0  0.6509279E-05  0.1543177E+04  0.7818609E-02  0.8856238E-01
        1   -1    0    0  501    0  0.00000000000E+00  0.00000000000E+00  0.13412315559E+04  0.13412315559E+04  0.50400001928E-02 0. -1.
       -1   -1    0    0    0  501  0.00000000000E+00  0.00000000000E+00 -0.44388236033E+03  0.44388236036E+03  0.50400001928E-02 0.  1.
    10030    2    1    2    0    0  0.00000000000E+00  0.00000000000E+00  0.89734919553E+03  0.17851139162E+04  0.15431772793E+04 0.  0.
        2    1    3    3  502    0  0.29347539604E+03 -0.30837534703E+03  0.11930916173E+04  0.12667638967E+04  0.25500000920E-02 0. -1.
       -2    1    3    3    0  502 -0.29347539604E+03  0.30837534703E+03 -0.29574242175E+03  0.51835001954E+03  0.25500000920E-02 0.  1.
</event>
<event>
 5   0  0.6542036E-05  0.1500221E+04  0.7818609E-02  0.8884306E-01
        1   -1    0    0  501    0  0.00000000000E+00  0.00000000000E+00  0.52541186433E+03  0.52541186436E+03  0.50400001928E-02 0. -1.
       -1   -1    0    0    0  501  0.00000000000E+00  0.00000000000E+00 -0.10709043472E+04  0.10709043472E+04  0.50400001928E-02 0.  1.
    10030    2    1    2    0    0  0.00000000000E+00  0.00000000000E+00 -0.54549248286E+03  0.15963162116E+04  0.15002211165E+04 0.  0.
        4    1    3    3  502    0 -0.10047638760E+03  0.41501811189E+03  0.38346429449E+03  0.57391812631E+03  0.12699999809E+01 0. -1.
       -4    1    3    3    0  502  0.10047638760E+03 -0.41501811189E+03 -0.92895677735E+03  0.10223980853E+04  0.12699999809E+01 0.  1.
</event>
<event>
 5   0  0.6668433E-05  0.1495661E+04  0.7818609E-02  0.8887343E-01
        1   -1    0    0  501    0  0.00000000000E+00  0.00000000000E+00  0.63515130200E+03  0.63515130202E+03  0.50400001928E-02 0.  1.
       -1   -1    0    0    0  501  0.00000000000E+00  0.00000000000E+00 -0.88049960920E+03  0.88049960921E+03  0.50400001928E-02 0. -1.
    10030    2    1    2    0    0  0.00000000000E+00  0.00000000000E+00 -0.24534830719E+03  0.15156509112E+04  0.14956610220E+04 0.  0.
        1    1    3    3  502    0 -0.17113172197E+03  0.54754524187E+03  0.36348629820E+03  0.67912748962E+03  0.50400001928E-02 0.  1.
       -1    1    3    3    0  502  0.17113172197E+03 -0.54754524187E+03 -0.60883460539E+03  0.83652342161E+03  0.50400001928E-02 0. -1.
</event>
<event>
 5   0  0.6364378E-05  0.1501588E+04  0.7818609E-02  0.8883398E-01
       -1   -1    0    0    0  501  0.00000000000E+00  0.00000000000E+00  0.42942968264E+03  0.42942968267E+03  0.50400001928E-02 0.  1.
        1   -1    0    0  501    0  0.00000000000E+00  0.00000000000E+00 -0.13126517012E+04  0.13126517012E+04  0.50400001928E-02 0. -1.
    10030    2    1    2    0    0  0.00000000000E+00  0.00000000000E+00 -0.88322201858E+03  0.17420813839E+04  0.15015879641E+04 0.  0.
        5    1    3    3  502    0  0.47100765137E+03  0.41291180834E+03 -0.92181770857E+03  0.11145018380E+04  0.46999998093E+01 0. -1.
       -5    1    3    3    0  502 -0.47100765137E+03 -0.41291180834E+03  0.38595689987E+02  0.62757954588E+03  0.46999998093E+01 0.  1.
</event>
<event>
 5   0  0.6361716E-05  0.1501022E+04  0.7818609E-02  0.8883774E-01
        1   -1    0    0  501    0  0.00000000000E+00  0.00000000000E+00  0.11327698686E+04  0.11327698686E+04  0.50400001928E-02 0. -1.
       -1   -1    0    0    0  501  0.00000000000E+00  0.00000000000E+00 -0.49724720061E+03  0.49724720064E+03  0.50400001928E-02 0.  1.
    10030    2    1    2    0    0  0.00000000000E+00  0.00000000000E+00  0.63552266795E+03  0.16300170692E+04  0.15010218468E+04 0.  0.
        3    1    3    3  502    0 -0.45309988221E+03 -0.27463362727E+03  0.89498988213E+03  0.10400625134E+04  0.10100000352E+00 0. -1.
       -3    1    3    3    0  502  0.45309988221E+03  0.27463362727E+03 -0.25946721418E+03  0.58995455581E+03  0.10100000352E+00 0.  1.
</event>
<event>
 5   0  0.1219810E-04  0.1496515E+04  0.7818609E-02  0.8886773E-01
       -2   -1    0    0    0  501  0.00000000000E+00  0.00000000000E+00  0.27776586293E+03  0.27776586294E+03  0.25500000920E-02 0. -1.
        2   -1    0    0  501    0  0.00000000000E+00  0.00000000000E+00 -0.20156889920E+04  0.20156889920E+04  0.25500000920E-02 0.  1.
    10030    2    1    2    0    0  0.00000000000E+00  0.00000000000E+00 -0.17379231291E+04  0.22934548550E+04  0.14965154089E+04 0.  0.
        1    1    3    3  502    0 -0.37378577591E+03  0.64814048368E+03 -0.88331339570E+03  0.11576028887E+04  0.50400001928E-02 0.  1.
       -1    1    3    3    0  502  0.37378577591E+03 -0.64814048368E+03 -0.85460973341E+03  0.11358519663E+04  0.50400001928E-02 0. -1.
</event>
<event>
 5   0  0.6364378E-05  0.1503495E+04  0.7818609E-02  0.8882132E-01
        1   -1    0    0  501    0  0.00000000000E+00  0.00000000000E+00  0.65466832215E+03  0.65466832217E+03  0.50400001928E-02 0. -1.
       -1   -1    0    0    0  501  0.00000000000E+00  0.00000000000E+00 -0.86322244999E+03  0.86322245001E+03  0.50400001928E-02 0.  1.
    10030    2    1    2    0    0  0.00000000000E+00  0.00000000000E+00 -0.20855412785E+03  0.15178907722E+04  0.15034951187E+04 0.  0.
        5    1    3    3  502    0  0.72433133789E+03 -0.10661853392E+03  0.67881058077E+02  0.73529132109E+03  0.46999998093E+01 0. -1.
       -5    1    3    3    0  502 -0.72433133789E+03  0.10661853392E+03 -0.27643518592E+03  0.78259945109E+03  0.46999998093E+01 0.  1.
</event>
<event>
 5   0  0.6668433E-05  0.1501917E+04  0.7818609E-02  0.8883179E-01
       -1   -1    0    0    0  501  0.00000000000E+00  0.00000000000E+00  0.61591128465E+03  0.61591128467E+03  0.50400001928E-02 0.  1.
        1   -1    0    0  501    0  0.00000000000E+00  0.00000000000E+00 -0.91561649850E+03  0.91561649851E+03  0.50400001928E-02 0. -1.
    10030    2    1    2    0    0  0.00000000000E+00  0.00000000000E+00 -0.29970521385E+03  0.15315277832E+04  0.15019168204E+04 0.  0.
        1    1    3    3  502    0  0.34848233434E+03 -0.98621294231E+02 -0.82067692059E+03  0.89703773892E+03  0.50400001928E-02 0. -1.
       -1    1    3    3    0  502 -0.34848233434E+03  0.98621294231E+02  0.52097170674E+03  0.63449004426E+03  0.50400001928E-02 0.  1.
</event>
<event>
 5   0  0.6361716E-05  0.1500756E+04  0.7818609E-02  0.8883950E-01
        1   -1    0    0  501    0  0.00000000000E+00  0.00000000000E+00  0.10745194597E+04  0.10745194597E+04  0.50400001928E-02 0.  1.
       -1   -1    0    0    0  501  0.00000000000E+00  0.00000000000E+00 -0.52401786823E+03  0.52401786826E+03  0.50400001928E-02 0. -1.
    10030    2    1    2    0    0  0.00000000000E+00  0.00000000000E+00  0.55050159149E+03  0.15985373280E+04  0.15007563382E+04 0.  0.
        3    1    3    3  502    0 -0.22794693673E+03 -0.11340364455E+03 -0.47660582187E+03  0.54034554889E+03  0.10100000352E+00 0. -1.
       -3    1    3    3    0  502  0.22794693673E+03  0.11340364455E+03  0.10271074134E+04  0.10581917791E+04  0.10100000352E+00 0.  1.
</event>
<event>
 5   0  0.6542036E-05  0.1500802E+04  0.7818609E-02  0.8883920E-01
       -1   -1    0    0    0  501  0.00000000000E+00  0.00000000000E+00  0.75943624030E+03  0.75943624032E+03  0.50400001928E-02 0. -1.
        1   -1    0    0  501    0  0.00000000000E+00  0.00000000000E+00 -0.74147283459E+03  0.74147283461E+03  0.50400001928E-02 0.  1.
    10030    2    1    2    0    0  0.00000000000E+00  0.00000000000E+00  0.17963405708E+02  0.15009090749E+04  0.15008015749E+04 0.  0.
        4    1    3    3  502    0  0.59312568797E+03 -0.78030289038E+02  0.46201847882E+03  0.75587664033E+03  0.12699999809E+01 0. -1.
       -4    1    3    3    0  502 -0.59312568797E+03  0.78030289038E+02 -0.44405507311E+03  0.74503243459E+03  0.12699999809E+01 0.  1.
</event>
<event>
 5   0  0.6361716E-05  0.1501128E+04  0.7818609E-02  0.8883703E-01
        1   -1    0    0  501    0  0.00000000000E+00  0.00000000000E+00  0.16949824881E+04  0.16949824881E+04  0.50400001928E-02 0.  1.
       -1   -1    0    0    0  501  0.00000000000E+00  0.00000000000E+00 -0.33236116987E+03  0.33236116990E+03  0.50400001928E-02 0. -1.
    10030    2    1    2    0    0  0.00000000000E+00  0.00000000000E+00  0.13626213182E+04  0.20273436580E+04  0.15011280594E+04 0.  0.
        3    1    3    3  502    0 -0.43965780902E+03 -0.39295510268E+03  0.13084555632E+04  0.14351894205E+04  0.10100000352E+00 0.  1.
       -3    1    3    3    0  502  0.43965780902E+03  0.39295510268E+03  0.54165755056E+02  0.59215423749E+03  0.10100000352E+00 0. -1.
</event>
<event>
 5   0  0.1219810E-04  0.1500388E+04  0.7818609E-02  0.8884195E-01
       -2   -1    0    0    0  501  0.00000000000E+00  0.00000000000E+00  0.39317419496E+03  0.39317419497E+03  0.25500000920E-02 0. -1.
        2   -1    0    0  501    0  0.00000000000E+00  0.00000000000E+00 -0.14314028982E+04  0.14314028982E+04  0.25500000920E-02 0.  1.
    10030    2    1    2    0    0  0.00000000000E+00  0.00000000000E+00 -0.10382287033E+04  0.18245770932E+04  0.15003875262E+04 0.  0.
        1    1    3    3  502    0  0.73434471994E+03 -0.88127243796E+02 -0.67178862399E+03  0.99916391755E+03  0.50400001928E-02 0.  1.
       -1    1    3    3    0  502 -0.73434471994E+03  0.88127243796E+02 -0.36644007927E+03  0.82541317564E+03  0.50400001928E-02 0. -1.
</event>
<event>
 5   0  0.1254487E-04  0.1502356E+04  0.7818609E-02  0.8882887E-01
        2   -1    0    0  501    0  0.00000000000E+00  0.00000000000E+00  0.10464169179E+04  0.10464169179E+04  0.25500000920E-02 0.  1.
       -2   -1    0    0    0  501  0.00000000000E+00  0.00000000000E+00 -0.53923886771E+03  0.53923886772E+03  0.25500000920E-02 0. -1.
    10030    2    1    2    0    0  0.00000000000E+00  0.00000000000E+00  0.50717805022E+03  0.15856557857E+04  0.15023563811E+04 0.  0.
        5    1    3    3  502    0 -0.24617424770E+03  0.51825373220E+02 -0.49343921949E+03  0.55388805987E+03  0.46999998093E+01 0. -1.
       -5    1    3    3    0  502  0.24617424770E+03 -0.51825373220E+02  0.10006172697E+04  0.10317677258E+04  0.46999998093E+01 0.  1.
</event>
<event>
 5   0  0.6361716E-05  0.1499315E+04  0.7818609E-02  0.8884908E-01
       -1   -1    0    0    0  501  0.00000000000E+00  0.00000000000E+00  0.43776700813E+03  0.43776700816E+03  0.50400001928E-02 0. -1.
        1   -1    0    0  501    0  0.00000000000E+00  0.00000000000E+00 -0.12837570166E+04  0.12837570166E+04  0.50400001928E-02 0.  1.
    10030    2    1    2    0    0  0.00000000000E+00  0.00000000000E+00 -0.84599000843E+03  0.17215240247E+04  0.14993151348E+04 0.  0.
        3    1    3    3  502    0 -0.13554607232E+03 -0.71631708680E+03 -0.62353239813E+03  0.95930994380E+03  0.10100000352E+00 0.  1.
       -3    1    3    3    0  502  0.13554607232E+03  0.71631708680E+03 -0.22245761030E+03  0.76221408092E+03  0.10100000352E+00 0. -1.
</event>
<event>
 5   0  0.4462875E-05  0.1500261E+04  0.7818609E-02  0.8884280E-01
        4   -1    0    0  501    0  0.00000000000E+00  0.00000000000E+00  0.10037320200E+04  0.10037328235E+04  0.12699999809E+01 0. -1.
       -4   -1    0    0    0  501  0.00000000000E+00  0.00000000000E+00 -0.56060164978E+03  0.56060308832E+03  0.12699999809E+01 0.  1.
    10030    2    1    2    0    0  0.00000000000E+00  0.00000000000E+00  0.44313037025E+03  0.15643359118E+04  0.15002607506E+04 0.  0.
        3    1    3    3  502    0 -0.38280046456E+03  0.54398555614E+03 -0.13999958385E+03  0.67974728733E+03  0.10100000352E+00 0.  1.
       -3    1    3    3    0  502  0.38280046456E+03 -0.54398555614E+03  0.58312995410E+03  0.88458862446E+03  0.10100000352E+00 0. -1.
</event>
<event>
 5   0  0.6542036E-05  0.1521173E+04  0.7818609E-02  0.8870494E-01
        1   -1    0    0  501    0  0.00000000000E+00  0.00000000000E+00  0.15468862113E+04  0.15468862113E+04  0.50400001928E-02 0.  1.
       -1   -1    0    0    0  501  0.00000000000E+00  0.00000000000E+00 -0.37397160872E+03  0.37397160876E+03  0.50400001928E-02 0. -1.
    10030    2    1    2    0    0  0.00000000000E+00  0.00000000000E+00  0.11729146026E+04  0.19208578201E+04  0.15211726069E+04 0.  0.
        4    1    3    3  502    0  0.10488042331E+03  0.42166243206E+03  0.13747305741E+04  0.14417645002E+04  0.12699999809E+01 0.  1.
       -4    1    3    3    0  502 -0.10488042331E+03 -0.42166243206E+03 -0.20181597157E+03  0.47909331981E+03  0.12699999809E+01 0. -1.
</event>
<event>
 5   0  0.6509279E-05  0.1522016E+04  0.7818609E-02  0.8869943E-01
        1   -1    0    0  501    0  0.00000000000E+00  0.00000000000E+00  0.12990604450E+04  0.12990604450E+04  0.50400001928E-02 0.  1.
       -1   -1    0    0    0  501  0.00000000000E+00  0.00000000000E+00 -0.44580928190E+03  0.44580928193E+03  0.50400001928E-02 0. -1.
    10030    2    1    2    0    0  0.00000000000E+00  0.00000000000E+00  0.85325116311E+03  0.17448697269E+04  0.15220160369E+04 0.  0.
        2    1    3    3  502    0 -0.11709166482E+03  0.75143836645E+03  0.45829516594E+03  0.88792146932E+03  0.25500000920E-02 0. -1.
       -2    1    3    3    0  502  0.11709166482E+03 -0.75143836645E+03  0.39495599718E+03  0.85694825763E+03  0.25500000920E-02 0.  1.
</event>
<event>
 5   0  0.6668433E-05  0.1499891E+04  0.7818609E-02  0.8884525E-01
       -1   -1    0    0    0  501  0.00000000000E+00  0.00000000000E+00  0.34844561510E+03  0.34844561513E+03  0.50400001928E-02 0.  1.
        1   -1    0    0  501    0  0.00000000000E+00  0.00000000000E+00 -0.16140783968E+04  0.16140783968E+04  0.50400001928E-02 0. -1.
    10030    2    1    2    0    0  0.00000000000E+00  0.00000000000E+00 -0.12656327817E+04  0.19625240120E+04  0.14998913825E+04 0.  0.
        1    1    3    3  502    0 -0.40189097127E+03 -0.51546395664E+02 -0.14585318590E+04  0.15137663516E+04  0.50400001928E-02 0. -1.
       -1    1    3    3    0  502  0.40189097127E+03  0.51546395664E+02  0.19289907723E+03  0.44875766034E+03  0.50400001928E-02 0.  1.
</event>
<event>
 5   0  0.6364378E-05  0.1499464E+04  0.7818609E-02  0.8884809E-01
        1   -1    0    0  501    0  0.00000000000E+00  0.00000000000E+00  0.36489677863E+03  0.36489677867E+03  0.50400001928E-02 0.  1.
       -1   -1    0    0    0  501  0.00000000000E+00  0.00000000000E+00 -0.15404310302E+04  0.15404310303E+04  0.50400001928E-02 0. -1.
    10030    2    1    2    0    0  0.00000000000E+00  0.00000000000E+00 -0.11755342516E+04  0.19053278089E+04  0.14994643319E+04 0.  0.
        5    1    3    3  502    0  0.93087977157E+02  0.34058460530E+03  0.25262002325E+03  0.43416841318E+03  0.46999998093E+01 0.  1.
       -5    1    3    3    0  502 -0.93087977157E+02 -0.34058460530E+03 -0.14281542749E+04  0.14711593957E+04  0.46999998093E+01 0. -1.
</event>
<event>
 5   0  0.1254487E-04  0.1496658E+04  0.7818609E-02  0.8886678E-01
       -2   -1    0    0    0  501  0.00000000000E+00  0.00000000000E+00  0.40381368526E+03  0.40381368527E+03  0.25500000920E-02 0.  1.
        2   -1    0    0  501    0  0.00000000000E+00  0.00000000000E+00 -0.13867696706E+04  0.13867696706E+04  0.25500000920E-02 0. -1.
    10030    2    1    2    0    0  0.00000000000E+00  0.00000000000E+00 -0.98295598537E+03  0.17905833559E+04  0.14966583729E+04 0.  0.
        5    1    3    3  502    0 -0.37952141261E+03 -0.60270045625E+03 -0.76610075712E+03  0.10460481837E+04  0.46999998093E+01 0. -1.
       -5    1    3    3    0  502  0.37952141261E+03  0.60270045625E+03 -0.21685522826E+03  0.74453517219E+03  0.46999998093E+01 0.  1.
</event>
<event>
 5   0  0.1216921E-04  0.1498870E+04  0.7818609E-02  0.8885205E-01
       -2   -1    0    0    0  501  0.00000000000E+00  0.00000000000E+00  0.29466943936E+03  0.29466943937E+03  0.25500000920E-02 0. -1.
        2   -1    0    0  501    0  0.00000000000E+00  0.00000000000E+00 -0.19060437302E+04  0.19060437302E+04  0.25500000920E-02 0.  1.
    10030    2    1    2    0    0  0.00000000000E+00  0.00000000000E+00 -0.16113742908E+04  0.22007131695E+04  0.14988700242E+04 0.  0.
        4    1    3    3  502    0  0.72224656419E+03  0.19144454740E+03 -0.89079629139E+03  0.11626739697E+04  0.12699999809E+01 0. -1.
       -4    1    3    3    0  502 -0.72224656419E+03 -0.19144454740E+03 -0.72057799941E+03  0.10380391998E+04  0.12699999809E+01 0.  1.
</event>
<event>
 5   0  0.6364378E-05  0.1498049E+04  0.7818609E-02  0.8885752E-01
       -1   -1    0    0    0  501  0.00000000000E+00  0.00000000000E+00  0.54652540630E+03  0.54652540632E+03  0.50400001928E-02 0. -1.
        1   -1    0    0  501    0  0.00000000000E+00  0.00000000000E+00 -0.10265532566E+04  0.10265532566E+04  0.50400001928E-02 0.  1.
    10030    2    1    2    0    0  0.00000000000E+00  0.00000000000E+00 -0.48002785031E+03  0.15730786629E+04  0.14980486450E+04 0.  0.
        5    1    3    3  502    0 -0.33715479727E+03  0.60677891197E+03  0.55434101614E+02  0.69638282213E+03  0.46999998093E+01 0.  1.
       -5    1    3    3    0  502  0.33715479727E+03 -0.60677891197E+03 -0.53546195192E+03  0.87669584081E+03  0.46999998093E+01 0. -1.
</event>
<event>
 5   0  0.4462875E-05  0.1500170E+04  0.7818609E-02  0.8884340E-01
       -3   -1    0    0    0  501  0.00000000000E+00  0.00000000000E+00  0.17211267641E+04  0.17211267670E+04  0.10100000352E+00 0. -1.
        3   -1    0    0  501    0  0.00000000000E+00  0.00000000000E+00 -0.32689493773E+03  0.32689495333E+03  0.10100000352E+00 0.  1.
    10030    2    1    2    0    0  0.00000000000E+00  0.00000000000E+00  0.13942318263E+04  0.20480217204E+04  0.15001701842E+04 0.  0.
        1    1    3    3  502    0 -0.65012397975E+03  0.37013477658E+03  0.77147449499E+03  0.10746319548E+04  0.50400001928E-02 0.  1.
       -1    1    3    3    0  502  0.65012397975E+03 -0.37013477658E+03  0.62275733136E+03  0.97338976554E+03  0.50400001928E-02 0. -1.
</event>
<event>
 5   0  0.1186664E-04  0.1501875E+04  0.7818609E-02  0.8883207E-01
        2   -1    0    0  501    0  0.00000000000E+00  0.00000000000E+00  0.97409620708E+03  0.97409620709E+03  0.25500000920E-02 0. -1.
       -2   -1    0    0    0  501  0.00000000000E+00  0.00000000000E+00 -0.57890260703E+03  0.57890260704E+03  0.25500000920E-02 0.  1.
    10030    2    1    2    0    0  0.00000000000E+00  0.00000000000E+00  0.39519360005E+03  0.15529988141E+04  0.15018746070E+04 0.  0.
        3    1    3    3  502    0 -0.44972591285E+03 -0.55368906817E+03  0.44028109918E+03  0.83825559193E+03  0.10100000352E+00 0. -1.
       -3    1    3    3    0  502  0.44972591285E+03  0.55368906817E+03 -0.45087499130E+02  0.71474322220E+03  0.10100000352E+00 0.  1.
</event>
<event>
 5   0  0.1216921E-04  0.1491956E+04  0.7818609E-02  0.8889820E-01
        2   -1    0    0  501    0  0.00000000000E+00  0.00000000000E+00  0.12119681585E+04  0.12119681585E+04  0.25500000920E-02 0. -1.
       -2   -1    0    0    0  501  0.00000000000E+00  0.00000000000E+00 -0.45915647252E+03  0.45915647252E+03  0.25500000920E-02 0.  1.
    10030    2    1    2    0    0  0.00000000000E+00  0.00000000000E+00  0.75281168594E+03  0.16711246310E+04  0.14919557962E+04 0.  0.
        4    1    3    3  502    0  0.38969382599E+03  0.26579378029E+03 -0.27089933839E+03  0.54396293633E+03  0.12699999809E+01 0.  1.
       -4    1    3    3    0  502 -0.38969382599E+03 -0.26579378029E+03  0.10237110243E+04  0.11271616947E+04  0.12699999809E+01 0. -1.
</event>
<event>
 5   0  0.1216921E-04  0.1500389E+04  0.7818609E-02  0.8884195E-01
       -2   -1    0    0    0  501  0.00000000000E+00  0.00000000000E+00  0.31351747578E+03  0.31351747579E+03  0.25500000920E-02 0. -1.
        2   -1    0    0  501    0  0.00000000000E+00  0.00000000000E+00 -0.17950879109E+04  0.17950879109E+04  0.25500000920E-02 0.  1.
    10030    2    1    2    0    0  0.00000000000E+00  0.00000000000E+00 -0.14815704352E+04  0.21086053867E+04  0.15003885239E+04 0.  0.
        4    1    3    3  502    0  0.96693954643E+02 -0.74341128162E+03 -0.78002918997E+03  0.10818767049E+04  0.12699999809E+01 0. -1.
       -4    1    3    3    0  502 -0.96693954643E+02  0.74341128162E+03 -0.70154124518E+03  0.10267286818E+04  0.12699999809E+01 0.  1.
</event>
<event>
 5   0  0.6668433E-05  0.1459742E+04  0.7818609E-02  0.8911675E-01
        1   -1    0    0  501    0  0.00000000000E+00  0.00000000000E+00  0.10251505052E+04  0.10251505052E+04  0.50400001928E-02 0. -1.
       -1   -1    0    0    0  501  0.00000000000E+00  0.00000000000E+00 -0.51964217504E+03  0.51964217506E+03  0.50400001928E-02 0.  1.
    10030    2    1    2    0    0  0.00000000000E+00  0.00000000000E+00  0.50550833020E+03  0.15447926803E+04  0.14597416735E+04 0.  0.
        1    1    3    3  502    0 -0.48582998149E+03  0.30520831252E+02  0.82826823573E+03  0.96072397826E+03  0.50400001928E-02 0. -1.
       -1    1    3    3    0  502  0.48582998149E+03 -0.30520831252E+02 -0.32275990554E+03  0.58406870204E+03  0.50400001928E-02 0.  1.
</event>
<event>
 5   0  0.6364378E-05  0.1492390E+04  0.7818609E-02  0.8889529E-01
       -1   -1    0    0    0  501  0.00000000000E+00  0.00000000000E+00  0.29418448028E+03  0.29418448033E+03  0.50400001928E-02 0.  1.
        1   -1    0    0  501    0  0.00000000000E+00  0.00000000000E+00 -0.18927135049E+04  0.18927135049E+04  0.50400001928E-02 0. -1.
    10030    2    1    2    0    0  0.00000000000E+00  0.00000000000E+00 -0.15985290246E+04  0.21868979852E+04  0.14923899475E+04 0.  0.
        5    1    3    3  502    0 -0.65771020286E+03 -0.20941914228E+03 -0.12146274027E+04  0.13970615253E+04  0.46999998093E+01 0. -1.
       -5    1    3    3    0  502  0.65771020286E+03  0.20941914228E+03 -0.38390162187E+03  0.78983645989E+03  0.46999998093E+01 0.  1.
</event>
<event>
 5   0  0.6361716E-05  0.1535253E+04  0.7818609E-02  0.8861343E-01
        1   -1    0    0  501    0  0.00000000000E+00  0.00000000000E+00  0.59775992106E+03  0.59775992108E+03  0.50400001928E-02 0. -1.
       -1   -1    0    0    0  501  0.00000000000E+00  0.00000000000E+00 -0.98576468391E+03  0.98576468393E+03  0.50400001928E-02 0.  1.
    10030    2    1    2    0    0  0.00000000000E+00  0.00000000000E+00 -0.38800476285E+03  0.15835246050E+04  0.15352532295E+04 0.  0.
        3    1    3    3  502    0 -0.20134322171E+03  0.43269670937E+03 -0.81414271885E+03  0.94371283349E+03  0.10100000352E+00 0.  1.
       -3    1    3    3    0  502  0.20134322171E+03 -0.43269670937E+03  0.42613795600E+03  0.63981177152E+03  0.10100000352E+00 0. -1.
</event>
<event>
 5   0  0.1219810E-04  0.1505540E+04  0.7818609E-02  0.8880777E-01
        2   -1    0    0  501    0  0.00000000000E+00  0.00000000000E+00  0.11593504687E+04  0.11593504687E+04  0.25500000920E-02 0.  1.
       -2   -1    0    0    0  501  0.00000000000E+00  0.00000000000E+00 -0.48877609784E+03  0.48877609785E+03  0.25500000920E-02 0. -1.
    10030    2    1    2    0    0  0.00000000000E+00  0.00000000000E+00  0.67057437085E+03  0.16481265666E+04  0.15055401664E+04 0.  0.
        1    1    3    3  502    0  0.36987331484E+03 -0.16842436795E+03 -0.35835492456E+03  0.54184064884E+03  0.50400001928E-02 0. -1.
       -1    1    3    3    0  502 -0.36987331484E+03  0.16842436795E+03  0.10289292954E+04  0.11062859177E+04  0.50400001928E-02 0.  1.
</event>
<event>
 5   0  0.6542036E-05  0.1508053E+04  0.7818609E-02  0.8879115E-01
        1   -1    0    0  501    0  0.00000000000E+00  0.00000000000E+00  0.65985496347E+03  0.65985496349E+03  0.50400001928E-02 0.  1.
       -1   -1    0    0    0  501  0.00000000000E+00  0.00000000000E+00 -0.86163784780E+03  0.86163784782E+03  0.50400001928E-02 0. -1.
    10030    2    1    2    0    0  0.00000000000E+00  0.00000000000E+00 -0.20178288434E+03  0.15214928113E+04  0.15080530635E+04 0.  0.
        4    1    3    3  502    0  0.12445938320E+03  0.23611236194E+03  0.61059913619E+03  0.66638735248E+03  0.12699999809E+01 0.  1.
       -4    1    3    3    0  502 -0.12445938320E+03 -0.23611236194E+03 -0.81238202053E+03  0.85510545882E+03  0.12699999809E+01 0. -1.
</event>
<event>
 5   0  0.1186664E-04  0.1501437E+04  0.7818609E-02  0.8883498E-01
        2   -1    0    0  501    0  0.00000000000E+00  0.00000000000E+00  0.16333380093E+04  0.16333380093E+04  0.25500000920E-02 0. -1.
       -2   -1    0    0    0  501  0.00000000000E+00  0.00000000000E+00 -0.34504715506E+03  0.34504715507E+03  0.25500000920E-02 0.  1.
    10030    2    1    2    0    0  0.00000000000E+00  0.00000000000E+00  0.12882908543E+04  0.19783851644E+04  0.15014374891E+04 0.  0.
        3    1    3    3  502    0 -0.38986733083E+03  0.57857321022E+03  0.10093897722E+04  0.12270335031E+04  0.10100000352E+00 0.  1.
       -3    1    3    3    0  502  0.38986733083E+03 -0.57857321022E+03  0.27890108209E+03  0.75135166136E+03  0.10100000352E+00 0. -1.
</event>
<event>
 5   0  0.6364378E-05  0.1499177E+04  0.7818609E-02  0.8885000E-01
        1   -1    0    0  501    0  0.00000000000E+00  0.00000000000E+00  0.53503575608E+03  0.53503575610E+03  0.50400001928E-02 0. -1.
       -1   -1    0    0    0  501  0.00000000000E+00  0.00000000000E+00 -0.10501786027E+04  0.10501786027E+04  0.50400001928E-02 0.  1.
    10030    2    1    2    0    0  0.00000000000E+00  0.00000000000E+00 -0.51514284664E+03  0.15852143588E+04  0.14991772447E+04 0.  0.
        5    1    3    3  502    0 -0.47092834006E+02 -0.45373851205E+03 -0.88648681988E+03  0.99698412432E+03  0.46999998093E+01 0.  1.
       -5    1    3    3    0  502  0.47092834006E+02  0.45373851205E+03  0.37134397324E+03  0.58823023451E+03  0.46999998093E+01 0. -1.
</event>
<event>
 5   0  0.1186664E-04  0.1512861E+04  0.7818609E-02  0.8875945E-01
        2   -1    0    0  501    0  0.00000000000E+00  0.00000000000E+00  0.10890196764E+04  0.10890196764E+04  0.25500000920E-02 0.  1.
       -2   -1    0    0    0  501  0.00000000000E+00  0.00000000000E+00 -0.52541478286E+03  0.52541478287E+03  0.25500000920E-02 0. -1.
    10030    2    1    2    0    0  0.00000000000E+00  0.00000000000E+00  0.56360489358E+03  0.16144344593E+04  0.15128609147E+04 0.  0.
        3    1    3    3  502    0 -0.61483195012E+03 -0.32011457888E+03 -0.41340801850E+02  0.69440675587E+03  0.10100000352E+00 0. -1.
       -3    1    3    3    0  502  0.61483195012E+03  0.32011457888E+03  0.60494569543E+03  0.92002770345E+03  0.10100000352E+00 0.  1.
</event>
<event>
 5   0  0.1219810E-04  0.1502868E+04  0.7818609E-02  0.8882548E-01
        2   -1    0    0  501    0  0.00000000000E+00  0.00000000000E+00  0.24465825036E+04  0.24465825036E+04  0.25500000920E-02 0.  1.
       -2   -1    0    0    0  501  0.00000000000E+00  0.00000000000E+00 -0.23079267713E+03  0.23079267715E+03  0.25500000920E-02 0. -1.
    10030    2    1    2    0    0  0.00000000000E+00  0.00000000000E+00  0.22157898264E+04  0.26773751807E+04  0.15028683586E+04 0.  0.
        1    1    3    3  502    0  0.51486198580E+03  0.27565616535E+03  0.19502763519E+04  0.20358406212E+04  0.50400001928E-02 0.  1.
       -1    1    3    3    0  502 -0.51486198580E+03 -0.27565616535E+03  0.26551347451E+03  0.64153455954E+03  0.50400001928E-02 0. -1.
</event>
<event>
 5   0  0.6364378E-05  0.1484721E+04  0.7818609E-02  0.8894677E-01
        1   -1    0    0  501    0  0.00000000000E+00  0.00000000000E+00  0.56026926138E+03  0.56026926141E+03  0.50400001928E-02 0. -1.
       -1   -1    0    0    0  501  0.00000000000E+00  0.00000000000E+00 -0.98363313339E+03  0.98363313341E+03  0.50400001928E-02 0.  1.
    10030    2    1    2    0    0  0.00000000000E+00  0.00000000000E+00 -0.42336387201E+03  0.15439023948E+04  0.14847214003E+04 0.  0.
        5    1    3    3  502    0 -0.13588800324E+03 -0.37953239740E+03  0.43651621818E+03  0.59420441671E+03  0.46999998093E+01 0. -1.
       -5    1    3    3    0  502  0.13588800324E+03  0.37953239740E+03 -0.85988009019E+03  0.94969797810E+03  0.46999998093E+01 0.  1.
</event>
<event>
 5   0  0.6509279E-05  0.1500018E+04  0.7818609E-02  0.8884441E-01
        1   -1    0    0  501    0  0.00000000000E+00  0.00000000000E+00  0.93238791699E+03  0.93238791700E+03  0.50400001928E-02 0. -1.
       -1   -1    0    0    0  501  0.00000000000E+00  0.00000000000E+00 -0.60330428488E+03  0.60330428490E+03  0.50400001928E-02 0.  1.
    10030    2    1    2    0    0  0.00000000000E+00  0.00000000000E+00  0.32908363211E+03  0.15356922019E+04  0.15000181672E+04 0.  0.
        2    1    3    3  502    0  0.50345532899E+03  0.55442950559E+03  0.12290167021E+03  0.75892303003E+03  0.25500000920E-02 0. -1.
       -2    1    3    3    0  502 -0.50345532899E+03 -0.55442950559E+03  0.20618196190E+03  0.77676917188E+03  0.25500000920E-02 0.  1.
</event>
<event>
 5   0  0.1228286E-04  0.1494996E+04  0.7818609E-02  0.8887787E-01
        2   -1    0    0  501    0  0.00000000000E+00  0.00000000000E+00  0.12045783144E+04  0.12045783144E+04  0.25500000920E-02 0.  1.
       -2   -1    0    0    0  501  0.00000000000E+00  0.00000000000E+00 -0.46385814036E+03  0.46385814036E+03  0.25500000920E-02 0. -1.
    10030    2    1    2    0    0  0.00000000000E+00  0.00000000000E+00  0.74072017403E+03  0.16684364548E+04  0.14949962633E+04 0.  0.
        2    1    3    3  502    0 -0.44800727072E+03 -0.58421144015E+03  0.22596698311E+03  0.77011336756E+03  0.25500000920E-02 0. -1.
       -2    1    3    3    0  502  0.44800727072E+03  0.58421144015E+03  0.51475319092E+03  0.89832308720E+03  0.25500000920E-02 0.  1.
</event>
<event>
 5   0  0.1228286E-04  0.1501633E+04  0.7818609E-02  0.8883367E-01
        2   -1    0    0  501    0  0.00000000000E+00  0.00000000000E+00  0.87934593712E+03  0.87934593712E+03  0.25500000920E-02 0. -1.
       -2   -1    0    0    0  501  0.00000000000E+00  0.00000000000E+00 -0.64107392888E+03  0.64107392888E+03  0.25500000920E-02 0.  1.
    10030    2    1    2    0    0  0.00000000000E+00  0.00000000000E+00  0.23827200824E+03  0.15204198660E+04  0.15016334503E+04 0.  0.
        2    1    3    3  502    0 -0.40142769703E+03  0.48701939005E+03 -0.29263811502E+03  0.69567891200E+03  0.25500000920E-02 0.  1.
       -2    1    3    3    0  502  0.40142769703E+03 -0.48701939005E+03  0.53091012325E+03  0.82474095400E+03  0.25500000920E-02 0. -1.
</event>
<event>
 5   0  0.6361716E-05  0.1493419E+04  0.7818609E-02  0.8888841E-01
        1   -1    0    0  501    0  0.00000000000E+00  0.00000000000E+00  0.71821470224E+03  0.71821470225E+03  0.50400001928E-02 0. -1.
       -1   -1    0    0    0  501  0.00000000000E+00  0.00000000000E+00 -0.77633511341E+03  0.77633511342E+03  0.50400001928E-02 0.  1.
    10030    2    1    2    0    0  0.00000000000E+00  0.00000000000E+00 -0.58120411169E+02  0.14945498157E+04  0.14934192879E+04 0.  0.
        3    1    3    3  502    0 -0.41654106663E+03 -0.61967550090E+03 -0.20622006105E+02  0.74694676112E+03  0.10100000352E+00 0.  1.
       -3    1    3    3    0  502  0.41654106663E+03  0.61967550090E+03 -0.37498405065E+02  0.74760305456E+03  0.10100000352E+00 0. -1.
</event>
<event>
 5   0  0.6509279E-05  0.1522637E+04  0.7818609E-02  0.8869538E-01
        1   -1    0    0  501    0  0.00000000000E+00  0.00000000000E+00  0.14371239260E+04  0.14371239260E+04  0.50400001928E-02 0. -1.
       -1   -1    0    0    0  501  0.00000000000E+00  0.00000000000E+00 -0.40330961244E+03  0.40330961247E+03  0.50400001928E-02 0.  1.
    10030    2    1    2    0    0  0.00000000000E+00  0.00000000000E+00  0.10338143136E+04  0.18404335385E+04  0.15226370463E+04 0.  0.
        2    1    3    3  502    0 -0.57601530551E+03 -0.49166968667E+03  0.61110302371E+03  0.97312877799E+03  0.25500000920E-02 0.  1.
       -2    1    3    3    0  502  0.57601530551E+03  0.49166968667E+03  0.42271128986E+03  0.86730476048E+03  0.25500000920E-02 0. -1.
</event>
<event>
 5   0  0.1219810E-04  0.1498156E+04  0.7818609E-02  0.8885680E-01
        2   -1    0    0  501    0  0.00000000000E+00  0.00000000000E+00  0.10535115996E+04  0.10535115996E+04  0.25500000920E-02 0.  1.
       -2   -1    0    0    0  501  0.00000000000E+00  0.00000000000E+00 -0.53261636940E+03  0.53261636941E+03  0.25500000920E-02 0. -1.
    10030    2    1    2    0    0  0.00000000000E+00  0.00000000000E+00  0.52089523016E+03  0.15861279690E+04  0.14981555637E+04 0.  0.
        1    1    3    3  502    0  0.21950367804E+03  0.59094581320E+03  0.68882887271E+03  0.93374730774E+03  0.50400001928E-02 0.  1.
       -1    1    3    3    0  502 -0.21950367804E+03 -0.59094581320E+03 -0.16793364255E+03  0.65238066122E+03  0.50400001928E-02 0. -1.
</event>
<event>
 5   0  0.6542036E-05  0.1495688E+04  0.7818609E-02  0.8887325E-01
        1   -1    0    0  501    0  0.00000000000E+00  0.00000000000E+00  0.89059756082E+03  0.89059756083E+03  0.50400001928E-02 0.  1.
       -1   -1    0    0    0  501  0.00000000000E+00  0.00000000000E+00 -0.62797228407E+03  0.62797228409E+03  0.50400001928E-02 0. -1.
    10030    2    1    2    0    0  0.00000000000E+00  0.00000000000E+00  0.26262527675E+03  0.15185698449E+04  0.14956879146E+04 0.  0.
        4    1    3    3  502    0 -0.56422959955E+03 -0.26957961032E+03 -0.28513404088E+03  0.68726358952E+03  0.12699999809E+01 0. -1.
       -4    1    3    3    0  502  0.56422959955E+03  0.26957961032E+03  0.54775931763E+03  0.83130625540E+03  0.12699999809E+01 0.  1.
</event>
<event>
 5   0  0.1219810E-04  0.1498701E+04  0.7818609E-02  0.8885317E-01
        2   -1    0    0  501    0  0.00000000000E+00  0.00000000000E+00  0.10156475388E+04  0.10156475388E+04  0.25500000920E-02 0. -1.
       -2   -1    0    0    0  501  0.00000000000E+00  0.00000000000E+00 -0.55287475496E+03  0.55287475497E+03  0.25500000920E-02 0.  1.
    10030    2    1    2    0    0  0.00000000000E+00  0.00000000000E+00  0.46277278384E+03  0.15685222938E+04  0.14987006161E+04 0.  0.
        1    1    3    3  502    0  0.29449365336E+03  0.44181127525E+02  0.95106122006E+03  0.99659215742E+03  0.50400001928E-02 0. -1.
       -1    1    3    3    0  502 -0.29449365336E+03 -0.44181127525E+02 -0.48828843622E+03  0.57193013636E+03  0.50400001928E-02 0.  1.
</event>
<event>
 5   0  0.6668433E-05  0.1502025E+04  0.7818609E-02  0.8883107E-01
       -1   -1    0    0    0  501  0.00000000000E+00  0.00000000000E+00  0.24396599571E+03  0.24396599576E+03  0.50400001928E-02 0. -1.
        1   -1    0    0  501    0  0.00000000000E+00  0.00000000000E+00 -0.23118785580E+04  0.23118785580E+04  0.50400001928E-02 0.  1.
    10030    2    1    2    0    0  0.00000000000E+00  0.00000000000E+00 -0.20679125622E+04  0.25558445537E+04  0.15020249724E+04 0.  0.
        1    1    3    3  502    0  0.19428479925E+03 -0.62800148464E+03 -0.16519140303E+04  0.17779067500E+04  0.50400001928E-02 0.  1.
       -1    1    3    3    0  502 -0.19428479925E+03  0.62800148464E+03 -0.41599853190E+03  0.77793780374E+03  0.50400001928E-02 0. -1.
</event>
<event>
 5   0  0.1216921E-04  0.1499876E+04  0.7818609E-02  0.8884535E-01
        2   -1    0    0  501    0  0.00000000000E+00  0.00000000000E+00  0.88274902272E+03  0.88274902272E+03  0.25500000920E-02 0.  1.
       -2   -1    0    0    0  501  0.00000000000E+00  0.00000000000E+00 -0.63710850012E+03  0.63710850012E+03  0.25500000920E-02 0. -1.
    10030    2    1    2    0    0  0.00000000000E+00  0.00000000000E+00  0.24564052260E+03  0.15198575228E+04  0.14998758693E+04 0.  0.
        4    1    3    3  502    0  0.33499535743E+03 -0.33870735036E+03 -0.46408554497E+03  0.66507260103E+03  0.12699999809E+01 0. -1.
       -4    1    3    3    0  502 -0.33499535743E+03  0.33870735036E+03  0.70972606757E+03  0.85478492182E+03  0.12699999809E+01 0.  1.
</event>
<event>
 5   0  0.4462875E-05  0.1499841E+04  0.7818609E-02  0.8884558E-01
        3   -1    0    0  501    0  0.00000000000E+00  0.00000000000E+00  0.48887589161E+03  0.48887590205E+03  0.10100000352E+00 0.  1.
       -3   -1    0    0    0  501  0.00000000000E+00  0.00000000000E+00 -0.11503553405E+04  0.11503553450E+04  0.10100000352E+00 0. -1.
    10030    2    1    2    0    0  0.00000000000E+00  0.00000000000E+00 -0.66147944893E+03  0.16392312470E+04  0.14998413316E+04 0.  0.
        1    1    3    3  502    0  0.89003430052E+02  0.17399826859E+02 -0.11443401694E+04  0.11479280413E+04  0.50400001928E-02 0. -1.
       -1    1    3    3    0  502 -0.89003430052E+02 -0.17399826859E+02  0.48286072051E+03  0.49130320574E+03  0.50400001928E-02 0.  1.
</event>
<event>
 5   0  0.1186664E-04  0.1500749E+04  0.7818609E-02  0.8883955E-01
        2   -1    0    0  501    0  0.00000000000E+00  0.00000000000E+00  0.17108362880E+04  0.17108362880E+04  0.25500000920E-02 0.  1.
       -2   -1    0    0    0  501  0.00000000000E+00  0.00000000000E+00 -0.32911511857E+03  0.32911511858E+03  0.25500000920E-02 0. -1.
    10030    2    1    2    0    0  0.00000000000E+00  0.00000000000E+00  0.13817211695E+04  0.20399514066E+04  0.15007492633E+04 0.  0.
        3    1    3    3  502    0  0.55709656390E+03  0.95518328121E+02  0.13617239126E+04  0.14743718517E+04  0.10100000352E+00 0. -1.
       -3    1    3    3    0  502 -0.55709656390E+03 -0.95518328121E+02  0.19997256827E+02  0.56557955497E+03  0.10100000352E+00 0.  1.
</event>
<event>
 5   0  0.1228286E-04  0.1503795E+04  0.7818609E-02  0.8881933E-01
        2   -1    0    0  501    0  0.00000000000E+00  0.00000000000E+00  0.17587434014E+04  0.17587434014E+04  0.25500000920E-02 0. -1.
       -2   -1    0    0    0  501  0.00000000000E+00  0.00000000000E+00 -0.32145115502E+03  0.32145115503E+03  0.25500000920E-02 0.  1.
    10030    2    1    2    0    0  0.00000000000E+00  0.00000000000E+00  0.14372922464E+04  0.20801945565E+04  0.15037953289E+04 0.  0.
        2    1    3    3  502    0  0.55515420501E+03 -0.46822540895E+03  0.44928002608E+03  0.85398112787E+03  0.25500000920E-02 0.  1.
       -2    1    3    3    0  502 -0.55515420501E+03  0.46822540895E+03  0.98801222035E+03  0.12262134286E+04  0.25500000920E-02 0. -1.
</event>
<event>
 5   0  0.1219810E-04  0.1500597E+04  0.7818609E-02  0.8884056E-01
       -2   -1    0    0    0  501  0.00000000000E+00  0.00000000000E+00  0.34268404363E+03  0.34268404364E+03  0.25500000920E-02 0.  1.
        2   -1    0    0  501    0  0.00000000000E+00  0.00000000000E+00 -0.16427597515E+04  0.16427597515E+04  0.25500000920E-02 0. -1.
    10030    2    1    2    0    0  0.00000000000E+00  0.00000000000E+00 -0.13000757079E+04  0.19854437951E+04  0.15005966205E+04 0.  0.
        1    1    3    3  502    0 -0.19016725237E+03  0.70818401684E+03 -0.43975450740E+03  0.85502760913E+03  0.50400001928E-02 0.  1.
       -1    1    3    3    0  502  0.19016725237E+03 -0.70818401684E+03 -0.86032120047E+03  0.11304161860E+04  0.50400001928E-02 0. -1.
</event>
<event>
 5   0  0.6542036E-05  0.1500523E+04  0.7818609E-02  0.8884105E-01
        1   -1    0    0  501    0  0.00000000000E+00  0.00000000000E+00  0.10774574304E+04  0.10774574304E+04  0.50400001928E-02 0.  1.
       -1   -1    0    0    0  501  0.00000000000E+00  0.00000000000E+00 -0.52242672602E+03  0.52242672605E+03  0.50400001928E-02 0. -1.
    10030    2    1    2    0    0  0.00000000000E+00  0.00000000000E+00  0.55503070441E+03  0.15998841565E+04  0.15005233192E+04 0.  0.
        4    1    3    3  502    0 -0.67274950929E+02  0.72466443435E+03  0.83163815506E+02  0.73251777763E+03  0.12699999809E+01 0. -1.
       -4    1    3    3    0  502  0.67274950929E+02 -0.72466443435E+03  0.47186688890E+03  0.86736637886E+03  0.12699999809E+01 0.  1.
</event>
<event>
 5   0  0.1228286E-04  0.1498975E+04  0.7818609E-02  0.8885135E-01
        2   -1    0    0  501    0  0.00000000000E+00  0.00000000000E+00  0.56164974129E+03  0.56164974130E+03  0.25500000920E-02 0.  1.
       -2   -1    0    0    0  501  0.00000000000E+00  0.00000000000E+00 -0.10001454219E+04  0.10001454219E+04  0.25500000920E-02 0. -1.
    10030    2    1    2    0    0  0.00000000000E+00  0.00000000000E+00 -0.43849568063E+03  0.15617951632E+04  0.14989748730E+04 0.  0.
        2    1    3    3  502    0  0.15857841994E+03  0.54984206498E+03  0.28503819462E+03  0.63931227432E+03  0.25500000920E-02 0.  1.
       -2    1    3    3    0  502 -0.15857841994E+03 -0.54984206498E+03 -0.72353387525E+03  0.92248288891E+03  0.25500000920E-02 0. -1.
</event>
<event>
 5   0  0.6364378E-05  0.1522667E+04  0.7818609E-02  0.8869518E-01
       -1   -1    0    0    0  501  0.00000000000E+00  0.00000000000E+00  0.60903411970E+03  0.60903411972E+03  0.50400001928E-02 0. -1.
        1   -1    0    0  501    0  0.00000000000E+00  0.00000000000E+00 -0.95171766549E+03  0.95171766550E+03  0.50400001928E-02 0.  1.
    10030    2    1    2    0    0  0.00000000000E+00  0.00000000000E+00 -0.34268354579E+03  0.15607517852E+04  0.15226667799E+04 0.  0.
        5    1    3    3  502    0 -0.58769957809E+03  0.47604506851E+03 -0.26068107981E+03  0.79999151039E+03  0.46999998093E+01 0.  1.
       -5    1    3    3    0  502  0.58769957809E+03 -0.47604506851E+03 -0.82002465982E+02  0.76076027483E+03  0.46999998093E+01 0. -1.
</event>
<event>
 5   0  0.6542036E-05  0.1499739E+04  0.7818609E-02  0.8884626E-01
        1   -1    0    0  501    0  0.00000000000E+00  0.00000000000E+00  0.95257303268E+03  0.95257303269E+03  0.50400001928E-02 0.  1.
       -1   -1    0    0    0  501  0.00000000000E+00  0.00000000000E+00 -0.59030053975E+03  0.59030053977E+03  0.50400001928E-02 0. -1.
    10030    2    1    2    0    0  0.00000000000E+00  0.00000000000E+00  0.36227249293E+03  0.15428735725E+04  0.14997391445E+04 0.  0.
        4    1    3    3  502    0  0.72048804172E+03 -0.16934740293E+03  0.30510604245E+03  0.80054535860E+03  0.12699999809E+01 0.  1.
       -4    1    3    3    0  502 -0.72048804172E+03  0.16934740293E+03  0.57166450474E+02  0.74232821386E+03  0.12699999809E+01 0. -1.
</event>
<event>
 5   0  0.6509279E-05  0.1489774E+04  0.7818609E-02  0.8891281E-01
        1   -1    0    0  501    0  0.00000000000E+00  0.00000000000E+00  0.66684301766E+03  0.66684301768E+03  0.50400001928E-02 0.  1.
       -1   -1    0    0    0  501  0.00000000000E+00  0.00000000000E+00 -0.83206520484E+03  0.83206520486E+03  0.50400001928E-02 0. -1.
    10030    2    1    2    0    0  0.00000000000E+00  0.00000000000E+00 -0.16522218719E+03  0.14989082225E+04  0.14897743079E+04 0.  0.
        2    1    3    3  502    0  0.42702391535E+03 -0.59324717838E+03 -0.22689615900E+03  0.76535841663E+03  0.25500000920E-02 0. -1.
       -2    1    3    3    0  502 -0.42702391535E+03  0.59324717838E+03  0.61673971814E+02  0.73354980590E+03  0.25500000920E-02 0.  1.
</event>
<event>
 5   0  0.6364378E-05  0.1499381E+04  0.7818609E-02  0.8884865E-01
       -1   -1    0    0    0  501  0.00000000000E+00  0.00000000000E+00  0.65044646852E+03  0.65044646854E+03  0.50400001928E-02 0. -1.
        1   -1    0    0  501    0  0.00000000000E+00  0.00000000000E+00 -0.86407715176E+03  0.86407715177E+03  0.50400001928E-02 0.  1.
    10030    2    1    2    0    0  0.00000000000E+00  0.00000000000E+00 -0.21363068323E+03  0.15145236203E+04  0.14993811149E+04 0.  0.
        5    1    3    3  502    0  0.61361205570E+03  0.17137881741E+03 -0.50593029361E+03  0.81355885217E+03  0.46999998093E+01 0.  1.
       -5    1    3    3    0  502 -0.61361205570E+03 -0.17137881741E+03  0.29229961038E+03  0.70096476814E+03  0.46999998093E+01 0. -1.
</event>
<event>
 5   0  0.1186664E-04  0.1500544E+04  0.7818609E-02  0.8884091E-01
        2   -1    0    0  501    0  0.00000000000E+00  0.00000000000E+00  0.55288776457E+03  0.55288776457E+03  0.25500000920E-02 0. -1.
       -2   -1    0    0    0  501  0.00000000000E+00  0.00000000000E+00 -0.10181236423E+04  0.10181236423E+04  0.25500000920E-02 0.  1.
    10030    2    1    2    0    0  0.00000000000E+00  0.00000000000E+00 -0.46523587772E+03  0.15710114069E+04  0.15005440409E+04 0.  0.
        3    1    3    3  502    0 -0.19335664018E+03 -0.71944095546E+03 -0.32582698370E+03  0.81310842586E+03  0.10100000352E+00 0. -1.
       -3    1    3    3    0  502  0.19335664018E+03  0.71944095546E+03 -0.13940889402E+03  0.75790298101E+03  0.10100000352E+00 0.  1.
</event>
<event>
 5   0  0.1216921E-04  0.1499630E+04  0.7818609E-02  0.8884699E-01
        2   -1    0    0  501    0  0.00000000000E+00  0.00000000000E+00  0.70853659691E+03  0.70853659691E+03  0.25500000920E-02 0.  1.
       -2   -1    0    0    0  501  0.00000000000E+00  0.00000000000E+00 -0.79349833143E+03  0.79349833144E+03  0.25500000920E-02 0. -1.
    10030    2    1    2    0    0  0.00000000000E+00  0.00000000000E+00 -0.84961734524E+02  0.15020349283E+04  0.14996300976E+04 0.  0.
        4    1    3    3  502    0 -0.32556059945E+03 -0.18380485412E+03 -0.69348243275E+03  0.78784099014E+03  0.12699999809E+01 0. -1.
       -4    1    3    3    0  502  0.32556059945E+03  0.18380485412E+03  0.60852069822E+03  0.71419393821E+03  0.12699999809E+01 0.  1.
</event>
<event>
 5   0  0.1254487E-04  0.1501815E+04  0.7818609E-02  0.8883247E-01
        2   -1    0    0  501    0  0.00000000000E+00  0.00000000000E+00  0.46693700723E+03  0.46693700724E+03  0.25500000920E-02 0. -1.
       -2   -1    0    0    0  501  0.00000000000E+00  0.00000000000E+00 -0.12075764476E+04  0.12075764476E+04  0.25500000920E-02 0.  1.
    10030    2    1    2    0    0  0.00000000000E+00  0.00000000000E+00 -0.74063944040E+03  0.16745134549E+04  0.15018150785E+04 0.  0.
        5    1    3    3  502    0 -0.26436411029E+03  0.33696100712E+03  0.31737792634E+03  0.53308717979E+03  0.46999998093E+01 0. -1.
       -5    1    3    3    0  502  0.26436411029E+03 -0.33696100712E+03 -0.10580173667E+04  0.11414262751E+04  0.46999998093E+01 0.  1.
</event>
<event>
 5   0  0.6509279E-05  0.1500567E+04  0.7818609E-02  0.8884076E-01
        1   -1    0    0  501    0  0.00000000000E+00  0.00000000000E+00  0.17900676547E+04  0.17900676547E+04  0.50400001928E-02 0. -1.
       -1   -1    0    0    0  501  0.00000000000E+00  0.00000000000E+00 -0.31447149495E+03  0.31447149499E+03  0.50400001928E-02 0.  1.
    10030    2    1    2    0    0  0.00000000000E+00  0.00000000000E+00  0.14755961597E+04  0.21045391497E+04  0.15005668948E+04 0.  0.
        2    1    3    3  502    0 -0.50268092964E+03 -0.48813340046E+03  0.11140303388E+04  0.13160645613E+04  0.25500000920E-02 0. -1.
       -2    1    3    3    0  502  0.50268092964E+03  0.48813340046E+03  0.36156582088E+03  0.78847458836E+03  0.25500000920E-02 0.  1.
</event>
<event>
 5   0  0.6509279E-05  0.1501541E+04  0.7818609E-02  0.8883429E-01
       -1   -1    0    0    0  501  0.00000000000E+00  0.00000000000E+00  0.57518298305E+03  0.57518298308E+03  0.50400001928E-02 0. -1.
        1   -1    0    0  501    0  0.00000000000E+00  0.00000000000E+00 -0.97995980269E+03  0.97995980271E+03  0.50400001928E-02 0.  1.
    10030    2    1    2    0    0  0.00000000000E+00  0.00000000000E+00 -0.40477681964E+03  0.15551427858E+04  0.15015408121E+04 0.  0.
        2    1    3    3  502    0 -0.60281584806E+03  0.19002678535E+03 -0.62201749251E+03  0.88679359877E+03  0.25500000920E-02 0.  1.
       -2    1    3    3    0  502  0.60281584806E+03 -0.19002678535E+03  0.21724067287E+03  0.66834918701E+03  0.25500000920E-02 0. -1.
</event>
<event>
 5   0  0.4462875E-05  0.1500156E+04  0.7818609E-02  0.8884349E-01
       -3   -1    0    0    0  501  0.00000000000E+00  0.00000000000E+00  0.71097114539E+03  0.71097115256E+03  0.10100000352E+00 0. -1.
        3   -1    0    0  501    0  0.00000000000E+00  0.00000000000E+00 -0.79133633179E+03  0.79133633824E+03  0.10100000352E+00 0.  1.
    10030    2    1    2    0    0  0.00000000000E+00  0.00000000000E+00 -0.80365186403E+02  0.15023074908E+04  0.15001564031E+04 0.  0.
        5    1    3    3  502    0  0.37340275945E+03  0.38717019876E+03  0.48331437003E+03  0.72314953768E+03  0.46999998093E+01 0. -1.
       -5    1    3    3    0  502 -0.37340275945E+03 -0.38717019876E+03 -0.56367955643E+03  0.77915795312E+03  0.46999998093E+01 0.  1.
</event>
<event>
 5   0  0.4462875E-05  0.1501540E+04  0.7818609E-02  0.8883429E-01
        3   -1    0    0  501    0  0.00000000000E+00  0.00000000000E+00  0.51700549522E+03  0.51700550509E+03  0.10100000352E+00 0.  1.
       -3   -1    0    0    0  501  0.00000000000E+00  0.00000000000E+00 -0.10902319623E+04  0.10902319670E+04  0.10100000352E+00 0. -1.
    10030    2    1    2    0    0  0.00000000000E+00  0.00000000000E+00 -0.57322646712E+03  0.16072374721E+04  0.15015404454E+04 0.  0.
        1    1    3    3  502    0  0.58405978996E+03  0.19258782856E+02  0.21790301110E+03  0.62368137798E+03  0.50400001928E-02 0.  1.
       -1    1    3    3    0  502 -0.58405978996E+03 -0.19258782856E+02 -0.79112947822E+03  0.98355609413E+03  0.50400001928E-02 0. -1.
</event>
<event>
 5   0  0.6542036E-05  0.1503199E+04  0.7818609E-02  0.8882328E-01
        1   -1    0    0  501    0  0.00000000000E+00  0.00000000000E+00  0.13627050641E+04  0.13627050641E+04  0.50400001928E-02 0.  1.
       -1   -1    0    0    0  501  0.00000000000E+00  0.00000000000E+00 -0.41454461728E+03  0.41454461731E+03  0.50400001928E-02 0. -1.
    10030    2    1    2    0    0  0.00000000000E+00  0.00000000000E+00  0.94816044678E+03  0.17772496814E+04  0.15031993205E+04 0.  0.
        4    1    3    3  502    0  0.88732184390E+02 -0.46617902828E+03 -0.21501985629E+03  0.52099082377E+03  0.12699999809E+01 0. -1.
       -4    1    3    3    0  502 -0.88732184390E+02  0.46617902828E+03  0.11631803031E+04  0.12562588576E+04  0.12699999809E+01 0.  1.
</event>
<event>
 5   0  0.6361716E-05  0.1503847E+04  0.7818609E-02  0.8881899E-01
        1   -1    0    0  501    0  0.00000000000E+00  0.00000000000E+00  0.81307097420E+03  0.81307097422E+03  0.50400001928E-02 0.  1.
       -1   -1    0    0    0  501  0.00000000000E+00  0.00000000000E+00 -0.69537476879E+03  0.69537476881E+03  0.50400001928E-02 0. -1.
    10030    2    1    2    0    0  0.00000000000E+00  0.00000000000E+00  0.11769620541E+03  0.15084457430E+04  0.15038471209E+04 0.  0.
        3    1    3    3  502    0 -0.34033247833E+03  0.17317618825E+03  0.70857327073E+03  0.80491755986E+03  0.10100000352E+00 0.  1.
       -3    1    3    3    0  502  0.34033247833E+03 -0.17317618825E+03 -0.59087706532E+03  0.70352818316E+03  0.10100000352E+00 0. -1.
</event>
<event>
 5   0  0.1216921E-04  0.1511863E+04  0.7818609E-02  0.8876602E-01
        2   -1    0    0  501    0  0.00000000000E+00  0.00000000000E+00  0.67699827413E+03  0.67699827413E+03  0.25500000920E-02 0.  1.
       -2   -1    0    0    0  501  0.00000000000E+00  0.00000000000E+00 -0.84406809386E+03  0.84406809386E+03  0.25500000920E-02 0. -1.
    10030    2    1    2    0    0  0.00000000000E+00  0.00000000000E+00 -0.16706981973E+03  0.15210663680E+04  0.15118632779E+04 0.  0.
        4    1    3    3  502    0  0.48974794882E+03 -0.57185002634E+03 -0.15554941930E+02  0.75306644801E+03  0.12699999809E+01 0.  1.
       -4    1    3    3    0  502 -0.48974794882E+03  0.57185002634E+03 -0.15151487780E+03  0.76799991998E+03  0.12699999809E+01 0. -1.
</event>
<event>
 5   0  0.1254487E-04  0.1500195E+04  0.7818609E-02  0.8884323E-01
        2   -1    0    0  501    0  0.00000000000E+00  0.00000000000E+00  0.11050029048E+04  0.11050029048E+04  0.25500000920E-02 0. -1.
       -2   -1    0    0    0  501  0.00000000000E+00  0.00000000000E+00 -0.50918094489E+03  0.50918094489E+03  0.25500000920E-02 0.  1.
    10030    2    1    2    0    0  0.00000000000E+00  0.00000000000E+00  0.59582195990E+03  0.16141838497E+04  0.15001952182E+04 0.  0.
        5    1    3    3  502    0 -0.26631307292E+03 -0.30004447971E+02 -0.45589247445E+03  0.52885060080E+03  0.46999998093E+01 0.  1.
       -5    1    3    3    0  502  0.26631307292E+03  0.30004447971E+02  0.10517144343E+04  0.10853332489E+04  0.46999998093E+01 0. -1.
</event>
<event>
 5   0  0.6364378E-05  0.1500559E+04  0.7818609E-02  0.8884081E-01
       -1   -1    0    0    0  501  0.00000000000E+00  0.00000000000E+00  0.65789455397E+03  0.65789455399E+03  0.50400001928E-02 0.  1.
        1   -1    0    0  501    0  0.00000000000E+00  0.00000000000E+00 -0.85563766138E+03  0.85563766140E+03  0.50400001928E-02 0. -1.
    10030    2    1    2    0    0  0.00000000000E+00  0.00000000000E+00 -0.19774310741E+03  0.15135322154E+04  0.15005590393E+04 0.  0.
        5    1    3    3  502    0  0.25080958927E+03 -0.70209861824E+03 -0.18355783285E+03  0.76783037697E+03  0.46999998093E+01 0. -1.
       -5    1    3    3    0  502 -0.25080958927E+03  0.70209861824E+03 -0.14185274559E+02  0.74570183841E+03  0.46999998093E+01 0.  1.
</event>
<event>
 5   0  0.1219810E-04  0.1504494E+04  0.7818609E-02  0.8881470E-01
       -2   -1    0    0    0  501  0.00000000000E+00  0.00000000000E+00  0.13421989255E+04  0.13421989256E+04  0.25500000920E-02 0.  1.
        2   -1    0    0  501    0  0.00000000000E+00  0.00000000000E+00 -0.42160347317E+03  0.42160347317E+03  0.25500000920E-02 0. -1.
    10030    2    1    2    0    0  0.00000000000E+00  0.00000000000E+00  0.92059545238E+03  0.17638023987E+04  0.15044942389E+04 0.  0.
        1    1    3    3  502    0  0.67108895111E+03  0.23780388480E+03  0.74497664120E+03  0.10304859358E+04  0.50400001928E-02 0.  1.
       -1    1    3    3    0  502 -0.67108895111E+03 -0.23780388480E+03  0.17561881118E+03  0.73331646292E+03  0.50400001928E-02 0. -1.
</event>
<event>
 5   0  0.1228286E-04  0.1494267E+04  0.7818609E-02  0.8888274E-01
        2   -1    0    0  501    0  0.00000000000E+00  0.00000000000E+00  0.13848359164E+04  0.13848359164E+04  0.25500000920E-02 0.  1.
       -2   -1    0    0    0  501  0.00000000000E+00  0.00000000000E+00 -0.40308641086E+03  0.40308641087E+03  0.25500000920E-02 0. -1.
    10030    2    1    2    0    0  0.00000000000E+00  0.00000000000E+00  0.98174950556E+03  0.17879223273E+04  0.14942670969E+04 0.  0.
        2    1    3    3  502    0 -0.38045761985E+03  0.58311043015E+03  0.81513590646E+03  0.10720132090E+04  0.25500000920E-02 0.  1.
       -2    1    3    3    0  502  0.38045761985E+03 -0.58311043015E+03  0.16661359910E+03  0.71590911830E+03  0.25500000920E-02 0. -1.
</event>
<event>
 5   0  0.1228286E-04  0.1500587E+04  0.7818609E-02  0.8884063E-01
       -2   -1    0    0    0  501  0.00000000000E+00  0.00000000000E+00  0.52891450500E+03  0.52891450500E+03  0.25500000920E-02 0.  1.
        2   -1    0    0  501    0  0.00000000000E+00  0.00000000000E+00 -0.10643308869E+04  0.10643308869E+04  0.25500000920E-02 0. -1.
    10030    2    1    2    0    0  0.00000000000E+00  0.00000000000E+00 -0.53541638186E+03  0.15932453919E+04  0.15005866109E+04 0.  0.
        2    1    3    3  502    0 -0.50498239886E+03 -0.30200794707E+02  0.32060075997E+03  0.59891915854E+03  0.25500000920E-02 0.  1.
       -2    1    3    3    0  502  0.50498239886E+03  0.30200794707E+02 -0.85601714183E+03  0.99432623332E+03  0.25500000920E-02 0. -1.
</event>
<event>
 5   0  0.6542036E-05  0.1493782E+04  0.7818609E-02  0.8888598E-01
        1   -1    0    0  501    0  0.00000000000E+00  0.00000000000E+00  0.57499613724E+03  0.57499613727E+03  0.50400001928E-02 0.  1.
       -1   -1    0    0    0  501  0.00000000000E+00  0.00000000000E+00 -0.97017393399E+03  0.97017393401E+03  0.50400001928E-02 0. -1.
    10030    2    1    2    0    0  0.00000000000E+00  0.00000000000E+00 -0.39517779675E+03  0.15451700713E+04  0.14937821321E+04 0.  0.
        4    1    3    3  502    0  0.22226673194E+03  0.67295804056E+03  0.46252684423E+02  0.71022246388E+03  0.12699999809E+01 0.  1.
       -4    1    3    3    0  502 -0.22226673194E+03 -0.67295804056E+03 -0.44143048117E+03  0.83494760739E+03  0.12699999809E+01 0. -1.
</event>
<event>
 5   0  0.6668433E-05  0.1500123E+04  0.7818609E-02  0.8884371E-01
        1   -1    0    0  501    0  0.00000000000E+00  0.00000000000E+00  0.67099128834E+03  0.67099128836E+03  0.50400001928E-02 0.  1.
       -1   -1    0    0    0  501  0.00000000000E+00  0.00000000000E+00 -0.83844951305E+03  0.83844951307E+03  0.50400001928E-02 0. -1.
    10030    2    1    2    0    0  0.00000000000E+00  0.00000000000E+00 -0.16745822471E+03  0.15094408014E+04  0.15001230869E+04 0.  0.
        1    1    3    3  502    0  0.62869671038E+03  0.40906260764E+03 -0.82983998676E+02  0.75463773738E+03  0.50400001928E-02 0.  1.
       -1    1    3    3    0  502 -0.62869671038E+03 -0.40906260764E+03 -0.84474226039E+02  0.75480306405E+03  0.50400001928E-02 0. -1.
</event>
<event>
 5   0  0.1254487E-04  0.1504115E+04  0.7818609E-02  0.8881721E-01
       -2   -1    0    0    0  501  0.00000000000E+00  0.00000000000E+00  0.35368541293E+03  0.35368541294E+03  0.25500000920E-02 0.  1.
        2   -1    0    0  501    0  0.00000000000E+00  0.00000000000E+00 -0.15991334673E+04  0.15991334673E+04  0.25500000920E-02 0. -1.
    10030    2    1    2    0    0  0.00000000000E+00  0.00000000000E+00 -0.12454480544E+04  0.19528188803E+04  0.15041145977E+04 0.  0.
        5    1    3    3  502    0 -0.32067163824E+03  0.59633935850E+03 -0.10476473465E+04  0.12474125150E+04  0.46999998093E+01 0. -1.
       -5    1    3    3    0  502  0.32067163824E+03 -0.59633935850E+03 -0.19780070791E+03  0.70540636524E+03  0.46999998093E+01 0.  1.
</event>
<event>
 5   0  0.6364378E-05  0.1500397E+04  0.7818609E-02  0.8884189E-01
        1   -1    0    0  501    0  0.00000000000E+00  0.00000000000E+00  0.10692965544E+04  0.10692965544E+04  0.50400001928E-02 0. -1.
       -1   -1    0    0    0  501  0.00000000000E+00  0.00000000000E+00 -0.52632535893E+03  0.52632535895E+03  0.50400001928E-02 0.  1.
    10030    2    1    2    0    0  0.00000000000E+00  0.00000000000E+00  0.54297119551E+03  0.15956219134E+04  0.15003971379E+04 0.  0.
        5    1    3    3  502    0 -0.19825542610E+03  0.16376780664E+03 -0.47797583418E+03  0.54277812826E+03  0.46999998093E+01 0.  1.
       -5    1    3    3    0  502  0.19825542610E+03 -0.16376780664E+03  0.10209470297E+04  0.10528437851E+04  0.46999998093E+01 0. -1.
</event>
<event>
 5   0  0.1228286E-04  0.1502155E+04  0.7818609E-02  0.8883021E-01
        2   -1    0    0  501    0  0.00000000000E+00  0.00000000000E+00  0.99719126725E+03  0.99719126725E+03  0.25500000920E-02 0. -1.
       -2   -1    0    0    0  501  0.00000000000E+00  0.00000000000E+00 -0.56570639015E+03  0.56570639015E+03  0.25500000920E-02 0.  1.
    10030    2    1    2    0    0  0.00000000000E+00  0.00000000000E+00  0.43148487710E+03  0.15628976574E+04  0.15021550813E+04 0.  0.
        2    1    3    3  502    0  0.55922479570E+03 -0.32739558412E+03  0.61083079427E+03  0.89052484517E+03  0.25500000920E-02 0. -1.
       -2    1    3    3    0  502 -0.55922479570E+03  0.32739558412E+03 -0.17934591717E+03  0.67237281224E+03  0.25500000920E-02 0.  1.
</event>
<event>
 5   0  0.1216921E-04  0.1499690E+04  0.7818609E-02  0.8884659E-01
       -2   -1    0    0    0  501  0.00000000000E+00  0.00000000000E+00  0.10430928873E+04  0.10430928873E+04  0.25500000920E-02 0. -1.
        2   -1    0    0  501    0  0.00000000000E+00  0.00000000000E+00 -0.53903854557E+03  0.53903854558E+03  0.25500000920E-02 0.  1.
    10030    2    1    2    0    0  0.00000000000E+00  0.00000000000E+00  0.50405434173E+03  0.15821314329E+04  0.14996896651E+04 0.  0.
        4    1    3    3  502    0  0.24522162112E+02  0.20172318060E+02  0.10423821631E+04  0.10428664563E+04  0.12699999809E+01 0. -1.
       -4    1    3    3    0  502 -0.24522162112E+02 -0.20172318060E+02 -0.53832782135E+03  0.53926497660E+03  0.12699999809E+01 0.  1.
</event>
<event>
 5   0  0.6542036E-05  0.1501846E+04  0.7818609E-02  0.8883226E-01
        1   -1    0    0  501    0  0.00000000000E+00  0.00000000000E+00  0.81608774164E+03  0.81608774165E+03  0.50400001928E-02 0.  1.
       -1   -1    0    0    0  501  0.00000000000E+00  0.00000000000E+00 -0.69096161271E+03  0.69096161273E+03  0.50400001928E-02 0. -1.
    10030    2    1    2    0    0  0.00000000000E+00  0.00000000000E+00  0.12512612893E+03  0.15070493544E+04  0.15018459336E+04 0.  0.
        4    1    3    3  502    0  0.36394122864E+02 -0.72874186420E+03  0.24064469481E+03  0.76831030115E+03  0.12699999809E+01 0. -1.
       -4    1    3    3    0  502 -0.36394122864E+02  0.72874186420E+03 -0.11551856589E+03  0.73873905324E+03  0.12699999809E+01 0.  1.
</event>
<event>
 5   0  0.1254487E-04  0.1501381E+04  0.7818609E-02  0.8883535E-01
        2   -1    0    0  501    0  0.00000000000E+00  0.00000000000E+00  0.55631162594E+03  0.55631162594E+03  0.25500000920E-02 0. -1.
       -2   -1    0    0    0  501  0.00000000000E+00  0.00000000000E+00 -0.10129865339E+04  0.10129865339E+04  0.25500000920E-02 0.  1.
    10030    2    1    2    0    0  0.00000000000E+00  0.00000000000E+00 -0.45667490798E+03  0.15692981599E+04  0.15013809453E+04 0.  0.
        5    1    3    3  502    0  0.23335388426E+03  0.67985787133E+03 -0.45458549184E+03  0.85048857717E+03  0.46999998093E+01 0.  1.
       -5    1    3    3    0  502 -0.23335388426E+03 -0.67985787133E+03 -0.20894161447E+01  0.71880958269E+03  0.46999998093E+01 0. -1.
</event>
<event>
 5   0  0.1186664E-04  0.1499681E+04  0.7818609E-02  0.8884665E-01
       -2   -1    0    0    0  501  0.00000000000E+00  0.00000000000E+00  0.50341907684E+03  0.50341907684E+03  0.25500000920E-02 0.  1.
        2   -1    0    0  501    0  0.00000000000E+00  0.00000000000E+00 -0.11168846352E+04  0.11168846352E+04  0.25500000920E-02 0. -1.
    10030    2    1    2    0    0  0.00000000000E+00  0.00000000000E+00 -0.61346555838E+03  0.16203037121E+04  0.14996813422E+04 0.  0.
        3    1    3    3  502    0  0.34123494244E+03  0.40279174956E+03  0.26861987580E+03  0.59231674578E+03  0.10100000352E+00 0. -1.
       -3    1    3    3    0  502 -0.34123494244E+03 -0.40279174956E+03 -0.88208543418E+03  0.10279869663E+04  0.10100000352E+00 0.  1.
</event>
<event>
 5   0  0.1216921E-04  0.1499879E+04  0.7818609E-02  0.8884533E-01
        2   -1    0    0  501    0  0.00000000000E+00  0.00000000000E+00  0.66350588307E+03  0.66350588307E+03  0.25500000920E-02 0. -1.
       -2   -1    0    0    0  501  0.00000000000E+00  0.00000000000E+00 -0.84763308921E+03  0.84763308921E+03  0.25500000920E-02 0.  1.
    10030    2    1    2    0    0  0.00000000000E+00  0.00000000000E+00 -0.18412720614E+03  0.15111389723E+04  0.14998793837E+04 0.  0.
        4    1    3    3  502    0  0.97549410091E+02 -0.74206585693E+03 -0.13964423476E+03  0.76136702624E+03  0.12699999809E+01 0. -1.
       -4    1    3    3    0  502 -0.97549410091E+02  0.74206585693E+03 -0.44482971378E+02  0.74977194605E+03  0.12699999809E+01 0.  1.
</event>
<event>
 5   0  0.6509279E-05  0.1499497E+04  0.7818609E-02  0.8884788E-01
       -1   -1    0    0    0  501  0.00000000000E+00  0.00000000000E+00  0.22648067129E+03  0.22648067135E+03  0.50400001928E-02 0. -1.
        1   -1    0    0  501    0  0.00000000000E+00  0.00000000000E+00 -0.24819888258E+04  0.24819888258E+04  0.50400001928E-02 0.  1.
    10030    2    1    2    0    0  0.00000000000E+00  0.00000000000E+00 -0.22555081545E+04  0.27084694971E+04  0.14994965762E+04 0.  0.
        2    1    3    3  502    0  0.36741486317E+03  0.59080576051E+03 -0.62304507571E+03  0.93393270352E+03  0.25500000920E-02 0. -1.
       -2    1    3    3    0  502 -0.36741486317E+03 -0.59080576051E+03 -0.16324630788E+04  0.17745367936E+04  0.25500000920E-02 0.  1.
</event>
<event>
 5   0  0.1254487E-04  0.1500142E+04  0.7818609E-02  0.8884358E-01
       -2   -1    0    0    0  501  0.00000000000E+00  0.00000000000E+00  0.69342684951E+03  0.69342684951E+03  0.25500000920E-02 0. -1.
        2   -1    0    0  501    0  0.00000000000E+00  0.00000000000E+00 -0.81134225509E+03  0.81134225510E+03  0.25500000920E-02 0.  1.
    10030    2    1    2    0    0  0.00000000000E+00  0.00000000000E+00 -0.11791540558E+03  0.15047691046E+04  0.15001419984E+04 0.  0.
        5    1    3    3  502    0  0.41663688023E+03  0.79979216044E+02  0.56149802930E+03  0.70376494078E+03  0.46999998093E+01 0. -1.
       -5    1    3    3    0  502 -0.41663688023E+03 -0.79979216044E+02 -0.67941343489E+03  0.80100416383E+03  0.46999998093E+01 0.  1.
</event>
<event>
 5   0  0.6364378E-05  0.1500901E+04  0.7818609E-02  0.8883854E-01
       -1   -1    0    0    0  501  0.00000000000E+00  0.00000000000E+00  0.30611341536E+03  0.30611341540E+03  0.50400001928E-02 0. -1.
        1   -1    0    0  501    0  0.00000000000E+00  0.00000000000E+00 -0.18397623884E+04  0.18397623885E+04  0.50400001928E-02 0.  1.
    10030    2    1    2    0    0  0.00000000000E+00  0.00000000000E+00 -0.15336489731E+04  0.21458758039E+04  0.15009009937E+04 0.  0.
        5    1    3    3  502    0  0.33933617991E+03 -0.45010496260E+03 -0.14750946782E+04  0.15791358143E+04  0.46999998093E+01 0.  1.
       -5    1    3    3    0  502 -0.33933617991E+03  0.45010496260E+03 -0.58554294925E+02  0.56673998959E+03  0.46999998093E+01 0. -1.
</event>
<event>
 5   0  0.1216921E-04  0.1498602E+04  0.7818609E-02  0.8885383E-01
        2   -1    0    0  501    0  0.00000000000E+00  0.00000000000E+00  0.84306995000E+03  0.84306995000E+03  0.25500000920E-02 0.  1.
       -2   -1    0    0    0  501  0.00000000000E+00  0.00000000000E+00 -0.66596141018E+03  0.66596141019E+03  0.25500000920E-02 0. -1.
    10030    2    1    2    0    0  0.00000000000E+00  0.00000000000E+00  0.17710853981E+03  0.15090313602E+04  0.14986020857E+04 0.  0.
        4    1    3    3  502    0  0.47792425314E+03 -0.21714837768E+03 -0.44984931618E+03  0.69132555994E+03  0.12699999809E+01 0. -1.
       -4    1    3    3    0  502 -0.47792425314E+03  0.21714837768E+03  0.62695785599E+03  0.81770580025E+03  0.12699999809E+01 0.  1.
</event>
<event>
 5   0  0.6668433E-05  0.1495548E+04  0.7818609E-02  0.8887419E-01
        1   -1    0    0  501    0  0.00000000000E+00  0.00000000000E+00  0.89757750982E+03  0.89757750984E+03  0.50400001928E-02 0.  1.
       -1   -1    0    0    0  501  0.00000000000E+00  0.00000000000E+00 -0.62297207168E+03  0.62297207170E+03  0.50400001928E-02 0. -1.
    10030    2    1    2    0    0  0.00000000000E+00  0.00000000000E+00  0.27460543814E+03  0.15205495815E+04  0.14955476867E+04 0.  0.
        1    1    3    3  502    0 -0.11037974518E+02  0.74508171215E+03  0.73832126732E+02  0.74881224458E+03  0.50400001928E-02 0. -1.
       -1    1    3    3    0  502  0.11037974518E+02 -0.74508171215E+03  0.20077331141E+03  0.77173733696E+03  0.50400001928E-02 0.  1.
</event>
<event>
 5   0  0.1254487E-04  0.1501124E+04  0.7818609E-02  0.8883706E-01
       -2   -1    0    0    0  501  0.00000000000E+00  0.00000000000E+00  0.35025055749E+03  0.35025055750E+03  0.25500000920E-02 0.  1.
        2   -1    0    0  501    0  0.00000000000E+00  0.00000000000E+00 -0.16084000561E+04  0.16084000561E+04  0.25500000920E-02 0. -1.
    10030    2    1    2    0    0  0.00000000000E+00  0.00000000000E+00 -0.12581494986E+04  0.19586506136E+04  0.15011236010E+04 0.  0.
        5    1    3    3  502    0  0.30214436929E+03 -0.46917994068E+03  0.25794365501E+02  0.55866669484E+03  0.46999998093E+01 0.  1.
       -5    1    3    3    0  502 -0.30214436929E+03  0.46917994068E+03 -0.12839438641E+04  0.13999839188E+04  0.46999998093E+01 0. -1.
</event>
<event>
 5   0  0.6364378E-05  0.1499835E+04  0.7818609E-02  0.8884563E-01
        1   -1    0    0  501    0  0.00000000000E+00  0.00000000000E+00  0.67913664286E+03  0.67913664287E+03  0.50400001928E-02 0.  1.
       -1   -1    0    0    0  501  0.00000000000E+00  0.00000000000E+00 -0.82807478159E+03  0.82807478161E+03  0.50400001928E-02 0. -1.
    10030    2    1    2    0    0  0.00000000000E+00  0.00000000000E+00 -0.14893813874E+03  0.15072114245E+04  0.14998345605E+04 0.  0.
        5    1    3    3  502    0 -0.60344114352E+03 -0.12432097516E+03 -0.50407249343E+03  0.79605784161E+03  0.46999998093E+01 0. -1.
       -5    1    3    3    0  502  0.60344114352E+03  0.12432097516E+03  0.35513435469E+03  0.71115358288E+03  0.46999998093E+01 0.  1.
</event>
<event>
 5   0  0.6364378E-05  0.1505476E+04  0.7818609E-02  0.8880820E-01
       -1   -1    0    0    0  501  0.00000000000E+00  0.00000000000E+00  0.14045487416E+04  0.14045487416E+04  0.50400001928E-02 0.  1.
        1   -1    0    0  501    0  0.00000000000E+00  0.00000000000E+00 -0.40341386901E+03  0.40341386904E+03  0.50400001928E-02 0. -1.
    10030    2    1    2    0    0  0.00000000000E+00  0.00000000000E+00  0.10011348726E+04  0.18079626106E+04  0.15054759275E+04 0.  0.
        5    1    3    3  502    0 -0.45505451639E+03 -0.18605060344E+03 -0.18396247728E+03  0.52493211273E+03  0.46999998093E+01 0. -1.
       -5    1    3    3    0  502  0.45505451639E+03  0.18605060344E+03  0.11850973499E+04  0.12830304979E+04  0.46999998093E+01 0.  1.
</event>
<event>
 5   0  0.1254487E-04  0.1512270E+04  0.7818609E-02  0.8876335E-01
        2   -1    0    0  501    0  0.00000000000E+00  0.00000000000E+00  0.12182816824E+04  0.12182816825E+04  0.25500000920E-02 0.  1.
       -2   -1    0    0    0  501  0.00000000000E+00  0.00000000000E+00 -0.46930015203E+03  0.46930015204E+03  0.25500000920E-02 0. -1.
    10030    2    1    2    0    0  0.00000000000E+00  0.00000000000E+00  0.74898153042E+03  0.16875818345E+04  0.15122695247E+04 0.  0.
        5    1    3    3  502    0  0.66634706359E+03  0.13019560008E+02 -0.24021260104E+02  0.66692355561E+03  0.46999998093E+01 0. -1.
       -5    1    3    3    0  502 -0.66634706359E+03 -0.13019560008E+02  0.77300279052E+03  0.10206582789E+04  0.46999998093E+01 0.  1.
</event>
<event>
 5   0  0.6668433E-05  0.1494159E+04  0.7818609E-02  0.8888346E-01
        1   -1    0    0  501    0  0.00000000000E+00  0.00000000000E+00  0.95459704609E+03  0.95459704611E+03  0.50400001928E-02 0.  1.
       -1   -1    0    0    0  501  0.00000000000E+00  0.00000000000E+00 -0.58467380186E+03  0.58467380189E+03  0.50400001928E-02 0. -1.
    10030    2    1    2    0    0  0.00000000000E+00  0.00000000000E+00  0.36992324423E+03  0.15392708480E+04  0.14941591404E+04 0.  0.
        1    1    3    3  502    0 -0.72458441480E+02 -0.72892795364E+03  0.33616383369E+03  0.80597289684E+03  0.50400001928E-02 0.  1.
       -1    1    3    3    0  502  0.72458441480E+02  0.72892795364E+03  0.33759410542E+02  0.73329795115E+03  0.50400001928E-02 0. -1.
</event>
<event>
 5   0  0.6542036E-05  0.1501020E+04  0.7818609E-02  0.8883775E-01
       -1   -1    0    0    0  501  0.00000000000E+00  0.00000000000E+00  0.16522246862E+04  0.16522246862E+04  0.50400001928E-02 0. -1.
        1   -1    0    0  501    0  0.00000000000E+00  0.00000000000E+00 -0.34091330960E+03  0.34091330964E+03  0.50400001928E-02 0.  1.
    10030    2    1    2    0    0  0.00000000000E+00  0.00000000000E+00  0.13113113766E+04  0.19931379958E+04  0.15010201678E+04 0.  0.
        4    1    3    3  502    0 -0.35414090095E+03 -0.56642475233E+03  0.11098735178E+04  0.12954048078E+04  0.12699999809E+01 0. -1.
       -4    1    3    3    0  502  0.35414090095E+03  0.56642475233E+03  0.20143785879E+03  0.69773318799E+03  0.12699999809E+01 0.  1.
</event>
<event>
 5   0  0.6364378E-05  0.1506763E+04  0.7818609E-02  0.8879968E-01
        1   -1    0    0  501    0  0.00000000000E+00  0.00000000000E+00  0.14656569767E+04  0.14656569767E+04  0.50400001928E-02 0.  1.
       -1   -1    0    0    0  501  0.00000000000E+00  0.00000000000E+00 -0.38725530421E+03  0.38725530424E+03  0.50400001928E-02 0. -1.
    10030    2    1    2    0    0  0.00000000000E+00  0.00000000000E+00  0.10784016725E+04  0.18529122809E+04  0.15067626733E+04 0.  0.
        5    1    3    3  502    0 -0.62295534421E+03 -0.18349550939E+03  0.10087863170E+04  0.11997565946E+04  0.46999998093E+01 0.  1.
       -5    1    3    3    0  502  0.62295534421E+03  0.18349550939E+03  0.69615355409E+02  0.65315568631E+03  0.46999998093E+01 0. -1.
</event>
<event>
 5   0  0.6542036E-05  0.1501396E+04  0.7818609E-02  0.8883525E-01
       -1   -1    0    0    0  501  0.00000000000E+00  0.00000000000E+00  0.27952546386E+03  0.27952546391E+03  0.50400001928E-02 0. -1.
        1   -1    0    0  501    0  0.00000000000E+00  0.00000000000E+00 -0.20160873418E+04  0.20160873418E+04  0.50400001928E-02 0.  1.
    10030    2    1    2    0    0  0.00000000000E+00  0.00000000000E+00 -0.17365618779E+04  0.22956128057E+04  0.15013963494E+04 0.  0.
        4    1    3    3  502    0  0.22953843107E+03  0.28003068780E+03 -0.18737454455E+04  0.19084099886E+04  0.12699999809E+01 0.  1.
       -4    1    3    3    0  502 -0.22953843107E+03 -0.28003068780E+03  0.13718356753E+03  0.38720281707E+03  0.12699999809E+01 0. -1.
</event>
<event>
 5   0  0.6542036E-05  0.1499742E+04  0.7818609E-02  0.8884624E-01
       -1   -1    0    0    0  501  0.00000000000E+00  0.00000000000E+00  0.54761647508E+03  0.54761647510E+03  0.50400001928E-02 0. -1.
        1   -1    0    0  501    0  0.00000000000E+00  0.00000000000E+00 -0.10268260886E+04  0.10268260886E+04  0.50400001928E-02 0.  1.
    10030    2    1    2    0    0  0.00000000000E+00  0.00000000000E+00 -0.47920961351E+03  0.15744425637E+04  0.14997424888E+04 0.  0.
        4    1    3    3  502    0  0.48033458590E+03 -0.41521579895E+03  0.17924092934E+03  0.65973812817E+03  0.12699999809E+01 0. -1.
       -4    1    3    3    0  502 -0.48033458590E+03  0.41521579895E+03 -0.65845054285E+03  0.91470443554E+03  0.12699999809E+01 0.  1.
</event>
<event>
 5   0  0.6542036E-05  0.1499664E+04  0.7818609E-02  0.8884676E-01
       -1   -1    0    0    0  501  0.00000000000E+00  0.00000000000E+00  0.85081100154E+03  0.85081100156E+03  0.50400001928E-02 0.  1.
        1   -1    0    0  501    0  0.00000000000E+00  0.00000000000E+00 -0.66083773566E+03  0.66083773568E+03  0.50400001928E-02 0. -1.
    10030    2    1    2    0    0  0.00000000000E+00  0.00000000000E+00  0.18997326588E+03  0.15116487372E+04  0.14996639834E+04 0.  0.
        4    1    3    3  502    0  0.44028356199E+03  0.27029023425E+03  0.64278160620E+03  0.82466734618E+03  0.12699999809E+01 0.  1.
       -4    1    3    3    0  502 -0.44028356199E+03 -0.27029023425E+03 -0.45280834031E+03  0.68698139105E+03  0.12699999809E+01 0. -1.
</event>
<event>
 5   0  0.6361716E-05  0.1502535E+04  0.7818609E-02  0.8882769E-01
        1   -1    0    0  501    0  0.00000000000E+00  0.00000000000E+00  0.88296627891E+03  0.88296627893E+03  0.50400001928E-02 0. -1.
       -1   -1    0    0    0  501  0.00000000000E+00  0.00000000000E+00 -0.63921248983E+03  0.63921248985E+03  0.50400001928E-02 0.  1.
    10030    2    1    2    0    0  0.00000000000E+00  0.00000000000E+00  0.24375378908E+03  0.15221787688E+04  0.15025352889E+04 0.  0.
        3    1    3    3  502    0  0.11720086066E+03  0.26043638515E+03  0.82582810489E+03  0.87381646899E+03  0.10100000352E+00 0. -1.
       -3    1    3    3    0  502 -0.11720086066E+03 -0.26043638515E+03 -0.58207431581E+03  0.64836229978E+03  0.10100000352E+00 0.  1.
</event>
<event>
 5   0  0.1228286E-04  0.1500472E+04  0.7818609E-02  0.8884139E-01
       -2   -1    0    0    0  501  0.00000000000E+00  0.00000000000E+00  0.38082341889E+03  0.38082341890E+03  0.25500000920E-02 0.  1.
        2   -1    0    0  501    0  0.00000000000E+00  0.00000000000E+00 -0.14779922900E+04  0.14779922900E+04  0.25500000920E-02 0. -1.
    10030    2    1    2    0    0  0.00000000000E+00  0.00000000000E+00 -0.10971688711E+04  0.18588157089E+04  0.15004720284E+04 0.  0.
        2    1    3    3  502    0  0.21599390673E+03 -0.53465220835E+03 -0.11431508786E+04  0.12803516247E+04  0.25500000920E-02 0. -1.
       -2    1    3    3    0  502 -0.21599390673E+03  0.53465220835E+03  0.45982007527E+02  0.57846408416E+03  0.25500000920E-02 0.  1.
</event>
<event>
 5   0  0.6361716E-05  0.1500533E+04  0.7818609E-02  0.8884098E-01
        1   -1    0    0  501    0  0.00000000000E+00  0.00000000000E+00  0.10784229002E+04  0.10784229002E+04  0.50400001928E-02 0. -1.
       -1   -1    0    0    0  501  0.00000000000E+00  0.00000000000E+00 -0.52196588333E+03  0.52196588336E+03  0.50400001928E-02 0.  1.
    10030    2    1    2    0    0  0.00000000000E+00  0.00000000000E+00  0.55645701682E+03  0.16003887835E+04  0.15005331875E+04 0.  0.
        3    1    3    3  502    0  0.30948549800E+02  0.13569870889E+03  0.10645331771E+04  0.10735934275E+04  0.10100000352E+00 0. -1.
       -3    1    3    3    0  502 -0.30948549800E+02 -0.13569870889E+03 -0.50807616023E+03  0.52679535602E+03  0.10100000352E+00 0.  1.
</event>
<event>
 5   0  0.6668433E-05  0.1499036E+04  0.7818609E-02  0.8885094E-01
        1   -1    0    0  501    0  0.00000000000E+00  0.00000000000E+00  0.18916192386E+04  0.18916192386E+04  0.50400001928E-02 0. -1.
       -1   -1    0    0    0  501  0.00000000000E+00  0.00000000000E+00 -0.29698228449E+03  0.29698228453E+03  0.50400001928E-02 0.  1.
    10030    2    1    2    0    0  0.00000000000E+00  0.00000000000E+00  0.15946369541E+04  0.21886015231E+04  0.14990362276E+04 0.  0.
        1    1    3    3  502    0 -0.72549118059E+03  0.35231009371E+02  0.10673158451E+04  0.12910235437E+04  0.50400001928E-02 0. -1.
       -1    1    3    3    0  502  0.72549118059E+03 -0.35231009371E+02  0.52732110901E+03  0.89757797944E+03  0.50400001928E-02 0.  1.
</event>
<event>
 5   0  0.4462875E-05  0.1496490E+04  0.7818609E-02  0.8886790E-01
       -4   -1    0    0    0  501  0.00000000000E+00  0.00000000000E+00  0.75845973977E+03  0.75846080304E+03  0.12699999809E+01 0.  1.
        4   -1    0    0  501    0  0.00000000000E+00  0.00000000000E+00 -0.73816569084E+03  0.73816678334E+03  0.12699999809E+01 0. -1.
    10030    2    1    2    0    0  0.00000000000E+00  0.00000000000E+00  0.20294048929E+02  0.14966275864E+04  0.14964899879E+04 0.  0.
        2    1    3    3  502    0 -0.54454379145E+03 -0.50778507845E+03  0.84295221852E+02  0.74931923179E+03  0.25500000920E-02 0. -1.
       -2    1    3    3    0  502  0.54454379145E+03  0.50778507845E+03 -0.64001172923E+02  0.74730835459E+03  0.25500000920E-02 0.  1.
</event>
<event>
 5   0  0.4462875E-05  0.1498740E+04  0.7818609E-02  0.8885291E-01
       -4   -1    0    0    0  501  0.00000000000E+00  0.00000000000E+00  0.69467299338E+03  0.69467415429E+03  0.12699999809E+01 0.  1.
        4   -1    0    0  501    0  0.00000000000E+00  0.00000000000E+00 -0.80837192667E+03  0.80837292429E+03  0.12699999809E+01 0. -1.
    10030    2    1    2    0    0  0.00000000000E+00  0.00000000000E+00 -0.11369893329E+03  0.15030470786E+04  0.14987404955E+04 0.  0.
        5    1    3    3  502    0 -0.23186429493E+03  0.15127141969E+03  0.64149158022E+03  0.69869709544E+03  0.46999998093E+01 0.  1.
       -5    1    3    3    0  502  0.23186429493E+03 -0.15127141969E+03 -0.75519051351E+03  0.80434998314E+03  0.46999998093E+01 0. -1.
</event>
<event>
 5   0  0.6364378E-05  0.1467004E+04  0.7818609E-02  0.8906696E-01
        1   -1    0    0  501    0  0.00000000000E+00  0.00000000000E+00  0.14395940631E+04  0.14395940632E+04  0.50400001928E-02 0. -1.
       -1   -1    0    0    0  501  0.00000000000E+00  0.00000000000E+00 -0.37373418410E+03  0.37373418414E+03  0.50400001928E-02 0.  1.
    10030    2    1    2    0    0  0.00000000000E+00  0.00000000000E+00  0.10658598790E+04  0.18133282473E+04  0.14670044481E+04 0.  0.
        5    1    3    3  502    0  0.47024475505E+03 -0.55908168473E+03  0.45186597487E+03  0.85901537186E+03  0.46999998093E+01 0. -1.
       -5    1    3    3    0  502 -0.47024475505E+03  0.55908168473E+03  0.61399390417E+03  0.95431287543E+03  0.46999998093E+01 0.  1.
</event>
<event>
 5   0  0.6542036E-05  0.1502415E+04  0.7818609E-02  0.8882849E-01
       -1   -1    0    0    0  501  0.00000000000E+00  0.00000000000E+00  0.38856265100E+03  0.38856265103E+03  0.50400001928E-02 0. -1.
        1   -1    0    0  501    0  0.00000000000E+00  0.00000000000E+00 -0.14523077312E+04  0.14523077312E+04  0.50400001928E-02 0.  1.
    10030    2    1    2    0    0  0.00000000000E+00  0.00000000000E+00 -0.10637450802E+04  0.18408703822E+04  0.15024147791E+04 0.  0.
        4    1    3    3  502    0  0.44383636709E+03  0.37149009387E+03  0.54873134862E+02  0.58138479893E+03  0.12699999809E+01 0. -1.
       -4    1    3    3    0  502 -0.44383636709E+03 -0.37149009387E+03 -0.11186182151E+04  0.12594855833E+04  0.12699999809E+01 0.  1.
</event>
<event>
 5   0  0.6542036E-05  0.1500522E+04  0.7818609E-02  0.8884106E-01
        1   -1    0    0  501    0  0.00000000000E+00  0.00000000000E+00  0.10741786836E+04  0.10741786837E+04  0.50400001928E-02 0. -1.
       -1   -1    0    0    0  501  0.00000000000E+00  0.00000000000E+00 -0.52402058054E+03  0.52402058056E+03  0.50400001928E-02 0.  1.
    10030    2    1    2    0    0  0.00000000000E+00  0.00000000000E+00  0.55015810311E+03  0.15981992642E+04  0.15005222257E+04 0.  0.
        4    1    3    3  502    0  0.13062467644E+03 -0.49913806470E+03 -0.30506902696E+03  0.59939163978E+03  0.12699999809E+01 0.  1.
       -4    1    3    3    0  502 -0.13062467644E+03  0.49913806470E+03  0.85522713007E+03  0.99880762444E+03  0.12699999809E+01 0. -1.
</event>
<event>
 5   0  0.1216921E-04  0.1503159E+04  0.7818609E-02  0.8882355E-01
        2   -1    0    0  501    0  0.00000000000E+00  0.00000000000E+00  0.15000098296E+04  0.15000098296E+04  0.25500000920E-02 0. -1.
       -2   -1    0    0    0  501  0.00000000000E+00  0.00000000000E+00 -0.37657868350E+03  0.37657868351E+03  0.25500000920E-02 0.  1.
    10030    2    1    2    0    0  0.00000000000E+00  0.00000000000E+00  0.11234311461E+04  0.18765885131E+04  0.15031589761E+04 0.  0.
        4    1    3    3  502    0 -0.55839305723E+03  0.20646782268E+03  0.11344147760E+04  0.12811441234E+04  0.12699999809E+01 0. -1.
       -4    1    3    3    0  502  0.55839305723E+03 -0.20646782268E+03 -0.10983629874E+02  0.59544438967E+03  0.12699999809E+01 0.  1.
</event>
<event>
 5   0  0.4462875E-05  0.1500888E+04  0.7818609E-02  0.8883863E-01
       -3   -1    0    0    0  501  0.00000000000E+00  0.00000000000E+00  0.27125003901E+03  0.27125005781E+03  0.10100000352E+00 0. -1.
        3   -1    0    0  501    0  0.00000000000E+00  0.00000000000E+00 -0.20761872728E+04  0.20761872753E+04  0.10100000352E+00 0.  1.
    10030    2    1    2    0    0  0.00000000000E+00  0.00000000000E+00 -0.18049372338E+04  0.23474373331E+04  0.15008876090E+04 0.  0.
        3    1    3    3  502    0 -0.31595368266E+03 -0.17106896696E+03 -0.19329211902E+04  0.19660304318E+04  0.10100000352E+00 0.  1.
       -3    1    3    3    0  502  0.31595368266E+03  0.17106896696E+03  0.12798395640E+03  0.38140690127E+03  0.10100000352E+00 0. -1.
</event>
<event>
 5   0  0.6361716E-05  0.1498730E+04  0.7818609E-02  0.8885298E-01
        1   -1    0    0  501    0  0.00000000000E+00  0.00000000000E+00  0.77099885845E+03  0.77099885847E+03  0.50400001928E-02 0. -1.
       -1   -1    0    0    0  501  0.00000000000E+00  0.00000000000E+00 -0.72833794650E+03  0.72833794652E+03  0.50400001928E-02 0.  1.
    10030    2    1    2    0    0  0.00000000000E+00  0.00000000000E+00  0.42660911950E+02  0.14993368050E+04  0.14987297626E+04 0.  0.
        3    1    3    3  502    0 -0.44126552594E+03 -0.35454033593E+03 -0.46992200154E+03  0.73569070398E+03  0.10100000352E+00 0.  1.
       -3    1    3    3    0  502  0.44126552594E+03  0.35454033593E+03  0.51258291349E+03  0.76364610101E+03  0.10100000352E+00 0. -1.
</event>
<event>
 5   0  0.1228286E-04  0.1500941E+04  0.7818609E-02  0.8883828E-01
       -2   -1    0    0    0  501  0.00000000000E+00  0.00000000000E+00  0.11970574330E+04  0.11970574330E+04  0.25500000920E-02 0.  1.
        2   -1    0    0  501    0  0.00000000000E+00  0.00000000000E+00 -0.47049191175E+03  0.47049191176E+03  0.25500000920E-02 0. -1.
    10030    2    1    2    0    0  0.00000000000E+00  0.00000000000E+00  0.72656552125E+03  0.16675493448E+04  0.15009408251E+04 0.  0.
        2    1    3    3  502    0 -0.72166746177E+03 -0.19433308037E+03  0.28763197017E+03  0.80081297552E+03  0.25500000920E-02 0. -1.
       -2    1    3    3    0  502  0.72166746177E+03  0.19433308037E+03  0.43893355108E+03  0.86673636924E+03  0.25500000920E-02 0.  1.
</event>
<event>
 5   0  0.1254487E-04  0.1491036E+04  0.7818609E-02  0.8890436E-01
        2   -1    0    0  501    0  0.00000000000E+00  0.00000000000E+00  0.10841155818E+04  0.10841155818E+04  0.25500000920E-02 0.  1.
       -2   -1    0    0    0  501  0.00000000000E+00  0.00000000000E+00 -0.51267335693E+03  0.51267335694E+03  0.25500000920E-02 0. -1.
    10030    2    1    2    0    0  0.00000000000E+00  0.00000000000E+00  0.57144222487E+03  0.15967889387E+04  0.14910361158E+04 0.  0.
        5    1    3    3  502    0 -0.24344108673E+03  0.15896729432E+03  0.10208793885E+04  0.10614852704E+04  0.46999998093E+01 0.  1.
       -5    1    3    3    0  502  0.24344108673E+03 -0.15896729432E+03 -0.44943716360E+03  0.53530366839E+03  0.46999998093E+01 0. -1.
</event>
<event>
 5   0  0.1186664E-04  0.1503916E+04  0.7818609E-02  0.8881853E-01
       -2   -1    0    0    0  501  0.00000000000E+00  0.00000000000E+00  0.46140205938E+03  0.46140205939E+03  0.25500000920E-02 0.  1.
        2   -1    0    0  501    0  0.00000000000E+00  0.00000000000E+00 -0.12254832899E+04  0.12254832899E+04  0.25500000920E-02 0. -1.
    10030    2    1    2    0    0  0.00000000000E+00  0.00000000000E+00 -0.76408123052E+03  0.16868853493E+04  0.15039155744E+04 0.  0.
        3    1    3    3  502    0 -0.38748669114E+03  0.55867234000E+03 -0.21744634741E+02  0.68024521949E+03  0.10100000352E+00 0.  1.
       -3    1    3    3    0  502  0.38748669114E+03 -0.55867234000E+03 -0.74233659578E+03  0.10066401298E+04  0.10100000352E+00 0. -1.
</event>
<event>
 5   0  0.6509279E-05  0.1499505E+04  0.7818609E-02  0.8884782E-01
       -1   -1    0    0    0  501  0.00000000000E+00  0.00000000000E+00  0.66984755573E+03  0.66984755575E+03  0.50400001928E-02 0. -1.
        1   -1    0    0  501    0  0.00000000000E+00  0.00000000000E+00 -0.83918944851E+03  0.83918944852E+03  0.50400001928E-02 0.  1.
    10030    2    1    2    0    0  0.00000000000E+00  0.00000000000E+00 -0.16934189277E+03  0.15090370043E+04  0.14995052529E+04 0.  0.
        2    1    3    3  502    0  0.63203625235E+03  0.33378009930E+03 -0.31249465954E+03  0.78008454107E+03  0.25500000920E-02 0. -1.
       -2    1    3    3    0  502 -0.63203625235E+03 -0.33378009930E+03  0.14315276677E+03  0.72895246320E+03  0.25500000920E-02 0.  1.
</event>
<event>
 5   0  0.1186664E-04  0.1490244E+04  0.7818609E-02  0.8890966E-01
       -2   -1    0    0    0  501  0.00000000000E+00  0.00000000000E+00  0.18959933383E+03  0.18959933385E+03  0.25500000920E-02 0. -1.
        2   -1    0    0  501    0  0.00000000000E+00  0.00000000000E+00 -0.29283179873E+04  0.29283179873E+04  0.25500000920E-02 0.  1.
    10030    2    1    2    0    0  0.00000000000E+00  0.00000000000E+00 -0.27387186534E+04  0.31179173211E+04  0.14902444627E+04 0.  0.
        3    1    3    3  502    0 -0.85480224268E+02 -0.38230380325E+03 -0.43242421452E+02  0.39412305684E+03  0.10100000352E+00 0. -1.
       -3    1    3    3    0  502  0.85480224268E+02  0.38230380325E+03 -0.26954762320E+04  0.27237942643E+04  0.10100000352E+00 0.  1.
</event>
<event>
 5   0  0.6364378E-05  0.1495860E+04  0.7818609E-02  0.8887210E-01
        1   -1    0    0  501    0  0.00000000000E+00  0.00000000000E+00  0.58130288726E+03  0.58130288728E+03  0.50400001928E-02 0. -1.
       -1   -1    0    0    0  501  0.00000000000E+00  0.00000000000E+00 -0.96232013797E+03  0.96232013799E+03  0.50400001928E-02 0.  1.
    10030    2    1    2    0    0  0.00000000000E+00  0.00000000000E+00 -0.38101725071E+03  0.15436230253E+04  0.14958602538E+04 0.  0.
        5    1    3    3  502    0 -0.45303679870E+03 -0.24525185123E+03  0.36900925959E+03  0.63370398071E+03  0.46999998093E+01 0. -1.
       -5    1    3    3    0  502  0.45303679870E+03  0.24525185123E+03 -0.75002651030E+03  0.90991904456E+03  0.46999998093E+01 0.  1.
</event>
<event>
 5   0  0.6361716E-05  0.1506015E+04  0.7818609E-02  0.8880463E-01
       -1   -1    0    0    0  501  0.00000000000E+00  0.00000000000E+00  0.77715871503E+03  0.77715871505E+03  0.50400001928E-02 0.  1.
        1   -1    0    0  501    0  0.00000000000E+00  0.00000000000E+00 -0.72960706860E+03  0.72960706862E+03  0.50400001928E-02 0. -1.
    10030    2    1    2    0    0  0.00000000000E+00  0.00000000000E+00  0.47551646434E+02  0.15067657837E+04  0.15060152615E+04 0.  0.
        3    1    3    3  502    0 -0.74803469928E+03  0.77699330133E+02  0.61575393670E+02  0.75457579907E+03  0.10100000352E+00 0.  1.
       -3    1    3    3    0  502  0.74803469928E+03 -0.77699330133E+02 -0.14023747236E+02  0.75218998459E+03  0.10100000352E+00 0. -1.
</event>
<event>
 5   0  0.6668433E-05  0.1506883E+04  0.7818609E-02  0.8879889E-01
        1   -1    0    0  501    0  0.00000000000E+00  0.00000000000E+00  0.23369958296E+04  0.23369958296E+04  0.50400001928E-02 0.  1.
       -1   -1    0    0    0  501  0.00000000000E+00  0.00000000000E+00 -0.24290767312E+03  0.24290767317E+03  0.50400001928E-02 0. -1.
    10030    2    1    2    0    0  0.00000000000E+00  0.00000000000E+00  0.20940881565E+04  0.25799035028E+04  0.15068831662E+04 0.  0.
        1    1    3    3  502    0 -0.29222401208E+03  0.14604027761E+03 -0.11534504191E+03  0.34644929592E+03  0.50400001928E-02 0. -1.
       -1    1    3    3    0  502  0.29222401208E+03 -0.14604027761E+03  0.22094331984E+04  0.22334542068E+04  0.50400001928E-02 0.  1.
</event>
<event>
 5   0  0.1216921E-04  0.1460097E+04  0.7818609E-02  0.8911431E-01
        2   -1    0    0  501    0  0.00000000000E+00  0.00000000000E+00  0.78814604506E+03  0.78814604507E+03  0.25500000920E-02 0.  1.
       -2   -1    0    0    0  501  0.00000000000E+00  0.00000000000E+00 -0.67623317518E+03  0.67623317519E+03  0.25500000920E-02 0. -1.
    10030    2    1    2    0    0  0.00000000000E+00  0.00000000000E+00  0.11191286988E+03  0.14643792203E+04  0.14600965757E+04 0.  0.
        4    1    3    3  502    0  0.51385366022E+03  0.28690019450E+03  0.48920913176E+03  0.76530026344E+03  0.12699999809E+01 0.  1.
       -4    1    3    3    0  502 -0.51385366022E+03 -0.28690019450E+03 -0.37729626188E+03  0.69907895681E+03  0.12699999809E+01 0. -1.
</event>
<event>
 5   0  0.6542036E-05  0.1502373E+04  0.7818609E-02  0.8882877E-01
       -1   -1    0    0    0  501  0.00000000000E+00  0.00000000000E+00  0.69598475727E+03  0.69598475729E+03  0.50400001928E-02 0.  1.
        1   -1    0    0  501    0  0.00000000000E+00  0.00000000000E+00 -0.81076628519E+03  0.81076628521E+03  0.50400001928E-02 0. -1.
    10030    2    1    2    0    0  0.00000000000E+00  0.00000000000E+00 -0.11478152792E+03  0.15067510425E+04  0.15023727583E+04 0.  0.
        4    1    3    3  502    0  0.73842784029E+03 -0.70733081761E+01 -0.19546425357E+03  0.76389370618E+03  0.12699999809E+01 0. -1.
       -4    1    3    3    0  502 -0.73842784029E+03  0.70733081761E+01  0.80682725653E+02  0.74285733632E+03  0.12699999809E+01 0.  1.
</event>
<event>
 5   0  0.4462875E-05  0.1502001E+04  0.7818609E-02  0.8883124E-01
        4   -1    0    0  501    0  0.00000000000E+00  0.00000000000E+00  0.33752830627E+03  0.33753069554E+03  0.12699999809E+01 0. -1.
       -4   -1    0    0    0  501  0.00000000000E+00  0.00000000000E+00 -0.16709668536E+04  0.16709673362E+04  0.12699999809E+01 0.  1.
    10030    2    1    2    0    0  0.00000000000E+00  0.00000000000E+00 -0.13334385473E+04  0.20084980317E+04  0.15020006605E+04 0.  0.
        1    1    3    3  502    0 -0.29634961352E+03  0.46228072129E+03  0.18366906990E+02  0.54942142478E+03  0.50400001928E-02 0. -1.
       -1    1    3    3    0  502  0.29634961352E+03 -0.46228072129E+03 -0.13518054543E+04  0.14590766070E+04  0.50400001928E-02 0.  1.
</event>
<event>
 5   0  0.6364378E-05  0.1500084E+04  0.7818609E-02  0.8884397E-01
        1   -1    0    0  501    0  0.00000000000E+00  0.00000000000E+00  0.16371023562E+04  0.16371023562E+04  0.50400001928E-02 0.  1.
       -1   -1    0    0    0  501  0.00000000000E+00  0.00000000000E+00 -0.34363319846E+03  0.34363319850E+03  0.50400001928E-02 0. -1.
    10030    2    1    2    0    0  0.00000000000E+00  0.00000000000E+00  0.12934691578E+04  0.19807355547E+04  0.15000836229E+04 0.  0.
        5    1    3    3  502    0 -0.21368477748E+03 -0.69733433959E+03  0.87772926795E+03  0.11412130051E+04  0.46999998093E+01 0. -1.
       -5    1    3    3    0  502  0.21368477748E+03  0.69733433959E+03  0.41573988982E+03  0.83952254960E+03  0.46999998093E+01 0.  1.
</event>
<event>
 5   0  0.1228286E-04  0.1500547E+04  0.7818609E-02  0.8884089E-01
       -2   -1    0    0    0  501  0.00000000000E+00  0.00000000000E+00  0.11243343812E+04  0.11243343812E+04  0.25500000920E-02 0.  1.
        2   -1    0    0  501    0  0.00000000000E+00  0.00000000000E+00 -0.50066082178E+03  0.50066082179E+03  0.25500000920E-02 0. -1.
    10030    2    1    2    0    0  0.00000000000E+00  0.00000000000E+00  0.62367355943E+03  0.16249952030E+04  0.15005468007E+04 0.  0.
        2    1    3    3  502    0 -0.33468676002E+03  0.20227627506E+02 -0.41501036156E+03  0.53353348954E+03  0.25500000920E-02 0. -1.
       -2    1    3    3    0  502  0.33468676002E+03 -0.20227627506E+02  0.10386839210E+04  0.10914617135E+04  0.25500000920E-02 0.  1.
</event>
<event>
 5   0  0.1216921E-04  0.1500631E+04  0.7818609E-02  0.8884033E-01
       -2   -1    0    0    0  501  0.00000000000E+00  0.00000000000E+00  0.44805066331E+03  0.44805066332E+03  0.25500000920E-02 0.  1.
        2   -1    0    0  501    0  0.00000000000E+00  0.00000000000E+00 -0.12564952063E+04  0.12564952063E+04  0.25500000920E-02 0. -1.
    10030    2    1    2    0    0  0.00000000000E+00  0.00000000000E+00 -0.80844454294E+03  0.17045458696E+04  0.15006312147E+04 0.  0.
        4    1    3    3  502    0  0.22039149525E+03 -0.18009821482E+03  0.38435103253E+03  0.47826259238E+03  0.12699999809E+01 0.  1.
       -4    1    3    3    0  502 -0.22039149525E+03  0.18009821482E+03 -0.11927955755E+04  0.12262832772E+04  0.12699999809E+01 0. -1.
</event>
<event>
 5   0  0.1228286E-04  0.1497200E+04  0.7818609E-02  0.8886317E-01
       -2   -1    0    0    0  501  0.00000000000E+00  0.00000000000E+00  0.74606780754E+03  0.74606780755E+03  0.25500000920E-02 0. -1.
        2   -1    0    0  501    0  0.00000000000E+00  0.00000000000E+00 -0.75114093089E+03  0.75114093089E+03  0.25500000920E-02 0.  1.
    10030    2    1    2    0    0  0.00000000000E+00  0.00000000000E+00 -0.50731233453E+01  0.14972087384E+04  0.14972001436E+04 0.  0.
        2    1    3    3  502    0  0.62255246605E+03  0.40285062275E+03  0.10013763797E+03  0.74825646925E+03  0.25500000920E-02 0. -1.
       -2    1    3    3    0  502 -0.62255246605E+03 -0.40285062275E+03 -0.10521076131E+03  0.74895226919E+03  0.25500000920E-02 0.  1.
</event>
<event>
 5   0  0.6542036E-05  0.1500775E+04  0.7818609E-02  0.8883938E-01
       -1   -1    0    0    0  501  0.00000000000E+00  0.00000000000E+00  0.85226039454E+03  0.85226039456E+03  0.50400001928E-02 0. -1.
        1   -1    0    0  501    0  0.00000000000E+00  0.00000000000E+00 -0.66069178148E+03  0.66069178150E+03  0.50400001928E-02 0.  1.
    10030    2    1    2    0    0  0.00000000000E+00  0.00000000000E+00  0.19156861306E+03  0.15129521761E+04  0.15007750509E+04 0.  0.
        4    1    3    3  502    0 -0.17840210466E+03 -0.19419686350E+03 -0.61243998426E+03  0.66680137969E+03  0.12699999809E+01 0.  1.
       -4    1    3    3    0  502  0.17840210466E+03  0.19419686350E+03  0.80400859732E+03  0.84615079637E+03  0.12699999809E+01 0. -1.
</event>
<event>
 5   0  0.1254487E-04  0.1499365E+04  0.7818609E-02  0.8884876E-01
        2   -1    0    0  501    0  0.00000000000E+00  0.00000000000E+00  0.12142803323E+04  0.12142803323E+04  0.25500000920E-02 0. -1.
       -2   -1    0    0    0  501  0.00000000000E+00  0.00000000000E+00 -0.46284497075E+03  0.46284497076E+03  0.25500000920E-02 0.  1.
    10030    2    1    2    0    0  0.00000000000E+00  0.00000000000E+00  0.75143536154E+03  0.16771253031E+04  0.14993645919E+04 0.  0.
        5    1    3    3  502    0 -0.13523172642E+03 -0.38984822107E+03 -0.32437074258E+03  0.52488829664E+03  0.46999998093E+01 0.  1.
       -5    1    3    3    0  502  0.13523172642E+03  0.38984822107E+03  0.10758061041E+04  0.11522370064E+04  0.46999998093E+01 0. -1.
</event>
<event>
 5   0  0.6509279E-05  0.1498458E+04  0.7818609E-02  0.8885479E-01
        1   -1    0    0  501    0  0.00000000000E+00  0.00000000000E+00  0.37443414144E+03  0.37443414147E+03  0.50400001928E-02 0.  1.
       -1   -1    0    0    0  501  0.00000000000E+00  0.00000000000E+00 -0.14991800760E+04  0.14991800760E+04  0.50400001928E-02 0. -1.
    10030    2    1    2    0    0  0.00000000000E+00  0.00000000000E+00 -0.11247459346E+04  0.18736142175E+04  0.14984581471E+04 0.  0.
        2    1    3    3  502    0 -0.10081544690E+03 -0.23066282740E+03 -0.14447198877E+04  0.14664871797E+04  0.25500000920E-02 0. -1.
       -2    1    3    3    0  502  0.10081544690E+03  0.23066282740E+03  0.31997395309E+03  0.40712703784E+03  0.25500000920E-02 0.  1.
</event>
<event>
 5   0  0.6668433E-05  0.1509455E+04  0.7818609E-02  0.8878189E-01
       -1   -1    0    0    0  501  0.00000000000E+00  0.00000000000E+00  0.75676172603E+03  0.75676172605E+03  0.50400001928E-02 0. -1.
        1   -1    0    0  501    0  0.00000000000E+00  0.00000000000E+00 -0.75269919621E+03  0.75269919623E+03  0.50400001928E-02 0.  1.
    10030    2    1    2    0    0  0.00000000000E+00  0.00000000000E+00  0.40625298188E+01  0.15094609223E+04  0.15094554554E+04 0.  0.
        1    1    3    3  502    0 -0.48071725081E+03 -0.23889067456E+03 -0.52849503231E+03  0.75330261437E+03  0.50400001928E-02 0.  1.
       -1    1    3    3    0  502  0.48071725081E+03  0.23889067456E+03  0.53255756212E+03  0.75615830791E+03  0.50400001928E-02 0. -1.
</event>
<event>
 5   0  0.6364378E-05  0.1500329E+04  0.7818609E-02  0.8884234E-01
       -1   -1    0    0    0  501  0.00000000000E+00  0.00000000000E+00  0.67695966180E+03  0.67695966182E+03  0.50400001928E-02 0.  1.
        1   -1    0    0  501    0  0.00000000000E+00  0.00000000000E+00 -0.83128529331E+03  0.83128529332E+03  0.50400001928E-02 0. -1.
    10030    2    1    2    0    0  0.00000000000E+00  0.00000000000E+00 -0.15432563151E+03  0.15082449551E+04  0.15003287787E+04 0.  0.
        5    1    3    3  502    0 -0.65738558571E+03  0.13250472540E+03 -0.41510795553E+03  0.78870147413E+03  0.46999998093E+01 0. -1.
       -5    1    3    3    0  502  0.65738558571E+03 -0.13250472540E+03  0.26078232402E+03  0.71954348101E+03  0.46999998093E+01 0.  1.
</event>
<event>
 5   0  0.6542036E-05  0.1499902E+04  0.7818609E-02  0.8884518E-01
       -1   -1    0    0    0  501  0.00000000000E+00  0.00000000000E+00  0.35578468341E+03  0.35578468344E+03  0.50400001928E-02 0.  1.
        1   -1    0    0  501    0  0.00000000000E+00  0.00000000000E+00 -0.15808065042E+04  0.15808065042E+04  0.50400001928E-02 0. -1.
    10030    2    1    2    0    0  0.00000000000E+00  0.00000000000E+00 -0.12250218208E+04  0.19365911877E+04  0.14999023190E+04 0.  0.
        4    1    3    3  502    0 -0.35874084582E+03 -0.27899779299E+03 -0.13827633641E+04  0.14555311391E+04  0.12699999809E+01 0. -1.
       -4    1    3    3    0  502  0.35874084582E+03  0.27899779299E+03  0.15774154327E+03  0.48106004857E+03  0.12699999809E+01 0.  1.
</event>
<event>
 5   0  0.1219810E-04  0.1515269E+04  0.7818609E-02  0.8874363E-01
        2   -1    0    0  501    0  0.00000000000E+00  0.00000000000E+00  0.15902668680E+04  0.15902668680E+04  0.25500000920E-02 0.  1.
       -2   -1    0    0    0  501  0.00000000000E+00  0.00000000000E+00 -0.36095182103E+03  0.36095182103E+03  0.25500000920E-02 0. -1.
    10030    2    1    2    0    0  0.00000000000E+00  0.00000000000E+00  0.12293150470E+04  0.19512186891E+04  0.15152685860E+04 0.  0.
        1    1    3    3  502    0  0.40940826959E+03  0.11148011257E+03  0.14229082919E+04  0.14848269104E+04  0.50400001928E-02 0.  1.
       -1    1    3    3    0  502 -0.40940826959E+03 -0.11148011257E+03 -0.19359324489E+03  0.46639177866E+03  0.50400001928E-02 0. -1.
</event>
<event>
 5   0  0.6668433E-05  0.1496803E+04  0.7818609E-02  0.8886582E-01
        1   -1    0    0  501    0  0.00000000000E+00  0.00000000000E+00  0.53008744918E+03  0.53008744921E+03  0.50400001928E-02 0. -1.
       -1   -1    0    0    0  501  0.00000000000E+00  0.00000000000E+00 -0.10566273338E+04  0.10566273339E+04  0.50400001928E-02 0.  1.
    10030    2    1    2    0    0  0.00000000000E+00  0.00000000000E+00 -0.52653988466E+03  0.15867147831E+04  0.14968031109E+04 0.  0.
        1    1    3    3  502    0 -0.77205649763E+02 -0.62566037659E+03 -0.69085151822E+03  0.93524726113E+03  0.50400001928E-02 0.  1.
       -1    1    3    3    0  502  0.77205649763E+02  0.62566037659E+03  0.16431163356E+03  0.65146752194E+03  0.50400001928E-02 0. -1.
</event>
<event>
 5   0  0.1186664E-04  0.1502772E+04  0.7818609E-02  0.8882612E-01
       -2   -1    0    0    0  501  0.00000000000E+00  0.00000000000E+00  0.33081180283E+03  0.33081180284E+03  0.25500000920E-02 0. -1.
        2   -1    0    0  501    0  0.00000000000E+00  0.00000000000E+00 -0.17066521676E+04  0.17066521676E+04  0.25500000920E-02 0.  1.
    10030    2    1    2    0    0  0.00000000000E+00  0.00000000000E+00 -0.13758403648E+04  0.20374639704E+04  0.15027716798E+04 0.  0.
        3    1    3    3  502    0 -0.18487392541E+03 -0.16290574187E+03  0.27447537538E+03  0.36885415942E+03  0.10100000352E+00 0. -1.
       -3    1    3    3    0  502  0.18487392541E+03  0.16290574187E+03 -0.16503157402E+04  0.16686098110E+04  0.10100000352E+00 0.  1.
</event>
<event>
 5   0  0.1219810E-04  0.1500209E+04  0.7818609E-02  0.8884314E-01
        2   -1    0    0  501    0  0.00000000000E+00  0.00000000000E+00  0.10921648723E+04  0.10921648723E+04  0.25500000920E-02 0.  1.
       -2   -1    0    0    0  501  0.00000000000E+00  0.00000000000E+00 -0.51517544146E+03  0.51517544146E+03  0.25500000920E-02 0. -1.
    10030    2    1    2    0    0  0.00000000000E+00  0.00000000000E+00  0.57698943083E+03  0.16073403138E+04  0.15002086791E+04 0.  0.
        1    1    3    3  502    0 -0.37198852119E+02 -0.74850948272E+03  0.32248260431E+03  0.81587084176E+03  0.50400001928E-02 0. -1.
       -1    1    3    3    0  502  0.37198852119E+02  0.74850948272E+03  0.25450682652E+03  0.79146947199E+03  0.50400001928E-02 0.  1.
</event>
<event>
 5   0  0.1219810E-04  0.1501434E+04  0.7818609E-02  0.8883500E-01
       -2   -1    0    0    0  501  0.00000000000E+00  0.00000000000E+00  0.39996490087E+03  0.39996490088E+03  0.25500000920E-02 0.  1.
        2   -1    0    0  501    0  0.00000000000E+00  0.00000000000E+00 -0.14090633630E+04  0.14090633630E+04  0.25500000920E-02 0. -1.
    10030    2    1    2    0    0  0.00000000000E+00  0.00000000000E+00 -0.10090984621E+04  0.18090282639E+04  0.15014338325E+04 0.  0.
        1    1    3    3  502    0 -0.48854648036E+03 -0.28183446799E+03 -0.11014968236E+04  0.12374989225E+04  0.50400001928E-02 0. -1.
       -1    1    3    3    0  502  0.48854648036E+03  0.28183446799E+03  0.92398361455E+02  0.57152934137E+03  0.50400001928E-02 0.  1.
</event>
<event>
 5   0  0.1254487E-04  0.1503063E+04  0.7818609E-02  0.8882419E-01
        2   -1    0    0  501    0  0.00000000000E+00  0.00000000000E+00  0.19771290835E+04  0.19771290835E+04  0.25500000920E-02 0.  1.
       -2   -1    0    0    0  501  0.00000000000E+00  0.00000000000E+00 -0.28566651754E+03  0.28566651755E+03  0.25500000920E-02 0. -1.
    10030    2    1    2    0    0  0.00000000000E+00  0.00000000000E+00  0.16914625660E+04  0.22627956011E+04  0.15030629794E+04 0.  0.
        5    1    3    3  502    0  0.52798545303E+01  0.65997901063E+03  0.30465153332E+03  0.72693522276E+03  0.46999998093E+01 0. -1.
       -5    1    3    3    0  502 -0.52798545303E+01 -0.65997901063E+03  0.13868110327E+04  0.15358603783E+04  0.46999998093E+01 0.  1.
</event>
<event>
 5   0  0.6364378E-05  0.1502814E+04  0.7818609E-02  0.8882584E-01
       -1   -1    0    0    0  501  0.00000000000E+00  0.00000000000E+00  0.43708466862E+03  0.43708466865E+03  0.50400001928E-02 0. -1.
        1   -1    0    0  501    0  0.00000000000E+00  0.00000000000E+00 -0.12917687984E+04  0.12917687984E+04  0.50400001928E-02 0.  1.
    10030    2    1    2    0    0  0.00000000000E+00  0.00000000000E+00 -0.85468412980E+03  0.17288534671E+04  0.15028138105E+04 0.  0.
        5    1    3    3  502    0 -0.15178497169E+03 -0.71891607139E+03 -0.24649961512E+03  0.77502460967E+03  0.46999998093E+01 0. -1.
       -5    1    3    3    0  502  0.15178497169E+03  0.71891607139E+03 -0.60818451468E+03  0.95382885742E+03  0.46999998093E+01 0.  1.
</event>
<event>
 5   0  0.1186664E-04  0.1500357E+04  0.7818609E-02  0.8884216E-01
        2   -1    0    0  501    0  0.00000000000E+00  0.00000000000E+00  0.20252893341E+04  0.20252893341E+04  0.25500000920E-02 0. -1.
       -2   -1    0    0    0  501  0.00000000000E+00  0.00000000000E+00 -0.27787013525E+03  0.27787013526E+03  0.25500000920E-02 0.  1.
    10030    2    1    2    0    0  0.00000000000E+00  0.00000000000E+00  0.17474191988E+04  0.23031594693E+04  0.15003565192E+04 0.  0.
        3    1    3    3  502    0 -0.74581730682E+03 -0.71533388703E+02  0.81613037572E+03  0.11078940749E+04  0.10100000352E+00 0. -1.
       -3    1    3    3    0  502  0.74581730682E+03  0.71533388703E+02  0.93128882311E+03  0.11952653944E+04  0.10100000352E+00 0.  1.
</event>
<event>
 5   0  0.6509279E-05  0.1499968E+04  0.7818609E-02  0.8884475E-01
       -1   -1    0    0    0  501  0.00000000000E+00  0.00000000000E+00  0.66066878545E+03  0.66066878547E+03  0.50400001928E-02 0.  1.
        1   -1    0    0  501    0  0.00000000000E+00  0.00000000000E+00 -0.85137313545E+03  0.85137313547E+03  0.50400001928E-02 0. -1.
    10030    2    1    2    0    0  0.00000000000E+00  0.00000000000E+00 -0.19070435000E+03  0.15120419209E+04  0.14999675402E+04 0.  0.
        2    1    3    3  502    0 -0.43839668202E+03  0.52928334502E+03 -0.39800750378E+03  0.79419297604E+03  0.25500000920E-02 0. -1.
       -2    1    3    3    0  502  0.43839668202E+03 -0.52928334502E+03  0.20730315377E+03  0.71784894490E+03  0.25500000920E-02 0.  1.
</event>
<event>
 5   0  0.6668433E-05  0.1482243E+04  0.7818609E-02  0.8896348E-01
       -1   -1    0    0    0  501  0.00000000000E+00  0.00000000000E+00  0.41272767481E+03  0.41272767484E+03  0.50400001928E-02 0.  1.
        1   -1    0    0  501    0  0.00000000000E+00  0.00000000000E+00 -0.13308072631E+04  0.13308072631E+04  0.50400001928E-02 0. -1.
    10030    2    1    2    0    0  0.00000000000E+00  0.00000000000E+00 -0.91807958831E+03  0.17435349380E+04  0.14822428780E+04 0.  0.
        1    1    3    3  502    0 -0.71576558154E+03 -0.18545766491E+03 -0.51839335863E+03  0.90302081233E+03  0.50400001928E-02 0. -1.
       -1    1    3    3    0  502  0.71576558154E+03  0.18545766491E+03 -0.39968622968E+03  0.84051412565E+03  0.50400001928E-02 0.  1.
</event>
<event>
 5   0  0.6361716E-05  0.1518266E+04  0.7818609E-02  0.8872396E-01
        1   -1    0    0  501    0  0.00000000000E+00  0.00000000000E+00  0.14259560620E+04  0.14259560620E+04  0.50400001928E-02 0. -1.
       -1   -1    0    0    0  501  0.00000000000E+00  0.00000000000E+00 -0.40413790818E+03  0.40413790821E+03  0.50400001928E-02 0.  1.
    10030    2    1    2    0    0  0.00000000000E+00  0.00000000000E+00  0.10218181538E+04  0.18300939702E+04  0.15182659847E+04 0.  0.
        3    1    3    3  502    0 -0.66192965902E+03  0.38764138549E+01  0.62938922808E+02  0.66492647585E+03  0.10100000352E+00 0.  1.
       -3    1    3    3    0  502  0.66192965902E+03 -0.38764138549E+01  0.95887923100E+03  0.11651674944E+04  0.10100000352E+00 0. -1.
</event>
<event>
 5   0  0.6361716E-05  0.1501864E+04  0.7818609E-02  0.8883214E-01
        1   -1    0    0  501    0  0.00000000000E+00  0.00000000000E+00  0.13249451853E+04  0.13249451853E+04  0.50400001928E-02 0.  1.
       -1   -1    0    0    0  501  0.00000000000E+00  0.00000000000E+00 -0.42560177375E+03  0.42560177378E+03  0.50400001928E-02 0. -1.
    10030    2    1    2    0    0  0.00000000000E+00  0.00000000000E+00  0.89934341153E+03  0.17505469591E+04  0.15018642029E+04 0.  0.
        3    1    3    3  502    0 -0.39836275072E+03 -0.24430743593E+02  0.11910860991E+04  0.12561750865E+04  0.10100000352E+00 0.  1.
       -3    1    3    3    0  502  0.39836275072E+03  0.24430743593E+02 -0.29174268757E+03  0.49437187253E+03  0.10100000352E+00 0. -1.
</event>
<event>
 5   0  0.1228286E-04  0.1505663E+04  0.7818609E-02  0.8880696E-01
       -2   -1    0    0    0  501  0.00000000000E+00  0.00000000000E+00  0.47646528289E+03  0.47646528290E+03  0.25500000920E-02 0. -1.
        2   -1    0    0  501    0  0.00000000000E+00  0.00000000000E+00 -0.11895000995E+04  0.11895000995E+04  0.25500000920E-02 0.  1.
    10030    2    1    2    0    0  0.00000000000E+00  0.00000000000E+00 -0.71303481656E+03  0.16659653824E+04  0.15056633108E+04 0.  0.
        2    1    3    3  502    0 -0.44804873701E+03  0.60158210480E+03 -0.42742454991E+03  0.86333101730E+03  0.25500000920E-02 0. -1.
       -2    1    3    3    0  502  0.44804873701E+03 -0.60158210480E+03 -0.28561026665E+03  0.80263436506E+03  0.25500000920E-02 0.  1.
</event>
<event>
 5   0  0.6364378E-05  0.1499292E+04  0.7818609E-02  0.8884924E-01
       -1   -1    0    0    0  501  0.00000000000E+00  0.00000000000E+00  0.53247074512E+03  0.53247074515E+03  0.50400001928E-02 0. -1.
        1   -1    0    0  501    0  0.00000000000E+00  0.00000000000E+00 -0.10553995435E+04  0.10553995435E+04  0.50400001928E-02 0.  1.
    10030    2    1    2    0    0  0.00000000000E+00  0.00000000000E+00 -0.52292879839E+03  0.15878702887E+04  0.14992923416E+04 0.  0.
        5    1    3    3  502    0 -0.39407538908E+03  0.12297145406E+02  0.41377741349E+03  0.57155968190E+03  0.46999998093E+01 0. -1.
       -5    1    3    3    0  502  0.39407538908E+03 -0.12297145406E+02 -0.93670621188E+03  0.10163106068E+04  0.46999998093E+01 0.  1.
</event>
<event>
 5   0  0.1254487E-04  0.1498732E+04  0.7818609E-02  0.8885296E-01
       -2   -1    0    0    0  501  0.00000000000E+00  0.00000000000E+00  0.94219600673E+03  0.94219600673E+03  0.25500000920E-02 0.  1.
        2   -1    0    0  501    0  0.00000000000E+00  0.00000000000E+00 -0.59600096511E+03  0.59600096512E+03  0.25500000920E-02 0. -1.
    10030    2    1    2    0    0  0.00000000000E+00  0.00000000000E+00  0.34619504162E+03  0.15381969719E+04  0.14987324369E+04 0.  0.
        5    1    3    3  502    0 -0.44093155947E+03 -0.26832118338E+03 -0.38444802949E+03  0.64361422837E+03  0.46999998093E+01 0. -1.
       -5    1    3    3    0  502  0.44093155947E+03  0.26832118338E+03  0.73064307110E+03  0.89458274348E+03  0.46999998093E+01 0.  1.
</event>
<event>
 5   0  0.6509279E-05  0.1489758E+04  0.7818609E-02  0.8891292E-01
       -1   -1    0    0    0  501  0.00000000000E+00  0.00000000000E+00  0.28944885153E+03  0.28944885157E+03  0.50400001928E-02 0.  1.
        1   -1    0    0  501    0  0.00000000000E+00  0.00000000000E+00 -0.19169018379E+04  0.19169018379E+04  0.50400001928E-02 0. -1.
    10030    2    1    2    0    0  0.00000000000E+00  0.00000000000E+00 -0.16274529863E+04  0.22063506894E+04  0.14897584173E+04 0.  0.
        2    1    3    3  502    0  0.43781885169E+03  0.32159332223E+03 -0.15685161827E+04  0.16599248860E+04  0.25500000920E-02 0. -1.
       -2    1    3    3    0  502 -0.43781885169E+03 -0.32159332223E+03 -0.58936803605E+02  0.54642580340E+03  0.25500000920E-02 0.  1.
</event>
<event>
 5   0  0.6509279E-05  0.1496982E+04  0.7818609E-02  0.8886462E-01
        1   -1    0    0  501    0  0.00000000000E+00  0.00000000000E+00  0.66576497339E+03  0.66576497341E+03  0.50400001928E-02 0. -1.
       -1   -1    0    0    0  501  0.00000000000E+00  0.00000000000E+00 -0.84149623647E+03  0.84149623649E+03  0.50400001928E-02 0.  1.
    10030    2    1    2    0    0  0.00000000000E+00  0.00000000000E+00 -0.17573126309E+03  0.15072612099E+04  0.14969819231E+04 0.  0.
        2    1    3    3  502    0  0.69176249279E+03  0.75177513488E+02 -0.36553404012E+03  0.78600390550E+03  0.25500000920E-02 0.  1.
       -2    1    3    3    0  502 -0.69176249279E+03 -0.75177513488E+02  0.18980277704E+03  0.72125730440E+03  0.25500000920E-02 0. -1.
</event>
<event>
 5   0  0.6668433E-05  0.1496257E+04  0.7818609E-02  0.8886946E-01
       -1   -1    0    0    0  501  0.00000000000E+00  0.00000000000E+00  0.12684906430E+04  0.12684906430E+04  0.50400001928E-02 0. -1.
        1   -1    0    0  501    0  0.00000000000E+00  0.00000000000E+00 -0.44123035115E+03  0.44123035118E+03  0.50400001928E-02 0.  1.
    10030    2    1    2    0    0  0.00000000000E+00  0.00000000000E+00  0.82726029183E+03  0.17097209942E+04  0.14962574269E+04 0.  0.
        1    1    3    3  502    0  0.51721995518E+03  0.62021176208E+02  0.10272034418E+04  0.11517421670E+04  0.50400001928E-02 0. -1.
       -1    1    3    3    0  502 -0.51721995518E+03 -0.62021176208E+02 -0.19994314998E+03  0.55797882718E+03  0.50400001928E-02 0.  1.
</event>
<event>
 5   0  0.6509279E-05  0.1496062E+04  0.7818609E-02  0.8887076E-01
        1   -1    0    0  501    0  0.00000000000E+00  0.00000000000E+00  0.16065978984E+04  0.16065978984E+04  0.50400001928E-02 0. -1.
       -1   -1    0    0    0  501  0.00000000000E+00  0.00000000000E+00 -0.34828267596E+03  0.34828267600E+03  0.50400001928E-02 0.  1.
    10030    2    1    2    0    0  0.00000000000E+00  0.00000000000E+00  0.12583152225E+04  0.19548805744E+04  0.14960617839E+04 0.  0.
        2    1    3    3  502    0  0.26640538247E+03  0.54572324520E+03  0.58442315803E+02  0.61008293899E+03  0.25500000920E-02 0.  1.
       -2    1    3    3    0  502 -0.26640538247E+03 -0.54572324520E+03  0.11998729067E+04  0.13447976354E+04  0.25500000920E-02 0. -1.
</event>
<event>
 5   0  0.1219810E-04  0.1502681E+04  0.7818609E-02  0.8882672E-01
        2   -1    0    0  501    0  0.00000000000E+00  0.00000000000E+00  0.18640219181E+04  0.18640219181E+04  0.25500000920E-02 0. -1.
       -2   -1    0    0    0  501  0.00000000000E+00  0.00000000000E+00 -0.30284641373E+03  0.30284641374E+03  0.25500000920E-02 0.  1.
    10030    2    1    2    0    0  0.00000000000E+00  0.00000000000E+00  0.15611755044E+04  0.21668683319E+04  0.15026807419E+04 0.  0.
        1    1    3    3  502    0 -0.57333719696E+03  0.20168459371E+03  0.14175546264E+04  0.15423531812E+04  0.50400001928E-02 0. -1.
       -1    1    3    3    0  502  0.57333719696E+03 -0.20168459371E+03  0.14362087798E+03  0.62451515064E+03  0.50400001928E-02 0.  1.
</event>
<event>
 5   0  0.1219810E-04  0.1494549E+04  0.7818609E-02  0.8888086E-01
       -2   -1    0    0    0  501  0.00000000000E+00  0.00000000000E+00  0.42536932802E+03  0.42536932802E+03  0.25500000920E-02 0. -1.
        2   -1    0    0  501    0  0.00000000000E+00  0.00000000000E+00 -0.13127862672E+04  0.13127862672E+04  0.25500000920E-02 0.  1.
    10030    2    1    2    0    0  0.00000000000E+00  0.00000000000E+00 -0.88741693915E+03  0.17381555952E+04  0.14945487778E+04 0.  0.
        1    1    3    3  502    0  0.15008539604E+03 -0.22015256693E+03  0.36824848637E+03  0.45453242631E+03  0.50400001928E-02 0. -1.
       -1    1    3    3    0  502 -0.15008539604E+03  0.22015256693E+03 -0.12556654255E+04  0.12836231689E+04  0.50400001928E-02 0.  1.
</event>
<event>
 5   0  0.4462875E-05  0.1507164E+04  0.7818609E-02  0.8879703E-01
       -3   -1    0    0    0  501  0.00000000000E+00  0.00000000000E+00  0.49496158087E+03  0.49496159118E+03  0.10100000352E+00 0. -1.
        3   -1    0    0  501    0  0.00000000000E+00  0.00000000000E+00 -0.11473326992E+04  0.11473327036E+04  0.10100000352E+00 0.  1.
    10030    2    1    2    0    0  0.00000000000E+00  0.00000000000E+00 -0.65237111830E+03  0.16422942948E+04  0.15071637186E+04 0.  0.
        5    1    3    3  502    0  0.60699057255E+03  0.16428898779E+03  0.12629861313E+03  0.64140615553E+03  0.46999998093E+01 0. -1.
       -5    1    3    3    0  502 -0.60699057255E+03 -0.16428898779E+03 -0.77866973142E+03  0.10008881393E+04  0.46999998093E+01 0.  1.
</event>
<event>
 5   0  0.6542036E-05  0.1508521E+04  0.7818609E-02  0.8878806E-01
       -1   -1    0    0    0  501  0.00000000000E+00  0.00000000000E+00  0.41270542206E+03  0.41270542209E+03  0.50400001928E-02 0.  1.
        1   -1    0    0  501    0  0.00000000000E+00  0.00000000000E+00 -0.13784870716E+04  0.13784870716E+04  0.50400001928E-02 0. -1.
    10030    2    1    2    0    0  0.00000000000E+00  0.00000000000E+00 -0.96578164953E+03  0.17911924937E+04  0.15085212477E+04 0.  0.
        4    1    3    3  502    0  0.60199243496E+03  0.14430670041E+03 -0.99455255564E+03  0.11714758702E+04  0.12699999809E+01 0. -1.
       -4    1    3    3    0  502 -0.60199243496E+03 -0.14430670041E+03  0.28770906112E+02  0.61971662352E+03  0.12699999809E+01 0.  1.
</event>
<event>
 5   0  0.1254487E-04  0.1500446E+04  0.7818609E-02  0.8884156E-01
        2   -1    0    0  501    0  0.00000000000E+00  0.00000000000E+00  0.72049546165E+03  0.72049546165E+03  0.25500000920E-02 0.  1.
       -2   -1    0    0    0  501  0.00000000000E+00  0.00000000000E+00 -0.78117707711E+03  0.78117707711E+03  0.25500000920E-02 0. -1.
    10030    2    1    2    0    0  0.00000000000E+00  0.00000000000E+00 -0.60681615462E+02  0.15016725388E+04  0.15004459854E+04 0.  0.
        5    1    3    3  502    0  0.54342360645E+03 -0.29431253867E+03  0.39531070788E+03  0.73363596710E+03  0.46999998093E+01 0.  1.
       -5    1    3    3    0  502 -0.54342360645E+03  0.29431253867E+03 -0.45599232334E+03  0.76803657166E+03  0.46999998093E+01 0. -1.
</event>
<event>
 5   0  0.6364378E-05  0.1489015E+04  0.7818609E-02  0.8891791E-01
        1   -1    0    0  501    0  0.00000000000E+00  0.00000000000E+00  0.64509950661E+03  0.64509950663E+03  0.50400001928E-02 0.  1.
       -1   -1    0    0    0  501  0.00000000000E+00  0.00000000000E+00 -0.85923450480E+03  0.85923450482E+03  0.50400001928E-02 0. -1.
    10030    2    1    2    0    0  0.00000000000E+00  0.00000000000E+00 -0.21413499819E+03  0.15043340115E+04  0.14890154534E+04 0.  0.
        5    1    3    3  502    0  0.13163299905E+03  0.71632839232E+03  0.48844652223E+02  0.72997363113E+03  0.46999998093E+01 0.  1.
       -5    1    3    3    0  502 -0.13163299905E+03 -0.71632839232E+03 -0.26297965041E+03  0.77436038033E+03  0.46999998093E+01 0. -1.
</event>
<event>
 5   0  0.6509279E-05  0.1499435E+04  0.7818609E-02  0.8884829E-01
       -1   -1    0    0    0  501  0.00000000000E+00  0.00000000000E+00  0.88962013520E+03  0.88962013521E+03  0.50400001928E-02 0.  1.
        1   -1    0    0  501    0  0.00000000000E+00  0.00000000000E+00 -0.63181576441E+03  0.63181576443E+03  0.50400001928E-02 0. -1.
    10030    2    1    2    0    0  0.00000000000E+00  0.00000000000E+00  0.25780437079E+03  0.15214358996E+04  0.14994345945E+04 0.  0.
        2    1    3    3  502    0  0.15038093330E+03 -0.62039911994E+03 -0.27001602805E+03  0.69312203005E+03  0.25500000920E-02 0. -1.
       -2    1    3    3    0  502 -0.15038093330E+03  0.62039911994E+03  0.52782039884E+03  0.82831386960E+03  0.25500000920E-02 0.  1.
</event>
<event>
 5   0  0.1254487E-04  0.1500644E+04  0.7818609E-02  0.8884025E-01
        2   -1    0    0  501    0  0.00000000000E+00  0.00000000000E+00  0.11026068709E+04  0.11026068709E+04  0.25500000920E-02 0. -1.
       -2   -1    0    0    0  501  0.00000000000E+00  0.00000000000E+00 -0.51059259665E+03  0.51059259665E+03  0.25500000920E-02 0.  1.
    10030    2    1    2    0    0  0.00000000000E+00  0.00000000000E+00  0.59201427428E+03  0.16131994676E+04  0.15006437356E+04 0.  0.
        5    1    3    3  502    0  0.20019869057E+03 -0.64900971978E+03 -0.46762175790E+02  0.68080975548E+03  0.46999998093E+01 0.  1.
       -5    1    3    3    0  502 -0.20019869057E+03  0.64900971978E+03  0.63877645007E+03  0.93238971210E+03  0.46999998093E+01 0. -1.
</event>
<event>
 5   0  0.1219810E-04  0.1503528E+04  0.7818609E-02  0.8882110E-01
       -2   -1    0    0    0  501  0.00000000000E+00  0.00000000000E+00  0.49483543205E+03  0.49483543206E+03  0.25500000920E-02 0.  1.
        2   -1    0    0  501    0  0.00000000000E+00  0.00000000000E+00 -0.11420954189E+04  0.11420954189E+04  0.25500000920E-02 0. -1.
    10030    2    1    2    0    0  0.00000000000E+00  0.00000000000E+00 -0.64725998684E+03  0.16369308510E+04  0.15035282240E+04 0.  0.
        1    1    3    3  502    0  0.30217232138E+03  0.20527943974E+03  0.39170675727E+03  0.53561361438E+03  0.50400001928E-02 0.  1.
       -1    1    3    3    0  502 -0.30217232138E+03 -0.20527943974E+03 -0.10389667441E+04  0.11013172366E+04  0.50400001928E-02 0. -1.
</event>
<event>
 5   0  0.6509279E-05  0.1500081E+04  0.7818609E-02  0.8884399E-01
        1   -1    0    0  501    0  0.00000000000E+00  0.00000000000E+00  0.10768629407E+04  0.10768629407E+04  0.50400001928E-02 0. -1.
       -1   -1    0    0    0  501  0.00000000000E+00  0.00000000000E+00 -0.52240702545E+03  0.52240702547E+03  0.50400001928E-02 0.  1.
    10030    2    1    2    0    0  0.00000000000E+00  0.00000000000E+00  0.55445591525E+03  0.15992699662E+04  0.15000810187E+04 0.  0.
        2    1    3    3  502    0  0.25647327322E+03 -0.69753435199E+03  0.16940690604E+03  0.76225416490E+03  0.25500000920E-02 0.  1.
       -2    1    3    3    0  502 -0.25647327322E+03  0.69753435199E+03  0.38504900921E+03  0.83701580128E+03  0.25500000920E-02 0. -1.
</event>
<event>
 5   0  0.4462875E-05  0.1503841E+04  0.7818609E-02  0.8881903E-01
       -3   -1    0    0    0  501  0.00000000000E+00  0.00000000000E+00  0.58324635222E+03  0.58324636097E+03  0.10100000352E+00 0. -1.
        3   -1    0    0  501    0  0.00000000000E+00  0.00000000000E+00 -0.96937486612E+03  0.96937487139E+03  0.10100000352E+00 0.  1.
    10030    2    1    2    0    0  0.00000000000E+00  0.00000000000E+00 -0.38612851390E+03  0.15526212324E+04  0.15038409031E+04 0.  0.
        2    1    3    3  502    0  0.49321888799E+03  0.90620328379E+02  0.38538389698E+03  0.63245368482E+03  0.25500000920E-02 0. -1.
       -2    1    3    3    0  502 -0.49321888799E+03 -0.90620328379E+02 -0.77151241088E+03  0.92016754753E+03  0.25500000920E-02 0.  1.
</event>
<event>
 5   0  0.6361716E-05  0.1484154E+04  0.7818609E-02  0.8895059E-01
        1   -1    0    0  501    0  0.00000000000E+00  0.00000000000E+00  0.84626869861E+03  0.84626869862E+03  0.50400001928E-02 0.  1.
       -1   -1    0    0    0  501  0.00000000000E+00  0.00000000000E+00 -0.65071314353E+03  0.65071314355E+03  0.50400001928E-02 0. -1.
    10030    2    1    2    0    0  0.00000000000E+00  0.00000000000E+00  0.19555555508E+03  0.14969818422E+04  0.14841538534E+04 0.  0.
        3    1    3    3  502    0 -0.34429118063E+02  0.25364649662E+03 -0.60477413730E+03  0.65671430376E+03  0.10100000352E+00 0. -1.
       -3    1    3    3    0  502  0.34429118063E+02 -0.25364649662E+03  0.80032969237E+03  0.84026753842E+03  0.10100000352E+00 0.  1.
</event>
<event>
 5   0  0.6361716E-05  0.1500389E+04  0.7818609E-02  0.8884194E-01
        1   -1    0    0  501    0  0.00000000000E+00  0.00000000000E+00  0.79549610541E+03  0.79549610542E+03  0.50400001928E-02 0.  1.
       -1   -1    0    0    0  501  0.00000000000E+00  0.00000000000E+00 -0.70747265865E+03  0.70747265867E+03  0.50400001928E-02 0. -1.
    10030    2    1    2    0    0  0.00000000000E+00  0.00000000000E+00  0.88023446755E+02  0.15029687641E+04  0.15003889425E+04 0.  0.
        3    1    3    3  502    0 -0.44332072691E+03 -0.55108164593E+03  0.29457675192E+03  0.76615906989E+03  0.10100000352E+00 0.  1.
       -3    1    3    3    0  502  0.44332072691E+03  0.55108164593E+03 -0.20655330517E+03  0.73680969420E+03  0.10100000352E+00 0. -1.
</event>
<event>
 5   0  0.6364378E-05  0.1504316E+04  0.7818609E-02  0.8881588E-01
        1   -1    0    0  501    0  0.00000000000E+00  0.00000000000E+00  0.84258653346E+03  0.84258653347E+03  0.50400001928E-02 0.  1.
       -1   -1    0    0    0  501  0.00000000000E+00  0.00000000000E+00 -0.67143447360E+03  0.67143447361E+03  0.50400001928E-02 0. -1.
    10030    2    1    2    0    0  0.00000000000E+00  0.00000000000E+00  0.17115205986E+03  0.15140210071E+04  0.15043159849E+04 0.  0.
        5    1    3    3  502    0 -0.13738434992E+03  0.42905065952E+03  0.69175784389E+03  0.82553614858E+03  0.46999998093E+01 0.  1.
       -5    1    3    3    0  502  0.13738434992E+03 -0.42905065952E+03 -0.52060578403E+03  0.68848485851E+03  0.46999998093E+01 0. -1.
</event>
<event>
 5   0  0.6542036E-05  0.1500309E+04  0.7818609E-02  0.8884247E-01
        1   -1    0    0  501    0  0.00000000000E+00  0.00000000000E+00  0.19946510235E+04  0.19946510235E+04  0.50400001928E-02 0.  1.
       -1   -1    0    0    0  501  0.00000000000E+00  0.00000000000E+00 -0.28212052472E+03  0.28212052476E+03  0.50400001928E-02 0. -1.
    10030    2    1    2    0    0  0.00000000000E+00  0.00000000000E+00  0.17125304987E+04  0.22767715482E+04  0.15003092927E+04 0.  0.
        4    1    3    3  502    0  0.40769645436E+03  0.58628539003E+03  0.50761704563E+03  0.87614133298E+03  0.12699999809E+01 0. -1.
       -4    1    3    3    0  502 -0.40769645436E+03 -0.58628539003E+03  0.12049134531E+04  0.14006302152E+04  0.12699999809E+01 0.  1.
</event>
<event>
 5   0  0.6364378E-05  0.1500554E+04  0.7818609E-02  0.8884085E-01
       -1   -1    0    0    0  501  0.00000000000E+00  0.00000000000E+00  0.56049235272E+03  0.56049235275E+03  0.50400001928E-02 0.  1.
        1   -1    0    0  501    0  0.00000000000E+00  0.00000000000E+00 -0.10043235413E+04  0.10043235413E+04  0.50400001928E-02 0. -1.
    10030    2    1    2    0    0  0.00000000000E+00  0.00000000000E+00 -0.44383118859E+03  0.15648158941E+04  0.15005541171E+04 0.  0.
        5    1    3    3  502    0  0.72169553496E+03  0.10905097451E+03 -0.40820887128E+02  0.73104377095E+03  0.46999998093E+01 0.  1.
       -5    1    3    3    0  502 -0.72169553496E+03 -0.10905097451E+03 -0.40301030147E+03  0.83377212313E+03  0.46999998093E+01 0. -1.
</event>
<event>
 5   0  0.1216921E-04  0.1491963E+04  0.7818609E-02  0.8889815E-01
       -2   -1    0    0    0  501  0.00000000000E+00  0.00000000000E+00  0.50098496433E+03  0.50098496434E+03  0.25500000920E-02 0. -1.
        2   -1    0    0  501    0  0.00000000000E+00  0.00000000000E+00 -0.11107891812E+04  0.11107891812E+04  0.25500000920E-02 0.  1.
    10030    2    1    2    0    0  0.00000000000E+00  0.00000000000E+00 -0.60980421684E+03  0.16117741455E+04  0.14919633753E+04 0.  0.
        4    1    3    3  502    0  0.41839378868E+03  0.57660861478E+03 -0.54393073168E+03  0.89632199059E+03  0.12699999809E+01 0.  1.
       -4    1    3    3    0  502 -0.41839378868E+03 -0.57660861478E+03 -0.65873485161E+02  0.71545215493E+03  0.12699999809E+01 0. -1.
</event>
<event>
 5   0  0.6364378E-05  0.1500242E+04  0.7818609E-02  0.8884292E-01
        1   -1    0    0  501    0  0.00000000000E+00  0.00000000000E+00  0.81460422037E+03  0.81460422039E+03  0.50400001928E-02 0. -1.
       -1   -1    0    0    0  501  0.00000000000E+00  0.00000000000E+00 -0.69074260005E+03  0.69074260007E+03  0.50400001928E-02 0.  1.
    10030    2    1    2    0    0  0.00000000000E+00  0.00000000000E+00  0.12386162032E+03  0.15053468205E+04  0.15002424300E+04 0.  0.
        5    1    3    3  502    0  0.31779236934E+03  0.38287662928E+03  0.62515446667E+03  0.79901608273E+03  0.46999998093E+01 0. -1.
       -5    1    3    3    0  502 -0.31779236934E+03 -0.38287662928E+03 -0.50129284635E+03  0.70633073773E+03  0.46999998093E+01 0.  1.
</event>
<event>
 5   0  0.1186664E-04  0.1505113E+04  0.7818609E-02  0.8881060E-01
       -2   -1    0    0    0  501  0.00000000000E+00  0.00000000000E+00  0.39104945665E+03  0.39104945666E+03  0.25500000920E-02 0. -1.
        2   -1    0    0  501    0  0.00000000000E+00  0.00000000000E+00 -0.14482595557E+04  0.14482595557E+04  0.25500000920E-02 0.  1.
    10030    2    1    2    0    0  0.00000000000E+00  0.00000000000E+00 -0.10572100990E+04  0.18393090123E+04  0.15051127697E+04 0.  0.
        3    1    3    3  502    0 -0.38375293192E+03 -0.58636871303E+03 -0.86382424023E+03  0.11123339915E+04  0.10100000352E+00 0. -1.
       -3    1    3    3    0  502  0.38375293192E+03  0.58636871303E+03 -0.19338585879E+03  0.72697502086E+03  0.10100000352E+00 0.  1.
</event>
<event>
 5   0  0.1186664E-04  0.1494064E+04  0.7818609E-02  0.8888410E-01
        2   -1    0    0  501    0  0.00000000000E+00  0.00000000000E+00  0.54416560965E+03  0.54416560966E+03  0.25500000920E-02 0. -1.
       -2   -1    0    0    0  501  0.00000000000E+00  0.00000000000E+00 -0.10255273910E+04  0.10255273910E+04  0.25500000920E-02 0.  1.
    10030    2    1    2    0    0  0.00000000000E+00  0.00000000000E+00 -0.48136178135E+03  0.15696930007E+04  0.14940639049E+04 0.  0.
        3    1    3    3  502    0  0.14397350078E+03 -0.23168697601E+03 -0.97133346930E+03  0.10089082924E+04  0.10100000352E+00 0.  1.
       -3    1    3    3    0  502 -0.14397350078E+03  0.23168697601E+03  0.48997168795E+03  0.56078470822E+03  0.10100000352E+00 0. -1.
</event>
<event>
 5   0  0.6509279E-05  0.1512693E+04  0.7818609E-02  0.8876056E-01
       -1   -1    0    0    0  501  0.00000000000E+00  0.00000000000E+00  0.84587857442E+03  0.84587857444E+03  0.50400001928E-02 0. -1.
        1   -1    0    0  501    0  0.00000000000E+00  0.00000000000E+00 -0.67629057221E+03  0.67629057223E+03  0.50400001928E-02 0.  1.
    10030    2    1    2    0    0  0.00000000000E+00  0.00000000000E+00  0.16958800221E+03  0.15221691467E+04  0.15126925731E+04 0.  0.
        2    1    3    3  502    0  0.18778450913E+02  0.17150037341E+03  0.82581398279E+03  0.84364313693E+03  0.25500000920E-02 0. -1.
       -2    1    3    3    0  502 -0.18778450913E+02 -0.17150037341E+03 -0.65622598058E+03  0.67852600974E+03  0.25500000920E-02 0.  1.
</event>
<event>
 5   0  0.1254487E-04  0.1494873E+04  0.7818609E-02  0.8887870E-01
        2   -1    0    0  501    0  0.00000000000E+00  0.00000000000E+00  0.67032617683E+03  0.67032617684E+03  0.25500000920E-02 0.  1.
       -2   -1    0    0    0  501  0.00000000000E+00  0.00000000000E+00 -0.83341686926E+03  0.83341686926E+03  0.25500000920E-02 0. -1.
    10030    2    1    2    0    0  0.00000000000E+00  0.00000000000E+00 -0.16309069243E+03  0.15037430461E+04  0.14948727621E+04 0.  0.
        5    1    3    3  502    0 -0.39209849738E+03 -0.25636055947E+02 -0.72111724857E+03  0.82123724659E+03  0.46999998093E+01 0. -1.
       -5    1    3    3    0  502  0.39209849738E+03  0.25636055947E+02  0.55802655614E+03  0.68250579951E+03  0.46999998093E+01 0.  1.
</event>
<event>
 5   0  0.6364378E-05  0.1501059E+04  0.7818609E-02  0.8883749E-01
       -1   -1    0    0    0  501  0.00000000000E+00  0.00000000000E+00  0.45619176301E+03  0.45619176304E+03  0.50400001928E-02 0.  1.
        1   -1    0    0  501    0  0.00000000000E+00  0.00000000000E+00 -0.12347762244E+04  0.12347762244E+04  0.50400001928E-02 0. -1.
    10030    2    1    2    0    0  0.00000000000E+00  0.00000000000E+00 -0.77858446134E+03  0.16909679874E+04  0.15010592830E+04 0.  0.
        5    1    3    3  502    0 -0.72422707168E+03  0.19831315526E+02 -0.60997022140E+03  0.94709233627E+03  0.46999998093E+01 0. -1.
       -5    1    3    3    0  502  0.72422707168E+03 -0.19831315526E+02 -0.16861423994E+03  0.74387565113E+03  0.46999998093E+01 0.  1.
</event>
<event>
 5   0  0.6509279E-05  0.1500615E+04  0.7818609E-02  0.8884044E-01
        1   -1    0    0  501    0  0.00000000000E+00  0.00000000000E+00  0.80132740436E+03  0.80132740437E+03  0.50400001928E-02 0.  1.
       -1   -1    0    0    0  501  0.00000000000E+00  0.00000000000E+00 -0.70253596065E+03  0.70253596067E+03  0.50400001928E-02 0. -1.
    10030    2    1    2    0    0  0.00000000000E+00  0.00000000000E+00  0.98791443709E+02  0.15038633650E+04  0.15006149644E+04 0.  0.
        2    1    3    3  502    0  0.33394032775E+03 -0.67187659587E+03  0.54604592945E+02  0.75227386247E+03  0.25500000920E-02 0. -1.
       -2    1    3    3    0  502 -0.33394032775E+03  0.67187659587E+03  0.44186850764E+02  0.75158950257E+03  0.25500000920E-02 0.  1.
</event>
<event>
 5   0  0.1254487E-04  0.1503179E+04  0.7818609E-02  0.8882342E-01
        2   -1    0    0  501    0  0.00000000000E+00  0.00000000000E+00  0.12062123558E+04  0.12062123558E+04  0.25500000920E-02 0. -1.
       -2   -1    0    0    0  501  0.00000000000E+00  0.00000000000E+00 -0.46831428454E+03  0.46831428455E+03  0.25500000920E-02 0.  1.
    10030    2    1    2    0    0  0.00000000000E+00  0.00000000000E+00  0.73789807127E+03  0.16745266404E+04  0.15031786007E+04 0.  0.
        5    1    3    3  502    0  0.37296037153E+03  0.56418135762E+03  0.37634126049E+01  0.67634037014E+03  0.46999998093E+01 0.  1.
       -5    1    3    3    0  502 -0.37296037153E+03 -0.56418135762E+03  0.73413465867E+03  0.99818627023E+03  0.46999998093E+01 0. -1.
</event>
<event>
 5   0  0.1219810E-04  0.1498768E+04  0.7818609E-02  0.8885272E-01
       -2   -1    0    0    0  501  0.00000000000E+00  0.00000000000E+00  0.10162315575E+04  0.10162315575E+04  0.25500000920E-02 0. -1.
        2   -1    0    0  501    0  0.00000000000E+00  0.00000000000E+00 -0.55260682694E+03  0.55260682694E+03  0.25500000920E-02 0.  1.
    10030    2    1    2    0    0  0.00000000000E+00  0.00000000000E+00  0.46362473053E+03  0.15688383844E+04  0.14987681561E+04 0.  0.
        1    1    3    3  502    0 -0.41350810526E+03 -0.61355104232E+03  0.10732957153E+03  0.74763190916E+03  0.50400001928E-02 0.  1.
       -1    1    3    3    0  502  0.41350810526E+03  0.61355104232E+03  0.35629515901E+03  0.82120647526E+03  0.50400001928E-02 0. -1.
</event>
<event>
 5   0  0.6509279E-05  0.1499935E+04  0.7818609E-02  0.8884496E-01
        1   -1    0    0  501    0  0.00000000000E+00  0.00000000000E+00  0.12374830094E+04  0.12374830094E+04  0.50400001928E-02 0.  1.
       -1   -1    0    0    0  501  0.00000000000E+00  0.00000000000E+00 -0.45451251849E+03  0.45451251852E+03  0.50400001928E-02 0. -1.
    10030    2    1    2    0    0  0.00000000000E+00  0.00000000000E+00  0.78297049087E+03  0.16919955279E+04  0.14999353576E+04 0.  0.
        2    1    3    3  502    0  0.37916131690E+03  0.61252839379E+02  0.11181220402E+04  0.11822487519E+04  0.25500000920E-02 0.  1.
       -2    1    3    3    0  502 -0.37916131690E+03 -0.61252839379E+02 -0.33515154937E+03  0.50974677597E+03  0.25500000920E-02 0. -1.
</event>
<event>
 5   0  0.1219810E-04  0.1501793E+04  0.7818609E-02  0.8883261E-01
        2   -1    0    0  501    0  0.00000000000E+00  0.00000000000E+00  0.20786255676E+04  0.20786255676E+04  0.25500000920E-02 0.  1.
       -2   -1    0    0    0  501  0.00000000000E+00  0.00000000000E+00 -0.27125886783E+03  0.27125886784E+03  0.25500000920E-02 0. -1.
    10030    2    1    2    0    0  0.00000000000E+00  0.00000000000E+00  0.18073666998E+04  0.23498844354E+04  0.15017930858E+04 0.  0.
        1    1    3    3  502    0  0.39325258988E+03 -0.42223711421E+03  0.16555855993E+04  0.17532528216E+04  0.50400001928E-02 0.  1.
       -1    1    3    3    0  502 -0.39325258988E+03  0.42223711421E+03  0.15178110048E+03  0.59663161377E+03  0.50400001928E-02 0. -1.
</event>
<event>
 5   0  0.6542036E-05  0.1499751E+04  0.7818609E-02  0.8884618E-01
        1   -1    0    0  501    0  0.00000000000E+00  0.00000000000E+00  0.16107525529E+04  0.16107525529E+04  0.50400001928E-02 0. -1.
       -1   -1    0    0    0  501  0.00000000000E+00  0.00000000000E+00 -0.34909994503E+03  0.34909994507E+03  0.50400001928E-02 0.  1.
    10030    2    1    2    0    0  0.00000000000E+00  0.00000000000E+00  0.12616526079E+04  0.19598524980E+04  0.14997514831E+04 0.  0.
        4    1    3    3  502    0  0.74900700298E+03 -0.21087136116E+02  0.66905633861E+03  0.10045367863E+04  0.12699999809E+01 0. -1.
       -4    1    3    3    0  502 -0.74900700298E+03  0.21087136116E+02  0.59259626929E+03  0.95531571174E+03  0.12699999809E+01 0.  1.
</event>
<event>
 5   0  0.1186664E-04  0.1500892E+04  0.7818609E-02  0.8883860E-01
        2   -1    0    0  501    0  0.00000000000E+00  0.00000000000E+00  0.19386644012E+04  0.19386644012E+04  0.25500000920E-02 0.  1.
       -2   -1    0    0    0  501  0.00000000000E+00  0.00000000000E+00 -0.29049327057E+03  0.29049327058E+03  0.25500000920E-02 0. -1.
    10030    2    1    2    0    0  0.00000000000E+00  0.00000000000E+00  0.16481711306E+04  0.22291576718E+04  0.15008916849E+04 0.  0.
        3    1    3    3  502    0  0.41046570223E+03  0.55728383253E+03  0.12548552889E+04  0.14330768189E+04  0.10100000352E+00 0.  1.
       -3    1    3    3    0  502 -0.41046570223E+03 -0.55728383253E+03  0.39331584175E+03  0.79608085286E+03  0.10100000352E+00 0. -1.
</event>
<event>
 5   0  0.6542036E-05  0.1508496E+04  0.7818609E-02  0.8878823E-01
       -1   -1    0    0    0  501  0.00000000000E+00  0.00000000000E+00  0.33002361660E+03  0.33002361664E+03  0.50400001928E-02 0. -1.
        1   -1    0    0  501    0  0.00000000000E+00  0.00000000000E+00 -0.17237859035E+04  0.17237859035E+04  0.50400001928E-02 0.  1.
    10030    2    1    2    0    0  0.00000000000E+00  0.00000000000E+00 -0.13937622869E+04  0.20538095201E+04  0.15084960168E+04 0.  0.
        4    1    3    3  502    0  0.79205555589E+02  0.70293027130E+03 -0.34053354999E+03  0.78507910296E+03  0.12699999809E+01 0. -1.
       -4    1    3    3    0  502 -0.79205555589E+02 -0.70293027130E+03 -0.10532287369E+04  0.12687304172E+04  0.12699999809E+01 0.  1.
</event>
<event>
 5   0  0.1186664E-04  0.1501721E+04  0.7818609E-02  0.8883310E-01
        2   -1    0    0  501    0  0.00000000000E+00  0.00000000000E+00  0.18816725014E+04  0.18816725014E+04  0.25500000920E-02 0. -1.
       -2   -1    0    0    0  501  0.00000000000E+00  0.00000000000E+00 -0.29962237456E+03  0.29962237458E+03  0.25500000920E-02 0.  1.
    10030    2    1    2    0    0  0.00000000000E+00  0.00000000000E+00  0.15820501268E+04  0.21812948760E+04  0.15017205906E+04 0.  0.
        3    1    3    3  502    0 -0.53302922400E+03 -0.47635305209E+03  0.11246608690E+04  0.13326269037E+04  0.10100000352E+00 0. -1.
       -3    1    3    3    0  502  0.53302922400E+03  0.47635305209E+03  0.45738925784E+03  0.84866797233E+03  0.10100000352E+00 0.  1.
</event>
<event>
 5   0  0.1216921E-04  0.1499601E+04  0.7818609E-02  0.8884718E-01
       -2   -1    0    0    0  501  0.00000000000E+00  0.00000000000E+00  0.46577244835E+03  0.46577244836E+03  0.25500000920E-02 0. -1.
        2   -1    0    0  501    0  0.00000000000E+00  0.00000000000E+00 -0.12070296042E+04  0.12070296042E+04  0.25500000920E-02 0.  1.
    10030    2    1    2    0    0  0.00000000000E+00  0.00000000000E+00 -0.74125715585E+03  0.16728020526E+04  0.14996014590E+04 0.  0.
        4    1    3    3  502    0  0.38189041739E+03 -0.58201947684E+03 -0.59861718232E+02  0.69869306603E+03  0.12699999809E+01 0. -1.
       -4    1    3    3    0  502 -0.38189041739E+03  0.58201947684E+03 -0.68139543761E+03  0.97410898652E+03  0.12699999809E+01 0.  1.
</event>
<event>
 5   0  0.1228286E-04  0.1493634E+04  0.7818609E-02  0.8888697E-01
       -2   -1    0    0    0  501  0.00000000000E+00  0.00000000000E+00  0.94777892104E+03  0.94777892104E+03  0.25500000920E-02 0. -1.
        2   -1    0    0  501    0  0.00000000000E+00  0.00000000000E+00 -0.58846604312E+03  0.58846604312E+03  0.25500000920E-02 0.  1.
    10030    2    1    2    0    0  0.00000000000E+00  0.00000000000E+00  0.35931287792E+03  0.15362449642E+04  0.14936341070E+04 0.  0.
        2    1    3    3  502    0 -0.30818316229E+03 -0.56297570756E+03  0.57241045205E+03  0.85998385709E+03  0.25500000920E-02 0. -1.
       -2    1    3    3    0  502  0.30818316229E+03  0.56297570756E+03 -0.21309757414E+03  0.67626110707E+03  0.25500000920E-02 0.  1.
</event>
<event>
 5   0  0.1228286E-04  0.1498685E+04  0.7818609E-02  0.8885328E-01
       -2   -1    0    0    0  501  0.00000000000E+00  0.00000000000E+00  0.64786770818E+03  0.64786770818E+03  0.25500000920E-02 0.  1.
        2   -1    0    0  501    0  0.00000000000E+00  0.00000000000E+00 -0.86671070127E+03  0.86671070127E+03  0.25500000920E-02 0. -1.
    10030    2    1    2    0    0  0.00000000000E+00  0.00000000000E+00 -0.21884299309E+03  0.15145784095E+04  0.14986845908E+04 0.  0.
        2    1    3    3  502    0  0.59488100748E+03 -0.36717486997E+03 -0.38212217171E+03  0.79669200593E+03  0.25500000920E-02 0. -1.
       -2    1    3    3    0  502 -0.59488100748E+03  0.36717486997E+03  0.16327917861E+03  0.71788640353E+03  0.25500000920E-02 0.  1.
</event>
<event>
 5   0  0.6542036E-05  0.1500675E+04  0.7818609E-02  0.8884004E-01
       -1   -1    0    0    0  501  0.00000000000E+00  0.00000000000E+00  0.60232568469E+03  0.60232568472E+03  0.50400001928E-02 0.  1.
        1   -1    0    0  501    0  0.00000000000E+00  0.00000000000E+00 -0.93472056505E+03  0.93472056506E+03  0.50400001928E-02 0. -1.
    10030    2    1    2    0    0  0.00000000000E+00  0.00000000000E+00 -0.33239488035E+03  0.15370462498E+04  0.15006747874E+04 0.  0.
        4    1    3    3  502    0 -0.15147796949E+03 -0.63340703169E+03  0.21546586310E+03  0.68598629293E+03  0.12699999809E+01 0.  1.
       -4    1    3    3    0  502  0.15147796949E+03  0.63340703169E+03 -0.54786074345E+03  0.85105995684E+03  0.12699999809E+01 0. -1.
</event>
<event>
 5   0  0.1228286E-04  0.1499902E+04  0.7818609E-02  0.8884518E-01
       -2   -1    0    0    0  501  0.00000000000E+00  0.00000000000E+00  0.21527299752E+03  0.21527299754E+03  0.25500000920E-02 0.  1.
        2   -1    0    0  501    0  0.00000000000E+00  0.00000000000E+00 -0.26126210355E+04  0.26126210356E+04  0.25500000920E-02 0. -1.
    10030    2    1    2    0    0  0.00000000000E+00  0.00000000000E+00 -0.23973480380E+04  0.28278940331E+04  0.14999023458E+04 0.  0.
        2    1    3    3  502    0  0.35150029393E+03 -0.16296617975E+03 -0.24093151217E+04  0.24402683845E+04  0.25500000920E-02 0. -1.
       -2    1    3    3    0  502 -0.35150029393E+03  0.16296617975E+03  0.11967083705E+02  0.38762564863E+03  0.25500000920E-02 0.  1.
</event>
<event>
 5   0  0.4462875E-05  0.1500161E+04  0.7818609E-02  0.8884346E-01
       -4   -1    0    0    0  501  0.00000000000E+00  0.00000000000E+00  0.55009201861E+03  0.55009348464E+03  0.12699999809E+01 0. -1.
        4   -1    0    0  501    0  0.00000000000E+00  0.00000000000E+00 -0.10227730132E+04  0.10227738016E+04  0.12699999809E+01 0.  1.
    10030    2    1    2    0    0  0.00000000000E+00  0.00000000000E+00 -0.47268099455E+03  0.15728672863E+04  0.15001613839E+04 0.  0.
        2    1    3    3  502    0 -0.67317679272E+03  0.58999814705E+02 -0.57765273474E+03  0.88900542988E+03  0.25500000920E-02 0.  1.
       -2    1    3    3    0  502  0.67317679272E+03 -0.58999814705E+02  0.10497174020E+03  0.68386185640E+03  0.25500000920E-02 0. -1.
</event>
<event>
 5   0  0.1254487E-04  0.1507134E+04  0.7818609E-02  0.8879723E-01
        2   -1    0    0  501    0  0.00000000000E+00  0.00000000000E+00  0.61825227599E+03  0.61825227599E+03  0.25500000920E-02 0. -1.
       -2   -1    0    0    0  501  0.00000000000E+00  0.00000000000E+00 -0.91849751152E+03  0.91849751152E+03  0.25500000920E-02 0.  1.
    10030    2    1    2    0    0  0.00000000000E+00  0.00000000000E+00 -0.30024523553E+03  0.15367497875E+04  0.15071339383E+04 0.  0.
        5    1    3    3  502    0 -0.21526476796E+03  0.11070626918E+03  0.57751517610E+03  0.62621135967E+03  0.46999998093E+01 0. -1.
       -5    1    3    3    0  502  0.21526476796E+03 -0.11070626918E+03 -0.87776041163E+03  0.91053842784E+03  0.46999998093E+01 0.  1.
</event>
<event>
 5   0  0.1186664E-04  0.1491263E+04  0.7818609E-02  0.8890284E-01
       -2   -1    0    0    0  501  0.00000000000E+00  0.00000000000E+00  0.33413472872E+03  0.33413472873E+03  0.25500000920E-02 0. -1.
        2   -1    0    0  501    0  0.00000000000E+00  0.00000000000E+00 -0.16638978721E+04  0.16638978721E+04  0.25500000920E-02 0.  1.
    10030    2    1    2    0    0  0.00000000000E+00  0.00000000000E+00 -0.13297631433E+04  0.19980326008E+04  0.14912626383E+04 0.  0.
        3    1    3    3  502    0  0.71460767909E+03 -0.83247315673E+02 -0.40242676093E+03  0.82434310739E+03  0.10100000352E+00 0.  1.
       -3    1    3    3    0  502 -0.71460767909E+03  0.83247315673E+02 -0.92733638241E+03  0.11736894934E+04  0.10100000352E+00 0. -1.
</event>
<event>
 5   0  0.6364378E-05  0.1499427E+04  0.7818609E-02  0.8884834E-01
       -1   -1    0    0    0  501  0.00000000000E+00  0.00000000000E+00  0.64409700506E+03  0.64409700507E+03  0.50400001928E-02 0.  1.
        1   -1    0    0  501    0  0.00000000000E+00  0.00000000000E+00 -0.87264880611E+03  0.87264880612E+03  0.50400001928E-02 0. -1.
    10030    2    1    2    0    0  0.00000000000E+00  0.00000000000E+00 -0.22855180105E+03  0.15167458112E+04  0.14994272006E+04 0.  0.
        5    1    3    3  502    0 -0.12257592488E+03  0.41029286498E+03  0.50820423353E+03  0.66457409323E+03  0.46999998093E+01 0.  1.
       -5    1    3    3    0  502  0.12257592488E+03 -0.41029286498E+03 -0.73675603458E+03  0.85217171797E+03  0.46999998093E+01 0. -1.
</event>
<event>
 5   0  0.6668433E-05  0.1501114E+04  0.7818609E-02  0.8883713E-01
       -1   -1    0    0    0  501  0.00000000000E+00  0.00000000000E+00  0.49377853378E+03  0.49377853380E+03  0.50400001928E-02 0.  1.
        1   -1    0    0  501    0  0.00000000000E+00  0.00000000000E+00 -0.11408668386E+04  0.11408668386E+04  0.50400001928E-02 0. -1.
    10030    2    1    2    0    0  0.00000000000E+00  0.00000000000E+00 -0.64708830485E+03  0.16346453724E+04  0.15011136597E+04 0.  0.
        1    1    3    3  502    0  0.85811146675E+02 -0.70195564446E+03 -0.59736878161E+03  0.92571849984E+03  0.50400001928E-02 0. -1.
       -1    1    3    3    0  502 -0.85811146675E+02  0.70195564446E+03 -0.49719523243E+02  0.70892687260E+03  0.50400001928E-02 0.  1.
</event>
<event>
 5   0  0.1186664E-04  0.1498443E+04  0.7818609E-02  0.8885489E-01
       -2   -1    0    0    0  501  0.00000000000E+00  0.00000000000E+00  0.75004943583E+03  0.75004943584E+03  0.25500000920E-02 0. -1.
        2   -1    0    0  501    0  0.00000000000E+00  0.00000000000E+00 -0.74839494366E+03  0.74839494366E+03  0.25500000920E-02 0.  1.
    10030    2    1    2    0    0  0.00000000000E+00  0.00000000000E+00  0.16544921773E+01  0.14984443795E+04  0.14984434661E+04 0.  0.
        3    1    3    3  502    0  0.24093439933E+03  0.40030389646E+03  0.58652428294E+03  0.74986888120E+03  0.10100000352E+00 0. -1.
       -3    1    3    3    0  502 -0.24093439933E+03 -0.40030389646E+03 -0.58486979077E+03  0.74857549830E+03  0.10100000352E+00 0.  1.
</event>
<event>
 5   0  0.6509279E-05  0.1501073E+04  0.7818609E-02  0.8883740E-01
        1   -1    0    0  501    0  0.00000000000E+00  0.00000000000E+00  0.11358980139E+04  0.11358980139E+04  0.50400001928E-02 0. -1.
       -1   -1    0    0    0  501  0.00000000000E+00  0.00000000000E+00 -0.49591133115E+03  0.49591133118E+03  0.50400001928E-02 0.  1.
    10030    2    1    2    0    0  0.00000000000E+00  0.00000000000E+00  0.63998668272E+03  0.16318093451E+04  0.15010725447E+04 0.  0.
        2    1    3    3  502    0 -0.68389152440E+03 -0.30757851759E+03  0.28574492129E+03  0.80247262986E+03  0.25500000920E-02 0. -1.
       -2    1    3    3    0  502  0.68389152440E+03  0.30757851759E+03  0.35424176143E+03  0.82933671520E+03  0.25500000920E-02 0.  1.
</event>
<event>
 5   0  0.1216921E-04  0.1501575E+04  0.7818609E-02  0.8883406E-01
       -2   -1    0    0    0  501  0.00000000000E+00  0.00000000000E+00  0.20648029089E+03  0.20648029091E+03  0.25500000920E-02 0.  1.
        2   -1    0    0  501    0  0.00000000000E+00  0.00000000000E+00 -0.27299547454E+04  0.27299547454E+04  0.25500000920E-02 0. -1.
    10030    2    1    2    0    0  0.00000000000E+00  0.00000000000E+00 -0.25234744545E+04  0.29364350363E+04  0.15015749731E+04 0.  0.
        4    1    3    3  502    0 -0.33921079483E+03 -0.66973821847E+03 -0.12777433581E+04  0.14819726538E+04  0.12699999809E+01 0. -1.
       -4    1    3    3    0  502  0.33921079483E+03  0.66973821847E+03 -0.12457310965E+04  0.14544623825E+04  0.12699999809E+01 0.  1.
</event>
<event>
 5   0  0.6542036E-05  0.1531673E+04  0.7818609E-02  0.8863659E-01
        1   -1    0    0  501    0  0.00000000000E+00  0.00000000000E+00  0.84640870236E+03  0.84640870237E+03  0.50400001928E-02 0. -1.
       -1   -1    0    0    0  501  0.00000000000E+00  0.00000000000E+00 -0.69293453858E+03  0.69293453860E+03  0.50400001928E-02 0.  1.
    10030    2    1    2    0    0  0.00000000000E+00  0.00000000000E+00  0.15347416378E+03  0.15393432410E+04  0.15316733642E+04 0.  0.
        4    1    3    3  502    0  0.21514734422E+03 -0.78478822126E+02  0.81118850480E+03  0.84289721109E+03  0.12699999809E+01 0. -1.
       -4    1    3    3    0  502 -0.21514734422E+03  0.78478822126E+02 -0.65771434102E+03  0.69644602988E+03  0.12699999809E+01 0.  1.
</event>
<event>
 5   0  0.1216921E-04  0.1506073E+04  0.7818609E-02  0.8880425E-01
       -2   -1    0    0    0  501  0.00000000000E+00  0.00000000000E+00  0.47569269708E+03  0.47569269708E+03  0.25500000920E-02 0. -1.
        2   -1    0    0  501    0  0.00000000000E+00  0.00000000000E+00 -0.11920802998E+04  0.11920802998E+04  0.25500000920E-02 0.  1.
    10030    2    1    2    0    0  0.00000000000E+00  0.00000000000E+00 -0.71638760272E+03  0.16677729969E+04  0.15060728972E+04 0.  0.
        4    1    3    3  502    0 -0.39295572576E+03  0.59278201654E+03 -0.84117940797E+02  0.71615791722E+03  0.12699999809E+01 0. -1.
       -4    1    3    3    0  502  0.39295572576E+03 -0.59278201654E+03 -0.63226966192E+03  0.95161507965E+03  0.12699999809E+01 0.  1.
</event>
<event>
 5   0  0.1219810E-04  0.1499847E+04  0.7818609E-02  0.8884555E-01
       -2   -1    0    0    0  501  0.00000000000E+00  0.00000000000E+00  0.33016725810E+03  0.33016725811E+03  0.25500000920E-02 0. -1.
        2   -1    0    0  501    0  0.00000000000E+00  0.00000000000E+00 -0.17033337871E+04  0.17033337871E+04  0.25500000920E-02 0.  1.
    10030    2    1    2    0    0  0.00000000000E+00  0.00000000000E+00 -0.13731665290E+04  0.20335010453E+04  0.14998467204E+04 0.  0.
        1    1    3    3  502    0 -0.58737647550E+03 -0.14509866046E+03 -0.12873143806E+04  0.14224074872E+04  0.50400001928E-02 0.  1.
       -1    1    3    3    0  502  0.58737647550E+03  0.14509866046E+03 -0.85852148469E+02  0.61109355803E+03  0.50400001928E-02 0. -1.
</event>
<event>
 5   0  0.1228286E-04  0.1501972E+04  0.7818609E-02  0.8883143E-01
        2   -1    0    0  501    0  0.00000000000E+00  0.00000000000E+00  0.10430380782E+04  0.10430380782E+04  0.25500000920E-02 0. -1.
       -2   -1    0    0    0  501  0.00000000000E+00  0.00000000000E+00 -0.54070854290E+03  0.54070854290E+03  0.25500000920E-02 0.  1.
    10030    2    1    2    0    0  0.00000000000E+00  0.00000000000E+00  0.50232953532E+03  0.15837466211E+04  0.15019715037E+04 0.  0.
        2    1    3    3  502    0 -0.25795627197E+03  0.90658498979E+02  0.98868808238E+03  0.10257994570E+04  0.25500000920E-02 0. -1.
       -2    1    3    3    0  502  0.25795627197E+03 -0.90658498979E+02 -0.48635854706E+03  0.55794716415E+03  0.25500000920E-02 0.  1.
</event>
<event>
 5   0  0.6361716E-05  0.1461300E+04  0.7818609E-02  0.8910604E-01
       -1   -1    0    0    0  501  0.00000000000E+00  0.00000000000E+00  0.37426083564E+03  0.37426083567E+03  0.50400001928E-02 0. -1.
        1   -1    0    0  501    0  0.00000000000E+00  0.00000000000E+00 -0.14264094220E+04  0.14264094220E+04  0.50400001928E-02 0.  1.
    10030    2    1    2    0    0  0.00000000000E+00  0.00000000000E+00 -0.10521485863E+04  0.18006702576E+04  0.14612996712E+04 0.  0.
        3    1    3    3  502    0 -0.39012729201E+03  0.12456812488E+03  0.21953984487E+03  0.46466576740E+03  0.10100000352E+00 0. -1.
       -3    1    3    3    0  502  0.39012729201E+03 -0.12456812488E+03 -0.12716884312E+04  0.13360044902E+04  0.10100000352E+00 0.  1.
</event>
<event>
 5   0  0.6668433E-05  0.1507005E+04  0.7818609E-02  0.8879808E-01
       -1   -1    0    0    0  501  0.00000000000E+00  0.00000000000E+00  0.51811084080E+03  0.51811084083E+03  0.50400001928E-02 0.  1.
        1   -1    0    0  501    0  0.00000000000E+00  0.00000000000E+00 -0.10958389950E+04  0.10958389950E+04  0.50400001928E-02 0. -1.
    10030    2    1    2    0    0  0.00000000000E+00  0.00000000000E+00 -0.57772815420E+03  0.16139498358E+04  0.15070050605E+04 0.  0.
        1    1    3    3  502    0 -0.63111814801E+03  0.24353101374E+03 -0.64430284580E+03  0.93420748687E+03  0.50400001928E-02 0. -1.
       -1    1    3    3    0  502  0.63111814801E+03 -0.24353101374E+03  0.66574691600E+02  0.67974234897E+03  0.50400001928E-02 0.  1.
</event>
<event>
 5   0  0.6509279E-05  0.1496614E+04  0.7818609E-02  0.8886708E-01
        1   -1    0    0  501    0  0.00000000000E+00  0.00000000000E+00  0.11467195720E+04  0.11467195720E+04  0.50400001928E-02 0. -1.
       -1   -1    0    0    0  501  0.00000000000E+00  0.00000000000E+00 -0.48831757857E+03  0.48831757860E+03  0.50400001928E-02 0.  1.
    10030    2    1    2    0    0  0.00000000000E+00  0.00000000000E+00  0.65840199341E+03  0.16350371506E+04  0.14966139445E+04 0.  0.
        2    1    3    3  502    0 -0.23722694709E+03 -0.64696181726E+03  0.10449835547E+02  0.68916283742E+03  0.25500000920E-02 0. -1.
       -2    1    3    3    0  502  0.23722694709E+03  0.64696181726E+03  0.64795215786E+03  0.94587431316E+03  0.25500000920E-02 0.  1.
</event>
<event>
 5   0  0.1228286E-04  0.1497205E+04  0.7818609E-02  0.8886314E-01
        2   -1    0    0  501    0  0.00000000000E+00  0.00000000000E+00  0.88710601341E+03  0.88710601341E+03  0.25500000920E-02 0. -1.
       -2   -1    0    0    0  501  0.00000000000E+00  0.00000000000E+00 -0.63172311278E+03  0.63172311278E+03  0.25500000920E-02 0.  1.
    10030    2    1    2    0    0  0.00000000000E+00  0.00000000000E+00  0.25538290063E+03  0.15188291262E+04  0.14972045581E+04 0.  0.
        2    1    3    3  502    0  0.53111978634E+03 -0.47624334735E+03 -0.10254342035E+03  0.72070181518E+03  0.25500000920E-02 0.  1.
       -2    1    3    3    0  502 -0.53111978634E+03  0.47624334735E+03  0.35792632098E+03  0.79812731102E+03  0.25500000920E-02 0. -1.
</event>
<event>
 5   0  0.1254487E-04  0.1500327E+04  0.7818609E-02  0.8884235E-01
        2   -1    0    0  501    0  0.00000000000E+00  0.00000000000E+00  0.16621741573E+04  0.16621741573E+04  0.25500000920E-02 0. -1.
       -2   -1    0    0    0  501  0.00000000000E+00  0.00000000000E+00 -0.33855987015E+03  0.33855987016E+03  0.25500000920E-02 0.  1.
    10030    2    1    2    0    0  0.00000000000E+00  0.00000000000E+00  0.13236142872E+04  0.20007340275E+04  0.15003272535E+04 0.  0.
        5    1    3    3  502    0 -0.44088282220E+03  0.49994864950E+03  0.20295388245E+03  0.69680605871E+03  0.46999998093E+01 0.  1.
       -5    1    3    3    0  502  0.44088282220E+03 -0.49994864950E+03  0.11206604047E+04  0.13039279688E+04  0.46999998093E+01 0. -1.
</event>
<event>
 5   0  0.6668433E-05  0.1496063E+04  0.7818609E-02  0.8887075E-01
        1   -1    0    0  501    0  0.00000000000E+00  0.00000000000E+00  0.54409674176E+03  0.54409674178E+03  0.50400001928E-02 0. -1.
       -1   -1    0    0    0  501  0.00000000000E+00  0.00000000000E+00 -0.10284038016E+04  0.10284038016E+04  0.50400001928E-02 0.  1.
    10030    2    1    2    0    0  0.00000000000E+00  0.00000000000E+00 -0.48430705980E+03  0.15725005434E+04  0.14960630437E+04 0.  0.
        1    1    3    3  502    0  0.44893314676E+03 -0.20455028476E+01 -0.87106000165E+03  0.97994422333E+03  0.50400001928E-02 0.  1.
       -1    1    3    3    0  502 -0.44893314676E+03  0.20455028476E+01  0.38675294186E+03  0.59255632002E+03  0.50400001928E-02 0. -1.
</event>
<event>
 5   0  0.1219810E-04  0.1500040E+04  0.7818609E-02  0.8884426E-01
        2   -1    0    0  501    0  0.00000000000E+00  0.00000000000E+00  0.46341917094E+03  0.46341917094E+03  0.25500000920E-02 0. -1.
       -2   -1    0    0    0  501  0.00000000000E+00  0.00000000000E+00 -0.12138692340E+04  0.12138692340E+04  0.25500000920E-02 0.  1.
    10030    2    1    2    0    0  0.00000000000E+00  0.00000000000E+00 -0.75045006311E+03  0.16772884050E+04  0.15000403649E+04 0.  0.
        1    1    3    3  502    0 -0.31889565214E+03  0.53729652310E+03 -0.83915897351E+03  0.10462168865E+04  0.50400001928E-02 0.  1.
       -1    1    3    3    0  502  0.31889565214E+03 -0.53729652310E+03  0.88708910397E+02  0.63107151852E+03  0.50400001928E-02 0. -1.
</event>
<event>
 5   0  0.6668433E-05  0.1506094E+04  0.7818609E-02  0.8880411E-01
        1   -1    0    0  501    0  0.00000000000E+00  0.00000000000E+00  0.44700111514E+03  0.44700111516E+03  0.50400001928E-02 0.  1.
       -1   -1    0    0    0  501  0.00000000000E+00  0.00000000000E+00 -0.12686317287E+04  0.12686317287E+04  0.50400001928E-02 0. -1.
    10030    2    1    2    0    0  0.00000000000E+00  0.00000000000E+00 -0.82163061353E+03  0.17156328438E+04  0.15060940176E+04 0.  0.
        1    1    3    3  502    0 -0.53007643578E+03  0.45277181641E+03 -0.73520959224E+03  0.10131715008E+04  0.50400001928E-02 0. -1.
       -1    1    3    3    0  502  0.53007643578E+03 -0.45277181641E+03 -0.86421021285E+02  0.70246134303E+03  0.50400001928E-02 0.  1.
</event>
<event>
 5   0  0.1254487E-04  0.1501858E+04  0.7818609E-02  0.8883218E-01
       -2   -1    0    0    0  501  0.00000000000E+00  0.00000000000E+00  0.28263554232E+03  0.28263554233E+03  0.25500000920E-02 0. -1.
        2   -1    0    0  501    0  0.00000000000E+00  0.00000000000E+00 -0.19951286017E+04  0.19951286017E+04  0.25500000920E-02 0.  1.
    10030    2    1    2    0    0  0.00000000000E+00  0.00000000000E+00 -0.17124930593E+04  0.22777641440E+04  0.15018578552E+04 0.  0.
        5    1    3    3  502    0 -0.95348879182E+02 -0.54443841188E+03 -0.16271480871E+04  0.17184695460E+04  0.46999998093E+01 0.  1.
       -5    1    3    3    0  502  0.95348879182E+02  0.54443841188E+03 -0.85344972246E+02  0.55929459802E+03  0.46999998093E+01 0. -1.
</event>
<event>
 5   0  0.1219810E-04  0.1497592E+04  0.7818609E-02  0.8886056E-01
       -2   -1    0    0    0  501  0.00000000000E+00  0.00000000000E+00  0.64513396199E+03  0.64513396200E+03  0.25500000920E-02 0.  1.
        2   -1    0    0  501    0  0.00000000000E+00  0.00000000000E+00 -0.86911464124E+03  0.86911464125E+03  0.25500000920E-02 0. -1.
    10030    2    1    2    0    0  0.00000000000E+00  0.00000000000E+00 -0.22398067925E+03  0.15142486032E+04  0.14975918963E+04 0.  0.
        1    1    3    3  502    0 -0.48516152081E+03 -0.56051464018E+03 -0.21869612862E+03  0.77290773048E+03  0.50400001928E-02 0.  1.
       -1    1    3    3    0  502  0.48516152081E+03  0.56051464018E+03 -0.52845506326E+01  0.74134087277E+03  0.50400001928E-02 0. -1.
</event>
<event>
 5   0  0.1254487E-04  0.1502330E+04  0.7818609E-02  0.8882905E-01
       -2   -1    0    0    0  501  0.00000000000E+00  0.00000000000E+00  0.77377537766E+03  0.77377537767E+03  0.25500000920E-02 0.  1.
        2   -1    0    0  501    0  0.00000000000E+00  0.00000000000E+00 -0.72921488750E+03  0.72921488750E+03  0.25500000920E-02 0. -1.
    10030    2    1    2    0    0  0.00000000000E+00  0.00000000000E+00  0.44560490166E+02  0.15029902652E+04  0.15023295577E+04 0.  0.
        5    1    3    3  502    0 -0.10874027193E+03 -0.45475929068E+03 -0.56585241087E+03  0.73405824025E+03  0.46999998093E+01 0. -1.
       -5    1    3    3    0  502  0.10874027193E+03  0.45475929068E+03  0.61041290104E+03  0.76893202492E+03  0.46999998093E+01 0.  1.
</event>
<event>
 5   0  0.1254487E-04  0.1498647E+04  0.7818609E-02  0.8885353E-01
       -2   -1    0    0    0  501  0.00000000000E+00  0.00000000000E+00  0.49557473614E+03  0.49557473615E+03  0.25500000920E-02 0. -1.
        2   -1    0    0  501    0  0.00000000000E+00  0.00000000000E+00 -0.11329993442E+04  0.11329993442E+04  0.25500000920E-02 0.  1.
    10030    2    1    2    0    0  0.00000000000E+00  0.00000000000E+00 -0.63742460807E+03  0.16285740804E+04  0.14986471914E+04 0.  0.
        5    1    3    3  502    0  0.52533248400E+03  0.50024962311E+02  0.25937228500E+03  0.58802447893E+03  0.46999998093E+01 0. -1.
       -5    1    3    3    0  502 -0.52533248400E+03 -0.50024962311E+02 -0.89679689307E+03  0.10405496014E+04  0.46999998093E+01 0.  1.
</event>
<event>
 5   0  0.6509279E-05  0.1499019E+04  0.7818609E-02  0.8885106E-01
        1   -1    0    0  501    0  0.00000000000E+00  0.00000000000E+00  0.16721175199E+04  0.16721175199E+04  0.50400001928E-02 0.  1.
       -1   -1    0    0    0  501  0.00000000000E+00  0.00000000000E+00 -0.33595980849E+03  0.33595980852E+03  0.50400001928E-02 0. -1.
    10030    2    1    2    0    0  0.00000000000E+00  0.00000000000E+00  0.13361577114E+04  0.20080773284E+04  0.14990187214E+04 0.  0.
        2    1    3    3  502    0 -0.29882763045E+03 -0.56625623551E+03  0.14611772583E+03  0.65673013239E+03  0.25500000920E-02 0. -1.
       -2    1    3    3    0  502  0.29882763045E+03  0.56625623551E+03  0.11900399856E+04  0.13513471960E+04  0.25500000920E-02 0.  1.
</event>
<event>
 5   0  0.1186664E-04  0.1499492E+04  0.7818609E-02  0.8884791E-01
        2   -1    0    0  501    0  0.00000000000E+00  0.00000000000E+00  0.17642820451E+04  0.17642820451E+04  0.25500000920E-02 0. -1.
       -2   -1    0    0    0  501  0.00000000000E+00  0.00000000000E+00 -0.31861084373E+03  0.31861084374E+03  0.25500000920E-02 0.  1.
    10030    2    1    2    0    0  0.00000000000E+00  0.00000000000E+00  0.14456712014E+04  0.20828928889E+04  0.14994924355E+04 0.  0.
        3    1    3    3  502    0  0.23138509060E+03 -0.16684997272E+03  0.16859512138E+04  0.17099150503E+04  0.10100000352E+00 0. -1.
       -3    1    3    3    0  502 -0.23138509060E+03  0.16684997272E+03 -0.24028001240E+03  0.37297783863E+03  0.10100000352E+00 0.  1.
</event>
<event>
 5   0  0.6509279E-05  0.1500001E+04  0.7818609E-02  0.8884452E-01
        1   -1    0    0  501    0  0.00000000000E+00  0.00000000000E+00  0.92692111767E+03  0.92692111768E+03  0.50400001928E-02 0.  1.
       -1   -1    0    0    0  501  0.00000000000E+00  0.00000000000E+00 -0.60684839495E+03  0.60684839497E+03  0.50400001928E-02 0. -1.
    10030    2    1    2    0    0  0.00000000000E+00  0.00000000000E+00  0.32007272271E+03  0.15337695127E+04  0.15000007900E+04 0.  0.
        2    1    3    3  502    0  0.24647301034E+03 -0.39455278083E+03  0.76156555259E+03  0.89241410376E+03  0.25500000920E-02 0.  1.
       -2    1    3    3    0  502 -0.24647301034E+03  0.39455278083E+03 -0.44149282987E+03  0.64135540890E+03  0.25500000920E-02 0. -1.
</event>
<event>
 5   0  0.1216921E-04  0.1499290E+04  0.7818609E-02  0.8884925E-01
       -2   -1    0    0    0  501  0.00000000000E+00  0.00000000000E+00  0.53992302716E+03  0.53992302717E+03  0.25500000920E-02 0.  1.
        2   -1    0    0  501    0  0.00000000000E+00  0.00000000000E+00 -0.10408289476E+04  0.10408289476E+04  0.25500000920E-02 0. -1.
    10030    2    1    2    0    0  0.00000000000E+00  0.00000000000E+00 -0.50090592040E+03  0.15807519747E+04  0.14992898534E+04 0.  0.
        4    1    3    3  502    0  0.25227467064E+03  0.22260964804E+03 -0.95675300791E+03  0.10141871109E+04  0.12699999809E+01 0. -1.
       -4    1    3    3    0  502 -0.25227467064E+03 -0.22260964804E+03  0.45584708751E+03  0.56656486384E+03  0.12699999809E+01 0.  1.
</event>
<event>
 5   0  0.6361716E-05  0.1507540E+04  0.7818609E-02  0.8879454E-01
        1   -1    0    0  501    0  0.00000000000E+00  0.00000000000E+00  0.22941726261E+04  0.22941726261E+04  0.50400001928E-02 0. -1.
       -1   -1    0    0    0  501  0.00000000000E+00  0.00000000000E+00 -0.24765749860E+03  0.24765749865E+03  0.50400001928E-02 0.  1.
    10030    2    1    2    0    0  0.00000000000E+00  0.00000000000E+00  0.20465151275E+04  0.25418301247E+04  0.15075397892E+04 0.  0.
        3    1    3    3  502    0  0.44517713936E+03  0.55322927728E+03  0.59696399889E+03  0.92769140603E+03  0.10100000352E+00 0. -1.
       -3    1    3    3    0  502 -0.44517713936E+03 -0.55322927728E+03  0.14495511286E+04  0.16141387187E+04  0.10100000352E+00 0.  1.
</event>
<event>
 5   0  0.1186664E-04  0.1498368E+04  0.7818609E-02  0.8885539E-01
        2   -1    0    0  501    0  0.00000000000E+00  0.00000000000E+00  0.78392102162E+03  0.78392102163E+03  0.25500000920E-02 0.  1.
       -2   -1    0    0    0  501  0.00000000000E+00  0.00000000000E+00 -0.71598646727E+03  0.71598646727E+03  0.25500000920E-02 0. -1.
    10030    2    1    2    0    0  0.00000000000E+00  0.00000000000E+00  0.67934554355E+02  0.14999074889E+04  0.14983682363E+04 0.  0.
        3    1    3    3  502    0 -0.19473182756E+03 -0.47118777790E+03  0.58347420656E+03  0.77484228500E+03  0.10100000352E+00 0.  1.
       -3    1    3    3    0  502  0.19473182756E+03  0.47118777790E+03 -0.51553965221E+03  0.72506520390E+03  0.10100000352E+00 0. -1.
</event>
<event>
 5   0  0.6542036E-05  0.1500681E+04  0.7818609E-02  0.8884001E-01
       -1   -1    0    0    0  501  0.00000000000E+00  0.00000000000E+00  0.10055612695E+04  0.10055612695E+04  0.50400001928E-02 0. -1.
        1   -1    0    0  501    0  0.00000000000E+00  0.00000000000E+00 -0.55989677462E+03  0.55989677464E+03  0.50400001928E-02 0.  1.
    10030    2    1    2    0    0  0.00000000000E+00  0.00000000000E+00  0.44566449489E+03  0.15654580442E+04  0.15006805276E+04 0.  0.
        4    1    3    3  502    0 -0.35856442091E+03 -0.25254805305E+03 -0.41226613736E+03  0.60192519797E+03  0.12699999809E+01 0.  1.
       -4    1    3    3    0  502  0.35856442091E+03  0.25254805305E+03  0.85793063225E+03  0.96353284619E+03  0.12699999809E+01 0. -1.
</event>
<event>
 5   0  0.1219810E-04  0.1500637E+04  0.7818609E-02  0.8884029E-01
       -2   -1    0    0    0  501  0.00000000000E+00  0.00000000000E+00  0.32134279082E+03  0.32134279083E+03  0.25500000920E-02 0. -1.
        2   -1    0    0  501    0  0.00000000000E+00  0.00000000000E+00 -0.17519548373E+04  0.17519548373E+04  0.25500000920E-02 0.  1.
    10030    2    1    2    0    0  0.00000000000E+00  0.00000000000E+00 -0.14306120465E+04  0.20732976281E+04  0.15006372737E+04 0.  0.
        1    1    3    3  502    0 -0.24151109282E+03  0.14864878411E+03  0.24444564533E+03  0.37440318177E+03  0.50400001928E-02 0. -1.
       -1    1    3    3    0  502  0.24151109282E+03 -0.14864878411E+03 -0.16750576918E+04  0.16988944464E+04  0.50400001928E-02 0.  1.
</event>
<event>
 5   0  0.6364378E-05  0.1504133E+04  0.7818609E-02  0.8881709E-01
       -1   -1    0    0    0  501  0.00000000000E+00  0.00000000000E+00  0.10477284366E+04  0.10477284366E+04  0.50400001928E-02 0.  1.
        1   -1    0    0  501    0  0.00000000000E+00  0.00000000000E+00 -0.53983816410E+03  0.53983816412E+03  0.50400001928E-02 0. -1.
    10030    2    1    2    0    0  0.00000000000E+00  0.00000000000E+00  0.50789027251E+03  0.15875666007E+04  0.15041327012E+04 0.  0.
        5    1    3    3  502    0 -0.14655085504E+03  0.32300084647E+03 -0.44599528058E+03  0.56986014094E+03  0.46999998093E+01 0. -1.
       -5    1    3    3    0  502  0.14655085504E+03 -0.32300084647E+03  0.95388555309E+03  0.10177064598E+04  0.46999998093E+01 0.  1.
</event>
<event>
 5   0  0.6542036E-05  0.1500270E+04  0.7818609E-02  0.8884273E-01
       -1   -1    0    0    0  501  0.00000000000E+00  0.00000000000E+00  0.71960325776E+03  0.71960325778E+03  0.50400001928E-02 0.  1.
        1   -1    0    0  501    0  0.00000000000E+00  0.00000000000E+00 -0.78196250628E+03  0.78196250629E+03  0.50400001928E-02 0. -1.
    10030    2    1    2    0    0  0.00000000000E+00  0.00000000000E+00 -0.62359248517E+02  0.15015657641E+04  0.15002703316E+04 0.  0.
        4    1    3    3  502    0 -0.65431071660E+03  0.22991821680E+03  0.25492775619E+03  0.73890099070E+03  0.12699999809E+01 0.  1.
       -4    1    3    3    0  502  0.65431071660E+03 -0.22991821680E+03 -0.31728700471E+03  0.76266477337E+03  0.12699999809E+01 0. -1.
</event>
<event>
 5   0  0.1186664E-04  0.1496847E+04  0.7818609E-02  0.8886552E-01
        2   -1    0    0  501    0  0.00000000000E+00  0.00000000000E+00  0.47910709667E+03  0.47910709667E+03  0.25500000920E-02 0. -1.
       -2   -1    0    0    0  501  0.00000000000E+00  0.00000000000E+00 -0.11691283831E+04  0.11691283831E+04  0.25500000920E-02 0.  1.
    10030    2    1    2    0    0  0.00000000000E+00  0.00000000000E+00 -0.69002128648E+03  0.16482354798E+04  0.14968469598E+04 0.  0.
        3    1    3    3  502    0  0.51164048897E+03  0.37808395985E+03 -0.77910810019E+03  0.10058493489E+04  0.10100000352E+00 0.  1.
       -3    1    3    3    0  502 -0.51164048897E+03 -0.37808395985E+03  0.89086813707E+02  0.64238613095E+03  0.10100000352E+00 0. -1.
</event>
<event>
 5   0  0.6364378E-05  0.1501398E+04  0.7818609E-02  0.8883524E-01
       -1   -1    0    0    0  501  0.00000000000E+00  0.00000000000E+00  0.81630753573E+03  0.81630753574E+03  0.50400001928E-02 0.  1.
        1   -1    0    0  501    0  0.00000000000E+00  0.00000000000E+00 -0.69036389742E+03  0.69036389744E+03  0.50400001928E-02 0. -1.
    10030    2    1    2    0    0  0.00000000000E+00  0.00000000000E+00  0.12594363831E+03  0.15066714332E+04  0.15013983507E+04 0.  0.
        5    1    3    3  502    0  0.66352069302E+02  0.23223415872E+03  0.77623661909E+03  0.81295798194E+03  0.46999998093E+01 0.  1.
       -5    1    3    3    0  502 -0.66352069302E+02 -0.23223415872E+03 -0.65029298078E+03  0.69371345124E+03  0.46999998093E+01 0. -1.
</event>
<event>
 5   0  0.6361716E-05  0.1497484E+04  0.7818609E-02  0.8886128E-01
       -1   -1    0    0    0  501  0.00000000000E+00  0.00000000000E+00  0.17567291294E+04  0.17567291294E+04  0.50400001928E-02 0. -1.
        1   -1    0    0  501    0  0.00000000000E+00  0.00000000000E+00 -0.31912409840E+03  0.31912409844E+03  0.50400001928E-02 0.  1.
    10030    2    1    2    0    0  0.00000000000E+00  0.00000000000E+00  0.14376050310E+04  0.20758532279E+04  0.14974840228E+04 0.  0.
        3    1    3    3  502    0  0.36640853962E+03 -0.33946165269E+03  0.14920206147E+04  0.15734087061E+04  0.10100000352E+00 0. -1.
       -3    1    3    3    0  502 -0.36640853962E+03  0.33946165269E+03 -0.54415583626E+02  0.50244452181E+03  0.10100000352E+00 0.  1.
</event>
<event>
 5   0  0.6509279E-05  0.1498479E+04  0.7818609E-02  0.8885465E-01
        1   -1    0    0  501    0  0.00000000000E+00  0.00000000000E+00  0.12494704665E+04  0.12494704665E+04  0.50400001928E-02 0. -1.
       -1   -1    0    0    0  501  0.00000000000E+00  0.00000000000E+00 -0.44927838116E+03  0.44927838119E+03  0.50400001928E-02 0.  1.
    10030    2    1    2    0    0  0.00000000000E+00  0.00000000000E+00  0.80019208536E+03  0.16987488477E+04  0.14984793206E+04 0.  0.
        2    1    3    3  502    0  0.24306652323E+03  0.36926445711E+03  0.10858573466E+04  0.11724008492E+04  0.25500000920E-02 0.  1.
       -2    1    3    3    0  502 -0.24306652323E+03 -0.36926445711E+03 -0.28566526128E+03  0.52634799849E+03  0.25500000920E-02 0. -1.
</event>
<event>
 5   0  0.1228286E-04  0.1498276E+04  0.7818609E-02  0.8885600E-01
        2   -1    0    0  501    0  0.00000000000E+00  0.00000000000E+00  0.10288615889E+04  0.10288615889E+04  0.25500000920E-02 0.  1.
       -2   -1    0    0    0  501  0.00000000000E+00  0.00000000000E+00 -0.54546463503E+03  0.54546463503E+03  0.25500000920E-02 0. -1.
    10030    2    1    2    0    0  0.00000000000E+00  0.00000000000E+00  0.48339695383E+03  0.15743262239E+04  0.14982758238E+04 0.  0.
        2    1    3    3  502    0  0.49450160683E+03  0.35324253385E+03 -0.21859554573E+03  0.64582980692E+03  0.25500000920E-02 0. -1.
       -2    1    3    3    0  502 -0.49450160683E+03 -0.35324253385E+03  0.70199249956E+03  0.92849641697E+03  0.25500000920E-02 0.  1.
</event>
<event>
 5   0  0.6542036E-05  0.1495770E+04  0.7818609E-02  0.8887271E-01
       -1   -1    0    0    0  501  0.00000000000E+00  0.00000000000E+00  0.67365591760E+03  0.67365591762E+03  0.50400001928E-02 0. -1.
        1   -1    0    0  501    0  0.00000000000E+00  0.00000000000E+00 -0.83029330846E+03  0.83029330848E+03  0.50400001928E-02 0.  1.
    10030    2    1    2    0    0  0.00000000000E+00  0.00000000000E+00 -0.15663739086E+03  0.15039492261E+04  0.14957700366E+04 0.  0.
        4    1    3    3  502    0 -0.61739450456E+03 -0.42026498873E+03 -0.11767032065E+03  0.75607311304E+03  0.12699999809E+01 0. -1.
       -4    1    3    3    0  502  0.61739450456E+03  0.42026498873E+03 -0.38967070217E+02  0.74787611305E+03  0.12699999809E+01 0.  1.
</event>
<event>
 5   0  0.6509279E-05  0.1481505E+04  0.7818609E-02  0.8896846E-01
       -1   -1    0    0    0  501  0.00000000000E+00  0.00000000000E+00  0.10268003758E+04  0.10268003759E+04  0.50400001928E-02 0.  1.
        1   -1    0    0  501    0  0.00000000000E+00  0.00000000000E+00 -0.53439260892E+03  0.53439260894E+03  0.50400001928E-02 0. -1.
    10030    2    1    2    0    0  0.00000000000E+00  0.00000000000E+00  0.49240776692E+03  0.15611929848E+04  0.14815053584E+04 0.  0.
        2    1    3    3  502    0  0.70145906905E+03 -0.23783489171E+03  0.25696442123E+03  0.78399041770E+03  0.25500000920E-02 0. -1.
       -2    1    3    3    0  502 -0.70145906905E+03  0.23783489171E+03  0.23544334569E+03  0.77720256710E+03  0.25500000920E-02 0.  1.
</event>
<event>
 5   0  0.6361716E-05  0.1504966E+04  0.7818609E-02  0.8881158E-01
        1   -1    0    0  501    0  0.00000000000E+00  0.00000000000E+00  0.10418290019E+04  0.10418290019E+04  0.50400001928E-02 0. -1.
       -1   -1    0    0    0  501  0.00000000000E+00  0.00000000000E+00 -0.54349638312E+03  0.54349638314E+03  0.50400001928E-02 0.  1.
    10030    2    1    2    0    0  0.00000000000E+00  0.00000000000E+00  0.49833261879E+03  0.15853253851E+04  0.15049655071E+04 0.  0.
        3    1    3    3  502    0 -0.68079316609E+03  0.30477285260E+03  0.14454299581E+03  0.75977530528E+03  0.10100000352E+00 0.  1.
       -3    1    3    3    0  502  0.68079316609E+03 -0.30477285260E+03  0.35378962298E+03  0.82555007977E+03  0.10100000352E+00 0. -1.
</event>
<event>
 5   0  0.1219810E-04  0.1503063E+04  0.7818609E-02  0.8882419E-01
        2   -1    0    0  501    0  0.00000000000E+00  0.00000000000E+00  0.11158164479E+04  0.11158164479E+04  0.25500000920E-02 0.  1.
       -2   -1    0    0    0  501  0.00000000000E+00  0.00000000000E+00 -0.50617606123E+03  0.50617606124E+03  0.25500000920E-02 0. -1.
    10030    2    1    2    0    0  0.00000000000E+00  0.00000000000E+00  0.60964038665E+03  0.16219925091E+04  0.15030629723E+04 0.  0.
        1    1    3    3  502    0 -0.52170869694E+03 -0.50989573366E+03  0.10990160496E+03  0.73773436037E+03  0.50400001928E-02 0. -1.
       -1    1    3    3    0  502  0.52170869694E+03  0.50989573366E+03  0.49973878169E+03  0.88425814875E+03  0.50400001928E-02 0.  1.
</event>
<event>
 5   0  0.1216921E-04  0.1501480E+04  0.7818609E-02  0.8883469E-01
        2   -1    0    0  501    0  0.00000000000E+00  0.00000000000E+00  0.20895025107E+04  0.20895025107E+04  0.25500000920E-02 0. -1.
       -2   -1    0    0    0  501  0.00000000000E+00  0.00000000000E+00 -0.26973439065E+03  0.26973439066E+03  0.25500000920E-02 0.  1.
    10030    2    1    2    0    0  0.00000000000E+00  0.00000000000E+00  0.18197681201E+04  0.23592369014E+04  0.15014801850E+04 0.  0.
        4    1    3    3  502    0 -0.63601092353E+03 -0.34036982876E+03  0.12366469620E+04  0.14316629620E+04  0.12699999809E+01 0. -1.
       -4    1    3    3    0  502  0.63601092353E+03  0.34036982876E+03  0.58312115809E+03  0.92757393942E+03  0.12699999809E+01 0.  1.
</event>
<event>
 5   0  0.6668433E-05  0.1494265E+04  0.7818609E-02  0.8888276E-01
        1   -1    0    0  501    0  0.00000000000E+00  0.00000000000E+00  0.21768375354E+04  0.21768375354E+04  0.50400001928E-02 0. -1.
       -1   -1    0    0    0  501  0.00000000000E+00  0.00000000000E+00 -0.25643022843E+03  0.25643022848E+03  0.50400001928E-02 0.  1.
    10030    2    1    2    0    0  0.00000000000E+00  0.00000000000E+00  0.19204073070E+04  0.24332677639E+04  0.14942649652E+04 0.  0.
        1    1    3    3  502    0 -0.10881021163E+03  0.61569285957E+03  0.16262381800E+04  0.17422881443E+04  0.50400001928E-02 0. -1.
       -1    1    3    3    0  502  0.10881021163E+03 -0.61569285957E+03  0.29416912699E+03  0.69097961965E+03  0.50400001928E-02 0.  1.
</event>
<event>
 5   0  0.1219810E-04  0.1500699E+04  0.7818609E-02  0.8883988E-01
       -2   -1    0    0    0  501  0.00000000000E+00  0.00000000000E+00  0.66964401510E+03  0.66964401510E+03  0.25500000920E-02 0. -1.
        2   -1    0    0  501    0  0.00000000000E+00  0.00000000000E+00 -0.84078177033E+03  0.84078177033E+03  0.25500000920E-02 0.  1.
    10030    2    1    2    0    0  0.00000000000E+00  0.00000000000E+00 -0.17113775523E+03  0.15104257854E+04  0.15006991444E+04 0.  0.
        1    1    3    3  502    0  0.56806805903E+03 -0.48607106547E+03 -0.14968482511E+03  0.76247750607E+03  0.50400001928E-02 0. -1.
       -1    1    3    3    0  502 -0.56806805903E+03  0.48607106547E+03 -0.21452930124E+02  0.74794827937E+03  0.50400001928E-02 0.  1.
</event>
<event>
 5   0  0.1216921E-04  0.1502281E+04  0.7818609E-02  0.8882937E-01
       -2   -1    0    0    0  501  0.00000000000E+00  0.00000000000E+00  0.74384000752E+03  0.74384000752E+03  0.25500000920E-02 0.  1.
        2   -1    0    0  501    0  0.00000000000E+00  0.00000000000E+00 -0.75851292422E+03  0.75851292422E+03  0.25500000920E-02 0. -1.
    10030    2    1    2    0    0  0.00000000000E+00  0.00000000000E+00 -0.14672916698E+02  0.15023529317E+04  0.15022812776E+04 0.  0.
        4    1    3    3  502    0 -0.13896255039E+03  0.52994477809E+03 -0.52122728164E+03  0.75619544449E+03  0.12699999809E+01 0. -1.
       -4    1    3    3    0  502  0.13896255039E+03 -0.52994477809E+03  0.50655436494E+03  0.74615748725E+03  0.12699999809E+01 0.  1.
</event>
<event>
 5   0  0.1254487E-04  0.1501752E+04  0.7818609E-02  0.8883288E-01
       -2   -1    0    0    0  501  0.00000000000E+00  0.00000000000E+00  0.10773225281E+04  0.10773225281E+04  0.25500000920E-02 0. -1.
        2   -1    0    0  501    0  0.00000000000E+00  0.00000000000E+00 -0.52334840851E+03  0.52334840852E+03  0.25500000920E-02 0.  1.
    10030    2    1    2    0    0  0.00000000000E+00  0.00000000000E+00  0.55397411961E+03  0.16006709366E+04  0.15017523505E+04 0.  0.
        5    1    3    3  502    0  0.52179987821E+03  0.47259670600E+03 -0.13050947688E+01  0.70402169902E+03  0.46999998093E+01 0.  1.
       -5    1    3    3    0  502 -0.52179987821E+03 -0.47259670600E+03  0.55527921438E+03  0.89664923763E+03  0.46999998093E+01 0. -1.
</event>
<event>
 5   0  0.1219810E-04  0.1498288E+04  0.7818609E-02  0.8885592E-01
       -2   -1    0    0    0  501  0.00000000000E+00  0.00000000000E+00  0.70189520955E+03  0.70189520956E+03  0.25500000920E-02 0. -1.
        2   -1    0    0  501    0  0.00000000000E+00  0.00000000000E+00 -0.79957389010E+03  0.79957389010E+03  0.25500000920E-02 0.  1.
    10030    2    1    2    0    0  0.00000000000E+00  0.00000000000E+00 -0.97678680545E+02  0.15014690997E+04  0.14982884678E+04 0.  0.
        1    1    3    3  502    0 -0.48416425705E+03 -0.10987469476E+03 -0.61103794262E+03  0.78730860766E+03  0.50400001928E-02 0.  1.
       -1    1    3    3    0  502  0.48416425705E+03  0.10987469476E+03  0.51335926208E+03  0.71416049200E+03  0.50400001928E-02 0. -1.
</event>
<event>
 5   0  0.1254487E-04  0.1501298E+04  0.7818609E-02  0.8883591E-01
        2   -1    0    0  501    0  0.00000000000E+00  0.00000000000E+00  0.71704957772E+03  0.71704957773E+03  0.25500000920E-02 0.  1.
       -2   -1    0    0    0  501  0.00000000000E+00  0.00000000000E+00 -0.78582230351E+03  0.78582230351E+03  0.25500000920E-02 0. -1.
    10030    2    1    2    0    0  0.00000000000E+00  0.00000000000E+00 -0.68772725785E+02  0.15028718812E+04  0.15012975067E+04 0.  0.
        5    1    3    3  502    0 -0.69897363988E+03 -0.27221198908E+03 -0.62865742640E+01  0.75015006983E+03  0.46999998093E+01 0.  1.
       -5    1    3    3    0  502  0.69897363988E+03  0.27221198908E+03 -0.62486151521E+02  0.75272181141E+03  0.46999998093E+01 0. -1.
</event>
<event>
 5   0  0.1219810E-04  0.1499438E+04  0.7818609E-02  0.8884827E-01
       -2   -1    0    0    0  501  0.00000000000E+00  0.00000000000E+00  0.78344622080E+03  0.78344622081E+03  0.25500000920E-02 0. -1.
        2   -1    0    0  501    0  0.00000000000E+00  0.00000000000E+00 -0.71744353825E+03  0.71744353825E+03  0.25500000920E-02 0.  1.
    10030    2    1    2    0    0  0.00000000000E+00  0.00000000000E+00  0.66002682558E+02  0.15008897591E+04  0.14994377996E+04 0.  0.
        1    1    3    3  502    0  0.35536383947E+03 -0.57616860920E+02 -0.62526398197E+03  0.72149719906E+03  0.50400001928E-02 0.  1.
       -1    1    3    3    0  502 -0.35536383947E+03  0.57616860920E+02  0.69126666453E+03  0.77939256000E+03  0.50400001928E-02 0. -1.
</event>
<event>
 5   0  0.6542036E-05  0.1482676E+04  0.7818609E-02  0.8896056E-01
        1   -1    0    0  501    0  0.00000000000E+00  0.00000000000E+00  0.14305407072E+04  0.14305407072E+04  0.50400001928E-02 0. -1.
       -1   -1    0    0    0  501  0.00000000000E+00  0.00000000000E+00 -0.38417769725E+03  0.38417769728E+03  0.50400001928E-02 0.  1.
    10030    2    1    2    0    0  0.00000000000E+00  0.00000000000E+00  0.10463630100E+04  0.18147184045E+04  0.14826757363E+04 0.  0.
        4    1    3    3  502    0 -0.29652122587E+03 -0.59649717934E+02 -0.30522199911E+03  0.42970339524E+03  0.12699999809E+01 0.  1.
       -4    1    3    3    0  502  0.29652122587E+03  0.59649717934E+02  0.13515850091E+04  0.13850150093E+04  0.12699999809E+01 0. -1.
</event>
<event>
 5   0  0.6361716E-05  0.1498041E+04  0.7818609E-02  0.8885757E-01
        1   -1    0    0  501    0  0.00000000000E+00  0.00000000000E+00  0.85659704997E+03  0.85659704999E+03  0.50400001928E-02 0. -1.
       -1   -1    0    0    0  501  0.00000000000E+00  0.00000000000E+00 -0.65495406753E+03  0.65495406754E+03  0.50400001928E-02 0.  1.
    10030    2    1    2    0    0  0.00000000000E+00  0.00000000000E+00  0.20164298245E+03  0.15115511175E+04  0.14980410170E+04 0.  0.
        3    1    3    3  502    0 -0.32649659634E+02  0.74631907651E+03  0.15584351863E+03  0.76311557233E+03  0.10100000352E+00 0. -1.
       -3    1    3    3    0  502  0.32649659634E+02 -0.74631907651E+03  0.45799463815E+02  0.74843554520E+03  0.10100000352E+00 0.  1.
</event>
<event>
 5   0  0.1219810E-04  0.1499782E+04  0.7818609E-02  0.8884598E-01
        2   -1    0    0  501    0  0.00000000000E+00  0.00000000000E+00  0.15561435900E+04  0.15561435900E+04  0.25500000920E-02 0. -1.
       -2   -1    0    0    0  501  0.00000000000E+00  0.00000000000E+00 -0.36136563402E+03  0.36136563403E+03  0.25500000920E-02 0.  1.
    10030    2    1    2    0    0  0.00000000000E+00  0.00000000000E+00  0.11947779559E+04  0.19175092240E+04  0.14997824042E+04 0.  0.
        1    1    3    3  502    0 -0.52006469066E+03 -0.48926634805E+03  0.89030228974E+03  0.11412655296E+04  0.50400001928E-02 0. -1.
       -1    1    3    3    0  502  0.52006469066E+03  0.48926634805E+03  0.30447566619E+03  0.77624369443E+03  0.50400001928E-02 0.  1.
</event>
<event>
 5   0  0.6509279E-05  0.1500273E+04  0.7818609E-02  0.8884271E-01
       -1   -1    0    0    0  501  0.00000000000E+00  0.00000000000E+00  0.43279211145E+03  0.43279211148E+03  0.50400001928E-02 0.  1.
        1   -1    0    0  501    0  0.00000000000E+00  0.00000000000E+00 -0.13001736142E+04  0.13001736142E+04  0.50400001928E-02 0. -1.
    10030    2    1    2    0    0  0.00000000000E+00  0.00000000000E+00 -0.86738150277E+03  0.17329657257E+04  0.15002731535E+04 0.  0.
        2    1    3    3  502    0 -0.31788397268E+03 -0.33459069834E+03  0.24938641274E+03  0.52459006698E+03  0.25500000920E-02 0.  1.
       -2    1    3    3    0  502  0.31788397268E+03  0.33459069834E+03 -0.11167679155E+04  0.12083756587E+04  0.25500000920E-02 0. -1.
</event>
<event>
 5   0  0.1228286E-04  0.1500897E+04  0.7818609E-02  0.8883856E-01
        2   -1    0    0  501    0  0.00000000000E+00  0.00000000000E+00  0.58660314062E+03  0.58660314063E+03  0.25500000920E-02 0.  1.
       -2   -1    0    0    0  501  0.00000000000E+00  0.00000000000E+00 -0.96005847837E+03  0.96005847837E+03  0.25500000920E-02 0. -1.
    10030    2    1    2    0    0  0.00000000000E+00  0.00000000000E+00 -0.37345533775E+03  0.15466616190E+04  0.15008974896E+04 0.  0.
        2    1    3    3  502    0  0.10285406334E+03 -0.70665377617E+03 -0.42448947667E+03  0.83074053322E+03  0.25500000920E-02 0. -1.
       -2    1    3    3    0  502 -0.10285406334E+03  0.70665377617E+03  0.51034138919E+02  0.71592108578E+03  0.25500000920E-02 0.  1.
</event>
<event>
 5   0  0.6542036E-05  0.1499990E+04  0.7818609E-02  0.8884459E-01
       -1   -1    0    0    0  501  0.00000000000E+00  0.00000000000E+00  0.43467494753E+03  0.43467494756E+03  0.50400001928E-02 0. -1.
        1   -1    0    0  501    0  0.00000000000E+00  0.00000000000E+00 -0.12940537684E+04  0.12940537684E+04  0.50400001928E-02 0.  1.
    10030    2    1    2    0    0  0.00000000000E+00  0.00000000000E+00 -0.85937882087E+03  0.17287287160E+04  0.14999903385E+04 0.  0.
        4    1    3    3  502    0  0.66457031160E+03  0.32716707066E+03 -0.56507254005E+03  0.93166548697E+03  0.12699999809E+01 0. -1.
       -4    1    3    3    0  502 -0.66457031160E+03 -0.32716707066E+03 -0.29430628081E+03  0.79706322899E+03  0.12699999809E+01 0.  1.
</event>
<event>
 5   0  0.1254487E-04  0.1499266E+04  0.7818609E-02  0.8884941E-01
        2   -1    0    0  501    0  0.00000000000E+00  0.00000000000E+00  0.72528859639E+03  0.72528859640E+03  0.25500000920E-02 0.  1.
       -2   -1    0    0    0  501  0.00000000000E+00  0.00000000000E+00 -0.77479456776E+03  0.77479456776E+03  0.25500000920E-02 0. -1.
    10030    2    1    2    0    0  0.00000000000E+00  0.00000000000E+00 -0.49505971364E+02  0.15000831642E+04  0.14992660398E+04 0.  0.
        5    1    3    3  502    0 -0.72065922182E+03 -0.19956274733E+03  0.27740553403E+02  0.74830918236E+03  0.46999998093E+01 0.  1.
       -5    1    3    3    0  502  0.72065922182E+03  0.19956274733E+03 -0.77246524767E+02  0.75177398179E+03  0.46999998093E+01 0. -1.
</event>
<event>
 5   0  0.6668433E-05  0.1502009E+04  0.7818609E-02  0.8883118E-01
       -1   -1    0    0    0  501  0.00000000000E+00  0.00000000000E+00  0.13594679819E+04  0.13594679819E+04  0.50400001928E-02 0.  1.
        1   -1    0    0  501    0  0.00000000000E+00  0.00000000000E+00 -0.41487378295E+03  0.41487378298E+03  0.50400001928E-02 0. -1.
    10030    2    1    2    0    0  0.00000000000E+00  0.00000000000E+00  0.94459419892E+03  0.17743417649E+04  0.15020088208E+04 0.  0.
        1    1    3    3  502    0 -0.63154082603E+03  0.39442659350E+03  0.58799018936E+03  0.94876162201E+03  0.50400001928E-02 0.  1.
       -1    1    3    3    0  502  0.63154082603E+03 -0.39442659350E+03  0.35660400956E+03  0.82558014285E+03  0.50400001928E-02 0. -1.
</event>
<event>
 5   0  0.1219810E-04  0.1498550E+04  0.7818609E-02  0.8885418E-01
       -2   -1    0    0    0  501  0.00000000000E+00  0.00000000000E+00  0.62741807612E+03  0.62741807613E+03  0.25500000920E-02 0. -1.
        2   -1    0    0  501    0  0.00000000000E+00  0.00000000000E+00 -0.89479855806E+03  0.89479855806E+03  0.25500000920E-02 0.  1.
    10030    2    1    2    0    0  0.00000000000E+00  0.00000000000E+00 -0.26738048194E+03  0.15222166342E+04  0.14985496853E+04 0.  0.
        1    1    3    3  502    0 -0.62984620586E+03 -0.10590467156E+03 -0.53165665052E+03  0.83101193527E+03  0.50400001928E-02 0.  1.
       -1    1    3    3    0  502  0.62984620586E+03  0.10590467156E+03  0.26427616859E+03  0.69120469892E+03  0.50400001928E-02 0. -1.
</event>
<event>
 5   0  0.6509279E-05  0.1498619E+04  0.7818609E-02  0.8885372E-01
        1   -1    0    0  501    0  0.00000000000E+00  0.00000000000E+00  0.66851796251E+03  0.66851796253E+03  0.50400001928E-02 0.  1.
       -1   -1    0    0    0  501  0.00000000000E+00  0.00000000000E+00 -0.83986441231E+03  0.83986441233E+03  0.50400001928E-02 0. -1.
    10030    2    1    2    0    0  0.00000000000E+00  0.00000000000E+00 -0.17134644980E+03  0.15083823749E+04  0.14986186249E+04 0.  0.
        2    1    3    3  502    0 -0.63600148078E+03  0.34287331460E+03  0.11412561908E+03  0.73149480542E+03  0.25500000920E-02 0.  1.
       -2    1    3    3    0  502  0.63600148078E+03 -0.34287331460E+03 -0.28547206887E+03  0.77688756943E+03  0.25500000920E-02 0. -1.
</event>
<event>
 5   0  0.6509279E-05  0.1493921E+04  0.7818609E-02  0.8888506E-01
        1   -1    0    0  501    0  0.00000000000E+00  0.00000000000E+00  0.21339849604E+04  0.21339849604E+04  0.50400001928E-02 0. -1.
       -1   -1    0    0    0  501  0.00000000000E+00  0.00000000000E+00 -0.26145911669E+03  0.26145911674E+03  0.50400001928E-02 0.  1.
    10030    2    1    2    0    0  0.00000000000E+00  0.00000000000E+00  0.18725258437E+04  0.23954440772E+04  0.14939207782E+04 0.  0.
        2    1    3    3  502    0 -0.52977309936E+03  0.22114326525E+03  0.17025529130E+04  0.17967332306E+04  0.25500000920E-02 0. -1.
       -2    1    3    3    0  502  0.52977309936E+03 -0.22114326525E+03  0.16997293077E+03  0.59871084655E+03  0.25500000920E-02 0.  1.
</event>
<event>
 5   0  0.6364378E-05  0.1513530E+04  0.7818609E-02  0.8875505E-01
        1   -1    0    0  501    0  0.00000000000E+00  0.00000000000E+00  0.55545303426E+03  0.55545303428E+03  0.50400001928E-02 0. -1.
       -1   -1    0    0    0  501  0.00000000000E+00  0.00000000000E+00 -0.10310387922E+04  0.10310387923E+04  0.50400001928E-02 0.  1.
    10030    2    1    2    0    0  0.00000000000E+00  0.00000000000E+00 -0.47558575799E+03  0.15864918265E+04  0.15135304762E+04 0.  0.
        5    1    3    3  502    0 -0.73254339753E+03  0.11372359141E+03 -0.78415047234E+02  0.74546890890E+03  0.46999998093E+01 0. -1.
       -5    1    3    3    0  502  0.73254339753E+03 -0.11372359141E+03 -0.39717071076E+03  0.84102291764E+03  0.46999998093E+01 0.  1.
</event>
<event>
 5   0  0.6364378E-05  0.1500289E+04  0.7818609E-02  0.8884261E-01
       -1   -1    0    0    0  501  0.00000000000E+00  0.00000000000E+00  0.44590243457E+03  0.44590243460E+03  0.50400001928E-02 0. -1.
        1   -1    0    0  501    0  0.00000000000E+00  0.00000000000E+00 -0.12619732231E+04  0.12619732231E+04  0.50400001928E-02 0.  1.
    10030    2    1    2    0    0  0.00000000000E+00  0.00000000000E+00 -0.81607078856E+03  0.17078756578E+04  0.15002892156E+04 0.  0.
        5    1    3    3  502    0  0.65429025671E+03 -0.21918056670E+03 -0.73118287708E+02  0.69390506184E+03  0.46999998093E+01 0.  1.
       -5    1    3    3    0  502 -0.65429025671E+03  0.21918056670E+03 -0.74295250086E+03  0.10139705959E+04  0.46999998093E+01 0. -1.
</event>
<event>
 5   0  0.6542036E-05  0.1500341E+04  0.7818609E-02  0.8884226E-01
        1   -1    0    0  501    0  0.00000000000E+00  0.00000000000E+00  0.30282515443E+03  0.30282515447E+03  0.50400001928E-02 0.  1.
       -1   -1    0    0    0  501  0.00000000000E+00  0.00000000000E+00 -0.18583522840E+04  0.18583522840E+04  0.50400001928E-02 0. -1.
    10030    2    1    2    0    0  0.00000000000E+00  0.00000000000E+00 -0.15555271296E+04  0.21611774385E+04  0.15003410511E+04 0.  0.
        4    1    3    3  502    0  0.43940613613E+03  0.21099109774E+03 -0.15991517692E+04  0.16717903546E+04  0.12699999809E+01 0. -1.
       -4    1    3    3    0  502 -0.43940613613E+03 -0.21099109774E+03  0.43624639647E+02  0.48938708389E+03  0.12699999809E+01 0.  1.
</event>
<event>
 5   0  0.1216921E-04  0.1499336E+04  0.7818609E-02  0.8884895E-01
       -2   -1    0    0    0  501  0.00000000000E+00  0.00000000000E+00  0.48277159210E+03  0.48277159211E+03  0.25500000920E-02 0. -1.
        2   -1    0    0  501    0  0.00000000000E+00  0.00000000000E+00 -0.11641154862E+04  0.11641154862E+04  0.25500000920E-02 0.  1.
    10030    2    1    2    0    0  0.00000000000E+00  0.00000000000E+00 -0.68134389411E+03  0.16468870783E+04  0.14993357018E+04 0.  0.
        4    1    3    3  502    0 -0.16110033864E+03  0.17406694284E+03  0.44047345015E+03  0.50027101944E+03  0.12699999809E+01 0. -1.
       -4    1    3    3    0  502  0.16110033864E+03 -0.17406694284E+03 -0.11218173443E+04  0.11466160589E+04  0.12699999809E+01 0.  1.
</event>
<event>
 5   0  0.1219810E-04  0.1497336E+04  0.7818609E-02  0.8886226E-01
       -2   -1    0    0    0  501  0.00000000000E+00  0.00000000000E+00  0.30166769180E+03  0.30166769181E+03  0.25500000920E-02 0. -1.
        2   -1    0    0  501    0  0.00000000000E+00  0.00000000000E+00 -0.18580176685E+04  0.18580176685E+04  0.25500000920E-02 0.  1.
    10030    2    1    2    0    0  0.00000000000E+00  0.00000000000E+00 -0.15563499767E+04  0.21596853603E+04  0.14973361699E+04 0.  0.
        1    1    3    3  502    0  0.56600727400E+03 -0.27282335794E+02 -0.14838894482E+04  0.15884068920E+04  0.50400001928E-02 0.  1.
       -1    1    3    3    0  502 -0.56600727400E+03  0.27282335794E+02 -0.72460528431E+02  0.57127846824E+03  0.50400001928E-02 0. -1.
</event>
<event>
 5   0  0.1254487E-04  0.1500534E+04  0.7818609E-02  0.8884098E-01
        2   -1    0    0  501    0  0.00000000000E+00  0.00000000000E+00  0.13411592868E+04  0.13411592868E+04  0.25500000920E-02 0.  1.
       -2   -1    0    0    0  501  0.00000000000E+00  0.00000000000E+00 -0.41971212385E+03  0.41971212386E+03  0.25500000920E-02 0. -1.
    10030    2    1    2    0    0  0.00000000000E+00  0.00000000000E+00  0.92144716293E+03  0.17608714106E+04  0.15005343218E+04 0.  0.
        5    1    3    3  502    0  0.61665459104E+03  0.36758636943E+03  0.71647065899E+03  0.10142657043E+04  0.46999998093E+01 0.  1.
       -5    1    3    3    0  502 -0.61665459104E+03 -0.36758636943E+03  0.20497650394E+03  0.74660570639E+03  0.46999998093E+01 0. -1.
</event>
<event>
 5   0  0.1228286E-04  0.1498157E+04  0.7818609E-02  0.8885680E-01
       -2   -1    0    0    0  501  0.00000000000E+00  0.00000000000E+00  0.33693077375E+03  0.33693077376E+03  0.25500000920E-02 0.  1.
        2   -1    0    0  501    0  0.00000000000E+00  0.00000000000E+00 -0.16653818909E+04  0.16653818909E+04  0.25500000920E-02 0. -1.
    10030    2    1    2    0    0  0.00000000000E+00  0.00000000000E+00 -0.13284511172E+04  0.20023126647E+04  0.14981567463E+04 0.  0.
        2    1    3    3  502    0 -0.41642898892E+03  0.58647812023E+03 -0.38467696003E+03  0.81568747196E+03  0.25500000920E-02 0.  1.
       -2    1    3    3    0  502  0.41642898892E+03 -0.58647812023E+03 -0.94377415714E+03  0.11866251927E+04  0.25500000920E-02 0. -1.
</event>
<event>
 5   0  0.6509279E-05  0.1501851E+04  0.7818609E-02  0.8883223E-01
       -1   -1    0    0    0  501  0.00000000000E+00  0.00000000000E+00  0.81647781716E+03  0.81647781718E+03  0.50400001928E-02 0.  1.
        1   -1    0    0  501    0  0.00000000000E+00  0.00000000000E+00 -0.69063627024E+03  0.69063627026E+03  0.50400001928E-02 0. -1.
    10030    2    1    2    0    0  0.00000000000E+00  0.00000000000E+00  0.12584154693E+03  0.15071140874E+04  0.15018511170E+04 0.  0.
        2    1    3    3  502    0 -0.13102198078E+03  0.29808282150E+03  0.74195223875E+03  0.81025505398E+03  0.25500000920E-02 0.  1.
       -2    1    3    3    0  502  0.13102198078E+03 -0.29808282150E+03 -0.61611069182E+03  0.69685903345E+03  0.25500000920E-02 0. -1.
</event>
<event>
 5   0  0.6668433E-05  0.1497945E+04  0.7818609E-02  0.8885820E-01
       -1   -1    0    0    0  501  0.00000000000E+00  0.00000000000E+00  0.50359525958E+03  0.50359525961E+03  0.50400001928E-02 0.  1.
        1   -1    0    0  501    0  0.00000000000E+00  0.00000000000E+00 -0.11139105137E+04  0.11139105137E+04  0.50400001928E-02 0. -1.
    10030    2    1    2    0    0  0.00000000000E+00  0.00000000000E+00 -0.61031525408E+03  0.16175057733E+04  0.14979453319E+04 0.  0.
        1    1    3    3  502    0 -0.95371821827E-02 -0.58087533003E+03  0.20538415776E+03  0.61611589934E+03  0.50400001928E-02 0.  1.
       -1    1    3    3    0  502  0.95371821827E-02  0.58087533003E+03 -0.81569941184E+03  0.10013898739E+04  0.50400001928E-02 0. -1.
</event>
<event>
 5   0  0.1254487E-04  0.1497807E+04  0.7818609E-02  0.8885913E-01
        2   -1    0    0  501    0  0.00000000000E+00  0.00000000000E+00  0.69210318648E+03  0.69210318649E+03  0.25500000920E-02 0.  1.
       -2   -1    0    0    0  501  0.00000000000E+00  0.00000000000E+00 -0.81036494406E+03  0.81036494406E+03  0.25500000920E-02 0. -1.
    10030    2    1    2    0    0  0.00000000000E+00  0.00000000000E+00 -0.11826175758E+03  0.15024681306E+04  0.14978066097E+04 0.  0.
        5    1    3    3  502    0 -0.46179156005E+03 -0.43295659838E+03  0.34227850177E+03  0.71963846742E+03  0.46999998093E+01 0.  1.
       -5    1    3    3    0  502  0.46179156005E+03  0.43295659838E+03 -0.46054025935E+03  0.78282966314E+03  0.46999998093E+01 0. -1.
</event>
<event>
 5   0  0.1219810E-04  0.1503959E+04  0.7818609E-02  0.8881824E-01
        2   -1    0    0  501    0  0.00000000000E+00  0.00000000000E+00  0.15676869651E+04  0.15676869651E+04  0.25500000920E-02 0. -1.
       -2   -1    0    0    0  501  0.00000000000E+00  0.00000000000E+00 -0.36070558086E+03  0.36070558087E+03  0.25500000920E-02 0.  1.
    10030    2    1    2    0    0  0.00000000000E+00  0.00000000000E+00  0.12069813842E+04  0.19283925460E+04  0.15039593577E+04 0.  0.
        1    1    3    3  502    0 -0.50874603900E+03 -0.54944408136E+03  0.69197350094E+03  0.10195776855E+04  0.50400001928E-02 0.  1.
       -1    1    3    3    0  502  0.50874603900E+03  0.54944408136E+03  0.51500788331E+03  0.90881486049E+03  0.50400001928E-02 0. -1.
</event>
<event>
 5   0  0.6364378E-05  0.1499055E+04  0.7818609E-02  0.8885081E-01
        1   -1    0    0  501    0  0.00000000000E+00  0.00000000000E+00  0.15191021037E+04  0.15191021037E+04  0.50400001928E-02 0. -1.
       -1   -1    0    0    0  501  0.00000000000E+00  0.00000000000E+00 -0.36981830537E+03  0.36981830540E+03  0.50400001928E-02 0.  1.
    10030    2    1    2    0    0  0.00000000000E+00  0.00000000000E+00  0.11492837983E+04  0.18889204091E+04  0.14990553902E+04 0.  0.
        5    1    3    3  502    0 -0.20444546381E+03 -0.63417852353E+03  0.10071048938E+04  0.12075854854E+04  0.46999998093E+01 0. -1.
       -5    1    3    3    0  502  0.20444546381E+03  0.63417852353E+03  0.14217890450E+03  0.68133492370E+03  0.46999998093E+01 0.  1.
</event>
<event>
 5   0  0.6361716E-05  0.1498884E+04  0.7818609E-02  0.8885196E-01
       -1   -1    0    0    0  501  0.00000000000E+00  0.00000000000E+00  0.39322317135E+03  0.39322317139E+03  0.50400001928E-02 0. -1.
        1   -1    0    0  501    0  0.00000000000E+00  0.00000000000E+00 -0.14283570612E+04  0.14283570612E+04  0.50400001928E-02 0.  1.
    10030    2    1    2    0    0  0.00000000000E+00  0.00000000000E+00 -0.10351338899E+04  0.18215802326E+04  0.14988837093E+04 0.  0.
        3    1    3    3  502    0 -0.28212501392E+03 -0.22583868478E+03  0.28033949839E+03  0.45737061513E+03  0.10100000352E+00 0. -1.
       -3    1    3    3    0  502  0.28212501392E+03  0.22583868478E+03 -0.13154733883E+04  0.13642096175E+04  0.10100000352E+00 0.  1.
</event>
<event>
 5   0  0.1254487E-04  0.1500884E+04  0.7818609E-02  0.8883865E-01
        2   -1    0    0  501    0  0.00000000000E+00  0.00000000000E+00  0.21183436993E+04  0.21183436993E+04  0.25500000920E-02 0. -1.
       -2   -1    0    0    0  501  0.00000000000E+00  0.00000000000E+00 -0.26585086136E+03  0.26585086137E+03  0.25500000920E-02 0.  1.
    10030    2    1    2    0    0  0.00000000000E+00  0.00000000000E+00  0.18524928379E+04  0.23841945607E+04  0.15008844021E+04 0.  0.
        5    1    3    3  502    0 -0.20240147739E+03  0.23208539896E+03 -0.16083437087E+03  0.34744751447E+03  0.46999998093E+01 0.  1.
       -5    1    3    3    0  502  0.20240147739E+03 -0.23208539896E+03  0.20133272088E+04  0.20367470462E+04  0.46999998093E+01 0. -1.
</event>
<event>
 5   0  0.6361716E-05  0.1499978E+04  0.7818609E-02  0.8884467E-01
       -1   -1    0    0    0  501  0.00000000000E+00  0.00000000000E+00  0.54448849784E+03  0.54448849787E+03  0.50400001928E-02 0.  1.
        1   -1    0    0  501    0  0.00000000000E+00  0.00000000000E+00 -0.10330495101E+04  0.10330495101E+04  0.50400001928E-02 0. -1.
    10030    2    1    2    0    0  0.00000000000E+00  0.00000000000E+00 -0.48856101223E+03  0.15775380080E+04  0.14999781011E+04 0.  0.
        3    1    3    3  502    0  0.68206330834E+03  0.52500602814E+02  0.79052200710E+02  0.68863337888E+03  0.10100000352E+00 0. -1.
       -3    1    3    3    0  502 -0.68206330834E+03 -0.52500602814E+02 -0.56761321294E+03  0.88890462907E+03  0.10100000352E+00 0.  1.
</event>
<event>
 5   0  0.1254487E-04  0.1503241E+04  0.7818609E-02  0.8882301E-01
        2   -1    0    0  501    0  0.00000000000E+00  0.00000000000E+00  0.10030949733E+04  0.10030949733E+04  0.25500000920E-02 0.  1.
       -2   -1    0    0    0  501  0.00000000000E+00  0.00000000000E+00 -0.56319035099E+03  0.56319035099E+03  0.25500000920E-02 0. -1.
    10030    2    1    2    0    0  0.00000000000E+00  0.00000000000E+00  0.43990462229E+03  0.15662853243E+04  0.15032410453E+04 0.  0.
        5    1    3    3  502    0 -0.10859273305E+03 -0.72703411107E+03  0.38317575575E+03  0.82898536183E+03  0.46999998093E+01 0.  1.
       -5    1    3    3    0  502  0.10859273305E+03  0.72703411107E+03  0.56728866532E+02  0.73729996245E+03  0.46999998093E+01 0. -1.
</event>
<event>
 5   0  0.6509279E-05  0.1496350E+04  0.7818609E-02  0.8886884E-01
        1   -1    0    0  501    0  0.00000000000E+00  0.00000000000E+00  0.34987064171E+03  0.34987064174E+03  0.50400001928E-02 0.  1.
       -1   -1    0    0    0  501  0.00000000000E+00  0.00000000000E+00 -0.15999221817E+04  0.15999221817E+04  0.50400001928E-02 0. -1.
    10030    2    1    2    0    0  0.00000000000E+00  0.00000000000E+00 -0.12500515400E+04  0.19497928235E+04  0.14963499597E+04 0.  0.
        2    1    3    3  502    0  0.52883348946E+03  0.14773047214E+03  0.37187474219E+02  0.55033813262E+03  0.25500000920E-02 0.  1.
       -2    1    3    3    0  502 -0.52883348946E+03 -0.14773047214E+03 -0.12872390142E+04  0.13994546909E+04  0.25500000920E-02 0. -1.
</event>
<event>
 5   0  0.1219810E-04  0.1497383E+04  0.7818609E-02  0.8886195E-01
       -2   -1    0    0    0  501  0.00000000000E+00  0.00000000000E+00  0.55925006094E+03  0.55925006095E+03  0.25500000920E-02 0. -1.
        2   -1    0    0  501    0  0.00000000000E+00  0.00000000000E+00 -0.10023047812E+04  0.10023047812E+04  0.25500000920E-02 0.  1.
    10030    2    1    2    0    0  0.00000000000E+00  0.00000000000E+00 -0.44305472028E+03  0.15615548422E+04  0.14973830639E+04 0.  0.
        1    1    3    3  502    0  0.18585050449E+03 -0.39877157580E+02  0.53366771565E+03  0.56650845401E+03  0.50400001928E-02 0. -1.
       -1    1    3    3    0  502 -0.18585050449E+03  0.39877157580E+02 -0.97672243592E+03  0.99504638815E+03  0.50400001928E-02 0.  1.
</event>
<event>
 5   0  0.6509279E-05  0.1500677E+04  0.7818609E-02  0.8884003E-01
       -1   -1    0    0    0  501  0.00000000000E+00  0.00000000000E+00  0.70225274369E+03  0.70225274371E+03  0.50400001928E-02 0. -1.
        1   -1    0    0  501    0  0.00000000000E+00  0.00000000000E+00 -0.80171716638E+03  0.80171716639E+03  0.50400001928E-02 0.  1.
    10030    2    1    2    0    0  0.00000000000E+00  0.00000000000E+00 -0.99464422684E+02  0.15039699101E+04  0.15006772868E+04 0.  0.
        2    1    3    3  502    0 -0.29398470855E+02  0.66565272263E+02  0.69870810374E+03  0.70248716699E+03  0.25500000920E-02 0. -1.
       -2    1    3    3    0  502  0.29398470855E+02 -0.66565272263E+02 -0.79817252642E+03  0.80148274311E+03  0.25500000920E-02 0.  1.
</event>
<event>
 5   0  0.1216921E-04  0.1498810E+04  0.7818609E-02  0.8885245E-01
       -2   -1    0    0    0  501  0.00000000000E+00  0.00000000000E+00  0.49561314777E+03  0.49561314778E+03  0.25500000920E-02 0. -1.
        2   -1    0    0  501    0  0.00000000000E+00  0.00000000000E+00 -0.11331575297E+04  0.11331575297E+04  0.25500000920E-02 0.  1.
    10030    2    1    2    0    0  0.00000000000E+00  0.00000000000E+00 -0.63754438192E+03  0.16287706775E+04  0.14988098882E+04 0.  0.
        4    1    3    3  502    0 -0.56197341190E+03 -0.38779257138E+03  0.16894294083E+02  0.68299650377E+03  0.12699999809E+01 0. -1.
       -4    1    3    3    0  502  0.56197341190E+03  0.38779257138E+03 -0.65443867600E+03  0.94577417370E+03  0.12699999809E+01 0.  1.
</event>
<event>
 5   0  0.6542036E-05  0.1500024E+04  0.7818609E-02  0.8884437E-01
        1   -1    0    0  501    0  0.00000000000E+00  0.00000000000E+00  0.74010965650E+03  0.74010965652E+03  0.50400001928E-02 0.  1.
       -1   -1    0    0    0  501  0.00000000000E+00  0.00000000000E+00 -0.76004728223E+03  0.76004728225E+03  0.50400001928E-02 0. -1.
    10030    2    1    2    0    0  0.00000000000E+00  0.00000000000E+00 -0.19937625730E+02  0.15001569388E+04  0.15000244438E+04 0.  0.
        4    1    3    3  502    0  0.50611098245E+03  0.47279397228E+03  0.27786601343E+03  0.74625304093E+03  0.12699999809E+01 0.  1.
       -4    1    3    3    0  502 -0.50611098245E+03 -0.47279397228E+03 -0.29780363916E+03  0.75390389784E+03  0.12699999809E+01 0. -1.
</event>
<event>
 5   0  0.6509279E-05  0.1497520E+04  0.7818609E-02  0.8886103E-01
       -1   -1    0    0    0  501  0.00000000000E+00  0.00000000000E+00  0.50562468173E+03  0.50562468176E+03  0.50400001928E-02 0. -1.
        1   -1    0    0  501    0  0.00000000000E+00  0.00000000000E+00 -0.11088103836E+04  0.11088103836E+04  0.50400001928E-02 0.  1.
    10030    2    1    2    0    0  0.00000000000E+00  0.00000000000E+00 -0.60318570183E+03  0.16144350653E+04  0.14975204804E+04 0.  0.
        2    1    3    3  502    0 -0.58206776555E+03  0.96729314377E+02 -0.79853902032E+03  0.99288670599E+03  0.25500000920E-02 0.  1.
       -2    1    3    3    0  502  0.58206776555E+03 -0.96729314377E+02  0.19535331849E+03  0.62154835935E+03  0.25500000920E-02 0. -1.
</event>
<event>
 5   0  0.6364378E-05  0.1498961E+04  0.7818609E-02  0.8885144E-01
       -1   -1    0    0    0  501  0.00000000000E+00  0.00000000000E+00  0.51518843219E+03  0.51518843222E+03  0.50400001928E-02 0.  1.
        1   -1    0    0  501    0  0.00000000000E+00  0.00000000000E+00 -0.10903212744E+04  0.10903212744E+04  0.50400001928E-02 0. -1.
    10030    2    1    2    0    0  0.00000000000E+00  0.00000000000E+00 -0.57513284224E+03  0.16055097067E+04  0.14989608507E+04 0.  0.
        5    1    3    3  502    0  0.16051095838E+03  0.14976696730E+03 -0.10550956865E+04  0.10777026073E+04  0.46999998093E+01 0. -1.
       -5    1    3    3    0  502 -0.16051095838E+03 -0.14976696730E+03  0.47996284423E+03  0.52780709932E+03  0.46999998093E+01 0.  1.
</event>
<event>
 5   0  0.6509279E-05  0.1499372E+04  0.7818609E-02  0.8884870E-01
       -1   -1    0    0    0  501  0.00000000000E+00  0.00000000000E+00  0.59387153647E+03  0.59387153650E+03  0.50400001928E-02 0.  1.
        1   -1    0    0  501    0  0.00000000000E+00  0.00000000000E+00 -0.94638221154E+03  0.94638221156E+03  0.50400001928E-02 0. -1.
    10030    2    1    2    0    0  0.00000000000E+00  0.00000000000E+00 -0.35251067507E+03  0.15402537481E+04  0.14993724795E+04 0.  0.
        2    1    3    3  502    0  0.42460238250E+03  0.22840053611E+03 -0.76599478566E+03  0.90509778466E+03  0.25500000920E-02 0. -1.
       -2    1    3    3    0  502 -0.42460238250E+03 -0.22840053611E+03  0.41348411059E+03  0.63515596340E+03  0.25500000920E-02 0.  1.
</event>
<event>
 5   0  0.6361716E-05  0.1501237E+04  0.7818609E-02  0.8883630E-01
       -1   -1    0    0    0  501  0.00000000000E+00  0.00000000000E+00  0.38271470994E+03  0.38271470997E+03  0.50400001928E-02 0. -1.
        1   -1    0    0  501    0  0.00000000000E+00  0.00000000000E+00 -0.14721892847E+04  0.14721892847E+04  0.50400001928E-02 0.  1.
    10030    2    1    2    0    0  0.00000000000E+00  0.00000000000E+00 -0.10894745747E+04  0.18549039947E+04  0.15012374830E+04 0.  0.
        3    1    3    3  502    0 -0.26641160092E+02  0.66815011097E+03 -0.96609504604E+03  0.11749357303E+04  0.10100000352E+00 0.  1.
       -3    1    3    3    0  502  0.26641160092E+02 -0.66815011097E+03 -0.12337952870E+03  0.67996826433E+03  0.10100000352E+00 0. -1.
</event>
<event>
 5   0  0.6364378E-05  0.1501480E+04  0.7818609E-02  0.8883469E-01
        1   -1    0    0  501    0  0.00000000000E+00  0.00000000000E+00  0.81184596490E+03  0.81184596492E+03  0.50400001928E-02 0. -1.
       -1   -1    0    0    0  501  0.00000000000E+00  0.00000000000E+00 -0.69423378995E+03  0.69423378997E+03  0.50400001928E-02 0.  1.
    10030    2    1    2    0    0  0.00000000000E+00  0.00000000000E+00  0.11761217495E+03  0.15060797549E+04  0.15014804709E+04 0.  0.
        5    1    3    3  502    0  0.43272047905E+02  0.57977969427E+03 -0.41759279127E+03  0.71583712766E+03  0.46999998093E+01 0.  1.
       -5    1    3    3    0  502 -0.43272047905E+02 -0.57977969427E+03  0.53520496622E+03  0.79024262722E+03  0.46999998093E+01 0. -1.
</event>
<event>
 5   0  0.6364378E-05  0.1500891E+04  0.7818609E-02  0.8883860E-01
       -1   -1    0    0    0  501  0.00000000000E+00  0.00000000000E+00  0.51248708435E+03  0.51248708437E+03  0.50400001928E-02 0.  1.
        1   -1    0    0  501    0  0.00000000000E+00  0.00000000000E+00 -0.10988935008E+04  0.10988935008E+04  0.50400001928E-02 0. -1.
    10030    2    1    2    0    0  0.00000000000E+00  0.00000000000E+00 -0.58640641645E+03  0.16113805852E+04  0.15008913702E+04 0.  0.
        5    1    3    3  502    0 -0.39982256094E+03 -0.46487095597E+03  0.17129357034E+03  0.63665270217E+03  0.46999998093E+01 0.  1.
       -5    1    3    3    0  502  0.39982256094E+03  0.46487095597E+03 -0.75769998679E+03  0.97472788301E+03  0.46999998093E+01 0. -1.
</event>
<event>
 5   0  0.6364378E-05  0.1502084E+04  0.7818609E-02  0.8883068E-01
       -1   -1    0    0    0  501  0.00000000000E+00  0.00000000000E+00  0.39462942500E+03  0.39462942503E+03  0.50400001928E-02 0.  1.
        1   -1    0    0  501    0  0.00000000000E+00  0.00000000000E+00 -0.14293521904E+04  0.14293521904E+04  0.50400001928E-02 0. -1.
    10030    2    1    2    0    0  0.00000000000E+00  0.00000000000E+00 -0.10347227654E+04  0.18239816155E+04  0.15020844624E+04 0.  0.
        5    1    3    3  502    0 -0.64930725786E+03  0.14138277203E+03 -0.94228553824E+03  0.11530451548E+04  0.46999998093E+01 0. -1.
       -5    1    3    3    0  502  0.64930725786E+03 -0.14138277203E+03 -0.92437227187E+02  0.67093646071E+03  0.46999998093E+01 0.  1.
</event>
<event>
 5   0  0.1216921E-04  0.1501461E+04  0.7818609E-02  0.8883482E-01
       -2   -1    0    0    0  501  0.00000000000E+00  0.00000000000E+00  0.37035666759E+03  0.37035666760E+03  0.25500000920E-02 0.  1.
        2   -1    0    0  501    0  0.00000000000E+00  0.00000000000E+00 -0.15217652647E+04  0.15217652647E+04  0.25500000920E-02 0. -1.
    10030    2    1    2    0    0  0.00000000000E+00  0.00000000000E+00 -0.11514085971E+04  0.18921219323E+04  0.15014605054E+04 0.  0.
        4    1    3    3  502    0  0.99209233990E+02 -0.56428697048E+03 -0.11870343410E+04  0.13180722274E+04  0.12699999809E+01 0. -1.
       -4    1    3    3    0  502 -0.99209233990E+02  0.56428697048E+03  0.35625743842E+02  0.57404970490E+03  0.12699999809E+01 0.  1.
</event>
<event>
 5   0  0.6542036E-05  0.1497496E+04  0.7818609E-02  0.8886120E-01
       -1   -1    0    0    0  501  0.00000000000E+00  0.00000000000E+00  0.54340761291E+03  0.54340761293E+03  0.50400001928E-02 0. -1.
        1   -1    0    0  501    0  0.00000000000E+00  0.00000000000E+00 -0.10316815079E+04  0.10316815079E+04  0.50400001928E-02 0.  1.
    10030    2    1    2    0    0  0.00000000000E+00  0.00000000000E+00 -0.48827389497E+03  0.15750891208E+04  0.14974960240E+04 0.  0.
        4    1    3    3  502    0  0.56708602887E+03  0.24225240294E+02 -0.75775087672E+03  0.94676366136E+03  0.12699999809E+01 0.  1.
       -4    1    3    3    0  502 -0.56708602887E+03 -0.24225240294E+02  0.26947698176E+03  0.62832545946E+03  0.12699999809E+01 0. -1.
</event>
<event>
 5   0  0.1186664E-04  0.1501516E+04  0.7818609E-02  0.8883446E-01
        2   -1    0    0  501    0  0.00000000000E+00  0.00000000000E+00  0.17703559467E+04  0.17703559467E+04  0.25500000920E-02 0. -1.
       -2   -1    0    0    0  501  0.00000000000E+00  0.00000000000E+00 -0.31837509583E+03  0.31837509584E+03  0.25500000920E-02 0.  1.
    10030    2    1    2    0    0  0.00000000000E+00  0.00000000000E+00  0.14519808509E+04  0.20887310426E+04  0.15015155600E+04 0.  0.
        3    1    3    3  502    0  0.40265493898E+03  0.54167705639E+03  0.26863918260E+03  0.72643792160E+03  0.10100000352E+00 0.  1.
       -3    1    3    3    0  502 -0.40265493898E+03 -0.54167705639E+03  0.11833416683E+04  0.13622931210E+04  0.10100000352E+00 0. -1.
</event>
<event>
 5   0  0.1219810E-04  0.1499708E+04  0.7818609E-02  0.8884647E-01
        2   -1    0    0  501    0  0.00000000000E+00  0.00000000000E+00  0.10161279729E+04  0.10161279729E+04  0.25500000920E-02 0.  1.
       -2   -1    0    0    0  501  0.00000000000E+00  0.00000000000E+00 -0.55335647175E+03  0.55335647175E+03  0.25500000920E-02 0. -1.
    10030    2    1    2    0    0  0.00000000000E+00  0.00000000000E+00  0.46277150119E+03  0.15694844447E+04  0.14997079582E+04 0.  0.
        1    1    3    3  502    0  0.60393982247E+02  0.27464061435E+03 -0.49608664631E+03  0.57024280865E+03  0.50400001928E-02 0. -1.
       -1    1    3    3    0  502 -0.60393982247E+02 -0.27464061435E+03  0.95885814750E+03  0.99924163604E+03  0.50400001928E-02 0.  1.
</event>
<event>
 5   0  0.6542036E-05  0.1500362E+04  0.7818609E-02  0.8884212E-01
        1   -1    0    0  501    0  0.00000000000E+00  0.00000000000E+00  0.18166115257E+04  0.18166115257E+04  0.50400001928E-02 0. -1.
       -1   -1    0    0    0  501  0.00000000000E+00  0.00000000000E+00 -0.30979193453E+03  0.30979193457E+03  0.50400001928E-02 0.  1.
    10030    2    1    2    0    0  0.00000000000E+00  0.00000000000E+00  0.15068195912E+04  0.21264034603E+04  0.15003620882E+04 0.  0.
        4    1    3    3  502    0  0.31008091484E+03 -0.60579676519E+03  0.30606246175E+03  0.74620086964E+03  0.12699999809E+01 0.  1.
       -4    1    3    3    0  502 -0.31008091484E+03  0.60579676519E+03  0.12007571295E+04  0.13802025907E+04  0.12699999809E+01 0. -1.
</event>
<event>
 5   0  0.1219810E-04  0.1499054E+04  0.7818609E-02  0.8885083E-01
        2   -1    0    0  501    0  0.00000000000E+00  0.00000000000E+00  0.82570921862E+03  0.82570921862E+03  0.25500000920E-02 0.  1.
       -2   -1    0    0    0  501  0.00000000000E+00  0.00000000000E+00 -0.68037318317E+03  0.68037318318E+03  0.25500000920E-02 0. -1.
    10030    2    1    2    0    0  0.00000000000E+00  0.00000000000E+00  0.14533603545E+03  0.15060824018E+04  0.14990535807E+04 0.  0.
        1    1    3    3  502    0 -0.57425047962E+03  0.40031427235E+03 -0.19649725289E+03  0.72706691605E+03  0.50400001928E-02 0. -1.
       -1    1    3    3    0  502  0.57425047962E+03 -0.40031427235E+03  0.34183328834E+03  0.77901548575E+03  0.50400001928E-02 0.  1.
</event>
<event>
 5   0  0.1186664E-04  0.1499734E+04  0.7818609E-02  0.8884630E-01
        2   -1    0    0  501    0  0.00000000000E+00  0.00000000000E+00  0.12114364320E+04  0.12114364320E+04  0.25500000920E-02 0. -1.
       -2   -1    0    0    0  501  0.00000000000E+00  0.00000000000E+00 -0.46415992221E+03  0.46415992221E+03  0.25500000920E-02 0.  1.
    10030    2    1    2    0    0  0.00000000000E+00  0.00000000000E+00  0.74727650979E+03  0.16755963542E+04  0.14997336297E+04 0.  0.
        3    1    3    3  502    0 -0.15660612656E+03 -0.61561157544E+03  0.81886025224E+03  0.10363567019E+04  0.10100000352E+00 0.  1.
       -3    1    3    3    0  502  0.15660612656E+03  0.61561157544E+03 -0.71583742452E+02  0.63923965230E+03  0.10100000352E+00 0. -1.
</event>
<event>
 5   0  0.6509279E-05  0.1500488E+04  0.7818609E-02  0.8884128E-01
       -1   -1    0    0    0  501  0.00000000000E+00  0.00000000000E+00  0.30660912113E+03  0.30660912117E+03  0.50400001928E-02 0.  1.
        1   -1    0    0  501    0  0.00000000000E+00  0.00000000000E+00 -0.18357778519E+04  0.18357778519E+04  0.50400001928E-02 0. -1.
    10030    2    1    2    0    0  0.00000000000E+00  0.00000000000E+00 -0.15291687308E+04  0.21423869731E+04  0.15004882323E+04 0.  0.
        2    1    3    3  502    0  0.32958744006E+03  0.21895836865E+03  0.14550989867E+03  0.42159670120E+03  0.25500000920E-02 0.  1.
       -2    1    3    3    0  502 -0.32958744006E+03 -0.21895836865E+03 -0.16746786294E+04  0.17207902719E+04  0.25500000920E-02 0. -1.
</event>
<event>
 5   0  0.1186664E-04  0.1523926E+04  0.7818609E-02  0.8868696E-01
       -2   -1    0    0    0  501  0.00000000000E+00  0.00000000000E+00  0.41191450400E+03  0.41191450401E+03  0.25500000920E-02 0.  1.
        2   -1    0    0  501    0  0.00000000000E+00  0.00000000000E+00 -0.14094858850E+04  0.14094858850E+04  0.25500000920E-02 0. -1.
    10030    2    1    2    0    0  0.00000000000E+00  0.00000000000E+00 -0.99757138097E+03  0.18214003890E+04  0.15239260864E+04 0.  0.
        3    1    3    3  502    0  0.58513020954E+03  0.48244579057E+03 -0.41049939968E+03  0.86234625893E+03  0.10100000352E+00 0. -1.
       -3    1    3    3    0  502 -0.58513020954E+03 -0.48244579057E+03 -0.58707198129E+03  0.95905413006E+03  0.10100000352E+00 0.  1.
</event>
<event>
 5   0  0.6668433E-05  0.1504756E+04  0.7818609E-02  0.8881296E-01
        1   -1    0    0  501    0  0.00000000000E+00  0.00000000000E+00  0.66928162256E+03  0.66928162258E+03  0.50400001928E-02 0.  1.
       -1   -1    0    0    0  501  0.00000000000E+00  0.00000000000E+00 -0.84579167686E+03  0.84579167687E+03  0.50400001928E-02 0. -1.
    10030    2    1    2    0    0  0.00000000000E+00  0.00000000000E+00 -0.17651005430E+03  0.15150732995E+04  0.15047562272E+04 0.  0.
        1    1    3    3  502    0 -0.12922342935E+03 -0.74116460310E+03 -0.95314681054E+02  0.75835911811E+03  0.50400001928E-02 0.  1.
       -1    1    3    3    0  502  0.12922342935E+03  0.74116460310E+03 -0.81195373245E+02  0.75671418134E+03  0.50400001928E-02 0. -1.
</event>
<event>
 5   0  0.6509279E-05  0.1497282E+04  0.7818609E-02  0.8886263E-01
       -1   -1    0    0    0  501  0.00000000000E+00  0.00000000000E+00  0.66335284548E+03  0.66335284550E+03  0.50400001928E-02 0.  1.
        1   -1    0    0  501    0  0.00000000000E+00  0.00000000000E+00 -0.84489436519E+03  0.84489436520E+03  0.50400001928E-02 0. -1.
    10030    2    1    2    0    0  0.00000000000E+00  0.00000000000E+00 -0.18154151971E+03  0.15082472107E+04  0.14972816453E+04 0.  0.
        2    1    3    3  502    0  0.19977029901E+03  0.58988998076E+03  0.32770489789E+03  0.70375340985E+03  0.25500000920E-02 0.  1.
       -2    1    3    3    0  502 -0.19977029901E+03 -0.58988998076E+03 -0.50924641760E+03  0.80449380085E+03  0.25500000920E-02 0. -1.
</event>
<event>
 5   0  0.6668433E-05  0.1508216E+04  0.7818609E-02  0.8879008E-01
        1   -1    0    0  501    0  0.00000000000E+00  0.00000000000E+00  0.12286865190E+04  0.12286865190E+04  0.50400001928E-02 0. -1.
       -1   -1    0    0    0  501  0.00000000000E+00  0.00000000000E+00 -0.46283453860E+03  0.46283453863E+03  0.50400001928E-02 0.  1.
    10030    2    1    2    0    0  0.00000000000E+00  0.00000000000E+00  0.76585198043E+03  0.16915210577E+04  0.15082155790E+04 0.  0.
        1    1    3    3  502    0  0.28332564758E+03 -0.30509869297E+02  0.11659766160E+04  0.12002940239E+04  0.50400001928E-02 0. -1.
       -1    1    3    3    0  502 -0.28332564758E+03  0.30509869297E+02 -0.40012463557E+03  0.49122703378E+03  0.50400001928E-02 0.  1.
</event>
<event>
 5   0  0.1219810E-04  0.1500659E+04  0.7818609E-02  0.8884015E-01
       -2   -1    0    0    0  501  0.00000000000E+00  0.00000000000E+00  0.60693176174E+03  0.60693176174E+03  0.25500000920E-02 0.  1.
        2   -1    0    0  501    0  0.00000000000E+00  0.00000000000E+00 -0.92760783922E+03  0.92760783922E+03  0.25500000920E-02 0. -1.
    10030    2    1    2    0    0  0.00000000000E+00  0.00000000000E+00 -0.32067607748E+03  0.15345396010E+04  0.15006594018E+04 0.  0.
        1    1    3    3  502    0  0.10796711772E+03 -0.59854729976E+02 -0.91715213197E+03  0.92542288734E+03  0.50400001928E-02 0. -1.
       -1    1    3    3    0  502 -0.10796711772E+03  0.59854729976E+02  0.59647605449E+03  0.60911671362E+03  0.50400001928E-02 0.  1.
</event>
<event>
 5   0  0.6668433E-05  0.1496708E+04  0.7818609E-02  0.8886645E-01
        1   -1    0    0  501    0  0.00000000000E+00  0.00000000000E+00  0.10756799814E+04  0.10756799814E+04  0.50400001928E-02 0. -1.
       -1   -1    0    0    0  501  0.00000000000E+00  0.00000000000E+00 -0.52063200228E+03  0.52063200231E+03  0.50400001928E-02 0.  1.
    10030    2    1    2    0    0  0.00000000000E+00  0.00000000000E+00  0.55504797910E+03  0.15963119837E+04  0.14967076168E+04 0.  0.
        1    1    3    3  502    0 -0.25882052510E+03 -0.59259084752E+03  0.67926263207E+03  0.93784311062E+03  0.50400001928E-02 0. -1.
       -1    1    3    3    0  502  0.25882052510E+03  0.59259084752E+03 -0.12421465298E+03  0.65846887308E+03  0.50400001928E-02 0.  1.
</event>
<event>
 5   0  0.6542036E-05  0.1500720E+04  0.7818609E-02  0.8883974E-01
        1   -1    0    0  501    0  0.00000000000E+00  0.00000000000E+00  0.72764045560E+03  0.72764045562E+03  0.50400001928E-02 0.  1.
       -1   -1    0    0    0  501  0.00000000000E+00  0.00000000000E+00 -0.77378887334E+03  0.77378887335E+03  0.50400001928E-02 0. -1.
    10030    2    1    2    0    0  0.00000000000E+00  0.00000000000E+00 -0.46148417740E+02  0.15014293290E+04  0.15007199450E+04 0.  0.
        4    1    3    3  502    0 -0.14560826677E+03  0.17461844282E+03 -0.73849621238E+03  0.77270410671E+03  0.12699999809E+01 0. -1.
       -4    1    3    3    0  502  0.14560826677E+03 -0.17461844282E+03  0.69234779464E+03  0.72872522226E+03  0.12699999809E+01 0.  1.
</event>
<event>
 5   0  0.1228286E-04  0.1500765E+04  0.7818609E-02  0.8883945E-01
        2   -1    0    0  501    0  0.00000000000E+00  0.00000000000E+00  0.93998263259E+03  0.93998263260E+03  0.25500000920E-02 0. -1.
       -2   -1    0    0    0  501  0.00000000000E+00  0.00000000000E+00 -0.59902556078E+03  0.59902556078E+03  0.25500000920E-02 0.  1.
    10030    2    1    2    0    0  0.00000000000E+00  0.00000000000E+00  0.34095707182E+03  0.15390081934E+04  0.15007646366E+04 0.  0.
        2    1    3    3  502    0 -0.62691008096E+03  0.38413683220E+03  0.32428818607E+03  0.80357960594E+03  0.25500000920E-02 0. -1.
       -2    1    3    3    0  502  0.62691008096E+03 -0.38413683220E+03  0.16668885744E+02  0.73542858743E+03  0.25500000920E-02 0.  1.
</event>
<event>
 5   0  0.1228286E-04  0.1501455E+04  0.7818609E-02  0.8883486E-01
        2   -1    0    0  501    0  0.00000000000E+00  0.00000000000E+00  0.20865620150E+04  0.20865620150E+04  0.25500000920E-02 0. -1.
       -2   -1    0    0    0  501  0.00000000000E+00  0.00000000000E+00 -0.27010551620E+03  0.27010551621E+03  0.25500000920E-02 0.  1.
    10030    2    1    2    0    0  0.00000000000E+00  0.00000000000E+00  0.18164564988E+04  0.23566675312E+04  0.15014551744E+04 0.  0.
        2    1    3    3  502    0 -0.53918514490E+03 -0.46378733995E+03  0.53096293553E+03  0.88754772046E+03  0.25500000920E-02 0.  1.
       -2    1    3    3    0  502  0.53918514490E+03  0.46378733995E+03  0.12854935633E+04  0.14691198108E+04  0.25500000920E-02 0. -1.
</event>
<event>
 5   0  0.4462875E-05  0.1544595E+04  0.7818609E-02  0.8855328E-01
        4   -1    0    0  501    0  0.00000000000E+00  0.00000000000E+00  0.82401824498E+03  0.82401922366E+03  0.12699999809E+01 0.  1.
       -4   -1    0    0    0  501  0.00000000000E+00  0.00000000000E+00 -0.72382105521E+03  0.72382216936E+03  0.12699999809E+01 0. -1.
    10030    2    1    2    0    0  0.00000000000E+00  0.00000000000E+00  0.10019718977E+03  0.15478413930E+04  0.15445949311E+04 0.  0.
        3    1    3    3  502    0 -0.93942565342E+02 -0.16347487666E+03 -0.70040416996E+03  0.72533802629E+03  0.10100000352E+00 0. -1.
       -3    1    3    3    0  502  0.93942565342E+02  0.16347487666E+03  0.80060135973E+03  0.82250336673E+03  0.10100000352E+00 0.  1.
</event>
<event>
 5   0  0.1219810E-04  0.1495842E+04  0.7818609E-02  0.8887223E-01
        2   -1    0    0  501    0  0.00000000000E+00  0.00000000000E+00  0.15534077173E+04  0.15534077173E+04  0.25500000920E-02 0.  1.
       -2   -1    0    0    0  501  0.00000000000E+00  0.00000000000E+00 -0.36010224640E+03  0.36010224641E+03  0.25500000920E-02 0. -1.
    10030    2    1    2    0    0  0.00000000000E+00  0.00000000000E+00  0.11933054709E+04  0.19135099637E+04  0.14958417143E+04 0.  0.
        1    1    3    3  502    0  0.20348715059E+03  0.14962210762E+03 -0.30389585226E+03  0.39515374804E+03  0.50400001928E-02 0. -1.
       -1    1    3    3    0  502 -0.20348715059E+03 -0.14962210762E+03  0.14972013232E+04  0.15183562157E+04  0.50400001928E-02 0.  1.
</event>
<event>
 5   0  0.6361716E-05  0.1500455E+04  0.7818609E-02  0.8884150E-01
       -1   -1    0    0    0  501  0.00000000000E+00  0.00000000000E+00  0.61766059964E+03  0.61766059966E+03  0.50400001928E-02 0. -1.
        1   -1    0    0  501    0  0.00000000000E+00  0.00000000000E+00 -0.91124735952E+03  0.91124735953E+03  0.50400001928E-02 0.  1.
    10030    2    1    2    0    0  0.00000000000E+00  0.00000000000E+00 -0.29358675988E+03  0.15289079592E+04  0.15004553849E+04 0.  0.
        3    1    3    3  502    0  0.36918536240E+03  0.24629778942E+02  0.51822094636E+03  0.63675538260E+03  0.10100000352E+00 0. -1.
       -3    1    3    3    0  502 -0.36918536240E+03 -0.24629778942E+02 -0.81180770624E+03  0.89215257660E+03  0.10100000352E+00 0.  1.
</event>
<event>
 5   0  0.1216921E-04  0.1502279E+04  0.7818609E-02  0.8882939E-01
       -2   -1    0    0    0  501  0.00000000000E+00  0.00000000000E+00  0.29678562148E+03  0.29678562149E+03  0.25500000920E-02 0.  1.
        2   -1    0    0  501    0  0.00000000000E+00  0.00000000000E+00 -0.19010718455E+04  0.19010718455E+04  0.25500000920E-02 0. -1.
    10030    2    1    2    0    0  0.00000000000E+00  0.00000000000E+00 -0.16042862241E+04  0.21978574670E+04  0.15022793205E+04 0.  0.
        4    1    3    3  502    0  0.50180628208E+03  0.22668031084E+03 -0.15495930747E+04  0.16445162870E+04  0.12699999809E+01 0. -1.
       -4    1    3    3    0  502 -0.50180628208E+03 -0.22668031084E+03 -0.54693149352E+02  0.55334118005E+03  0.12699999809E+01 0.  1.
</event>
<event>
 5   0  0.4462875E-05  0.1501779E+04  0.7818609E-02  0.8883271E-01
       -4   -1    0    0    0  501  0.00000000000E+00  0.00000000000E+00  0.15607046963E+04  0.15607052131E+04  0.12699999809E+01 0.  1.
        4   -1    0    0  501    0  0.00000000000E+00  0.00000000000E+00 -0.36126797667E+03  0.36127020894E+03  0.12699999809E+01 0. -1.
    10030    2    1    2    0    0  0.00000000000E+00  0.00000000000E+00  0.11994367197E+04  0.19219754220E+04  0.15017793041E+04 0.  0.
        2    1    3    3  502    0  0.65459944800E+03 -0.28567722107E+03  0.30308274775E+03  0.77586794234E+03  0.25500000920E-02 0. -1.
       -2    1    3    3    0  502 -0.65459944800E+03  0.28567722107E+03  0.89635397192E+03  0.11461074797E+04  0.25500000920E-02 0.  1.
</event>
<event>
 5   0  0.1186664E-04  0.1499811E+04  0.7818609E-02  0.8884579E-01
        2   -1    0    0  501    0  0.00000000000E+00  0.00000000000E+00  0.14069224724E+04  0.14069224724E+04  0.25500000920E-02 0.  1.
       -2   -1    0    0    0  501  0.00000000000E+00  0.00000000000E+00 -0.39970812390E+03  0.39970812391E+03  0.25500000920E-02 0. -1.
    10030    2    1    2    0    0  0.00000000000E+00  0.00000000000E+00  0.10072143485E+04  0.18066305963E+04  0.14998111107E+04 0.  0.
        3    1    3    3  502    0  0.99714497396E+02  0.20045709425E+03 -0.35850995955E+03  0.42267650624E+03  0.10100000352E+00 0. -1.
       -3    1    3    3    0  502 -0.99714497396E+02 -0.20045709425E+03  0.13657243080E+04  0.13839540901E+04  0.10100000352E+00 0.  1.
</event>
<event>
 5   0  0.6668433E-05  0.1493929E+04  0.7818609E-02  0.8888500E-01
        1   -1    0    0  501    0  0.00000000000E+00  0.00000000000E+00  0.36968498017E+03  0.36968498020E+03  0.50400001928E-02 0. -1.
       -1   -1    0    0    0  501  0.00000000000E+00  0.00000000000E+00 -0.15092744904E+04  0.15092744904E+04  0.50400001928E-02 0.  1.
    10030    2    1    2    0    0  0.00000000000E+00  0.00000000000E+00 -0.11395895103E+04  0.18789594706E+04  0.14939291952E+04 0.  0.
        1    1    3    3  502    0  0.35446506788E+03  0.65618212362E+03 -0.62219315437E+03  0.97125938095E+03  0.50400001928E-02 0. -1.
       -1    1    3    3    0  502 -0.35446506788E+03 -0.65618212362E+03 -0.51739635588E+03  0.90770008968E+03  0.50400001928E-02 0.  1.
</event>
<event>
 5   0  0.6509279E-05  0.1498888E+04  0.7818609E-02  0.8885192E-01
       -1   -1    0    0    0  501  0.00000000000E+00  0.00000000000E+00  0.28470207973E+03  0.28470207977E+03  0.50400001928E-02 0. -1.
        1   -1    0    0  501    0  0.00000000000E+00  0.00000000000E+00 -0.19728223994E+04  0.19728223994E+04  0.50400001928E-02 0.  1.
    10030    2    1    2    0    0  0.00000000000E+00  0.00000000000E+00 -0.16881203197E+04  0.22575244792E+04  0.14988884416E+04 0.  0.
        2    1    3    3  502    0 -0.60383139016E+03  0.37573710819E+03 -0.48803926058E+03  0.86253871918E+03  0.25500000920E-02 0. -1.
       -2    1    3    3    0  502  0.60383139016E+03 -0.37573710819E+03 -0.12000810591E+04  0.13949857600E+04  0.25500000920E-02 0.  1.
</event>
<event>
 5   0  0.6509279E-05  0.1524545E+04  0.7818609E-02  0.8868293E-01
        1   -1    0    0  501    0  0.00000000000E+00  0.00000000000E+00  0.71505115215E+03  0.71505115216E+03  0.50400001928E-02 0. -1.
       -1   -1    0    0    0  501  0.00000000000E+00  0.00000000000E+00 -0.81261197238E+03  0.81261197240E+03  0.50400001928E-02 0.  1.
    10030    2    1    2    0    0  0.00000000000E+00  0.00000000000E+00 -0.97560820235E+02  0.15276631246E+04  0.15245446889E+04 0.  0.
        2    1    3    3  502    0 -0.26927618991E+03 -0.58983638698E+03  0.35284174256E+03  0.73818285347E+03  0.25500000920E-02 0.  1.
       -2    1    3    3    0  502  0.26927618991E+03  0.58983638698E+03 -0.45040256279E+03  0.78948027109E+03  0.25500000920E-02 0. -1.
</event>
<event>
 5   0  0.1228286E-04  0.1493695E+04  0.7818609E-02  0.8888657E-01
       -2   -1    0    0    0  501  0.00000000000E+00  0.00000000000E+00  0.42534249477E+03  0.42534249478E+03  0.25500000920E-02 0. -1.
        2   -1    0    0  501    0  0.00000000000E+00  0.00000000000E+00 -0.13113693412E+04  0.13113693412E+04  0.25500000920E-02 0.  1.
    10030    2    1    2    0    0  0.00000000000E+00  0.00000000000E+00 -0.88602684647E+03  0.17367118360E+04  0.14936948914E+04 0.  0.
        2    1    3    3  502    0 -0.72368570987E+03 -0.24825514829E+02 -0.23038386333E+03  0.75987764630E+03  0.25500000920E-02 0. -1.
       -2    1    3    3    0  502  0.72368570987E+03  0.24825514829E+02 -0.65564298315E+03  0.97683418972E+03  0.25500000920E-02 0.  1.
</event>
<event>
 5   0  0.1216921E-04  0.1500998E+04  0.7818609E-02  0.8883789E-01
        2   -1    0    0  501    0  0.00000000000E+00  0.00000000000E+00  0.15313946943E+04  0.15313946943E+04  0.25500000920E-02 0. -1.
       -2   -1    0    0    0  501  0.00000000000E+00  0.00000000000E+00 -0.36780128312E+03  0.36780128313E+03  0.25500000920E-02 0.  1.
    10030    2    1    2    0    0  0.00000000000E+00  0.00000000000E+00  0.11635934112E+04  0.18991959775E+04  0.15009982459E+04 0.  0.
        4    1    3    3  502    0  0.45310150024E+03  0.59812999257E+03  0.59909293284E+03  0.96019498677E+03  0.12699999809E+01 0.  1.
       -4    1    3    3    0  502 -0.45310150024E+03 -0.59812999257E+03  0.56450047835E+03  0.93900099068E+03  0.12699999809E+01 0. -1.
</event>
<event>
 5   0  0.1254487E-04  0.1498033E+04  0.7818609E-02  0.8885762E-01
        2   -1    0    0  501    0  0.00000000000E+00  0.00000000000E+00  0.82924232024E+03  0.82924232024E+03  0.25500000920E-02 0. -1.
       -2   -1    0    0    0  501  0.00000000000E+00  0.00000000000E+00 -0.67655220031E+03  0.67655220031E+03  0.25500000920E-02 0.  1.
    10030    2    1    2    0    0  0.00000000000E+00  0.00000000000E+00  0.15269011993E+03  0.15057945206E+04  0.14980329988E+04 0.  0.
        5    1    3    3  502    0  0.67016327119E+03  0.28167809406E+03  0.25767446580E+03  0.77128436977E+03  0.46999998093E+01 0.  1.
       -5    1    3    3    0  502 -0.67016327119E+03 -0.28167809406E+03 -0.10498434587E+03  0.73451015078E+03  0.46999998093E+01 0. -1.
</event>
<event>
 5   0  0.6668433E-05  0.1499164E+04  0.7818609E-02  0.8885009E-01
        1   -1    0    0  501    0  0.00000000000E+00  0.00000000000E+00  0.34990691796E+03  0.34990691800E+03  0.50400001928E-02 0. -1.
       -1   -1    0    0    0  501  0.00000000000E+00  0.00000000000E+00 -0.16057782444E+04  0.16057782444E+04  0.50400001928E-02 0.  1.
    10030    2    1    2    0    0  0.00000000000E+00  0.00000000000E+00 -0.12558713265E+04  0.19556851624E+04  0.14991636555E+04 0.  0.
        1    1    3    3  502    0 -0.39280257392E+03  0.21287676569E+03  0.15723055890E+03  0.47363681036E+03  0.50400001928E-02 0. -1.
       -1    1    3    3    0  502  0.39280257392E+03 -0.21287676569E+03 -0.14131018854E+04  0.14820483521E+04  0.50400001928E-02 0.  1.
</event>
<event>
 5   0  0.6542036E-05  0.1497310E+04  0.7818609E-02  0.8886244E-01
       -1   -1    0    0    0  501  0.00000000000E+00  0.00000000000E+00  0.52460977224E+03  0.52460977227E+03  0.50400001928E-02 0. -1.
        1   -1    0    0  501    0  0.00000000000E+00  0.00000000000E+00 -0.10683825682E+04  0.10683825682E+04  0.50400001928E-02 0.  1.
    10030    2    1    2    0    0  0.00000000000E+00  0.00000000000E+00 -0.54377279599E+03  0.15929923405E+04  0.14973095015E+04 0.  0.
        4    1    3    3  502    0 -0.51407704914E+03 -0.53885785963E+03 -0.35318501448E+03  0.82424770105E+03  0.12699999809E+01 0.  1.
       -4    1    3    3    0  502  0.51407704914E+03  0.53885785963E+03 -0.19058778151E+03  0.76874463946E+03  0.12699999809E+01 0. -1.
</event>
<event>
 5   0  0.1228286E-04  0.1504705E+04  0.7818609E-02  0.8881330E-01
        2   -1    0    0  501    0  0.00000000000E+00  0.00000000000E+00  0.50335343646E+03  0.50335343646E+03  0.25500000920E-02 0. -1.
       -2   -1    0    0    0  501  0.00000000000E+00  0.00000000000E+00 -0.11245268594E+04  0.11245268594E+04  0.25500000920E-02 0.  1.
    10030    2    1    2    0    0  0.00000000000E+00  0.00000000000E+00 -0.62117342299E+03  0.16278802959E+04  0.15047052324E+04 0.  0.
        2    1    3    3  502    0 -0.56079076072E+03 -0.18146308895E+03  0.19525578699E+03  0.62091863583E+03  0.25500000920E-02 0. -1.
       -2    1    3    3    0  502  0.56079076072E+03  0.18146308895E+03 -0.81642920998E+03  0.10069616601E+04  0.25500000920E-02 0.  1.
</event>
<event>
 5   0  0.1219810E-04  0.1499874E+04  0.7818609E-02  0.8884537E-01
        2   -1    0    0  501    0  0.00000000000E+00  0.00000000000E+00  0.11772367301E+04  0.11772367301E+04  0.25500000920E-02 0. -1.
       -2   -1    0    0    0  501  0.00000000000E+00  0.00000000000E+00 -0.47773348254E+03  0.47773348255E+03  0.25500000920E-02 0.  1.
    10030    2    1    2    0    0  0.00000000000E+00  0.00000000000E+00  0.69950324756E+03  0.16549702126E+04  0.14998738652E+04 0.  0.
        1    1    3    3  502    0 -0.47196198149E+03 -0.10857900431E+03  0.98155928388E+03  0.10945301001E+04  0.50400001928E-02 0. -1.
       -1    1    3    3    0  502  0.47196198149E+03  0.10857900431E+03 -0.28205603632E+03  0.56044011259E+03  0.50400001928E-02 0.  1.
</event>
<event>
 5   0  0.1219810E-04  0.1498599E+04  0.7818609E-02  0.8885385E-01
       -2   -1    0    0    0  501  0.00000000000E+00  0.00000000000E+00  0.93193012553E+03  0.93193012553E+03  0.25500000920E-02 0.  1.
        2   -1    0    0  501    0  0.00000000000E+00  0.00000000000E+00 -0.60245936967E+03  0.60245936967E+03  0.25500000920E-02 0. -1.
    10030    2    1    2    0    0  0.00000000000E+00  0.00000000000E+00  0.32947075586E+03  0.15343894952E+04  0.14985993941E+04 0.  0.
        1    1    3    3  502    0 -0.51224978393E+03  0.54592982134E+03  0.13218260017E+03  0.76020487422E+03  0.50400001928E-02 0. -1.
       -1    1    3    3    0  502  0.51224978393E+03 -0.54592982134E+03  0.19728815569E+03  0.77418462099E+03  0.50400001928E-02 0.  1.
</event>
<event>
 5   0  0.6509279E-05  0.1498840E+04  0.7818609E-02  0.8885225E-01
       -1   -1    0    0    0  501  0.00000000000E+00  0.00000000000E+00  0.49263264926E+03  0.49263264929E+03  0.50400001928E-02 0. -1.
        1   -1    0    0  501    0  0.00000000000E+00  0.00000000000E+00 -0.11400590515E+04  0.11400590515E+04  0.50400001928E-02 0.  1.
    10030    2    1    2    0    0  0.00000000000E+00  0.00000000000E+00 -0.64742640225E+03  0.16326917008E+04  0.14988399660E+04 0.  0.
        2    1    3    3  502    0  0.45161254594E+03  0.45663328390E+03  0.96992787070E+02  0.64951939799E+03  0.25500000920E-02 0. -1.
       -2    1    3    3    0  502 -0.45161254594E+03 -0.45663328390E+03 -0.74441918932E+03  0.98317230283E+03  0.25500000920E-02 0.  1.
</event>
<event>
 5   0  0.1254487E-04  0.1500484E+04  0.7818609E-02  0.8884131E-01
        2   -1    0    0  501    0  0.00000000000E+00  0.00000000000E+00  0.17492066913E+04  0.17492066913E+04  0.25500000920E-02 0. -1.
       -2   -1    0    0    0  501  0.00000000000E+00  0.00000000000E+00 -0.32178210991E+03  0.32178210992E+03  0.25500000920E-02 0.  1.
    10030    2    1    2    0    0  0.00000000000E+00  0.00000000000E+00  0.14274245814E+04  0.20709888012E+04  0.15004844815E+04 0.  0.
        5    1    3    3  502    0 -0.59451497410E+03  0.56729170101E+02  0.87005609526E+02  0.60353816719E+03  0.46999998093E+01 0.  1.
       -5    1    3    3    0  502  0.59451497410E+03 -0.56729170101E+02  0.13404189719E+04  0.14674506340E+04  0.46999998093E+01 0. -1.
</event>
<event>
 5   0  0.6542036E-05  0.1490967E+04  0.7818609E-02  0.8890482E-01
       -1   -1    0    0    0  501  0.00000000000E+00  0.00000000000E+00  0.31253938559E+03  0.31253938563E+03  0.50400001928E-02 0.  1.
        1   -1    0    0  501    0  0.00000000000E+00  0.00000000000E+00 -0.17781626424E+04  0.17781626424E+04  0.50400001928E-02 0. -1.
    10030    2    1    2    0    0  0.00000000000E+00  0.00000000000E+00 -0.14656232568E+04  0.20907020280E+04  0.14909672830E+04 0.  0.
        4    1    3    3  502    0  0.66787864148E+03 -0.30833205210E+03 -0.90232513594E+03  0.11641833180E+04  0.12699999809E+01 0. -1.
       -4    1    3    3    0  502 -0.66787864148E+03  0.30833205210E+03 -0.56329812084E+03  0.92651870998E+03  0.12699999809E+01 0.  1.
</event>
<event>
 5   0  0.6668433E-05  0.1500434E+04  0.7818609E-02  0.8884164E-01
        1   -1    0    0  501    0  0.00000000000E+00  0.00000000000E+00  0.71272974796E+03  0.71272974798E+03  0.50400001928E-02 0.  1.
       -1   -1    0    0    0  501  0.00000000000E+00  0.00000000000E+00 -0.78967585693E+03  0.78967585695E+03  0.50400001928E-02 0. -1.
    10030    2    1    2    0    0  0.00000000000E+00  0.00000000000E+00 -0.76946108973E+02  0.15024056049E+04  0.15004339033E+04 0.  0.
        1    1    3    3  502    0 -0.18741929833E+03  0.49033405953E+03 -0.57515497926E+03  0.77868911224E+03  0.50400001928E-02 0. -1.
       -1    1    3    3    0  502  0.18741929833E+03 -0.49033405953E+03  0.49820887029E+03  0.72371649269E+03  0.50400001928E-02 0.  1.
</event>
<event>
 5   0  0.6668433E-05  0.1510888E+04  0.7818609E-02  0.8877244E-01
       -1   -1    0    0    0  501  0.00000000000E+00  0.00000000000E+00  0.54964080060E+03  0.54964080063E+03  0.50400001928E-02 0.  1.
        1   -1    0    0  501    0  0.00000000000E+00  0.00000000000E+00 -0.10383070826E+04  0.10383070826E+04  0.50400001928E-02 0. -1.
    10030    2    1    2    0    0  0.00000000000E+00  0.00000000000E+00 -0.48866628196E+03  0.15879478832E+04  0.15108883958E+04 0.  0.
        1    1    3    3  502    0  0.17413121378E+03 -0.58356366096E+03  0.22548709090E+03  0.64939406695E+03  0.50400001928E-02 0.  1.
       -1    1    3    3    0  502 -0.17413121378E+03  0.58356366096E+03 -0.71415337286E+03  0.93855381625E+03  0.50400001928E-02 0. -1.
</event>
<event>
 5   0  0.6509279E-05  0.1491642E+04  0.7818609E-02  0.8890030E-01
        1   -1    0    0  501    0  0.00000000000E+00  0.00000000000E+00  0.88049166226E+03  0.88049166227E+03  0.50400001928E-02 0. -1.
       -1   -1    0    0    0  501  0.00000000000E+00  0.00000000000E+00 -0.63174808247E+03  0.63174808249E+03  0.50400001928E-02 0.  1.
    10030    2    1    2    0    0  0.00000000000E+00  0.00000000000E+00  0.24874357979E+03  0.15122397448E+04  0.14916419400E+04 0.  0.
        2    1    3    3  502    0 -0.61236772753E+03 -0.40450647676E+03  0.25898023671E+03  0.77826119425E+03  0.25500000920E-02 0.  1.
       -2    1    3    3    0  502  0.61236772753E+03  0.40450647676E+03 -0.10236656923E+02  0.73397855051E+03  0.25500000920E-02 0. -1.
</event>
<event>
 5   0  0.6361716E-05  0.1496537E+04  0.7818609E-02  0.8886759E-01
        1   -1    0    0  501    0  0.00000000000E+00  0.00000000000E+00  0.12245510451E+04  0.12245510451E+04  0.50400001928E-02 0.  1.
       -1   -1    0    0    0  501  0.00000000000E+00  0.00000000000E+00 -0.45723356699E+03  0.45723356701E+03  0.50400001928E-02 0. -1.
    10030    2    1    2    0    0  0.00000000000E+00  0.00000000000E+00  0.76731747809E+03  0.16817846121E+04  0.14965371259E+04 0.  0.
        3    1    3    3  502    0 -0.60962994392E+01  0.39614111068E+03  0.10970101896E+04  0.11663602834E+04  0.10100000352E+00 0.  1.
       -3    1    3    3    0  502  0.60962994392E+01 -0.39614111068E+03 -0.32969271148E+03  0.51542432872E+03  0.10100000352E+00 0. -1.
</event>
<event>
 5   0  0.1186664E-04  0.1476112E+04  0.7818609E-02  0.8900495E-01
        2   -1    0    0  501    0  0.00000000000E+00  0.00000000000E+00  0.72389595221E+03  0.72389595222E+03  0.25500000920E-02 0. -1.
       -2   -1    0    0    0  501  0.00000000000E+00  0.00000000000E+00 -0.75249301969E+03  0.75249301969E+03  0.25500000920E-02 0.  1.
    10030    2    1    2    0    0  0.00000000000E+00  0.00000000000E+00 -0.28597067472E+02  0.14763889719E+04  0.14761119890E+04 0.  0.
        3    1    3    3  502    0 -0.93531729209E+01  0.43572289454E+02 -0.75114608733E+03  0.75246693015E+03  0.10100000352E+00 0.  1.
       -3    1    3    3    0  502  0.93531729209E+01 -0.43572289454E+02  0.72254901986E+03  0.72392204176E+03  0.10100000352E+00 0. -1.
</event>
<event>
 5   0  0.6361716E-05  0.1504136E+04  0.7818609E-02  0.8881707E-01
       -1   -1    0    0    0  501  0.00000000000E+00  0.00000000000E+00  0.16452697627E+04  0.16452697627E+04  0.50400001928E-02 0.  1.
        1   -1    0    0  501    0  0.00000000000E+00  0.00000000000E+00 -0.34377704832E+03  0.34377704836E+03  0.50400001928E-02 0. -1.
    10030    2    1    2    0    0  0.00000000000E+00  0.00000000000E+00  0.13014927144E+04  0.19890468111E+04  0.15041356093E+04 0.  0.
        3    1    3    3  502    0  0.29522699318E+03 -0.34077647277E+03 -0.14523555771E+03  0.47368867341E+03  0.10100000352E+00 0.  1.
       -3    1    3    3    0  502 -0.29522699318E+03  0.34077647277E+03  0.14467282721E+04  0.15153581376E+04  0.10100000352E+00 0. -1.
</event>
<event>
 5   0  0.1216921E-04  0.1492911E+04  0.7818609E-02  0.8889181E-01
       -2   -1    0    0    0  501  0.00000000000E+00  0.00000000000E+00  0.45944584644E+03  0.45944584644E+03  0.25500000920E-02 0. -1.
        2   -1    0    0  501    0  0.00000000000E+00  0.00000000000E+00 -0.12127567346E+04  0.12127567346E+04  0.25500000920E-02 0.  1.
    10030    2    1    2    0    0  0.00000000000E+00  0.00000000000E+00 -0.75331088813E+03  0.16722025810E+04  0.14929113094E+04 0.  0.
        4    1    3    3  502    0 -0.79652329698E+02 -0.32435282257E+03  0.37108262198E+03  0.49925261379E+03  0.12699999809E+01 0. -1.
       -4    1    3    3    0  502  0.79652329698E+02  0.32435282257E+03 -0.11243935101E+04  0.11729499672E+04  0.12699999809E+01 0.  1.
</event>
<event>
 5   0  0.1186664E-04  0.1500084E+04  0.7818609E-02  0.8884397E-01
       -2   -1    0    0    0  501  0.00000000000E+00  0.00000000000E+00  0.23641385644E+03  0.23641385645E+03  0.25500000920E-02 0. -1.
        2   -1    0    0  501    0  0.00000000000E+00  0.00000000000E+00 -0.23795694309E+04  0.23795694309E+04  0.25500000920E-02 0.  1.
    10030    2    1    2    0    0  0.00000000000E+00  0.00000000000E+00 -0.21431555745E+04  0.26159832874E+04  0.15000842454E+04 0.  0.
        3    1    3    3  502    0 -0.17798083685E+03  0.72687429437E+03 -0.98369264805E+03  0.12359913649E+04  0.10100000352E+00 0.  1.
       -3    1    3    3    0  502  0.17798083685E+03 -0.72687429437E+03 -0.11594629265E+04  0.13799919225E+04  0.10100000352E+00 0. -1.
</event>
<event>
 5   0  0.1228286E-04  0.1499378E+04  0.7818609E-02  0.8884867E-01
        2   -1    0    0  501    0  0.00000000000E+00  0.00000000000E+00  0.10378694961E+04  0.10378694961E+04  0.25500000920E-02 0.  1.
       -2   -1    0    0    0  501  0.00000000000E+00  0.00000000000E+00 -0.54152641103E+03  0.54152641104E+03  0.25500000920E-02 0. -1.
    10030    2    1    2    0    0  0.00000000000E+00  0.00000000000E+00  0.49634308506E+03  0.15793959071E+04  0.14993781956E+04 0.  0.
        2    1    3    3  502    0 -0.16704853589E+03 -0.10852932560E+03  0.10094798725E+04  0.10289477347E+04  0.25500000920E-02 0.  1.
       -2    1    3    3    0  502  0.16704853589E+03  0.10852932560E+03 -0.51313678744E+03  0.55044817239E+03  0.25500000920E-02 0. -1.
</event>
<event>
 5   0  0.6364378E-05  0.1499215E+04  0.7818609E-02  0.8884975E-01
       -1   -1    0    0    0  501  0.00000000000E+00  0.00000000000E+00  0.64790375049E+03  0.64790375051E+03  0.50400001928E-02 0.  1.
        1   -1    0    0  501    0  0.00000000000E+00  0.00000000000E+00 -0.86727637217E+03  0.86727637219E+03  0.50400001928E-02 0. -1.
    10030    2    1    2    0    0  0.00000000000E+00  0.00000000000E+00 -0.21937262168E+03  0.15151801227E+04  0.14992152804E+04 0.  0.
        5    1    3    3  502    0 -0.29765042872E+03 -0.57331888298E+03  0.27462504448E+03  0.70194823481E+03  0.46999998093E+01 0.  1.
       -5    1    3    3    0  502  0.29765042872E+03  0.57331888298E+03 -0.49399766616E+03  0.81323188789E+03  0.46999998093E+01 0. -1.
</event>
<event>
 5   0  0.6668433E-05  0.1499005E+04  0.7818609E-02  0.8885115E-01
       -1   -1    0    0    0  501  0.00000000000E+00  0.00000000000E+00  0.35289632092E+03  0.35289632096E+03  0.50400001928E-02 0. -1.
        1   -1    0    0  501    0  0.00000000000E+00  0.00000000000E+00 -0.15918387257E+04  0.15918387257E+04  0.50400001928E-02 0.  1.
    10030    2    1    2    0    0  0.00000000000E+00  0.00000000000E+00 -0.12389424048E+04  0.19447350467E+04  0.14990050432E+04 0.  0.
        1    1    3    3  502    0  0.17900325787E+03 -0.94446344840E+02 -0.15557159524E+04  0.15688258039E+04  0.50400001928E-02 0.  1.
       -1    1    3    3    0  502 -0.17900325787E+03  0.94446344840E+02  0.31677354756E+03  0.37590924283E+03  0.50400001928E-02 0. -1.
</event>
<event>
 5   0  0.1219810E-04  0.1499808E+04  0.7818609E-02  0.8884581E-01
       -2   -1    0    0    0  501  0.00000000000E+00  0.00000000000E+00  0.42186311177E+03  0.42186311178E+03  0.25500000920E-02 0.  1.
        2   -1    0    0  501    0  0.00000000000E+00  0.00000000000E+00 -0.13330290085E+04  0.13330290085E+04  0.25500000920E-02 0. -1.
    10030    2    1    2    0    0  0.00000000000E+00  0.00000000000E+00 -0.91116589675E+03  0.17548921203E+04  0.14998076752E+04 0.  0.
        1    1    3    3  502    0  0.25148696659E+03 -0.63979202289E+02  0.36765388215E+03  0.45000934410E+03  0.50400001928E-02 0.  1.
       -1    1    3    3    0  502 -0.25148696659E+03  0.63979202289E+02 -0.12788197789E+04  0.13048827762E+04  0.50400001928E-02 0. -1.
</event>
<event>
 5   0  0.1216921E-04  0.1500264E+04  0.7818609E-02  0.8884277E-01
        2   -1    0    0  501    0  0.00000000000E+00  0.00000000000E+00  0.19142949483E+04  0.19142949483E+04  0.25500000920E-02 0.  1.
       -2   -1    0    0    0  501  0.00000000000E+00  0.00000000000E+00 -0.29394524147E+03  0.29394524148E+03  0.25500000920E-02 0. -1.
    10030    2    1    2    0    0  0.00000000000E+00  0.00000000000E+00  0.16203497069E+04  0.22082401898E+04  0.15002638313E+04 0.  0.
        4    1    3    3  502    0  0.26338522276E+03 -0.18273649691E+03  0.18083929179E+04  0.18365867693E+04  0.12699999809E+01 0.  1.
       -4    1    3    3    0  502 -0.26338522276E+03  0.18273649691E+03 -0.18804321101E+03  0.37165342051E+03  0.12699999809E+01 0. -1.
</event>
<event>
 5   0  0.4462875E-05  0.1501597E+04  0.7818609E-02  0.8883391E-01
       -4   -1    0    0    0  501  0.00000000000E+00  0.00000000000E+00  0.38793176160E+03  0.38793384044E+03  0.12699999809E+01 0. -1.
        4   -1    0    0  501    0  0.00000000000E+00  0.00000000000E+00 -0.14530809597E+04  0.14530815147E+04  0.12699999809E+01 0.  1.
    10030    2    1    2    0    0  0.00000000000E+00  0.00000000000E+00 -0.10651491981E+04  0.18410153551E+04  0.15015973906E+04 0.  0.
        4    1    3    3  502    0 -0.82631490432E+02 -0.32473774241E+03  0.29116825483E+03  0.44391793169E+03  0.12699999809E+01 0. -1.
       -4    1    3    3    0  502  0.82631490432E+02  0.32473774241E+03 -0.13563174529E+04  0.13970974234E+04  0.12699999809E+01 0.  1.
</event>
<event>
 5   0  0.1186664E-04  0.1500905E+04  0.7818609E-02  0.8883851E-01
        2   -1    0    0  501    0  0.00000000000E+00  0.00000000000E+00  0.87226106030E+03  0.87226106030E+03  0.25500000920E-02 0.  1.
       -2   -1    0    0    0  501  0.00000000000E+00  0.00000000000E+00 -0.64565408321E+03  0.64565408322E+03  0.25500000920E-02 0. -1.
    10030    2    1    2    0    0  0.00000000000E+00  0.00000000000E+00  0.22660697709E+03  0.15179151435E+04  0.15009049473E+04 0.  0.
        3    1    3    3  502    0  0.10773474399E+02  0.47549350111E+03  0.70037246318E+03  0.84660010320E+03  0.10100000352E+00 0.  1.
       -3    1    3    3    0  502 -0.10773474399E+02 -0.47549350111E+03 -0.47376548610E+03  0.67131504033E+03  0.10100000352E+00 0. -1.
</event>
<event>
 5   0  0.1216921E-04  0.1499219E+04  0.7818609E-02  0.8884973E-01
       -2   -1    0    0    0  501  0.00000000000E+00  0.00000000000E+00  0.21620244003E+03  0.21620244005E+03  0.25500000920E-02 0.  1.
        2   -1    0    0  501    0  0.00000000000E+00  0.00000000000E+00 -0.25990181280E+04  0.25990181280E+04  0.25500000920E-02 0. -1.
    10030    2    1    2    0    0  0.00000000000E+00  0.00000000000E+00 -0.23828156880E+04  0.28152205681E+04  0.14992185444E+04 0.  0.
        4    1    3    3  502    0 -0.66808169368E+03  0.15610755088E+02 -0.55368910816E+03  0.86784220139E+03  0.12699999809E+01 0.  1.
       -4    1    3    3    0  502  0.66808169368E+03 -0.15610755088E+02 -0.18291265798E+04  0.19473783667E+04  0.12699999809E+01 0. -1.
</event>
<event>
 5   0  0.6364378E-05  0.1500933E+04  0.7818609E-02  0.8883833E-01
       -1   -1    0    0    0  501  0.00000000000E+00  0.00000000000E+00  0.58738762186E+03  0.58738762189E+03  0.50400001928E-02 0.  1.
        1   -1    0    0  501    0  0.00000000000E+00  0.00000000000E+00 -0.95882169745E+03  0.95882169747E+03  0.50400001928E-02 0. -1.
    10030    2    1    2    0    0  0.00000000000E+00  0.00000000000E+00 -0.37143407559E+03  0.15462093194E+04  0.15009330387E+04 0.  0.
        5    1    3    3  502    0 -0.16125901481E+03 -0.36257210133E+03 -0.84188867201E+03  0.93073176833E+03  0.46999998093E+01 0. -1.
       -5    1    3    3    0  502  0.16125901481E+03  0.36257210133E+03  0.47045459642E+03  0.61547755102E+03  0.46999998093E+01 0.  1.
</event>
<event>
 5   0  0.6509279E-05  0.1505092E+04  0.7818609E-02  0.8881074E-01
        1   -1    0    0  501    0  0.00000000000E+00  0.00000000000E+00  0.13800708590E+04  0.13800708590E+04  0.50400001928E-02 0. -1.
       -1   -1    0    0    0  501  0.00000000000E+00  0.00000000000E+00 -0.41035951515E+03  0.41035951518E+03  0.50400001928E-02 0.  1.
    10030    2    1    2    0    0  0.00000000000E+00  0.00000000000E+00  0.96971134380E+03  0.17904303741E+04  0.15050916365E+04 0.  0.
        2    1    3    3  502    0  0.24814925509E+03  0.54143669682E+03 -0.62343729565E+02  0.59884763512E+03  0.25500000920E-02 0. -1.
       -2    1    3    3    0  502 -0.24814925509E+03 -0.54143669682E+03  0.10320550734E+04  0.11915827390E+04  0.25500000920E-02 0.  1.
</event>
<event>
 5   0  0.1216921E-04  0.1502550E+04  0.7818609E-02  0.8882759E-01
       -2   -1    0    0    0  501  0.00000000000E+00  0.00000000000E+00  0.52283828781E+03  0.52283828782E+03  0.25500000920E-02 0.  1.
        2   -1    0    0  501    0  0.00000000000E+00  0.00000000000E+00 -0.10795198999E+04  0.10795198999E+04  0.25500000920E-02 0. -1.
    10030    2    1    2    0    0  0.00000000000E+00  0.00000000000E+00 -0.55668161208E+03  0.16023581877E+04  0.15025502802E+04 0.  0.
        4    1    3    3  502    0  0.48821321547E+03 -0.48926898362E+03  0.35624113645E+02  0.69210329609E+03  0.12699999809E+01 0.  1.
       -4    1    3    3    0  502 -0.48821321547E+03  0.48926898362E+03 -0.59230572572E+03  0.91025489162E+03  0.12699999809E+01 0. -1.
</event>
<event>
 5   0  0.1186664E-04  0.1509048E+04  0.7818609E-02  0.8878458E-01
       -2   -1    0    0    0  501  0.00000000000E+00  0.00000000000E+00  0.51578500796E+03  0.51578500796E+03  0.25500000920E-02 0.  1.
        2   -1    0    0  501    0  0.00000000000E+00  0.00000000000E+00 -0.11037669357E+04  0.11037669357E+04  0.25500000920E-02 0. -1.
    10030    2    1    2    0    0  0.00000000000E+00  0.00000000000E+00 -0.58798192776E+03  0.16195519437E+04  0.15090479618E+04 0.  0.
        3    1    3    3  502    0 -0.66844145385E+03 -0.70336720199E+02 -0.66194560142E+03  0.94336271967E+03  0.10100000352E+00 0. -1.
       -3    1    3    3    0  502  0.66844145385E+03  0.70336720199E+02  0.73963673663E+02  0.67618922400E+03  0.10100000352E+00 0.  1.
</event>
<event>
 5   0  0.4462875E-05  0.1498430E+04  0.7818609E-02  0.8885498E-01
        3   -1    0    0  501    0  0.00000000000E+00  0.00000000000E+00  0.21720564725E+04  0.21720564748E+04  0.10100000352E+00 0. -1.
       -3   -1    0    0    0  501  0.00000000000E+00  0.00000000000E+00 -0.25842921043E+03  0.25842923016E+03  0.10100000352E+00 0.  1.
    10030    2    1    2    0    0  0.00000000000E+00  0.00000000000E+00  0.19136272621E+04  0.24304857050E+04  0.14984296660E+04 0.  0.
        3    1    3    3  502    0 -0.37245121271E+03  0.47185908117E+03  0.16821167391E+04  0.17863055821E+04  0.10100000352E+00 0.  1.
       -3    1    3    3    0  502  0.37245121271E+03 -0.47185908117E+03  0.23151052294E+03  0.64418012291E+03  0.10100000352E+00 0. -1.
</event>
<event>
 5   0  0.1228286E-04  0.1498712E+04  0.7818609E-02  0.8885310E-01
        2   -1    0    0  501    0  0.00000000000E+00  0.00000000000E+00  0.64662336928E+03  0.64662336928E+03  0.25500000920E-02 0.  1.
       -2   -1    0    0    0  501  0.00000000000E+00  0.00000000000E+00 -0.86841053900E+03  0.86841053901E+03  0.25500000920E-02 0. -1.
    10030    2    1    2    0    0  0.00000000000E+00  0.00000000000E+00 -0.22178716973E+03  0.15150339083E+04  0.14987121787E+04 0.  0.
        2    1    3    3  502    0 -0.56431811111E+03 -0.10000611156E+03 -0.59893325697E+03  0.82896151852E+03  0.25500000920E-02 0. -1.
       -2    1    3    3    0  502  0.56431811111E+03  0.10000611156E+03  0.37714608724E+03  0.68607238977E+03  0.25500000920E-02 0.  1.
</event>
<event>
 5   0  0.1216921E-04  0.1499310E+04  0.7818609E-02  0.8884912E-01
       -2   -1    0    0    0  501  0.00000000000E+00  0.00000000000E+00  0.67490421507E+03  0.67490421507E+03  0.25500000920E-02 0. -1.
        2   -1    0    0  501    0  0.00000000000E+00  0.00000000000E+00 -0.83268449066E+03  0.83268449067E+03  0.25500000920E-02 0.  1.
    10030    2    1    2    0    0  0.00000000000E+00  0.00000000000E+00 -0.15778027559E+03  0.15075887057E+04  0.14993095379E+04 0.  0.
        4    1    3    3  502    0 -0.62225773866E+03  0.38226614786E+03  0.91303358122E+02  0.73598234845E+03  0.12699999809E+01 0.  1.
       -4    1    3    3    0  502  0.62225773866E+03 -0.38226614786E+03 -0.24908363371E+03  0.77160635729E+03  0.12699999809E+01 0. -1.
</event>
<event>
 5   0  0.6668433E-05  0.1500087E+04  0.7818609E-02  0.8884395E-01
       -1   -1    0    0    0  501  0.00000000000E+00  0.00000000000E+00  0.10701135363E+04  0.10701135363E+04  0.50400001928E-02 0. -1.
        1   -1    0    0  501    0  0.00000000000E+00  0.00000000000E+00 -0.52570578926E+03  0.52570578928E+03  0.50400001928E-02 0.  1.
    10030    2    1    2    0    0  0.00000000000E+00  0.00000000000E+00  0.54440774701E+03  0.15958193256E+04  0.15000865058E+04 0.  0.
        1    1    3    3  502    0  0.49711482181E+03 -0.11590439276E+03 -0.31242003552E+03  0.59846742012E+03  0.50400001928E-02 0.  1.
       -1    1    3    3    0  502 -0.49711482181E+03  0.11590439276E+03  0.85682778253E+03  0.99735190543E+03  0.50400001928E-02 0. -1.
</event>
<event>
 5   0  0.1228286E-04  0.1497938E+04  0.7818609E-02  0.8885825E-01
        2   -1    0    0  501    0  0.00000000000E+00  0.00000000000E+00  0.95794027876E+03  0.95794027877E+03  0.25500000920E-02 0.  1.
       -2   -1    0    0    0  501  0.00000000000E+00  0.00000000000E+00 -0.58558434810E+03  0.58558434810E+03  0.25500000920E-02 0. -1.
    10030    2    1    2    0    0  0.00000000000E+00  0.00000000000E+00  0.37235593066E+03  0.15435246269E+04  0.14979383614E+04 0.  0.
        2    1    3    3  502    0  0.69380189389E+02 -0.69442203268E+03 -0.93977071927E+02  0.70417842924E+03  0.25500000920E-02 0. -1.
       -2    1    3    3    0  502 -0.69380189389E+02  0.69442203268E+03  0.46633300259E+03  0.83934619763E+03  0.25500000920E-02 0.  1.
</event>
<event>
 5   0  0.6364378E-05  0.1504998E+04  0.7818609E-02  0.8881136E-01
       -1   -1    0    0    0  501  0.00000000000E+00  0.00000000000E+00  0.55545333844E+03  0.55545333846E+03  0.50400001928E-02 0. -1.
        1   -1    0    0  501    0  0.00000000000E+00  0.00000000000E+00 -0.10194464153E+04  0.10194464153E+04  0.50400001928E-02 0.  1.
    10030    2    1    2    0    0  0.00000000000E+00  0.00000000000E+00 -0.46399307687E+03  0.15748997538E+04  0.15049982256E+04 0.  0.
        5    1    3    3  502    0 -0.73196914110E+02  0.74837986520E+03 -0.26164282242E+03  0.79618419188E+03  0.46999998093E+01 0. -1.
       -5    1    3    3    0  502  0.73196914110E+02 -0.74837986520E+03 -0.20235025445E+03  0.77871556190E+03  0.46999998093E+01 0.  1.
</event>
<event>
 5   0  0.6361716E-05  0.1496800E+04  0.7818609E-02  0.8886584E-01
       -1   -1    0    0    0  501  0.00000000000E+00  0.00000000000E+00  0.71027971728E+03  0.71027971729E+03  0.50400001928E-02 0. -1.
        1   -1    0    0  501    0  0.00000000000E+00  0.00000000000E+00 -0.78856616185E+03  0.78856616186E+03  0.50400001928E-02 0.  1.
    10030    2    1    2    0    0  0.00000000000E+00  0.00000000000E+00 -0.78286444572E+02  0.14988458792E+04  0.14967999873E+04 0.  0.
        3    1    3    3  502    0 -0.21763148668E+03  0.18653821904E+03 -0.73142207346E+03  0.78558146039E+03  0.10100000352E+00 0.  1.
       -3    1    3    3    0  502  0.21763148668E+03 -0.18653821904E+03  0.65313562889E+03  0.71326441877E+03  0.10100000352E+00 0. -1.
</event>
<event>
 5   0  0.1254487E-04  0.1500955E+04  0.7818609E-02  0.8883818E-01
       -2   -1    0    0    0  501  0.00000000000E+00  0.00000000000E+00  0.59238600414E+03  0.59238600414E+03  0.25500000920E-02 0. -1.
        2   -1    0    0  501    0  0.00000000000E+00  0.00000000000E+00 -0.95075914561E+03  0.95075914562E+03  0.25500000920E-02 0.  1.
    10030    2    1    2    0    0  0.00000000000E+00  0.00000000000E+00 -0.35837314148E+03  0.15431451498E+04  0.15009549109E+04 0.  0.
        5    1    3    3  502    0 -0.52832052153E+03 -0.40412368133E+03  0.17808061417E+03  0.68860243858E+03  0.46999998093E+01 0. -1.
       -5    1    3    3    0  502  0.52832052153E+03  0.40412368133E+03 -0.53645375565E+03  0.85454271118E+03  0.46999998093E+01 0.  1.
</event>
<event>
 5   0  0.6364378E-05  0.1489427E+04  0.7818609E-02  0.8891514E-01
        1   -1    0    0  501    0  0.00000000000E+00  0.00000000000E+00  0.77356590744E+03  0.77356590745E+03  0.50400001928E-02 0. -1.
       -1   -1    0    0    0  501  0.00000000000E+00  0.00000000000E+00 -0.71693763971E+03  0.71693763973E+03  0.50400001928E-02 0.  1.
    10030    2    1    2    0    0  0.00000000000E+00  0.00000000000E+00  0.56628267730E+02  0.14905035472E+04  0.14894274281E+04 0.  0.
        5    1    3    3  502    0  0.21160442820E+03  0.32945548797E+03  0.66222193971E+03  0.76933564847E+03  0.46999998093E+01 0. -1.
       -5    1    3    3    0  502 -0.21160442820E+03 -0.32945548797E+03 -0.60559367198E+03  0.72116789871E+03  0.46999998093E+01 0.  1.
</event>
<event>
 5   0  0.1186664E-04  0.1498469E+04  0.7818609E-02  0.8885472E-01
       -2   -1    0    0    0  501  0.00000000000E+00  0.00000000000E+00  0.26720910564E+03  0.26720910565E+03  0.25500000920E-02 0.  1.
        2   -1    0    0  501    0  0.00000000000E+00  0.00000000000E+00 -0.21007971584E+04  0.21007971584E+04  0.25500000920E-02 0. -1.
    10030    2    1    2    0    0  0.00000000000E+00  0.00000000000E+00 -0.18335880528E+04  0.23680062641E+04  0.14984687249E+04 0.  0.
        3    1    3    3  502    0 -0.21262995233E+03  0.71839863871E+03 -0.90630935532E+03  0.11758846706E+04  0.10100000352E+00 0.  1.
       -3    1    3    3    0  502  0.21262995233E+03 -0.71839863871E+03 -0.92727869749E+03  0.11921215935E+04  0.10100000352E+00 0. -1.
</event>
<event>
 5   0  0.6668433E-05  0.1471155E+04  0.7818609E-02  0.8903864E-01
       -1   -1    0    0    0  501  0.00000000000E+00  0.00000000000E+00  0.11322445913E+04  0.11322445913E+04  0.50400001928E-02 0.  1.
        1   -1    0    0  501    0  0.00000000000E+00  0.00000000000E+00 -0.47787754400E+03  0.47787754402E+03  0.50400001928E-02 0. -1.
    10030    2    1    2    0    0  0.00000000000E+00  0.00000000000E+00  0.65436704730E+03  0.16101221353E+04  0.14711550082E+04 0.  0.
        1    1    3    3  502    0  0.68540655710E+03 -0.22985181989E+03  0.47588636127E+03  0.86549513949E+03  0.50400001928E-02 0.  1.
       -1    1    3    3    0  502 -0.68540655710E+03  0.22985181989E+03  0.17848068603E+03  0.74462699584E+03  0.50400001928E-02 0. -1.
</event>
<event>
 5   0  0.6364378E-05  0.1497127E+04  0.7818609E-02  0.8886366E-01
        1   -1    0    0  501    0  0.00000000000E+00  0.00000000000E+00  0.70558398187E+03  0.70558398189E+03  0.50400001928E-02 0.  1.
       -1   -1    0    0    0  501  0.00000000000E+00  0.00000000000E+00 -0.79416060041E+03  0.79416060043E+03  0.50400001928E-02 0. -1.
    10030    2    1    2    0    0  0.00000000000E+00  0.00000000000E+00 -0.88576618544E+02  0.14997445823E+04  0.14971265794E+04 0.  0.
        5    1    3    3  502    0 -0.22971110933E+03 -0.49673985116E+03  0.46729762895E+03  0.71965744455E+03  0.46999998093E+01 0.  1.
       -5    1    3    3    0  502  0.22971110933E+03  0.49673985116E+03 -0.55587424749E+03  0.78008713776E+03  0.46999998093E+01 0. -1.
</event>
<event>
 5   0  0.1186664E-04  0.1506654E+04  0.7818609E-02  0.8880040E-01
        2   -1    0    0  501    0  0.00000000000E+00  0.00000000000E+00  0.10822215819E+04  0.10822215819E+04  0.25500000920E-02 0. -1.
       -2   -1    0    0    0  501  0.00000000000E+00  0.00000000000E+00 -0.52438567187E+03  0.52438567187E+03  0.25500000920E-02 0.  1.
    10030    2    1    2    0    0  0.00000000000E+00  0.00000000000E+00  0.55783591004E+03  0.16066072538E+04  0.15066538970E+04 0.  0.
        3    1    3    3  502    0  0.19236486857E+02 -0.30783284027E+03 -0.45396994817E+03  0.54883496975E+03  0.10100000352E+00 0.  1.
       -3    1    3    3    0  502 -0.19236486857E+02  0.30783284027E+03  0.10118058582E+04  0.10577722840E+04  0.10100000352E+00 0. -1.
</event>
<event>
 5   0  0.1254487E-04  0.1498549E+04  0.7818609E-02  0.8885418E-01
        2   -1    0    0  501    0  0.00000000000E+00  0.00000000000E+00  0.13166804450E+04  0.13166804451E+04  0.25500000920E-02 0. -1.
       -2   -1    0    0    0  501  0.00000000000E+00  0.00000000000E+00 -0.42638475218E+03  0.42638475219E+03  0.25500000920E-02 0.  1.
    10030    2    1    2    0    0  0.00000000000E+00  0.00000000000E+00  0.89029569287E+03  0.17430651972E+04  0.14985492521E+04 0.  0.
        5    1    3    3  502    0 -0.22346118477E+01  0.17940201597E+03  0.12913081568E+04  0.13037211828E+04  0.46999998093E+01 0. -1.
       -5    1    3    3    0  502  0.22346118477E+01 -0.17940201597E+03 -0.40101246388E+03  0.43934401442E+03  0.46999998093E+01 0.  1.
</event>
<event>
 5   0  0.1254487E-04  0.1500799E+04  0.7818609E-02  0.8883922E-01
        2   -1    0    0  501    0  0.00000000000E+00  0.00000000000E+00  0.64552175433E+03  0.64552175433E+03  0.25500000920E-02 0. -1.
       -2   -1    0    0    0  501  0.00000000000E+00  0.00000000000E+00 -0.87231665124E+03  0.87231665124E+03  0.25500000920E-02 0.  1.
    10030    2    1    2    0    0  0.00000000000E+00  0.00000000000E+00 -0.22679489691E+03  0.15178384056E+04  0.15007989539E+04 0.  0.
        5    1    3    3  502    0  0.30999447747E+02  0.50616028737E+03 -0.67277572119E+03  0.84250131352E+03  0.46999998093E+01 0.  1.
       -5    1    3    3    0  502 -0.30999447747E+02 -0.50616028737E+03  0.44598082428E+03  0.67533709205E+03  0.46999998093E+01 0. -1.
</event>
<event>
 5   0  0.6542036E-05  0.1501989E+04  0.7818609E-02  0.8883131E-01
        1   -1    0    0  501    0  0.00000000000E+00  0.00000000000E+00  0.55778422712E+03  0.55778422714E+03  0.50400001928E-02 0. -1.
       -1   -1    0    0    0  501  0.00000000000E+00  0.00000000000E+00 -0.10111305716E+04  0.10111305716E+04  0.50400001928E-02 0.  1.
    10030    2    1    2    0    0  0.00000000000E+00  0.00000000000E+00 -0.45334634446E+03  0.15689147987E+04  0.15019889273E+04 0.  0.
        4    1    3    3  502    0 -0.28920725064E+03 -0.19742550811E+03  0.46728885932E+03  0.58393334895E+03  0.12699999809E+01 0. -1.
       -4    1    3    3    0  502  0.28920725064E+03  0.19742550811E+03 -0.92063520378E+03  0.98498144978E+03  0.12699999809E+01 0.  1.
</event>
<event>
 5   0  0.4462875E-05  0.1498674E+04  0.7818609E-02  0.8885335E-01
        3   -1    0    0  501    0  0.00000000000E+00  0.00000000000E+00  0.14143600665E+04  0.14143600701E+04  0.10100000352E+00 0.  1.
       -3   -1    0    0    0  501  0.00000000000E+00  0.00000000000E+00 -0.39700337508E+03  0.39700338792E+03  0.10100000352E+00 0. -1.
    10030    2    1    2    0    0  0.00000000000E+00  0.00000000000E+00  0.10173566914E+04  0.18113634581E+04  0.14986737268E+04 0.  0.
        4    1    3    3  502    0  0.47099098615E+03  0.39280632753E+03  0.10290622540E+04  0.11979566167E+04  0.12699999809E+01 0.  1.
       -4    1    3    3    0  502 -0.47099098615E+03 -0.39280632753E+03 -0.11705562509E+02  0.61340684140E+03  0.12699999809E+01 0. -1.
</event>
<event>
 5   0  0.6542036E-05  0.1500998E+04  0.7818609E-02  0.8883790E-01
        1   -1    0    0  501    0  0.00000000000E+00  0.00000000000E+00  0.95442969387E+03  0.95442969388E+03  0.50400001928E-02 0. -1.
       -1   -1    0    0    0  501  0.00000000000E+00  0.00000000000E+00 -0.59014132986E+03  0.59014132988E+03  0.50400001928E-02 0.  1.
    10030    2    1    2    0    0  0.00000000000E+00  0.00000000000E+00  0.36428836401E+03  0.15445710238E+04  0.15009975467E+04 0.  0.
        4    1    3    3  502    0  0.59124188825E+03  0.27554569621E+03  0.56407142016E+03  0.86236336950E+03  0.12699999809E+01 0. -1.
       -4    1    3    3    0  502 -0.59124188825E+03 -0.27554569621E+03 -0.19978305615E+03  0.68220765427E+03  0.12699999809E+01 0.  1.
</event>
<event>
 5   0  0.6361716E-05  0.1504507E+04  0.7818609E-02  0.8881461E-01
       -1   -1    0    0    0  501  0.00000000000E+00  0.00000000000E+00  0.15381199008E+04  0.15381199008E+04  0.50400001928E-02 0. -1.
        1   -1    0    0  501    0  0.00000000000E+00  0.00000000000E+00 -0.36790728069E+03  0.36790728072E+03  0.50400001928E-02 0.  1.
    10030    2    1    2    0    0  0.00000000000E+00  0.00000000000E+00  0.11702126201E+04  0.19060271815E+04  0.15045072417E+04 0.  0.
        3    1    3    3  502    0  0.62289251487E+03 -0.39487475165E+03  0.39735026056E+03  0.83774005177E+03  0.10100000352E+00 0.  1.
       -3    1    3    3    0  502 -0.62289251487E+03  0.39487475165E+03  0.77286235951E+03  0.10682871297E+04  0.10100000352E+00 0. -1.
</event>
<event>
 5   0  0.6668433E-05  0.1503535E+04  0.7818609E-02  0.8882106E-01
        1   -1    0    0  501    0  0.00000000000E+00  0.00000000000E+00  0.16963753436E+04  0.16963753436E+04  0.50400001928E-02 0. -1.
       -1   -1    0    0    0  501  0.00000000000E+00  0.00000000000E+00 -0.33315406904E+03  0.33315406908E+03  0.50400001928E-02 0.  1.
    10030    2    1    2    0    0  0.00000000000E+00  0.00000000000E+00  0.13632212746E+04  0.20295294127E+04  0.15035349658E+04 0.  0.
        1    1    3    3  502    0 -0.28327911117E+03 -0.64440544697E+03  0.10378476088E+04  0.12540466873E+04  0.50400001928E-02 0. -1.
       -1    1    3    3    0  502  0.28327911117E+03  0.64440544697E+03  0.32537366575E+03  0.77548272534E+03  0.50400001928E-02 0.  1.
</event>
<event>
 5   0  0.1254487E-04  0.1500749E+04  0.7818609E-02  0.8883955E-01
        2   -1    0    0  501    0  0.00000000000E+00  0.00000000000E+00  0.62130954317E+03  0.62130954318E+03  0.25500000920E-02 0.  1.
       -2   -1    0    0    0  501  0.00000000000E+00  0.00000000000E+00 -0.90625017138E+03  0.90625017138E+03  0.25500000920E-02 0. -1.
    10030    2    1    2    0    0  0.00000000000E+00  0.00000000000E+00 -0.28494062821E+03  0.15275597146E+04  0.15007489863E+04 0.  0.
        5    1    3    3  502    0 -0.56611742993E+03 -0.38749870563E+03  0.16692645884E+03  0.70606708180E+03  0.46999998093E+01 0.  1.
       -5    1    3    3    0  502  0.56611742993E+03  0.38749870563E+03 -0.45186708704E+03  0.82149263276E+03  0.46999998093E+01 0. -1.
</event>
<event>
 5   0  0.1254487E-04  0.1499377E+04  0.7818609E-02  0.8884868E-01
       -2   -1    0    0    0  501  0.00000000000E+00  0.00000000000E+00  0.55644448692E+03  0.55644448693E+03  0.25500000920E-02 0.  1.
        2   -1    0    0  501    0  0.00000000000E+00  0.00000000000E+00 -0.10100424579E+04  0.10100424579E+04  0.25500000920E-02 0. -1.
    10030    2    1    2    0    0  0.00000000000E+00  0.00000000000E+00 -0.45359797097E+03  0.15664869448E+04  0.14993766135E+04 0.  0.
        5    1    3    3  502    0  0.42194685901E+03 -0.59840229136E+03 -0.39489159939E+03  0.83191701473E+03  0.46999998093E+01 0.  1.
       -5    1    3    3    0  502 -0.42194685901E+03  0.59840229136E+03 -0.58706371586E+02  0.73456993009E+03  0.46999998093E+01 0. -1.
</event>
<event>
 5   0  0.4462875E-05  0.1499265E+04  0.7818609E-02  0.8884942E-01
       -4   -1    0    0    0  501  0.00000000000E+00  0.00000000000E+00  0.12002062257E+04  0.12002068976E+04  0.12699999809E+01 0. -1.
        4   -1    0    0  501    0  0.00000000000E+00  0.00000000000E+00 -0.46820884917E+03  0.46821057158E+03  0.12699999809E+01 0.  1.
    10030    2    1    2    0    0  0.00000000000E+00  0.00000000000E+00  0.73199737650E+03  0.16684174692E+04  0.14992653842E+04 0.  0.
        2    1    3    3  502    0 -0.71389613106E+03 -0.18791897609E+03  0.22095573145E+03  0.77057294450E+03  0.25500000920E-02 0.  1.
       -2    1    3    3    0  502  0.71389613106E+03  0.18791897609E+03  0.51104164505E+03  0.89784452468E+03  0.25500000920E-02 0. -1.
</event>
<event>
 5   0  0.6668433E-05  0.1500699E+04  0.7818609E-02  0.8883988E-01
        1   -1    0    0  501    0  0.00000000000E+00  0.00000000000E+00  0.49079618436E+03  0.49079618439E+03  0.50400001928E-02 0. -1.
       -1   -1    0    0    0  501  0.00000000000E+00  0.00000000000E+00 -0.11471652223E+04  0.11471652223E+04  0.50400001928E-02 0.  1.
    10030    2    1    2    0    0  0.00000000000E+00  0.00000000000E+00 -0.65636903796E+03  0.16379614067E+04  0.15006989225E+04 0.  0.
        1    1    3    3  502    0  0.93359833296E+02  0.52545926454E+03 -0.90387532603E+03  0.10496733312E+04  0.50400001928E-02 0.  1.
       -1    1    3    3    0  502 -0.93359833296E+02 -0.52545926454E+03  0.24750628807E+03  0.58828807554E+03  0.50400001928E-02 0. -1.
</event>
<event>
 5   0  0.1219810E-04  0.1501231E+04  0.7818609E-02  0.8883635E-01
       -2   -1    0    0    0  501  0.00000000000E+00  0.00000000000E+00  0.23570671704E+03  0.23570671705E+03  0.25500000920E-02 0.  1.
        2   -1    0    0  501    0  0.00000000000E+00  0.00000000000E+00 -0.23903592184E+04  0.23903592184E+04  0.25500000920E-02 0. -1.
    10030    2    1    2    0    0  0.00000000000E+00  0.00000000000E+00 -0.21546525014E+04  0.26260659355E+04  0.15012311267E+04 0.  0.
        1    1    3    3  502    0 -0.44164175711E+03 -0.34753972036E+02 -0.17363166889E+02  0.44334722260E+03  0.50400001928E-02 0.  1.
       -1    1    3    3    0  502  0.44164175711E+03  0.34753972036E+02 -0.21372893345E+04  0.21827187129E+04  0.50400001928E-02 0. -1.
</event>
<event>
 5   0  0.1219810E-04  0.1503749E+04  0.7818609E-02  0.8881964E-01
       -2   -1    0    0    0  501  0.00000000000E+00  0.00000000000E+00  0.10384451127E+04  0.10384451127E+04  0.25500000920E-02 0.  1.
        2   -1    0    0  501    0  0.00000000000E+00  0.00000000000E+00 -0.54438635616E+03  0.54438635617E+03  0.25500000920E-02 0. -1.
    10030    2    1    2    0    0  0.00000000000E+00  0.00000000000E+00  0.49405875658E+03  0.15828314689E+04  0.15037491161E+04 0.  0.
        1    1    3    3  502    0 -0.69949670287E+03 -0.24983610512E+03  0.12426995571E+03  0.75309809366E+03  0.50400001928E-02 0. -1.
       -1    1    3    3    0  502  0.69949670287E+03  0.24983610512E+03  0.36978880087E+03  0.82973337526E+03  0.50400001928E-02 0.  1.
</event>
<event>
 5   0  0.6361716E-05  0.1493293E+04  0.7818609E-02  0.8888926E-01
       -1   -1    0    0    0  501  0.00000000000E+00  0.00000000000E+00  0.30604254036E+03  0.30604254040E+03  0.50400001928E-02 0.  1.
        1   -1    0    0  501    0  0.00000000000E+00  0.00000000000E+00 -0.18215791589E+04  0.18215791589E+04  0.50400001928E-02 0. -1.
    10030    2    1    2    0    0  0.00000000000E+00  0.00000000000E+00 -0.15155366186E+04  0.21276216993E+04  0.14932926214E+04 0.  0.
        3    1    3    3  502    0 -0.17883689468E+03  0.69470389652E+03 -0.10528212811E+04  0.12739814751E+04  0.10100000352E+00 0. -1.
       -3    1    3    3    0  502  0.17883689468E+03 -0.69470389652E+03 -0.46271533753E+03  0.85364022429E+03  0.10100000352E+00 0.  1.
</event>
<event>
 5   0  0.1216921E-04  0.1495316E+04  0.7818609E-02  0.8887574E-01
        2   -1    0    0  501    0  0.00000000000E+00  0.00000000000E+00  0.19441940163E+04  0.19441940163E+04  0.25500000920E-02 0.  1.
       -2   -1    0    0    0  501  0.00000000000E+00  0.00000000000E+00 -0.28751873808E+03  0.28751873809E+03  0.25500000920E-02 0. -1.
    10030    2    1    2    0    0  0.00000000000E+00  0.00000000000E+00  0.16566752782E+04  0.22317127544E+04  0.14953156324E+04 0.  0.
        4    1    3    3  502    0  0.64882152097E+03 -0.28648350880E+03  0.47531758646E+03  0.85379774407E+03  0.12699999809E+01 0. -1.
       -4    1    3    3    0  502 -0.64882152097E+03  0.28648350880E+03  0.11813576917E+04  0.13779150103E+04  0.12699999809E+01 0.  1.
</event>
<event>
 5   0  0.6509279E-05  0.1500864E+04  0.7818609E-02  0.8883878E-01
       -1   -1    0    0    0  501  0.00000000000E+00  0.00000000000E+00  0.79524487164E+03  0.79524487166E+03  0.50400001928E-02 0. -1.
        1   -1    0    0  501    0  0.00000000000E+00  0.00000000000E+00 -0.70814448787E+03  0.70814448789E+03  0.50400001928E-02 0.  1.
    10030    2    1    2    0    0  0.00000000000E+00  0.00000000000E+00  0.87100383775E+02  0.15033893595E+04  0.15008641143E+04 0.  0.
        2    1    3    3  502    0  0.15733800823E+03 -0.14746463283E+03 -0.67644092926E+03  0.70998126563E+03  0.25500000920E-02 0.  1.
       -2    1    3    3    0  502 -0.15733800823E+03  0.14746463283E+03  0.76354131303E+03  0.79340809391E+03  0.25500000920E-02 0. -1.
</event>
<event>
 5   0  0.1228286E-04  0.1501628E+04  0.7818609E-02  0.8883371E-01
       -2   -1    0    0    0  501  0.00000000000E+00  0.00000000000E+00  0.28017989845E+03  0.28017989846E+03  0.25500000920E-02 0.  1.
        2   -1    0    0  501    0  0.00000000000E+00  0.00000000000E+00 -0.20119990140E+04  0.20119990140E+04  0.25500000920E-02 0. -1.
    10030    2    1    2    0    0  0.00000000000E+00  0.00000000000E+00 -0.17318191156E+04  0.22921789125E+04  0.15016280224E+04 0.  0.
        2    1    3    3  502    0 -0.40393945157E+03 -0.60504657956E+02  0.95754308007E+02  0.41951970356E+03  0.25500000920E-02 0.  1.
       -2    1    3    3    0  502  0.40393945157E+03  0.60504657956E+02 -0.18275734236E+04  0.18726592089E+04  0.25500000920E-02 0. -1.
</event>
<event>
 5   0  0.6668433E-05  0.1494780E+04  0.7818609E-02  0.8887931E-01
        1   -1    0    0  501    0  0.00000000000E+00  0.00000000000E+00  0.97962869133E+03  0.97962869135E+03  0.50400001928E-02 0.  1.
       -1   -1    0    0    0  501  0.00000000000E+00  0.00000000000E+00 -0.57020788929E+03  0.57020788931E+03  0.50400001928E-02 0. -1.
    10030    2    1    2    0    0  0.00000000000E+00  0.00000000000E+00  0.40942080204E+03  0.15498365807E+04  0.14947802626E+04 0.  0.
        1    1    3    3  502    0  0.40475048622E+03 -0.74257644013E+02  0.85159315269E+03  0.94580550407E+03  0.50400001928E-02 0.  1.
       -1    1    3    3    0  502 -0.40475048622E+03  0.74257644013E+02 -0.44217235064E+03  0.60403107659E+03  0.50400001928E-02 0. -1.
</event>
<event>
 5   0  0.1228286E-04  0.1506023E+04  0.7818609E-02  0.8880457E-01
        2   -1    0    0  501    0  0.00000000000E+00  0.00000000000E+00  0.89974754330E+03  0.89974754330E+03  0.25500000920E-02 0.  1.
       -2   -1    0    0    0  501  0.00000000000E+00  0.00000000000E+00 -0.63020629916E+03  0.63020629916E+03  0.25500000920E-02 0. -1.
    10030    2    1    2    0    0  0.00000000000E+00  0.00000000000E+00  0.26954124414E+03  0.15299538425E+04  0.15060233324E+04 0.  0.
        2    1    3    3  502    0 -0.65511742158E+03 -0.29989860977E+02 -0.24117498730E+03  0.69874430397E+03  0.25500000920E-02 0. -1.
       -2    1    3    3    0  502  0.65511742158E+03  0.29989860977E+02  0.51071623143E+03  0.83120953849E+03  0.25500000920E-02 0.  1.
</event>
<event>
 5   0  0.1254487E-04  0.1500398E+04  0.7818609E-02  0.8884188E-01
       -2   -1    0    0    0  501  0.00000000000E+00  0.00000000000E+00  0.13983905316E+04  0.13983905316E+04  0.25500000920E-02 0.  1.
        2   -1    0    0  501    0  0.00000000000E+00  0.00000000000E+00 -0.40246182961E+03  0.40246182962E+03  0.25500000920E-02 0. -1.
    10030    2    1    2    0    0  0.00000000000E+00  0.00000000000E+00  0.99592870203E+03  0.18008523613E+04  0.15003983630E+04 0.  0.
        5    1    3    3  502    0  0.74341747849E+03 -0.73287393578E+02  0.58056499828E+03  0.94610696890E+03  0.46999998093E+01 0.  1.
       -5    1    3    3    0  502 -0.74341747849E+03  0.73287393578E+02  0.41536370375E+03  0.85474539237E+03  0.46999998093E+01 0. -1.
</event>
<event>
 5   0  0.1254487E-04  0.1491117E+04  0.7818609E-02  0.8890381E-01
       -2   -1    0    0    0  501  0.00000000000E+00  0.00000000000E+00  0.48487182079E+03  0.48487182080E+03  0.25500000920E-02 0.  1.
        2   -1    0    0  501    0  0.00000000000E+00  0.00000000000E+00 -0.11464014754E+04  0.11464014754E+04  0.25500000920E-02 0. -1.
    10030    2    1    2    0    0  0.00000000000E+00  0.00000000000E+00 -0.66152965463E+03  0.16312732962E+04  0.14911173941E+04 0.  0.
        5    1    3    3  502    0 -0.26564591053E+03 -0.66921051750E+03 -0.11912517563E+03  0.72981049868E+03  0.46999998093E+01 0.  1.
       -5    1    3    3    0  502  0.26564591053E+03  0.66921051750E+03 -0.54240447900E+03  0.90146279754E+03  0.46999998093E+01 0. -1.
</event>
<event>
 5   0  0.4462875E-05  0.1499888E+04  0.7818609E-02  0.8884528E-01
        4   -1    0    0  501    0  0.00000000000E+00  0.00000000000E+00  0.13329169072E+04  0.13329175122E+04  0.12699999809E+01 0.  1.
       -4   -1    0    0    0  501  0.00000000000E+00  0.00000000000E+00 -0.42194199165E+03  0.42194390293E+03  0.12699999809E+01 0. -1.
    10030    2    1    2    0    0  0.00000000000E+00  0.00000000000E+00  0.91097491555E+03  0.17548614152E+04  0.14998877590E+04 0.  0.
        1    1    3    3  502    0  0.19013849219E+03  0.17395521643E+03 -0.36851045267E+03  0.44968101726E+03  0.50400001928E-02 0. -1.
       -1    1    3    3    0  502 -0.19013849219E+03 -0.17395521643E+03  0.12794853682E+04  0.13051803979E+04  0.50400001928E-02 0.  1.
</event>
<event>
 5   0  0.6361716E-05  0.1497017E+04  0.7818609E-02  0.8886439E-01
       -1   -1    0    0    0  501  0.00000000000E+00  0.00000000000E+00  0.57608224085E+03  0.57608224087E+03  0.50400001928E-02 0.  1.
        1   -1    0    0  501    0  0.00000000000E+00  0.00000000000E+00 -0.97254278276E+03  0.97254278278E+03  0.50400001928E-02 0. -1.
    10030    2    1    2    0    0  0.00000000000E+00  0.00000000000E+00 -0.39646054191E+03  0.15486250236E+04  0.14970165338E+04 0.  0.
        3    1    3    3  502    0 -0.52468156561E+02  0.48774814981E+03  0.38660317221E+03  0.62459041624E+03  0.10100000352E+00 0.  1.
       -3    1    3    3    0  502  0.52468156561E+02 -0.48774814981E+03 -0.78306371413E+03  0.92403460740E+03  0.10100000352E+00 0. -1.
</event>
<event>
 5   0  0.6361716E-05  0.1502556E+04  0.7818609E-02  0.8882755E-01
        1   -1    0    0  501    0  0.00000000000E+00  0.00000000000E+00  0.48972900151E+03  0.48972900154E+03  0.50400001928E-02 0.  1.
       -1   -1    0    0    0  501  0.00000000000E+00  0.00000000000E+00 -0.11525121217E+04  0.11525121217E+04  0.50400001928E-02 0. -1.
    10030    2    1    2    0    0  0.00000000000E+00  0.00000000000E+00 -0.66278312020E+03  0.16422411233E+04  0.15025559698E+04 0.  0.
        3    1    3    3  502    0 -0.65688706893E+02  0.41954943551E+02  0.48529789700E+03  0.49151732679E+03  0.10100000352E+00 0.  1.
       -3    1    3    3    0  502  0.65688706893E+02 -0.41954943551E+02 -0.11480810172E+04  0.11507237965E+04  0.10100000352E+00 0. -1.
</event>
<event>
 5   0  0.6364378E-05  0.1496548E+04  0.7818609E-02  0.8886752E-01
        1   -1    0    0  501    0  0.00000000000E+00  0.00000000000E+00  0.28070553264E+04  0.28070553264E+04  0.50400001928E-02 0. -1.
       -1   -1    0    0    0  501  0.00000000000E+00  0.00000000000E+00 -0.19946667709E+03  0.19946667716E+03  0.50400001928E-02 0.  1.
    10030    2    1    2    0    0  0.00000000000E+00  0.00000000000E+00  0.26075886493E+04  0.30065220036E+04  0.14965480259E+04 0.  0.
        5    1    3    3  502    0  0.38724400922E+03 -0.43218677750E+03  0.22528043215E+04  0.23263475094E+04  0.46999998093E+01 0. -1.
       -5    1    3    3    0  502 -0.38724400922E+03  0.43218677750E+03  0.35478432782E+03  0.68017449422E+03  0.46999998093E+01 0.  1.
</event>
<event>
 5   0  0.1219810E-04  0.1499471E+04  0.7818609E-02  0.8884805E-01
        2   -1    0    0  501    0  0.00000000000E+00  0.00000000000E+00  0.81316410184E+03  0.81316410184E+03  0.25500000920E-02 0.  1.
       -2   -1    0    0    0  501  0.00000000000E+00  0.00000000000E+00 -0.69125438769E+03  0.69125438769E+03  0.25500000920E-02 0. -1.
    10030    2    1    2    0    0  0.00000000000E+00  0.00000000000E+00  0.12190971415E+03  0.15044184895E+04  0.14994709111E+04 0.  0.
        1    1    3    3  502    0  0.43964610363E+03  0.30494620493E+03 -0.46596596329E+03  0.70951050965E+03  0.50400001928E-02 0. -1.
       -1    1    3    3    0  502 -0.43964610363E+03 -0.30494620493E+03  0.58787567744E+03  0.79490797988E+03  0.50400001928E-02 0.  1.
</event>
<event>
 5   0  0.6364378E-05  0.1500844E+04  0.7818609E-02  0.8883892E-01
       -1   -1    0    0    0  501  0.00000000000E+00  0.00000000000E+00  0.96124148839E+03  0.96124148840E+03  0.50400001928E-02 0. -1.
        1   -1    0    0  501    0  0.00000000000E+00  0.00000000000E+00 -0.58583914297E+03  0.58583914299E+03  0.50400001928E-02 0.  1.
    10030    2    1    2    0    0  0.00000000000E+00  0.00000000000E+00  0.37540234542E+03  0.15470806314E+04  0.15008436158E+04 0.  0.
        5    1    3    3  502    0 -0.56447105915E+03 -0.13091472675E+03  0.67919694643E+03  0.89280279141E+03  0.46999998093E+01 0. -1.
       -5    1    3    3    0  502  0.56447105915E+03  0.13091472675E+03 -0.30379460102E+03  0.65427783999E+03  0.46999998093E+01 0.  1.
</event>
<event>
 5   0  0.1219810E-04  0.1500313E+04  0.7818609E-02  0.8884245E-01
       -2   -1    0    0    0  501  0.00000000000E+00  0.00000000000E+00  0.40747154573E+03  0.40747154574E+03  0.25500000920E-02 0.  1.
        2   -1    0    0  501    0  0.00000000000E+00  0.00000000000E+00 -0.13810401125E+04  0.13810401125E+04  0.25500000920E-02 0. -1.
    10030    2    1    2    0    0  0.00000000000E+00  0.00000000000E+00 -0.97356856674E+03  0.17885116582E+04  0.15003126999E+04 0.  0.
        1    1    3    3  502    0 -0.45789780491E+03  0.52386528367E+03 -0.15251056401E+03  0.71229537928E+03  0.50400001928E-02 0. -1.
       -1    1    3    3    0  502  0.45789780491E+03 -0.52386528367E+03 -0.82105800273E+03  0.10762162789E+04  0.50400001928E-02 0.  1.
</event>
<event>
 5   0  0.1186664E-04  0.1499422E+04  0.7818609E-02  0.8884837E-01
        2   -1    0    0  501    0  0.00000000000E+00  0.00000000000E+00  0.11995750046E+04  0.11995750046E+04  0.25500000920E-02 0.  1.
       -2   -1    0    0    0  501  0.00000000000E+00  0.00000000000E+00 -0.46855480733E+03  0.46855480734E+03  0.25500000920E-02 0. -1.
    10030    2    1    2    0    0  0.00000000000E+00  0.00000000000E+00  0.73102019727E+03  0.16681298119E+04  0.14994220689E+04 0.  0.
        3    1    3    3  502    0  0.40408783765E+03  0.81558152626E+02 -0.33114821443E+03  0.52877014186E+03  0.10100000352E+00 0. -1.
       -3    1    3    3    0  502 -0.40408783765E+03 -0.81558152626E+02  0.10621684117E+04  0.11393596701E+04  0.10100000352E+00 0.  1.
</event>
<event>
 5   0  0.1228286E-04  0.1499360E+04  0.7818609E-02  0.8884878E-01
        2   -1    0    0  501    0  0.00000000000E+00  0.00000000000E+00  0.11100156163E+04  0.11100156163E+04  0.25500000920E-02 0. -1.
       -2   -1    0    0    0  501  0.00000000000E+00  0.00000000000E+00 -0.50631745101E+03  0.50631745102E+03  0.25500000920E-02 0.  1.
    10030    2    1    2    0    0  0.00000000000E+00  0.00000000000E+00  0.60369816532E+03  0.16163330674E+04  0.14993602335E+04 0.  0.
        2    1    3    3  502    0  0.43937387649E+02  0.35481310073E+03 -0.40849456735E+03  0.54285416278E+03  0.25500000920E-02 0.  1.
       -2    1    3    3    0  502 -0.43937387649E+02 -0.35481310073E+03  0.10121927327E+04  0.10734789046E+04  0.25500000920E-02 0. -1.
</event>
<event>
 5   0  0.6509279E-05  0.1499946E+04  0.7818609E-02  0.8884489E-01
       -1   -1    0    0    0  501  0.00000000000E+00  0.00000000000E+00  0.27356251692E+03  0.27356251696E+03  0.50400001928E-02 0.  1.
        1   -1    0    0  501    0  0.00000000000E+00  0.00000000000E+00 -0.20560547453E+04  0.20560547453E+04  0.50400001928E-02 0. -1.
    10030    2    1    2    0    0  0.00000000000E+00  0.00000000000E+00 -0.17824922283E+04  0.23296172622E+04  0.14999460138E+04 0.  0.
        2    1    3    3  502    0 -0.71393350524E+02 -0.68709260054E+03 -0.43772495739E+03  0.81779972520E+03  0.25500000920E-02 0. -1.
       -2    1    3    3    0  502  0.71393350524E+02  0.68709260054E+03 -0.13447672710E+04  0.15118175370E+04  0.25500000920E-02 0.  1.
</event>
<event>
 5   0  0.1254487E-04  0.1500648E+04  0.7818609E-02  0.8884022E-01
        2   -1    0    0  501    0  0.00000000000E+00  0.00000000000E+00  0.10058404707E+04  0.10058404707E+04  0.25500000920E-02 0. -1.
       -2   -1    0    0    0  501  0.00000000000E+00  0.00000000000E+00 -0.55971679144E+03  0.55971679144E+03  0.25500000920E-02 0.  1.
    10030    2    1    2    0    0  0.00000000000E+00  0.00000000000E+00  0.44612367926E+03  0.15655572621E+04  0.15006475948E+04 0.  0.
        5    1    3    3  502    0 -0.71518864929E+01  0.70920682805E+03  0.47847438268E+03  0.85556139424E+03  0.46999998093E+01 0. -1.
       -5    1    3    3    0  502  0.71518864929E+01 -0.70920682805E+03 -0.32350703420E+02  0.70999586790E+03  0.46999998093E+01 0.  1.
</event>
<event>
 5   0  0.4462875E-05  0.1499704E+04  0.7818609E-02  0.8884650E-01
       -3   -1    0    0    0  501  0.00000000000E+00  0.00000000000E+00  0.10182484954E+04  0.10182485004E+04  0.10100000352E+00 0. -1.
        3   -1    0    0  501    0  0.00000000000E+00  0.00000000000E+00 -0.55220129391E+03  0.55220130315E+03  0.10100000352E+00 0.  1.
    10030    2    1    2    0    0  0.00000000000E+00  0.00000000000E+00  0.46604720152E+03  0.15704498036E+04  0.14997041680E+04 0.  0.
        5    1    3    3  502    0 -0.59199075022E+03 -0.12138379752E+03  0.69788940351E+03  0.92317863070E+03  0.46999998093E+01 0. -1.
       -5    1    3    3    0  502  0.59199075022E+03  0.12138379752E+03 -0.23184220199E+03  0.64727117290E+03  0.46999998093E+01 0.  1.
</event>
<event>
 5   0  0.1254487E-04  0.1515153E+04  0.7818609E-02  0.8874439E-01
        2   -1    0    0  501    0  0.00000000000E+00  0.00000000000E+00  0.10928714916E+04  0.10928714916E+04  0.25500000920E-02 0. -1.
       -2   -1    0    0    0  501  0.00000000000E+00  0.00000000000E+00 -0.52515050888E+03  0.52515050889E+03  0.25500000920E-02 0.  1.
    10030    2    1    2    0    0  0.00000000000E+00  0.00000000000E+00  0.56772098273E+03  0.16180220005E+04  0.15151528239E+04 0.  0.
        5    1    3    3  502    0  0.61430740329E+03 -0.32411132678E+03  0.60684877553E+03  0.92233901806E+03  0.46999998093E+01 0. -1.
       -5    1    3    3    0  502 -0.61430740329E+03  0.32411132678E+03 -0.39127792803E+02  0.69568298243E+03  0.46999998093E+01 0.  1.
</event>
<event>
 5   0  0.1219810E-04  0.1502199E+04  0.7818609E-02  0.8882992E-01
       -2   -1    0    0    0  501  0.00000000000E+00  0.00000000000E+00  0.88389904606E+03  0.88389904606E+03  0.25500000920E-02 0. -1.
        2   -1    0    0  501    0  0.00000000000E+00  0.00000000000E+00 -0.63825200070E+03  0.63825200070E+03  0.25500000920E-02 0.  1.
    10030    2    1    2    0    0  0.00000000000E+00  0.00000000000E+00  0.24564704536E+03  0.15221510468E+04  0.15021988345E+04 0.  0.
        1    1    3    3  502    0  0.67227526172E+03  0.25634746273E+03  0.34128459764E+03  0.79633110311E+03  0.50400001928E-02 0. -1.
       -1    1    3    3    0  502 -0.67227526172E+03 -0.25634746273E+03 -0.95637552280E+02  0.72581994365E+03  0.50400001928E-02 0.  1.
</event>
<event>
 5   0  0.1216921E-04  0.1491287E+04  0.7818609E-02  0.8890267E-01
        2   -1    0    0  501    0  0.00000000000E+00  0.00000000000E+00  0.96908456949E+03  0.96908456949E+03  0.25500000920E-02 0. -1.
       -2   -1    0    0    0  501  0.00000000000E+00  0.00000000000E+00 -0.57372144188E+03  0.57372144188E+03  0.25500000920E-02 0.  1.
    10030    2    1    2    0    0  0.00000000000E+00  0.00000000000E+00  0.39536312761E+03  0.15428060114E+04  0.14912874928E+04 0.  0.
        4    1    3    3  502    0 -0.25254015049E+03  0.49574030917E+03  0.71126687899E+03  0.90301559665E+03  0.12699999809E+01 0. -1.
       -4    1    3    3    0  502  0.25254015049E+03 -0.49574030917E+03 -0.31590375138E+03  0.63979041473E+03  0.12699999809E+01 0.  1.
</event>
<event>
 5   0  0.6509279E-05  0.1499826E+04  0.7818609E-02  0.8884569E-01
        1   -1    0    0  501    0  0.00000000000E+00  0.00000000000E+00  0.16010694098E+04  0.16010694099E+04  0.50400001928E-02 0. -1.
       -1   -1    0    0    0  501  0.00000000000E+00  0.00000000000E+00 -0.35124600359E+03  0.35124600362E+03  0.50400001928E-02 0.  1.
    10030    2    1    2    0    0  0.00000000000E+00  0.00000000000E+00  0.12498234063E+04  0.19523154135E+04  0.14998256322E+04 0.  0.
        2    1    3    3  502    0 -0.17710630860E+03 -0.63150106676E+03  0.10982151912E+04  0.12791547397E+04  0.25500000920E-02 0. -1.
       -2    1    3    3    0  502  0.17710630860E+03  0.63150106676E+03  0.15160821506E+03  0.67316067380E+03  0.25500000920E-02 0.  1.
</event>
<event>
 5   0  0.6509279E-05  0.1496736E+04  0.7818609E-02  0.8886626E-01
        1   -1    0    0  501    0  0.00000000000E+00  0.00000000000E+00  0.15019970434E+04  0.15019970434E+04  0.50400001928E-02 0.  1.
       -1   -1    0    0    0  501  0.00000000000E+00  0.00000000000E+00 -0.37287329801E+03  0.37287329805E+03  0.50400001928E-02 0. -1.
    10030    2    1    2    0    0  0.00000000000E+00  0.00000000000E+00  0.11291237454E+04  0.18748703415E+04  0.14967359035E+04 0.  0.
        2    1    3    3  502    0 -0.56654260605E+02 -0.35455506111E+03  0.13870563723E+04  0.14327750614E+04  0.25500000920E-02 0.  1.
       -2    1    3    3    0  502  0.56654260605E+02  0.35455506111E+03 -0.25793262693E+03  0.44209528005E+03  0.25500000920E-02 0. -1.
</event>
<event>
 5   0  0.1254487E-04  0.1502169E+04  0.7818609E-02  0.8883012E-01
       -2   -1    0    0    0  501  0.00000000000E+00  0.00000000000E+00  0.40429014455E+03  0.40429014456E+03  0.25500000920E-02 0. -1.
        2   -1    0    0  501    0  0.00000000000E+00  0.00000000000E+00 -0.13953542169E+04  0.13953542169E+04  0.25500000920E-02 0.  1.
    10030    2    1    2    0    0  0.00000000000E+00  0.00000000000E+00 -0.99106407236E+03  0.17996443615E+04  0.15021690425E+04 0.  0.
        5    1    3    3  502    0  0.15311295358E+03  0.64128716405E+03 -0.92651186426E+03  0.11371627535E+04  0.46999998093E+01 0.  1.
       -5    1    3    3    0  502 -0.15311295358E+03 -0.64128716405E+03 -0.64552208100E+02  0.66248160797E+03  0.46999998093E+01 0. -1.
</event>
<event>
 5   0  0.1186664E-04  0.1500133E+04  0.7818609E-02  0.8884364E-01
       -2   -1    0    0    0  501  0.00000000000E+00  0.00000000000E+00  0.57577895435E+03  0.57577895436E+03  0.25500000920E-02 0. -1.
        2   -1    0    0  501    0  0.00000000000E+00  0.00000000000E+00 -0.97711072722E+03  0.97711072723E+03  0.25500000920E-02 0.  1.
    10030    2    1    2    0    0  0.00000000000E+00  0.00000000000E+00 -0.40133177287E+03  0.15528896816E+04  0.15001330512E+04 0.  0.
        3    1    3    3  502    0 -0.65517088043E+03 -0.83461533322E+02  0.16734334718E+03  0.68133583214E+03  0.10100000352E+00 0. -1.
       -3    1    3    3    0  502  0.65517088043E+03  0.83461533322E+02 -0.56867512005E+03  0.87155384944E+03  0.10100000352E+00 0.  1.
</event>
<event>
 5   0  0.6509279E-05  0.1499754E+04  0.7818609E-02  0.8884617E-01
       -1   -1    0    0    0  501  0.00000000000E+00  0.00000000000E+00  0.68456362747E+03  0.68456362748E+03  0.50400001928E-02 0.  1.
        1   -1    0    0  501    0  0.00000000000E+00  0.00000000000E+00 -0.82142170882E+03  0.82142170883E+03  0.50400001928E-02 0. -1.
    10030    2    1    2    0    0  0.00000000000E+00  0.00000000000E+00 -0.13685808135E+03  0.15059853363E+04  0.14997538794E+04 0.  0.
        2    1    3    3  502    0 -0.27567227082E+03  0.37730427061E+03  0.52049027615E+03  0.69947397456E+03  0.25500000920E-02 0.  1.
       -2    1    3    3    0  502  0.27567227082E+03 -0.37730427061E+03 -0.65734835750E+03  0.80651136175E+03  0.25500000920E-02 0. -1.
</event>
<event>
 5   0  0.1216921E-04  0.1498330E+04  0.7818609E-02  0.8885564E-01
        2   -1    0    0  501    0  0.00000000000E+00  0.00000000000E+00  0.69532636674E+03  0.69532636675E+03  0.25500000920E-02 0. -1.
       -2   -1    0    0    0  501  0.00000000000E+00  0.00000000000E+00 -0.80717197187E+03  0.80717197187E+03  0.25500000920E-02 0.  1.
    10030    2    1    2    0    0  0.00000000000E+00  0.00000000000E+00 -0.11184560513E+03  0.15024983386E+04  0.14983296761E+04 0.  0.
        4    1    3    3  502    0 -0.28721220379E+02  0.74857017408E+03 -0.63953054724E+02  0.75184693930E+03  0.12699999809E+01 0. -1.
       -4    1    3    3    0  502  0.28721220379E+02 -0.74857017408E+03 -0.47892550402E+02  0.75065139932E+03  0.12699999809E+01 0.  1.
</event>
<event>
 5   0  0.6542036E-05  0.1499766E+04  0.7818609E-02  0.8884608E-01
       -1   -1    0    0    0  501  0.00000000000E+00  0.00000000000E+00  0.28088139636E+03  0.28088139640E+03  0.50400001928E-02 0.  1.
        1   -1    0    0  501    0  0.00000000000E+00  0.00000000000E+00 -0.20020007149E+04  0.20020007149E+04  0.50400001928E-02 0. -1.
    10030    2    1    2    0    0  0.00000000000E+00  0.00000000000E+00 -0.17211193185E+04  0.22828821113E+04  0.14997663236E+04 0.  0.
        4    1    3    3  502    0 -0.27560067722E+03  0.67626097355E+03 -0.60117336746E+03  0.94588353843E+03  0.12699999809E+01 0.  1.
       -4    1    3    3    0  502  0.27560067722E+03 -0.67626097355E+03 -0.11199459511E+04  0.13369985729E+04  0.12699999809E+01 0. -1.
</event>
<event>
 5   0  0.6361716E-05  0.1485543E+04  0.7818609E-02  0.8894124E-01
        1   -1    0    0  501    0  0.00000000000E+00  0.00000000000E+00  0.15209112426E+04  0.15209112426E+04  0.50400001928E-02 0. -1.
       -1   -1    0    0    0  501  0.00000000000E+00  0.00000000000E+00 -0.36274912310E+03  0.36274912314E+03  0.50400001928E-02 0.  1.
    10030    2    1    2    0    0  0.00000000000E+00  0.00000000000E+00  0.11581621195E+04  0.18836603657E+04  0.14855426209E+04 0.  0.
        3    1    3    3  502    0  0.20589650415E+03 -0.28431058304E+03  0.14090932090E+04  0.14521603079E+04  0.10100000352E+00 0. -1.
       -3    1    3    3    0  502 -0.20589650415E+03  0.28431058304E+03 -0.25093108948E+03  0.43150005784E+03  0.10100000352E+00 0.  1.
</event>
<event>
 5   0  0.1186664E-04  0.1516080E+04  0.7818609E-02  0.8873830E-01
        2   -1    0    0  501    0  0.00000000000E+00  0.00000000000E+00  0.90391827529E+03  0.90391827529E+03  0.25500000920E-02 0. -1.
       -2   -1    0    0    0  501  0.00000000000E+00  0.00000000000E+00 -0.63570383184E+03  0.63570383185E+03  0.25500000920E-02 0.  1.
    10030    2    1    2    0    0  0.00000000000E+00  0.00000000000E+00  0.26821444345E+03  0.15396221071E+04  0.15160795642E+04 0.  0.
        3    1    3    3  502    0 -0.39643866012E+03  0.61971557391E+03 -0.51524337292E+02  0.73747255631E+03  0.10100000352E+00 0. -1.
       -3    1    3    3    0  502  0.39643866012E+03 -0.61971557391E+03  0.31973878074E+03  0.80214955083E+03  0.10100000352E+00 0.  1.
</event>
<event>
 5   0  0.6509279E-05  0.1500105E+04  0.7818609E-02  0.8884383E-01
       -1   -1    0    0    0  501  0.00000000000E+00  0.00000000000E+00  0.72071128573E+03  0.72071128575E+03  0.50400001928E-02 0. -1.
        1   -1    0    0  501    0  0.00000000000E+00  0.00000000000E+00 -0.78058840965E+03  0.78058840966E+03  0.50400001928E-02 0.  1.
    10030    2    1    2    0    0  0.00000000000E+00  0.00000000000E+00 -0.59877123915E+02  0.15012996954E+04  0.15001051648E+04 0.  0.
        2    1    3    3  502    0  0.37349977510E+03 -0.16841407849E+03 -0.65870112595E+03  0.77572711514E+03  0.25500000920E-02 0.  1.
       -2    1    3    3    0  502 -0.37349977510E+03  0.16841407849E+03  0.59882400203E+03  0.72557258027E+03  0.25500000920E-02 0. -1.
</event>
<event>
 5   0  0.1219810E-04  0.1500361E+04  0.7818609E-02  0.8884213E-01
        2   -1    0    0  501    0  0.00000000000E+00  0.00000000000E+00  0.17092612345E+04  0.17092612345E+04  0.25500000920E-02 0. -1.
       -2   -1    0    0    0  501  0.00000000000E+00  0.00000000000E+00 -0.32924806730E+03  0.32924806731E+03  0.25500000920E-02 0.  1.
    10030    2    1    2    0    0  0.00000000000E+00  0.00000000000E+00  0.13800131672E+04  0.20385093018E+04  0.15003612338E+04 0.  0.
        1    1    3    3  502    0  0.36949122634E+03  0.64805393847E+03  0.58239367930E+03  0.94640375698E+03  0.50400001928E-02 0. -1.
       -1    1    3    3    0  502 -0.36949122634E+03 -0.64805393847E+03  0.79761948785E+03  0.10921055448E+04  0.50400001928E-02 0.  1.
</event>
<event>
 5   0  0.1186664E-04  0.1502157E+04  0.7818609E-02  0.8883020E-01
        2   -1    0    0  501    0  0.00000000000E+00  0.00000000000E+00  0.13192230096E+04  0.13192230096E+04  0.25500000920E-02 0.  1.
       -2   -1    0    0    0  501  0.00000000000E+00  0.00000000000E+00 -0.42761473366E+03  0.42761473367E+03  0.25500000920E-02 0. -1.
    10030    2    1    2    0    0  0.00000000000E+00  0.00000000000E+00  0.89160827593E+03  0.17468377433E+04  0.15021573764E+04 0.  0.
        3    1    3    3  502    0 -0.19758176473E+03  0.14794441280E+03 -0.37910186373E+03  0.45237632157E+03  0.10100000352E+00 0. -1.
       -3    1    3    3    0  502  0.19758176473E+03 -0.14794441280E+03  0.12707101397E+04  0.12944614217E+04  0.10100000352E+00 0.  1.
</event>
<event>
 5   0  0.6668433E-05  0.1479863E+04  0.7818609E-02  0.8897956E-01
        1   -1    0    0  501    0  0.00000000000E+00  0.00000000000E+00  0.58750962617E+03  0.58750962620E+03  0.50400001928E-02 0.  1.
       -1   -1    0    0    0  501  0.00000000000E+00  0.00000000000E+00 -0.93189687940E+03  0.93189687941E+03  0.50400001928E-02 0. -1.
    10030    2    1    2    0    0  0.00000000000E+00  0.00000000000E+00 -0.34438725322E+03  0.15194065056E+04  0.14798626791E+04 0.  0.
        1    1    3    3  502    0  0.62180182964E+03 -0.17527571809E+03  0.19819427117E+03  0.67575147935E+03  0.50400001928E-02 0.  1.
       -1    1    3    3    0  502 -0.62180182964E+03  0.17527571809E+03 -0.54258152439E+03  0.84365502626E+03  0.50400001928E-02 0. -1.
</event>
<event>
 5   0  0.6668433E-05  0.1493706E+04  0.7818609E-02  0.8888649E-01
        1   -1    0    0  501    0  0.00000000000E+00  0.00000000000E+00  0.19817016786E+04  0.19817016786E+04  0.50400001928E-02 0.  1.
       -1   -1    0    0    0  501  0.00000000000E+00  0.00000000000E+00 -0.28146977072E+03  0.28146977077E+03  0.50400001928E-02 0. -1.
    10030    2    1    2    0    0  0.00000000000E+00  0.00000000000E+00  0.17002319078E+04  0.22631714493E+04  0.14937056165E+04 0.  0.
        1    1    3    3  502    0 -0.47692892972E+03  0.53242020516E+03  0.11780888881E+04  0.13779789211E+04  0.50400001928E-02 0. -1.
       -1    1    3    3    0  502  0.47692892972E+03 -0.53242020516E+03  0.52214301977E+03  0.88519252821E+03  0.50400001928E-02 0.  1.
</event>
<event>
 5   0  0.1219810E-04  0.1500796E+04  0.7818609E-02  0.8883924E-01
        2   -1    0    0  501    0  0.00000000000E+00  0.00000000000E+00  0.18710956037E+04  0.18710956037E+04  0.25500000920E-02 0. -1.
       -2   -1    0    0    0  501  0.00000000000E+00  0.00000000000E+00 -0.30094499602E+03  0.30094499603E+03  0.25500000920E-02 0.  1.
    10030    2    1    2    0    0  0.00000000000E+00  0.00000000000E+00  0.15701506077E+04  0.21720405998E+04  0.15007956011E+04 0.  0.
        1    1    3    3  502    0 -0.78045439247E+02 -0.35667747777E+03  0.17338716436E+04  0.17718975112E+04  0.50400001928E-02 0. -1.
       -1    1    3    3    0  502  0.78045439247E+02  0.35667747777E+03 -0.16372103586E+03  0.40014308859E+03  0.50400001928E-02 0.  1.
</event>
<event>
 5   0  0.6509279E-05  0.1499387E+04  0.7818609E-02  0.8884861E-01
        1   -1    0    0  501    0  0.00000000000E+00  0.00000000000E+00  0.44906769277E+03  0.44906769280E+03  0.50400001928E-02 0.  1.
       -1   -1    0    0    0  501  0.00000000000E+00  0.00000000000E+00 -0.12515718621E+04  0.12515718621E+04  0.50400001928E-02 0. -1.
    10030    2    1    2    0    0  0.00000000000E+00  0.00000000000E+00 -0.80250416932E+03  0.17006395549E+04  0.14993871928E+04 0.  0.
        2    1    3    3  502    0  0.47185402030E+03 -0.42453475931E+03 -0.85375522504E+03  0.10638486559E+04  0.25500000920E-02 0. -1.
       -2    1    3    3    0  502 -0.47185402030E+03  0.42453475931E+03  0.51251055721E+02  0.63679089901E+03  0.25500000920E-02 0.  1.
</event>
<event>
 5   0  0.6668433E-05  0.1499804E+04  0.7818609E-02  0.8884583E-01
       -1   -1    0    0    0  501  0.00000000000E+00  0.00000000000E+00  0.53947823768E+03  0.53947823770E+03  0.50400001928E-02 0.  1.
        1   -1    0    0  501    0  0.00000000000E+00  0.00000000000E+00 -0.10424013059E+04  0.10424013059E+04  0.50400001928E-02 0. -1.
    10030    2    1    2    0    0  0.00000000000E+00  0.00000000000E+00 -0.50292306825E+03  0.15818795436E+04  0.14998037465E+04 0.  0.
        1    1    3    3  502    0 -0.18086729151E+03 -0.60185066684E+03  0.18009426796E+03  0.65373629828E+03  0.50400001928E-02 0.  1.
       -1    1    3    3    0  502  0.18086729151E+03  0.60185066684E+03 -0.68301733621E+03  0.92814324536E+03  0.50400001928E-02 0. -1.
</event>
<event>
 5   0  0.1186664E-04  0.1498403E+04  0.7818609E-02  0.8885516E-01
       -2   -1    0    0    0  501  0.00000000000E+00  0.00000000000E+00  0.43788441079E+03  0.43788441079E+03  0.25500000920E-02 0.  1.
        2   -1    0    0  501    0  0.00000000000E+00  0.00000000000E+00 -0.12818519680E+04  0.12818519680E+04  0.25500000920E-02 0. -1.
    10030    2    1    2    0    0  0.00000000000E+00  0.00000000000E+00 -0.84396755720E+03  0.17197363788E+04  0.14984031416E+04 0.  0.
        3    1    3    3  502    0 -0.23080161074E+03  0.48012145742E+03  0.18262992817E+03  0.56315157663E+03  0.10100000352E+00 0.  1.
       -3    1    3    3    0  502  0.23080161074E+03 -0.48012145742E+03 -0.10265974854E+04  0.11565848021E+04  0.10100000352E+00 0. -1.
</event>
<event>
 5   0  0.6542036E-05  0.1497419E+04  0.7818609E-02  0.8886171E-01
       -1   -1    0    0    0  501  0.00000000000E+00  0.00000000000E+00  0.92331184044E+03  0.92331184045E+03  0.50400001928E-02 0.  1.
        1   -1    0    0  501    0  0.00000000000E+00  0.00000000000E+00 -0.60712498029E+03  0.60712498031E+03  0.50400001928E-02 0. -1.
    10030    2    1    2    0    0  0.00000000000E+00  0.00000000000E+00  0.31618686015E+03  0.15304368208E+04  0.14974186895E+04 0.  0.
        4    1    3    3  502    0  0.14962447874E+03 -0.55086560453E+03 -0.33707232402E+03  0.66291761435E+03  0.12699999809E+01 0. -1.
       -4    1    3    3    0  502 -0.14962447874E+03  0.55086560453E+03  0.65325918417E+03  0.86751920641E+03  0.12699999809E+01 0.  1.
</event>
<event>
 5   0  0.6668433E-05  0.1502350E+04  0.7818609E-02  0.8882892E-01
        1   -1    0    0  501    0  0.00000000000E+00  0.00000000000E+00  0.58079438685E+03  0.58079438687E+03  0.50400001928E-02 0.  1.
       -1   -1    0    0    0  501  0.00000000000E+00  0.00000000000E+00 -0.97153784953E+03  0.97153784955E+03  0.50400001928E-02 0. -1.
    10030    2    1    2    0    0  0.00000000000E+00  0.00000000000E+00 -0.39074346268E+03  0.15523322364E+04  0.15023497990E+04 0.  0.
        1    1    3    3  502    0  0.12591854453E+03 -0.74024713274E+03 -0.21710559787E+03  0.78163683257E+03  0.50400001928E-02 0.  1.
       -1    1    3    3    0  502 -0.12591854453E+03  0.74024713274E+03 -0.17363786481E+03  0.77069540384E+03  0.50400001928E-02 0. -1.
</event>
<event>
 5   0  0.6668433E-05  0.1499739E+04  0.7818609E-02  0.8884626E-01
        1   -1    0    0  501    0  0.00000000000E+00  0.00000000000E+00  0.19933639240E+03  0.19933639247E+03  0.50400001928E-02 0.  1.
       -1   -1    0    0    0  501  0.00000000000E+00  0.00000000000E+00 -0.28208818762E+04  0.28208818762E+04  0.50400001928E-02 0. -1.
    10030    2    1    2    0    0  0.00000000000E+00  0.00000000000E+00 -0.26215454838E+04  0.30202182686E+04  0.14997391996E+04 0.  0.
        1    1    3    3  502    0  0.41821099187E+03  0.35024860628E+03 -0.23469262036E+04  0.24094889759E+04  0.50400001928E-02 0. -1.
       -1    1    3    3    0  502 -0.41821099187E+03 -0.35024860628E+03 -0.27461928018E+03  0.61072929273E+03  0.50400001928E-02 0.  1.
</event>
<event>
 5   0  0.1228286E-04  0.1501078E+04  0.7818609E-02  0.8883737E-01
       -2   -1    0    0    0  501  0.00000000000E+00  0.00000000000E+00  0.21223909418E+03  0.21223909419E+03  0.25500000920E-02 0. -1.
        2   -1    0    0  501    0  0.00000000000E+00  0.00000000000E+00 -0.26541223036E+04  0.26541223036E+04  0.25500000920E-02 0.  1.
    10030    2    1    2    0    0  0.00000000000E+00  0.00000000000E+00 -0.24418832095E+04  0.28663613978E+04  0.15010776310E+04 0.  0.
        2    1    3    3  502    0 -0.17695020149E+03 -0.47031865774E+03 -0.15639041022E+03  0.52627841875E+03  0.25500000920E-02 0. -1.
       -2    1    3    3    0  502  0.17695020149E+03  0.47031865774E+03 -0.22854927992E+04  0.23400829791E+04  0.25500000920E-02 0.  1.
</event>
<event>
 5   0  0.1216921E-04  0.1498783E+04  0.7818609E-02  0.8885263E-01
       -2   -1    0    0    0  501  0.00000000000E+00  0.00000000000E+00  0.10663597907E+04  0.10663597907E+04  0.25500000920E-02 0. -1.
        2   -1    0    0  501    0  0.00000000000E+00  0.00000000000E+00 -0.52663966560E+03  0.52663966561E+03  0.25500000920E-02 0.  1.
    10030    2    1    2    0    0  0.00000000000E+00  0.00000000000E+00  0.53972012511E+03  0.15929994563E+04  0.14987826575E+04 0.  0.
        4    1    3    3  502    0  0.32539437258E+02 -0.42891674991E+03 -0.38235757216E+03  0.57552351752E+03  0.12699999809E+01 0.  1.
       -4    1    3    3    0  502 -0.32539437258E+02  0.42891674991E+03  0.92207769727E+03  0.10174759388E+04  0.12699999809E+01 0. -1.
</event>
<event>
 5   0  0.1186664E-04  0.1499863E+04  0.7818609E-02  0.8884544E-01
       -2   -1    0    0    0  501  0.00000000000E+00  0.00000000000E+00  0.93103954884E+03  0.93103954884E+03  0.25500000920E-02 0.  1.
        2   -1    0    0  501    0  0.00000000000E+00  0.00000000000E+00 -0.60405302014E+03  0.60405302014E+03  0.25500000920E-02 0. -1.
    10030    2    1    2    0    0  0.00000000000E+00  0.00000000000E+00  0.32698652870E+03  0.15350925690E+04  0.14998629955E+04 0.  0.
        3    1    3    3  502    0  0.81598444089E+02 -0.66593669384E+03 -0.17943993465E+03  0.69449887446E+03  0.10100000352E+00 0. -1.
       -3    1    3    3    0  502 -0.81598444089E+02  0.66593669384E+03  0.50642646336E+03  0.84059369452E+03  0.10100000352E+00 0.  1.
</event>
<event>
 5   0  0.6361716E-05  0.1502044E+04  0.7818609E-02  0.8883095E-01
       -1   -1    0    0    0  501  0.00000000000E+00  0.00000000000E+00  0.60778900910E+03  0.60778900912E+03  0.50400001928E-02 0. -1.
        1   -1    0    0  501    0  0.00000000000E+00  0.00000000000E+00 -0.92800903787E+03  0.92800903789E+03  0.50400001928E-02 0.  1.
    10030    2    1    2    0    0  0.00000000000E+00  0.00000000000E+00 -0.32022002877E+03  0.15357980470E+04  0.15020435328E+04 0.  0.
        3    1    3    3  502    0 -0.53414822000E+03  0.41387150762E+02 -0.69825158850E+03  0.88010369174E+03  0.10100000352E+00 0.  1.
       -3    1    3    3    0  502  0.53414822000E+03 -0.41387150762E+02  0.37803155973E+03  0.65569435527E+03  0.10100000352E+00 0. -1.
</event>
<event>
 5   0  0.1254487E-04  0.1499575E+04  0.7818609E-02  0.8884736E-01
       -2   -1    0    0    0  501  0.00000000000E+00  0.00000000000E+00  0.40731557900E+03  0.40731557901E+03  0.25500000920E-02 0.  1.
        2   -1    0    0  501    0  0.00000000000E+00  0.00000000000E+00 -0.13802105401E+04  0.13802105401E+04  0.25500000920E-02 0. -1.
    10030    2    1    2    0    0  0.00000000000E+00  0.00000000000E+00 -0.97289496108E+03  0.17875261191E+04  0.14995749468E+04 0.  0.
        5    1    3    3  502    0  0.49500712593E+03  0.51096058184E+03 -0.20424679823E+03  0.74016999095E+03  0.46999998093E+01 0.  1.
       -5    1    3    3    0  502 -0.49500712593E+03 -0.51096058184E+03 -0.76864816285E+03  0.10473561281E+04  0.46999998093E+01 0. -1.
</event>
<event>
 5   0  0.1228286E-04  0.1498773E+04  0.7818609E-02  0.8885269E-01
        2   -1    0    0  501    0  0.00000000000E+00  0.00000000000E+00  0.62938616428E+03  0.62938616428E+03  0.25500000920E-02 0. -1.
       -2   -1    0    0    0  501  0.00000000000E+00  0.00000000000E+00 -0.89226639594E+03  0.89226639595E+03  0.25500000920E-02 0.  1.
    10030    2    1    2    0    0  0.00000000000E+00  0.00000000000E+00 -0.26288023167E+03  0.15216525602E+04  0.14987729974E+04 0.  0.
        2    1    3    3  502    0 -0.72736747532E+03 -0.69638797930E+02 -0.30031365419E+03  0.79000082104E+03  0.25500000920E-02 0.  1.
       -2    1    3    3    0  502  0.72736747532E+03  0.69638797930E+02  0.37433422525E+02  0.73165173919E+03  0.25500000920E-02 0. -1.
</event>
<event>
 5   0  0.6361716E-05  0.1496418E+04  0.7818609E-02  0.8886838E-01
       -1   -1    0    0    0  501  0.00000000000E+00  0.00000000000E+00  0.12336542504E+04  0.12336542504E+04  0.50400001928E-02 0.  1.
        1   -1    0    0  501    0  0.00000000000E+00  0.00000000000E+00 -0.45378756007E+03  0.45378756010E+03  0.50400001928E-02 0. -1.
    10030    2    1    2    0    0  0.00000000000E+00  0.00000000000E+00  0.77986669034E+03  0.16874418105E+04  0.14964183269E+04 0.  0.
        3    1    3    3  502    0 -0.54858354576E+03 -0.27840221133E+03 -0.90300561109E+02  0.62177640634E+03  0.10100000352E+00 0. -1.
       -3    1    3    3    0  502  0.54858354576E+03  0.27840221133E+03  0.87016725145E+03  0.10656654042E+04  0.10100000352E+00 0.  1.
</event>
<event>
 5   0  0.1254487E-04  0.1498479E+04  0.7818609E-02  0.8885465E-01
       -2   -1    0    0    0  501  0.00000000000E+00  0.00000000000E+00  0.10072696409E+04  0.10072696409E+04  0.25500000920E-02 0.  1.
        2   -1    0    0  501    0  0.00000000000E+00  0.00000000000E+00 -0.55730870383E+03  0.55730870384E+03  0.25500000920E-02 0. -1.
    10030    2    1    2    0    0  0.00000000000E+00  0.00000000000E+00  0.44996093706E+03  0.15645783447E+04  0.14984794132E+04 0.  0.
        5    1    3    3  502    0 -0.69266428187E+03 -0.20393440246E+03  0.43371122318E+03  0.84231856385E+03  0.46999998093E+01 0.  1.
       -5    1    3    3    0  502  0.69266428187E+03  0.20393440246E+03  0.16249713877E+02  0.72225978089E+03  0.46999998093E+01 0. -1.
</event>
<event>
 5   0  0.4462875E-05  0.1499593E+04  0.7818609E-02  0.8884724E-01
        3   -1    0    0  501    0  0.00000000000E+00  0.00000000000E+00  0.15787028819E+04  0.15787028851E+04  0.10100000352E+00 0.  1.
       -3   -1    0    0    0  501  0.00000000000E+00  0.00000000000E+00 -0.35611162248E+03  0.35611163681E+03  0.10100000352E+00 0. -1.
    10030    2    1    2    0    0  0.00000000000E+00  0.00000000000E+00  0.12225912594E+04  0.19348145220E+04  0.14995925602E+04 0.  0.
        1    1    3    3  502    0  0.16599856150E+03 -0.55333890643E+03 -0.53936362051E+01  0.57772706283E+03  0.50400001928E-02 0. -1.
       -1    1    3    3    0  502 -0.16599856150E+03  0.55333890643E+03  0.12279848956E+04  0.13570874591E+04  0.50400001928E-02 0.  1.
</event>
<event>
 5   0  0.1254487E-04  0.1499539E+04  0.7818609E-02  0.8884760E-01
       -2   -1    0    0    0  501  0.00000000000E+00  0.00000000000E+00  0.33208063584E+03  0.33208063585E+03  0.25500000920E-02 0. -1.
        2   -1    0    0  501    0  0.00000000000E+00  0.00000000000E+00 -0.16928239355E+04  0.16928239355E+04  0.25500000920E-02 0.  1.
    10030    2    1    2    0    0  0.00000000000E+00  0.00000000000E+00 -0.13607432997E+04  0.20249045714E+04  0.14995386609E+04 0.  0.
        5    1    3    3  502    0 -0.35581840570E+03 -0.17003689841E+03  0.18069615127E+03  0.43381156478E+03  0.46999998093E+01 0. -1.
       -5    1    3    3    0  502  0.35581840570E+03  0.17003689841E+03 -0.15414394510E+04  0.15910930066E+04  0.46999998093E+01 0.  1.
</event>
<event>
 5   0  0.1219810E-04  0.1499409E+04  0.7818609E-02  0.8884846E-01
        2   -1    0    0  501    0  0.00000000000E+00  0.00000000000E+00  0.14524914993E+04  0.14524914994E+04  0.25500000920E-02 0. -1.
       -2   -1    0    0    0  501  0.00000000000E+00  0.00000000000E+00 -0.38696068708E+03  0.38696068709E+03  0.25500000920E-02 0.  1.
    10030    2    1    2    0    0  0.00000000000E+00  0.00000000000E+00  0.10655308123E+04  0.18394521864E+04  0.14994093618E+04 0.  0.
        1    1    3    3  502    0 -0.79929138933E+01 -0.13918692210E+03  0.14364487403E+04  0.14431984858E+04  0.50400001928E-02 0. -1.
       -1    1    3    3    0  502  0.79929138933E+01  0.13918692210E+03 -0.37091792799E+03  0.39625370065E+03  0.50400001928E-02 0.  1.
</event>
<event>
 5   0  0.1216921E-04  0.1499331E+04  0.7818609E-02  0.8884898E-01
       -2   -1    0    0    0  501  0.00000000000E+00  0.00000000000E+00  0.36983338776E+03  0.36983338777E+03  0.25500000920E-02 0.  1.
        2   -1    0    0  501    0  0.00000000000E+00  0.00000000000E+00 -0.15195996516E+04  0.15195996516E+04  0.25500000920E-02 0. -1.
    10030    2    1    2    0    0  0.00000000000E+00  0.00000000000E+00 -0.11497662638E+04  0.18894330394E+04  0.14993314339E+04 0.  0.
        4    1    3    3  502    0  0.85720900332E+01 -0.60385856818E+03 -0.15159487561E+02  0.60411097826E+03  0.12699999809E+01 0.  1.
       -4    1    3    3    0  502 -0.85720900332E+01  0.60385856818E+03 -0.11346067763E+04  0.12853220611E+04  0.12699999809E+01 0. -1.
</event>
<event>
 5   0  0.6361716E-05  0.1501518E+04  0.7818609E-02  0.8883444E-01
        1   -1    0    0  501    0  0.00000000000E+00  0.00000000000E+00  0.10379653248E+04  0.10379653248E+04  0.50400001928E-02 0. -1.
       -1   -1    0    0    0  501  0.00000000000E+00  0.00000000000E+00 -0.54302311728E+03  0.54302311730E+03  0.50400001928E-02 0.  1.
    10030    2    1    2    0    0  0.00000000000E+00  0.00000000000E+00  0.49494220754E+03  0.15809884421E+04  0.15015181202E+04 0.  0.
        3    1    3    3  502    0  0.51472811536E+03 -0.22973023971E+03  0.76961884116E+03  0.95395711992E+03  0.10100000352E+00 0. -1.
       -3    1    3    3    0  502 -0.51472811536E+03  0.22973023971E+03 -0.27467663362E+03  0.62703132221E+03  0.10100000352E+00 0.  1.
</event>
<event>
 5   0  0.6542036E-05  0.1499992E+04  0.7818609E-02  0.8884458E-01
        1   -1    0    0  501    0  0.00000000000E+00  0.00000000000E+00  0.62473856337E+03  0.62473856339E+03  0.50400001928E-02 0. -1.
       -1   -1    0    0    0  501  0.00000000000E+00  0.00000000000E+00 -0.90036725248E+03  0.90036725250E+03  0.50400001928E-02 0.  1.
    10030    2    1    2    0    0  0.00000000000E+00  0.00000000000E+00 -0.27562868912E+03  0.15251058159E+04  0.14999921918E+04 0.  0.
        4    1    3    3  502    0 -0.24287963204E+03 -0.10305829513E+03  0.57599465428E+03  0.63354793230E+03  0.12699999809E+01 0. -1.
       -4    1    3    3    0  502  0.24287963204E+03  0.10305829513E+03 -0.85162334340E+03  0.89155788358E+03  0.12699999809E+01 0.  1.
</event>
<event>
 5   0  0.1219810E-04  0.1499918E+04  0.7818609E-02  0.8884507E-01
        2   -1    0    0  501    0  0.00000000000E+00  0.00000000000E+00  0.13061855832E+04  0.13061855832E+04  0.25500000920E-02 0. -1.
       -2   -1    0    0    0  501  0.00000000000E+00  0.00000000000E+00 -0.43059624404E+03  0.43059624405E+03  0.25500000920E-02 0.  1.
    10030    2    1    2    0    0  0.00000000000E+00  0.00000000000E+00  0.87558933919E+03  0.17367818273E+04  0.14999181393E+04 0.  0.
        1    1    3    3  502    0  0.28346751626E+02 -0.14629390769E+03 -0.41328129977E+03  0.43932548130E+03  0.50400001928E-02 0.  1.
       -1    1    3    3    0  502 -0.28346751626E+02  0.14629390769E+03  0.12888706390E+04  0.12974563460E+04  0.50400001928E-02 0. -1.
</event>
<event>
 5   0  0.6668433E-05  0.1505295E+04  0.7818609E-02  0.8880939E-01
       -1   -1    0    0    0  501  0.00000000000E+00  0.00000000000E+00  0.14419264956E+04  0.14419264956E+04  0.50400001928E-02 0. -1.
        1   -1    0    0  501    0  0.00000000000E+00  0.00000000000E+00 -0.39286212337E+03  0.39286212340E+03  0.50400001928E-02 0.  1.
    10030    2    1    2    0    0  0.00000000000E+00  0.00000000000E+00  0.10490643722E+04  0.18347886190E+04  0.15052950605E+04 0.  0.
        1    1    3    3  502    0 -0.24735830287E+03  0.48571099389E+03 -0.10809035344E+03  0.55568410461E+03  0.50400001928E-02 0.  1.
       -1    1    3    3    0  502  0.24735830287E+03 -0.48571099389E+03  0.11571547256E+04  0.12791045144E+04  0.50400001928E-02 0. -1.
</event>
<event>
 5   0  0.1216921E-04  0.1495710E+04  0.7818609E-02  0.8887311E-01
       -2   -1    0    0    0  501  0.00000000000E+00  0.00000000000E+00  0.40329846423E+03  0.40329846423E+03  0.25500000920E-02 0.  1.
        2   -1    0    0  501    0  0.00000000000E+00  0.00000000000E+00 -0.13867815360E+04  0.13867815360E+04  0.25500000920E-02 0. -1.
    10030    2    1    2    0    0  0.00000000000E+00  0.00000000000E+00 -0.98348307180E+03  0.17900800003E+04  0.14957096827E+04 0.  0.
        4    1    3    3  502    0 -0.34790753041E+03  0.78413423872E+02  0.29497038081E+03  0.46281470721E+03  0.12699999809E+01 0.  1.
       -4    1    3    3    0  502  0.34790753041E+03 -0.78413423872E+02 -0.12784534526E+04  0.13272652931E+04  0.12699999809E+01 0. -1.
</event>
<event>
 5   0  0.1254487E-04  0.1499592E+04  0.7818609E-02  0.8884724E-01
       -2   -1    0    0    0  501  0.00000000000E+00  0.00000000000E+00  0.71601510456E+03  0.71601510456E+03  0.25500000920E-02 0.  1.
        2   -1    0    0  501    0  0.00000000000E+00  0.00000000000E+00 -0.78517034083E+03  0.78517034084E+03  0.25500000920E-02 0. -1.
    10030    2    1    2    0    0  0.00000000000E+00  0.00000000000E+00 -0.69155236272E+02  0.15011854454E+04  0.14995917094E+04 0.  0.
        5    1    3    3  502    0 -0.17995395527E+03 -0.16468707272E+02  0.69387499375E+03  0.71703503491E+03  0.46999998093E+01 0.  1.
       -5    1    3    3    0  502  0.17995395527E+03  0.16468707272E+02 -0.76303023003E+03  0.78415041049E+03  0.46999998093E+01 0. -1.
</event>
<event>
 5   0  0.1254487E-04  0.1501349E+04  0.7818609E-02  0.8883556E-01
       -2   -1    0    0    0  501  0.00000000000E+00  0.00000000000E+00  0.40414454118E+03  0.40414454119E+03  0.25500000920E-02 0.  1.
        2   -1    0    0  501    0  0.00000000000E+00  0.00000000000E+00 -0.13943341853E+04  0.13943341853E+04  0.25500000920E-02 0. -1.
    10030    2    1    2    0    0  0.00000000000E+00  0.00000000000E+00 -0.99018964407E+03  0.17984787264E+04  0.15013494591E+04 0.  0.
        5    1    3    3  502    0  0.44990055065E+03 -0.59655409196E+03 -0.40868611672E+03  0.85166526412E+03  0.46999998093E+01 0.  1.
       -5    1    3    3    0  502 -0.44990055065E+03  0.59655409196E+03 -0.58150352735E+03  0.94681346232E+03  0.46999998093E+01 0. -1.
</event>
<event>
 5   0  0.6542036E-05  0.1500209E+04  0.7818609E-02  0.8884314E-01
        1   -1    0    0  501    0  0.00000000000E+00  0.00000000000E+00  0.60057530363E+03  0.60057530365E+03  0.50400001928E-02 0. -1.
       -1   -1    0    0    0  501  0.00000000000E+00  0.00000000000E+00 -0.93686328455E+03  0.93686328456E+03  0.50400001928E-02 0.  1.
    10030    2    1    2    0    0  0.00000000000E+00  0.00000000000E+00 -0.33628798092E+03  0.15374385882E+04  0.15002092542E+04 0.  0.
        4    1    3    3  502    0 -0.20445227411E+03  0.29961714831E+03 -0.84100749793E+03  0.91589649656E+03  0.12699999809E+01 0.  1.
       -4    1    3    3    0  502  0.20445227411E+03 -0.29961714831E+03  0.50471951700E+03  0.62154209165E+03  0.12699999809E+01 0. -1.
</event>
<event>
 5   0  0.6542036E-05  0.1497150E+04  0.7818609E-02  0.8886350E-01
       -1   -1    0    0    0  501  0.00000000000E+00  0.00000000000E+00  0.43132932626E+03  0.43132932629E+03  0.50400001928E-02 0.  1.
        1   -1    0    0  501    0  0.00000000000E+00  0.00000000000E+00 -0.12991566542E+04  0.12991566542E+04  0.50400001928E-02 0. -1.
    10030    2    1    2    0    0  0.00000000000E+00  0.00000000000E+00 -0.86782732794E+03  0.17304859805E+04  0.14971497779E+04 0.  0.
        4    1    3    3  502    0  0.28772551936E+03  0.55651406782E+03  0.39660408805E+02  0.62774871015E+03  0.12699999809E+01 0.  1.
       -4    1    3    3    0  502 -0.28772551936E+03 -0.55651406782E+03 -0.90748773675E+03  0.11027372703E+04  0.12699999809E+01 0. -1.
</event>
<event>
 5   0  0.6668433E-05  0.1498715E+04  0.7818609E-02  0.8885308E-01
       -1   -1    0    0    0  501  0.00000000000E+00  0.00000000000E+00  0.33969688683E+03  0.33969688687E+03  0.50400001928E-02 0.  1.
        1   -1    0    0  501    0  0.00000000000E+00  0.00000000000E+00 -0.16530510614E+04  0.16530510614E+04  0.50400001928E-02 0. -1.
    10030    2    1    2    0    0  0.00000000000E+00  0.00000000000E+00 -0.13133541745E+04  0.19927479482E+04  0.14987145150E+04 0.  0.
        1    1    3    3  502    0 -0.17468102054E+03  0.72235047384E+03 -0.78443748393E+03  0.10805766202E+04  0.50400001928E-02 0. -1.
       -1    1    3    3    0  502  0.17468102054E+03 -0.72235047384E+03 -0.52891669059E+03  0.91217132799E+03  0.50400001928E-02 0.  1.
</event>
<event>
 5   0  0.1254487E-04  0.1499088E+04  0.7818609E-02  0.8885060E-01
        2   -1    0    0  501    0  0.00000000000E+00  0.00000000000E+00  0.60893826173E+03  0.60893826174E+03  0.25500000920E-02 0. -1.
       -2   -1    0    0    0  501  0.00000000000E+00  0.00000000000E+00 -0.92261612966E+03  0.92261612966E+03  0.25500000920E-02 0.  1.
    10030    2    1    2    0    0  0.00000000000E+00  0.00000000000E+00 -0.31367786793E+03  0.15315543914E+04  0.14990880725E+04 0.  0.
        5    1    3    3  502    0 -0.70695086810E+03 -0.15115261773E+03 -0.35903297876E+03  0.80718858614E+03  0.46999998093E+01 0.  1.
       -5    1    3    3    0  502  0.70695086810E+03  0.15115261773E+03  0.45355110832E+02  0.72436580526E+03  0.46999998093E+01 0. -1.
</event>
<event>
 5   0  0.1219810E-04  0.1503099E+04  0.7818609E-02  0.8882395E-01
        2   -1    0    0  501    0  0.00000000000E+00  0.00000000000E+00  0.13031377312E+04  0.13031377312E+04  0.25500000920E-02 0. -1.
       -2   -1    0    0    0  501  0.00000000000E+00  0.00000000000E+00 -0.43343581169E+03  0.43343581169E+03  0.25500000920E-02 0.  1.
    10030    2    1    2    0    0  0.00000000000E+00  0.00000000000E+00  0.86970191949E+03  0.17365735429E+04  0.15030988793E+04 0.  0.
        1    1    3    3  502    0 -0.47106564471E+03 -0.42408259133E+03  0.90140599815E+03  0.11019444902E+04  0.50400001928E-02 0. -1.
       -1    1    3    3    0  502  0.47106564471E+03  0.42408259133E+03 -0.31704078665E+02  0.63462905269E+03  0.50400001928E-02 0.  1.
</event>
<event>
 5   0  0.1219810E-04  0.1500317E+04  0.7818609E-02  0.8884242E-01
        2   -1    0    0  501    0  0.00000000000E+00  0.00000000000E+00  0.16088326038E+04  0.16088326038E+04  0.25500000920E-02 0. -1.
       -2   -1    0    0    0  501  0.00000000000E+00  0.00000000000E+00 -0.34977998462E+03  0.34977998463E+03  0.25500000920E-02 0.  1.
    10030    2    1    2    0    0  0.00000000000E+00  0.00000000000E+00  0.12590526192E+04  0.19586125884E+04  0.15003165578E+04 0.  0.
        1    1    3    3  502    0  0.19040781666E+02  0.74884071232E+03  0.57710441002E+03  0.94560798637E+03  0.50400001928E-02 0.  1.
       -1    1    3    3    0  502 -0.19040781666E+02 -0.74884071232E+03  0.68194820917E+03  0.10130046021E+04  0.50400001928E-02 0. -1.
</event>
<event>
 5   0  0.1219810E-04  0.1500310E+04  0.7818609E-02  0.8884247E-01
        2   -1    0    0  501    0  0.00000000000E+00  0.00000000000E+00  0.11714229286E+04  0.11714229286E+04  0.25500000920E-02 0.  1.
       -2   -1    0    0    0  501  0.00000000000E+00  0.00000000000E+00 -0.48038383704E+03  0.48038383705E+03  0.25500000920E-02 0. -1.
    10030    2    1    2    0    0  0.00000000000E+00  0.00000000000E+00  0.69103909159E+03  0.16518067657E+04  0.15003101563E+04 0.  0.
        1    1    3    3  502    0 -0.52165111931E+03  0.49727966031E+03  0.57468594317E+03  0.92177594031E+03  0.50400001928E-02 0.  1.
       -1    1    3    3    0  502  0.52165111931E+03 -0.49727966031E+03  0.11635314842E+03  0.73003082538E+03  0.50400001928E-02 0. -1.
</event>
<event>
 5   0  0.6509279E-05  0.1482774E+04  0.7818609E-02  0.8895990E-01
       -1   -1    0    0    0  501  0.00000000000E+00  0.00000000000E+00  0.29410647128E+03  0.29410647132E+03  0.50400001928E-02 0. -1.
        1   -1    0    0  501    0  0.00000000000E+00  0.00000000000E+00 -0.18688961665E+04  0.18688961665E+04  0.50400001928E-02 0.  1.
    10030    2    1    2    0    0  0.00000000000E+00  0.00000000000E+00 -0.15747896952E+04  0.21630026378E+04  0.14827736938E+04 0.  0.
        2    1    3    3  502    0  0.44423566373E+03  0.15418513822E+03  0.48734965046E+02  0.47275096890E+03  0.25500000920E-02 0. -1.
       -2    1    3    3    0  502 -0.44423566373E+03 -0.15418513822E+03 -0.16235246602E+04  0.16902516689E+04  0.25500000920E-02 0.  1.
</event>
<event>
 5   0  0.6364378E-05  0.1518057E+04  0.7818609E-02  0.8872533E-01
        1   -1    0    0  501    0  0.00000000000E+00  0.00000000000E+00  0.99325025690E+03  0.99325025691E+03  0.50400001928E-02 0. -1.
       -1   -1    0    0    0  501  0.00000000000E+00  0.00000000000E+00 -0.58003957304E+03  0.58003957307E+03  0.50400001928E-02 0.  1.
    10030    2    1    2    0    0  0.00000000000E+00  0.00000000000E+00  0.41321068386E+03  0.15732898300E+04  0.15180572518E+04 0.  0.
        5    1    3    3  502    0  0.41893841037E+03 -0.34260085638E+03 -0.34493936861E+03  0.64178656615E+03  0.46999998093E+01 0.  1.
       -5    1    3    3    0  502 -0.41893841037E+03  0.34260085638E+03  0.75815005246E+03  0.93150326383E+03  0.46999998093E+01 0. -1.
</event>
<event>
 5   0  0.1254487E-04  0.1499949E+04  0.7818609E-02  0.8884487E-01
       -2   -1    0    0    0  501  0.00000000000E+00  0.00000000000E+00  0.53675371130E+03  0.53675371131E+03  0.25500000920E-02 0. -1.
        2   -1    0    0  501    0  0.00000000000E+00  0.00000000000E+00 -0.10478954711E+04  0.10478954711E+04  0.25500000920E-02 0.  1.
    10030    2    1    2    0    0  0.00000000000E+00  0.00000000000E+00 -0.51114175977E+03  0.15846491824E+04  0.14999490434E+04 0.  0.
        5    1    3    3  502    0 -0.39011077493E+03 -0.49747862092E+03 -0.68179844873E+03  0.92980783482E+03  0.46999998093E+01 0.  1.
       -5    1    3    3    0  502  0.39011077493E+03  0.49747862092E+03  0.17065668897E+03  0.65484134757E+03  0.46999998093E+01 0. -1.
</event>
<event>
 5   0  0.6542036E-05  0.1496518E+04  0.7818609E-02  0.8886772E-01
       -1   -1    0    0    0  501  0.00000000000E+00  0.00000000000E+00  0.53593957118E+03  0.53593957120E+03  0.50400001928E-02 0.  1.
        1   -1    0    0  501    0  0.00000000000E+00  0.00000000000E+00 -0.10446919199E+04  0.10446919199E+04  0.50400001928E-02 0. -1.
    10030    2    1    2    0    0  0.00000000000E+00  0.00000000000E+00 -0.50875234873E+03  0.15806314911E+04  0.14965182787E+04 0.  0.
        4    1    3    3  502    0 -0.23367629881E+03  0.40814467095E+03 -0.86906937504E+03  0.98816490353E+03  0.12699999809E+01 0. -1.
       -4    1    3    3    0  502  0.23367629881E+03 -0.40814467095E+03  0.36031702631E+03  0.59246658758E+03  0.12699999809E+01 0.  1.
</event>
<event>
 5   0  0.1228286E-04  0.1497300E+04  0.7818609E-02  0.8886250E-01
       -2   -1    0    0    0  501  0.00000000000E+00  0.00000000000E+00  0.33284840982E+03  0.33284840983E+03  0.25500000920E-02 0.  1.
        2   -1    0    0  501    0  0.00000000000E+00  0.00000000000E+00 -0.16838809251E+04  0.16838809251E+04  0.25500000920E-02 0. -1.
    10030    2    1    2    0    0  0.00000000000E+00  0.00000000000E+00 -0.13510325153E+04  0.20167293350E+04  0.14973003550E+04 0.  0.
        2    1    3    3  502    0 -0.51315133854E+03  0.23932524130E+03 -0.15837822825E+02  0.56643773180E+03  0.25500000920E-02 0.  1.
       -2    1    3    3    0  502  0.51315133854E+03 -0.23932524130E+03 -0.13351946925E+04  0.14502916032E+04  0.25500000920E-02 0. -1.
</event>
<event>
 5   0  0.6668433E-05  0.1500045E+04  0.7818609E-02  0.8884423E-01
       -1   -1    0    0    0  501  0.00000000000E+00  0.00000000000E+00  0.36745006980E+03  0.36745006984E+03  0.50400001928E-02 0.  1.
        1   -1    0    0  501    0  0.00000000000E+00  0.00000000000E+00 -0.15309129033E+04  0.15309129033E+04  0.50400001928E-02 0. -1.
    10030    2    1    2    0    0  0.00000000000E+00  0.00000000000E+00 -0.11634628335E+04  0.18983629731E+04  0.15000454036E+04 0.  0.
        1    1    3    3  502    0 -0.36819733028E+03  0.22452925226E+03  0.19484997499E+03  0.47323268265E+03  0.50400001928E-02 0.  1.
       -1    1    3    3    0  502  0.36819733028E+03 -0.22452925226E+03 -0.13583128084E+04  0.14251302904E+04  0.50400001928E-02 0. -1.
</event>
<event>
 5   0  0.1186664E-04  0.1501368E+04  0.7818609E-02  0.8883544E-01
        2   -1    0    0  501    0  0.00000000000E+00  0.00000000000E+00  0.89500971599E+03  0.89500971600E+03  0.25500000920E-02 0. -1.
       -2   -1    0    0    0  501  0.00000000000E+00  0.00000000000E+00 -0.62963179093E+03  0.62963179093E+03  0.25500000920E-02 0.  1.
    10030    2    1    2    0    0  0.00000000000E+00  0.00000000000E+00  0.26537792507E+03  0.15246415069E+04  0.15013681366E+04 0.  0.
        3    1    3    3  502    0  0.22415434644E+02 -0.55829706096E+03 -0.37640906456E+03  0.67370754343E+03  0.10100000352E+00 0.  1.
       -3    1    3    3    0  502 -0.22415434644E+02  0.55829706096E+03  0.64178698962E+03  0.85093396350E+03  0.10100000352E+00 0. -1.
</event>
<event>
 5   0  0.4462875E-05  0.1503383E+04  0.7818609E-02  0.8882207E-01
        4   -1    0    0  501    0  0.00000000000E+00  0.00000000000E+00  0.93895471836E+03  0.93895557724E+03  0.12699999809E+01 0.  1.
       -4   -1    0    0    0  501  0.00000000000E+00  0.00000000000E+00 -0.60177358994E+03  0.60177493006E+03  0.12699999809E+01 0. -1.
    10030    2    1    2    0    0  0.00000000000E+00  0.00000000000E+00  0.33718112842E+03  0.15407305073E+04  0.15033826468E+04 0.  0.
        2    1    3    3  502    0  0.43488774984E+03 -0.53835532653E+03  0.46928368800E+03  0.83617043262E+03  0.25500000920E-02 0.  1.
       -2    1    3    3    0  502 -0.43488774984E+03  0.53835532653E+03 -0.13210255958E+03  0.70456007467E+03  0.25500000920E-02 0. -1.
</event>
<event>
 5   0  0.6668433E-05  0.1498868E+04  0.7818609E-02  0.8885206E-01
       -1   -1    0    0    0  501  0.00000000000E+00  0.00000000000E+00  0.68057829837E+03  0.68057829839E+03  0.50400001928E-02 0. -1.
        1   -1    0    0  501    0  0.00000000000E+00  0.00000000000E+00 -0.82525652199E+03  0.82525652201E+03  0.50400001928E-02 0.  1.
    10030    2    1    2    0    0  0.00000000000E+00  0.00000000000E+00 -0.14467822362E+03  0.15058348204E+04  0.14988684792E+04 0.  0.
        1    1    3    3  502    0  0.47485846953E+03 -0.36431825703E+03  0.38079301365E+03  0.70938119355E+03  0.50400001928E-02 0. -1.
       -1    1    3    3    0  502 -0.47485846953E+03  0.36431825703E+03 -0.52547123727E+03  0.79645362684E+03  0.50400001928E-02 0.  1.
</event>
<event>
 5   0  0.6542036E-05  0.1499715E+04  0.7818609E-02  0.8884642E-01
       -1   -1    0    0    0  501  0.00000000000E+00  0.00000000000E+00  0.11769273311E+04  0.11769273311E+04  0.50400001928E-02 0.  1.
        1   -1    0    0  501    0  0.00000000000E+00  0.00000000000E+00 -0.47775797398E+03  0.47775797401E+03  0.50400001928E-02 0. -1.
    10030    2    1    2    0    0  0.00000000000E+00  0.00000000000E+00  0.69916935707E+03  0.16546853051E+04  0.14997151959E+04 0.  0.
        4    1    3    3  502    0  0.31045615610E+03  0.68157451647E+03  0.30892632543E+03  0.81016290572E+03  0.12699999809E+01 0.  1.
       -4    1    3    3    0  502 -0.31045615610E+03 -0.68157451647E+03  0.39024303164E+03  0.84452239935E+03  0.12699999809E+01 0. -1.
</event>
<event>
 5   0  0.4462875E-05  0.1499895E+04  0.7818609E-02  0.8884523E-01
       -3   -1    0    0    0  501  0.00000000000E+00  0.00000000000E+00  0.57239071774E+03  0.57239072665E+03  0.10100000352E+00 0. -1.
        3   -1    0    0  501    0  0.00000000000E+00  0.00000000000E+00 -0.98258240068E+03  0.98258240587E+03  0.10100000352E+00 0.  1.
    10030    2    1    2    0    0  0.00000000000E+00  0.00000000000E+00 -0.41019168293E+03  0.15549731325E+04  0.14998947383E+04 0.  0.
        4    1    3    3  502    0  0.27735693729E+03  0.49000164929E+03  0.30846438862E+03  0.64201275603E+03  0.12699999809E+01 0. -1.
       -4    1    3    3    0  502 -0.27735693729E+03 -0.49000164929E+03 -0.71865607155E+03  0.91296037649E+03  0.12699999809E+01 0.  1.
</event>
<event>
 5   0  0.6364378E-05  0.1506891E+04  0.7818609E-02  0.8879883E-01
        1   -1    0    0  501    0  0.00000000000E+00  0.00000000000E+00  0.55364265742E+03  0.55364265744E+03  0.50400001928E-02 0. -1.
       -1   -1    0    0    0  501  0.00000000000E+00  0.00000000000E+00 -0.10253546574E+04  0.10253546574E+04  0.50400001928E-02 0.  1.
    10030    2    1    2    0    0  0.00000000000E+00  0.00000000000E+00 -0.47171200002E+03  0.15789973149E+04  0.15068909415E+04 0.  0.
        5    1    3    3  502    0 -0.60643903463E+03  0.19436340257E+03 -0.65775441240E+03  0.91553721498E+03  0.46999998093E+01 0.  1.
       -5    1    3    3    0  502  0.60643903463E+03 -0.19436340257E+03  0.18604241238E+03  0.66346009991E+03  0.46999998093E+01 0. -1.
</event>
<event>
 5   0  0.4462875E-05  0.1498282E+04  0.7818609E-02  0.8885596E-01
        4   -1    0    0  501    0  0.00000000000E+00  0.00000000000E+00  0.82654732198E+03  0.82654829767E+03  0.12699999809E+01 0. -1.
       -4   -1    0    0    0  501  0.00000000000E+00  0.00000000000E+00 -0.67898163633E+03  0.67898282406E+03  0.12699999809E+01 0.  1.
    10030    2    1    2    0    0  0.00000000000E+00  0.00000000000E+00  0.14756568565E+03  0.15055311217E+04  0.14982817916E+04 0.  0.
        2    1    3    3  502    0 -0.45134399618E+03 -0.20960971829E+03 -0.48889477726E+03  0.69761432047E+03  0.25500000920E-02 0.  1.
       -2    1    3    3    0  502  0.45134399618E+03  0.20960971829E+03  0.63646046292E+03  0.80791680125E+03  0.25500000920E-02 0. -1.
</event>
<event>
 5   0  0.1254487E-04  0.1496602E+04  0.7818609E-02  0.8886716E-01
        2   -1    0    0  501    0  0.00000000000E+00  0.00000000000E+00  0.90401733047E+03  0.90401733047E+03  0.25500000920E-02 0. -1.
       -2   -1    0    0    0  501  0.00000000000E+00  0.00000000000E+00 -0.61940658846E+03  0.61940658847E+03  0.25500000920E-02 0.  1.
    10030    2    1    2    0    0  0.00000000000E+00  0.00000000000E+00  0.28461074200E+03  0.15234239189E+04  0.14966018717E+04 0.  0.
        5    1    3    3  502    0  0.57571411711E+02  0.28460106446E+03 -0.55970661199E+03  0.63055992169E+03  0.46999998093E+01 0.  1.
       -5    1    3    3    0  502 -0.57571411711E+02 -0.28460106446E+03  0.84431735399E+03  0.89286399725E+03  0.46999998093E+01 0. -1.
</event>
<event>
 5   0  0.1254487E-04  0.1503821E+04  0.7818609E-02  0.8881916E-01
        2   -1    0    0  501    0  0.00000000000E+00  0.00000000000E+00  0.33129213801E+03  0.33129213802E+03  0.25500000920E-02 0.  1.
       -2   -1    0    0    0  501  0.00000000000E+00  0.00000000000E+00 -0.17065585500E+04  0.17065585500E+04  0.25500000920E-02 0. -1.
    10030    2    1    2    0    0  0.00000000000E+00  0.00000000000E+00 -0.13752664120E+04  0.20378506880E+04  0.15038210408E+04 0.  0.
        5    1    3    3  502    0  0.14316031387E+03  0.47018549745E+03 -0.14587140495E+04  0.15392979068E+04  0.46999998093E+01 0. -1.
       -5    1    3    3    0  502 -0.14316031387E+03 -0.47018549745E+03  0.83447637548E+02  0.49855278125E+03  0.46999998093E+01 0.  1.
</event>
<event>
 5   0  0.1254487E-04  0.1500162E+04  0.7818609E-02  0.8884345E-01
       -2   -1    0    0    0  501  0.00000000000E+00  0.00000000000E+00  0.72696108893E+03  0.72696108894E+03  0.25500000920E-02 0.  1.
        2   -1    0    0  501    0  0.00000000000E+00  0.00000000000E+00 -0.77393667836E+03  0.77393667837E+03  0.25500000920E-02 0. -1.
    10030    2    1    2    0    0  0.00000000000E+00  0.00000000000E+00 -0.46975589431E+02  0.15008977673E+04  0.15001624585E+04 0.  0.
        5    1    3    3  502    0  0.33389544110E+03  0.55614669384E+03  0.35327938191E+03  0.73865670128E+03  0.46999998093E+01 0. -1.
       -5    1    3    3    0  502 -0.33389544110E+03 -0.55614669384E+03 -0.40025497134E+03  0.76224106603E+03  0.46999998093E+01 0.  1.
</event>
<event>
 5   0  0.6509279E-05  0.1501312E+04  0.7818609E-02  0.8883581E-01
        1   -1    0    0  501    0  0.00000000000E+00  0.00000000000E+00  0.78959302692E+03  0.78959302693E+03  0.50400001928E-02 0. -1.
       -1   -1    0    0    0  501  0.00000000000E+00  0.00000000000E+00 -0.71363934023E+03  0.71363934025E+03  0.50400001928E-02 0.  1.
    10030    2    1    2    0    0  0.00000000000E+00  0.00000000000E+00  0.75953686685E+02  0.15032323672E+04  0.15013122884E+04 0.  0.
        2    1    3    3  502    0  0.12606837100E+03 -0.73889644534E+03  0.78320503701E+02  0.75365462409E+03  0.25500000920E-02 0. -1.
       -2    1    3    3    0  502 -0.12606837100E+03  0.73889644534E+03 -0.23668170160E+01  0.74957774309E+03  0.25500000920E-02 0.  1.
</event>
<event>
 5   0  0.1186664E-04  0.1523588E+04  0.7818609E-02  0.8868917E-01
        2   -1    0    0  501    0  0.00000000000E+00  0.00000000000E+00  0.15596595124E+04  0.15596595124E+04  0.25500000920E-02 0. -1.
       -2   -1    0    0    0  501  0.00000000000E+00  0.00000000000E+00 -0.37208781847E+03  0.37208781848E+03  0.25500000920E-02 0.  1.
    10030    2    1    2    0    0  0.00000000000E+00  0.00000000000E+00  0.11875716939E+04  0.19317473309E+04  0.15235882719E+04 0.  0.
        3    1    3    3  502    0  0.27697615108E+03 -0.35245132550E+02 -0.30487441331E+03  0.41340830389E+03  0.10100000352E+00 0.  1.
       -3    1    3    3    0  502 -0.27697615108E+03  0.35245132550E+02  0.14924461072E+04  0.15183390270E+04  0.10100000352E+00 0. -1.
</event>
<event>
 5   0  0.1216921E-04  0.1500110E+04  0.7818609E-02  0.8884380E-01
       -2   -1    0    0    0  501  0.00000000000E+00  0.00000000000E+00  0.22566963573E+03  0.22566963575E+03  0.25500000920E-02 0. -1.
        2   -1    0    0  501    0  0.00000000000E+00  0.00000000000E+00 -0.24929462124E+04  0.24929462124E+04  0.25500000920E-02 0.  1.
    10030    2    1    2    0    0  0.00000000000E+00  0.00000000000E+00 -0.22672765767E+04  0.27186158482E+04  0.15001096809E+04 0.  0.
        4    1    3    3  502    0  0.38388157950E+03  0.22077855097E+03 -0.22307364205E+04  0.22742679759E+04  0.12699999809E+01 0.  1.
       -4    1    3    3    0  502 -0.38388157950E+03 -0.22077855097E+03 -0.36540156174E+02  0.44434787223E+03  0.12699999809E+01 0. -1.
</event>
<event>
 5   0  0.1186664E-04  0.1502619E+04  0.7818609E-02  0.8882713E-01
       -2   -1    0    0    0  501  0.00000000000E+00  0.00000000000E+00  0.47139207665E+03  0.47139207666E+03  0.25500000920E-02 0.  1.
        2   -1    0    0  501    0  0.00000000000E+00  0.00000000000E+00 -0.11974439978E+04  0.11974439978E+04  0.25500000920E-02 0. -1.
    10030    2    1    2    0    0  0.00000000000E+00  0.00000000000E+00 -0.72605192115E+03  0.16688360745E+04  0.15026185315E+04 0.  0.
        3    1    3    3  502    0  0.52120037672E+03 -0.14049226080E+03  0.21734817840E+03  0.58191764786E+03  0.10100000352E+00 0.  1.
       -3    1    3    3    0  502 -0.52120037672E+03  0.14049226080E+03 -0.94340009955E+03  0.10869184266E+04  0.10100000352E+00 0. -1.
</event>
<event>
 5   0  0.6509279E-05  0.1496362E+04  0.7818609E-02  0.8886876E-01
       -1   -1    0    0    0  501  0.00000000000E+00  0.00000000000E+00  0.79025610380E+03  0.79025610382E+03  0.50400001928E-02 0. -1.
        1   -1    0    0  501    0  0.00000000000E+00  0.00000000000E+00 -0.70834641619E+03  0.70834641621E+03  0.50400001928E-02 0.  1.
    10030    2    1    2    0    0  0.00000000000E+00  0.00000000000E+00  0.81909687609E+02  0.14986025200E+04  0.14963623612E+04 0.  0.
        2    1    3    3  502    0  0.55585491879E+03  0.38636656702E+03 -0.27814617550E+03  0.73186003430E+03  0.25500000920E-02 0.  1.
       -2    1    3    3    0  502 -0.55585491879E+03 -0.38636656702E+03  0.36005586311E+03  0.76674248573E+03  0.25500000920E-02 0. -1.
</event>
<event>
 5   0  0.1228286E-04  0.1499270E+04  0.7818609E-02  0.8884939E-01
       -2   -1    0    0    0  501  0.00000000000E+00  0.00000000000E+00  0.11928260628E+04  0.11928260628E+04  0.25500000920E-02 0.  1.
        2   -1    0    0  501    0  0.00000000000E+00  0.00000000000E+00 -0.47111023582E+03  0.47111023583E+03  0.25500000920E-02 0. -1.
    10030    2    1    2    0    0  0.00000000000E+00  0.00000000000E+00  0.72171582702E+03  0.16639362987E+04  0.14992699127E+04 0.  0.
        2    1    3    3  502    0  0.46129047888E+03  0.13283678596E+03 -0.27815621431E+03  0.55480212434E+03  0.25500000920E-02 0. -1.
       -2    1    3    3    0  502 -0.46129047888E+03 -0.13283678596E+03  0.99987204133E+03  0.11091341743E+04  0.25500000920E-02 0.  1.
</event>
<event>
 5   0  0.6542036E-05  0.1499064E+04  0.7818609E-02  0.8885076E-01
       -1   -1    0    0    0  501  0.00000000000E+00  0.00000000000E+00  0.31994501077E+03  0.31994501081E+03  0.50400001928E-02 0.  1.
        1   -1    0    0  501    0  0.00000000000E+00  0.00000000000E+00 -0.17559208370E+04  0.17559208370E+04  0.50400001928E-02 0. -1.
    10030    2    1    2    0    0  0.00000000000E+00  0.00000000000E+00 -0.14359758263E+04  0.20758658478E+04  0.14990638561E+04 0.  0.
        4    1    3    3  502    0  0.23831478173E+03  0.66012218073E+03 -0.10823738959E+04  0.12899961597E+04  0.12699999809E+01 0. -1.
       -4    1    3    3    0  502 -0.23831478173E+03 -0.66012218073E+03 -0.35360193041E+03  0.78586968816E+03  0.12699999809E+01 0.  1.
</event>
<event>
 5   0  0.6542036E-05  0.1499721E+04  0.7818609E-02  0.8884638E-01
        1   -1    0    0  501    0  0.00000000000E+00  0.00000000000E+00  0.84536862630E+03  0.84536862632E+03  0.50400001928E-02 0.  1.
       -1   -1    0    0    0  501  0.00000000000E+00  0.00000000000E+00 -0.66514270057E+03  0.66514270059E+03  0.50400001928E-02 0. -1.
    10030    2    1    2    0    0  0.00000000000E+00  0.00000000000E+00  0.18022592574E+03  0.15105113269E+04  0.14997210022E+04 0.  0.
        4    1    3    3  502    0  0.23226167810E+03  0.25630734163E+03  0.76021949891E+03  0.83520909952E+03  0.12699999809E+01 0.  1.
       -4    1    3    3    0  502 -0.23226167810E+03 -0.25630734163E+03 -0.57999357318E+03  0.67530222739E+03  0.12699999809E+01 0. -1.
</event>
<event>
 5   0  0.1216921E-04  0.1499705E+04  0.7818609E-02  0.8884649E-01
        2   -1    0    0  501    0  0.00000000000E+00  0.00000000000E+00  0.12207396453E+04  0.12207396453E+04  0.25500000920E-02 0.  1.
       -2   -1    0    0    0  501  0.00000000000E+00  0.00000000000E+00 -0.46060500162E+03  0.46060500163E+03  0.25500000920E-02 0. -1.
    10030    2    1    2    0    0  0.00000000000E+00  0.00000000000E+00  0.76013464363E+03  0.16813446469E+04  0.14997050194E+04 0.  0.
        4    1    3    3  502    0  0.23317841882E+03  0.35975762639E+03 -0.30965145872E+03  0.52885098424E+03  0.12699999809E+01 0. -1.
       -4    1    3    3    0  502 -0.23317841882E+03 -0.35975762639E+03  0.10697861024E+04  0.11524936626E+04  0.12699999809E+01 0.  1.
</event>
<event>
 5   0  0.6361716E-05  0.1500908E+04  0.7818609E-02  0.8883850E-01
       -1   -1    0    0    0  501  0.00000000000E+00  0.00000000000E+00  0.40099673263E+03  0.40099673266E+03  0.50400001928E-02 0.  1.
        1   -1    0    0  501    0  0.00000000000E+00  0.00000000000E+00 -0.14044527804E+04  0.14044527804E+04  0.50400001928E-02 0. -1.
    10030    2    1    2    0    0  0.00000000000E+00  0.00000000000E+00 -0.10034560478E+04  0.18054495131E+04  0.15009076935E+04 0.  0.
        3    1    3    3  502    0 -0.32600031917E+03 -0.25249413065E+03  0.25251502714E+03  0.48352181259E+03  0.10100000352E+00 0.  1.
       -3    1    3    3    0  502  0.32600031917E+03  0.25249413065E+03 -0.12559710749E+04  0.13219277005E+04  0.10100000352E+00 0. -1.
</event>
<event>
 5   0  0.6509279E-05  0.1499745E+04  0.7818609E-02  0.8884623E-01
        1   -1    0    0  501    0  0.00000000000E+00  0.00000000000E+00  0.49895016966E+03  0.49895016968E+03  0.50400001928E-02 0. -1.
       -1   -1    0    0    0  501  0.00000000000E+00  0.00000000000E+00 -0.11269833782E+04  0.11269833782E+04  0.50400001928E-02 0.  1.
    10030    2    1    2    0    0  0.00000000000E+00  0.00000000000E+00 -0.62803320854E+03  0.16259335479E+04  0.14997447086E+04 0.  0.
        2    1    3    3  502    0 -0.45035690401E+03 -0.36433807682E+03 -0.83025973621E+03  0.10123708830E+04  0.25500000920E-02 0.  1.
       -2    1    3    3    0  502  0.45035690401E+03  0.36433807682E+03  0.20222652767E+03  0.61356266486E+03  0.25500000920E-02 0. -1.
</event>
<event>
 5   0  0.1186664E-04  0.1499409E+04  0.7818609E-02  0.8884846E-01
        2   -1    0    0  501    0  0.00000000000E+00  0.00000000000E+00  0.14918783536E+04  0.14918783536E+04  0.25500000920E-02 0. -1.
       -2   -1    0    0    0  501  0.00000000000E+00  0.00000000000E+00 -0.37674429714E+03  0.37674429715E+03  0.25500000920E-02 0.  1.
    10030    2    1    2    0    0  0.00000000000E+00  0.00000000000E+00  0.11151340565E+04  0.18686226508E+04  0.14994087658E+04 0.  0.
        3    1    3    3  502    0  0.34537813767E+03 -0.46371602683E+03  0.11522963526E+04  0.12892267085E+04  0.10100000352E+00 0. -1.
       -3    1    3    3    0  502 -0.34537813767E+03  0.46371602683E+03 -0.37162296078E+02  0.57939594231E+03  0.10100000352E+00 0.  1.
</event>
<event>
 5   0  0.1186664E-04  0.1500657E+04  0.7818609E-02  0.8884016E-01
       -2   -1    0    0    0  501  0.00000000000E+00  0.00000000000E+00  0.93784666727E+03  0.93784666727E+03  0.25500000920E-02 0.  1.
        2   -1    0    0  501    0  0.00000000000E+00  0.00000000000E+00 -0.60030379168E+03  0.60030379169E+03  0.25500000920E-02 0. -1.
    10030    2    1    2    0    0  0.00000000000E+00  0.00000000000E+00  0.33754287559E+03  0.15381504590E+04  0.15006570699E+04 0.  0.
        3    1    3    3  502    0 -0.75685988776E+02 -0.74625342479E+03  0.18849692777E+03  0.77340393385E+03  0.10100000352E+00 0. -1.
       -3    1    3    3    0  502  0.75685988776E+02  0.74625342479E+03  0.14904594782E+03  0.76474652511E+03  0.10100000352E+00 0.  1.
</event>
<event>
 5   0  0.1216921E-04  0.1499633E+04  0.7818609E-02  0.8884697E-01
        2   -1    0    0  501    0  0.00000000000E+00  0.00000000000E+00  0.50821905674E+03  0.50821905675E+03  0.25500000920E-02 0.  1.
       -2   -1    0    0    0  501  0.00000000000E+00  0.00000000000E+00 -0.11062644477E+04  0.11062644477E+04  0.25500000920E-02 0. -1.
    10030    2    1    2    0    0  0.00000000000E+00  0.00000000000E+00 -0.59804539100E+03  0.16144835045E+04  0.14996328539E+04 0.  0.
        4    1    3    3  502    0  0.18371366946E+03  0.23062625896E+03 -0.10412299706E+04  0.10821740379E+04  0.12699999809E+01 0. -1.
       -4    1    3    3    0  502 -0.18371366946E+03 -0.23062625896E+03  0.44318457965E+03  0.53230946658E+03  0.12699999809E+01 0.  1.
</event>
<event>
 5   0  0.6668433E-05  0.1497757E+04  0.7818609E-02  0.8885946E-01
       -1   -1    0    0    0  501  0.00000000000E+00  0.00000000000E+00  0.82436174810E+03  0.82436174811E+03  0.50400001928E-02 0.  1.
        1   -1    0    0  501    0  0.00000000000E+00  0.00000000000E+00 -0.68030652020E+03  0.68030652022E+03  0.50400001928E-02 0. -1.
    10030    2    1    2    0    0  0.00000000000E+00  0.00000000000E+00  0.14405522789E+03  0.15046682683E+04  0.14977565520E+04 0.  0.
        1    1    3    3  502    0 -0.42550954831E+03 -0.40910938183E+03  0.53501202961E+03  0.79665973531E+03  0.50400001928E-02 0. -1.
       -1    1    3    3    0  502  0.42550954831E+03  0.40910938183E+03 -0.39095680172E+03  0.70800853303E+03  0.50400001928E-02 0.  1.
</event>
<event>
 5   0  0.1216921E-04  0.1502831E+04  0.7818609E-02  0.8882573E-01
       -2   -1    0    0    0  501  0.00000000000E+00  0.00000000000E+00  0.12637795481E+04  0.12637795481E+04  0.25500000920E-02 0.  1.
        2   -1    0    0  501    0  0.00000000000E+00  0.00000000000E+00 -0.44677507764E+03  0.44677507765E+03  0.25500000920E-02 0. -1.
    10030    2    1    2    0    0  0.00000000000E+00  0.00000000000E+00  0.81700447047E+03  0.17105546258E+04  0.15028309363E+04 0.  0.
        4    1    3    3  502    0 -0.79989164260E+02 -0.73032249869E+03  0.58794594488E+03  0.94098420045E+03  0.12699999809E+01 0. -1.
       -4    1    3    3    0  502  0.79989164260E+02  0.73032249869E+03  0.22905852559E+03  0.76957042532E+03  0.12699999809E+01 0.  1.
</event>
<event>
 5   0  0.6361716E-05  0.1497658E+04  0.7818609E-02  0.8886012E-01
       -1   -1    0    0    0  501  0.00000000000E+00  0.00000000000E+00  0.12326663625E+04  0.12326663625E+04  0.50400001928E-02 0.  1.
        1   -1    0    0  501    0  0.00000000000E+00  0.00000000000E+00 -0.45490394114E+03  0.45490394116E+03  0.50400001928E-02 0. -1.
    10030    2    1    2    0    0  0.00000000000E+00  0.00000000000E+00  0.77776242132E+03  0.16875703036E+04  0.14976578867E+04 0.  0.
        3    1    3    3  502    0 -0.23914481938E+03 -0.67713125179E+03  0.14972258615E+03  0.73356243074E+03  0.10100000352E+00 0. -1.
       -3    1    3    3    0  502  0.23914481938E+03  0.67713125179E+03  0.62803983517E+03  0.95400787289E+03  0.10100000352E+00 0.  1.
</event>
<event>
 5   0  0.1186664E-04  0.1509022E+04  0.7818609E-02  0.8878476E-01
       -2   -1    0    0    0  501  0.00000000000E+00  0.00000000000E+00  0.30151507011E+03  0.30151507012E+03  0.25500000920E-02 0.  1.
        2   -1    0    0  501    0  0.00000000000E+00  0.00000000000E+00 -0.18880870807E+04  0.18880870807E+04  0.25500000920E-02 0. -1.
    10030    2    1    2    0    0  0.00000000000E+00  0.00000000000E+00 -0.15865720106E+04  0.21896021509E+04  0.15090218137E+04 0.  0.
        3    1    3    3  502    0  0.46712963275E+03 -0.14987479201E+03  0.38502326967E+02  0.49209245722E+03  0.10100000352E+00 0.  1.
       -3    1    3    3    0  502 -0.46712963275E+03  0.14987479201E+03 -0.16250743376E+04  0.16975096936E+04  0.10100000352E+00 0. -1.
</event>
<event>
 5   0  0.1254487E-04  0.1487125E+04  0.7818609E-02  0.8893060E-01
       -2   -1    0    0    0  501  0.00000000000E+00  0.00000000000E+00  0.19275674136E+03  0.19275674137E+03  0.25500000920E-02 0.  1.
        2   -1    0    0  501    0  0.00000000000E+00  0.00000000000E+00 -0.28683071782E+04  0.28683071782E+04  0.25500000920E-02 0. -1.
    10030    2    1    2    0    0  0.00000000000E+00  0.00000000000E+00 -0.26755504368E+04  0.30610639196E+04  0.14871254754E+04 0.  0.
        5    1    3    3  502    0  0.49779605419E+03 -0.15618218563E+03 -0.24282673232E+04  0.24836863871E+04  0.46999998093E+01 0. -1.
       -5    1    3    3    0  502 -0.49779605419E+03  0.15618218563E+03 -0.24728311363E+03  0.57737753244E+03  0.46999998093E+01 0.  1.
</event>
<event>
 5   0  0.6668433E-05  0.1499815E+04  0.7818609E-02  0.8884576E-01
       -1   -1    0    0    0  501  0.00000000000E+00  0.00000000000E+00  0.45535552252E+03  0.45535552255E+03  0.50400001928E-02 0. -1.
        1   -1    0    0  501    0  0.00000000000E+00  0.00000000000E+00 -0.12349936106E+04  0.12349936107E+04  0.50400001928E-02 0.  1.
    10030    2    1    2    0    0  0.00000000000E+00  0.00000000000E+00 -0.77963808812E+03  0.16903491332E+04  0.14998148698E+04 0.  0.
        1    1    3    3  502    0 -0.59593084343E+03  0.14142988520E+03  0.97845169321E+02  0.62024967535E+03  0.50400001928E-02 0. -1.
       -1    1    3    3    0  502  0.59593084343E+03 -0.14142988520E+03 -0.87748325744E+03  0.10700994579E+04  0.50400001928E-02 0.  1.
</event>
<event>
 5   0  0.6668433E-05  0.1499849E+04  0.7818609E-02  0.8884553E-01
       -1   -1    0    0    0  501  0.00000000000E+00  0.00000000000E+00  0.46822493304E+03  0.46822493307E+03  0.50400001928E-02 0. -1.
        1   -1    0    0  501    0  0.00000000000E+00  0.00000000000E+00 -0.12011036462E+04  0.12011036462E+04  0.50400001928E-02 0.  1.
    10030    2    1    2    0    0  0.00000000000E+00  0.00000000000E+00 -0.73287871317E+03  0.16693285793E+04  0.14998488915E+04 0.  0.
        1    1    3    3  502    0 -0.68396147424E+03 -0.29121958408E+03 -0.47647724877E+03  0.88297378954E+03  0.50400001928E-02 0.  1.
       -1    1    3    3    0  502  0.68396147424E+03  0.29121958408E+03 -0.25640146440E+03  0.78635478975E+03  0.50400001928E-02 0. -1.
</event>
<event>
 5   0  0.1219810E-04  0.1499947E+04  0.7818609E-02  0.8884488E-01
       -2   -1    0    0    0  501  0.00000000000E+00  0.00000000000E+00  0.94361009930E+03  0.94361009931E+03  0.25500000920E-02 0. -1.
        2   -1    0    0  501    0  0.00000000000E+00  0.00000000000E+00 -0.59607244232E+03  0.59607244233E+03  0.25500000920E-02 0.  1.
    10030    2    1    2    0    0  0.00000000000E+00  0.00000000000E+00  0.34753765698E+03  0.15396825416E+04  0.14999466344E+04 0.  0.
        1    1    3    3  502    0  0.30296551438E+03  0.67937034875E+03  0.27183935396E+03  0.79197778255E+03  0.50400001928E-02 0. -1.
       -1    1    3    3    0  502 -0.30296551438E+03 -0.67937034875E+03  0.75698303023E+02  0.74770475909E+03  0.50400001928E-02 0.  1.
</event>
<event>
 5   0  0.6542036E-05  0.1500408E+04  0.7818609E-02  0.8884182E-01
       -1   -1    0    0    0  501  0.00000000000E+00  0.00000000000E+00  0.12167964408E+04  0.12167964408E+04  0.50400001928E-02 0. -1.
        1   -1    0    0  501    0  0.00000000000E+00  0.00000000000E+00 -0.46253100999E+03  0.46253101002E+03  0.50400001928E-02 0.  1.
    10030    2    1    2    0    0  0.00000000000E+00  0.00000000000E+00  0.75426543082E+03  0.16793274508E+04  0.15004080602E+04 0.  0.
        4    1    3    3  502    0 -0.13363456821E+03  0.71657693751E+03  0.57566510449E+03  0.92883401672E+03  0.12699999809E+01 0.  1.
       -4    1    3    3    0  502  0.13363456821E+03 -0.71657693751E+03  0.17860032633E+03  0.75049343412E+03  0.12699999809E+01 0. -1.
</event>
<event>
 5   0  0.1254487E-04  0.1501372E+04  0.7818609E-02  0.8883541E-01
        2   -1    0    0  501    0  0.00000000000E+00  0.00000000000E+00  0.75533370522E+03  0.75533370523E+03  0.25500000920E-02 0. -1.
       -2   -1    0    0    0  501  0.00000000000E+00  0.00000000000E+00 -0.74606656252E+03  0.74606656252E+03  0.25500000920E-02 0.  1.
    10030    2    1    2    0    0  0.00000000000E+00  0.00000000000E+00  0.92671427021E+01  0.15014002677E+04  0.15013716675E+04 0.  0.
        5    1    3    3  502    0 -0.49099260348E+03 -0.54303742601E+03  0.17059982600E+03  0.75172453290E+03  0.46999998093E+01 0. -1.
       -5    1    3    3    0  502  0.49099260348E+03  0.54303742601E+03 -0.16133268330E+03  0.74967573485E+03  0.46999998093E+01 0.  1.
</event>
<event>
 5   0  0.6509279E-05  0.1499470E+04  0.7818609E-02  0.8884805E-01
        1   -1    0    0  501    0  0.00000000000E+00  0.00000000000E+00  0.13265371653E+04  0.13265371653E+04  0.50400001928E-02 0.  1.
       -1   -1    0    0    0  501  0.00000000000E+00  0.00000000000E+00 -0.42373697210E+03  0.42373697213E+03  0.50400001928E-02 0. -1.
    10030    2    1    2    0    0  0.00000000000E+00  0.00000000000E+00  0.90280019320E+03  0.17502741374E+04  0.14994703623E+04 0.  0.
        2    1    3    3  502    0  0.29036172967E+03 -0.39060103050E+02 -0.35415181643E+03  0.45962934501E+03  0.25500000920E-02 0. -1.
       -2    1    3    3    0  502 -0.29036172967E+03  0.39060103050E+02  0.12569520096E+04  0.12906447924E+04  0.25500000920E-02 0.  1.
</event>
<event>
 5   0  0.6364378E-05  0.1512324E+04  0.7818609E-02  0.8876299E-01
       -1   -1    0    0    0  501  0.00000000000E+00  0.00000000000E+00  0.70443688163E+03  0.70443688164E+03  0.50400001928E-02 0. -1.
        1   -1    0    0  501    0  0.00000000000E+00  0.00000000000E+00 -0.81168469354E+03  0.81168469356E+03  0.50400001928E-02 0.  1.
    10030    2    1    2    0    0  0.00000000000E+00  0.00000000000E+00 -0.10724781192E+03  0.15161215752E+04  0.15123235559E+04 0.  0.
        5    1    3    3  502    0  0.60144671746E+03  0.43136728565E+03 -0.20874664628E+03  0.76903390134E+03  0.46999998093E+01 0.  1.
       -5    1    3    3    0  502 -0.60144671746E+03 -0.43136728565E+03  0.10149883436E+03  0.74708767387E+03  0.46999998093E+01 0. -1.
</event>
<event>
 5   0  0.6361716E-05  0.1497787E+04  0.7818609E-02  0.8885926E-01
       -1   -1    0    0    0  501  0.00000000000E+00  0.00000000000E+00  0.93360711306E+03  0.93360711308E+03  0.50400001928E-02 0.  1.
        1   -1    0    0  501    0  0.00000000000E+00  0.00000000000E+00 -0.60072537172E+03  0.60072537174E+03  0.50400001928E-02 0. -1.
    10030    2    1    2    0    0  0.00000000000E+00  0.00000000000E+00  0.33288174135E+03  0.15343324848E+04  0.14977870076E+04 0.  0.
        3    1    3    3  502    0  0.37422772206E+03 -0.38452927741E+03  0.70161720652E+03  0.88327564657E+03  0.10100000352E+00 0.  1.
       -3    1    3    3    0  502 -0.37422772206E+03  0.38452927741E+03 -0.36873546517E+03  0.65105683824E+03  0.10100000352E+00 0. -1.
</event>
<event>
 5   0  0.1254487E-04  0.1501049E+04  0.7818609E-02  0.8883756E-01
       -2   -1    0    0    0  501  0.00000000000E+00  0.00000000000E+00  0.59017238285E+03  0.59017238286E+03  0.25500000920E-02 0. -1.
        2   -1    0    0  501    0  0.00000000000E+00  0.00000000000E+00 -0.95444476308E+03  0.95444476308E+03  0.25500000920E-02 0.  1.
    10030    2    1    2    0    0  0.00000000000E+00  0.00000000000E+00 -0.36427238023E+03  0.15446171459E+04  0.15010488868E+04 0.  0.
        5    1    3    3  502    0  0.10750261509E+02  0.20403158548E+03 -0.92526083214E+03  0.94756221616E+03  0.46999998093E+01 0.  1.
       -5    1    3    3    0  502 -0.10750261509E+02 -0.20403158548E+03  0.56098845192E+03  0.59705492978E+03  0.46999998093E+01 0. -1.
</event>
<event>
 5   0  0.6509279E-05  0.1501325E+04  0.7818609E-02  0.8883572E-01
        1   -1    0    0  501    0  0.00000000000E+00  0.00000000000E+00  0.17425828053E+04  0.17425828053E+04  0.50400001928E-02 0. -1.
       -1   -1    0    0    0  501  0.00000000000E+00  0.00000000000E+00 -0.32336727268E+03  0.32336727272E+03  0.50400001928E-02 0.  1.
    10030    2    1    2    0    0  0.00000000000E+00  0.00000000000E+00  0.14192155326E+04  0.20659500781E+04  0.15013250804E+04 0.  0.
        2    1    3    3  502    0 -0.28695741387E+03 -0.50819587343E+03  0.13592692323E+04  0.14792634819E+04  0.25500000920E-02 0. -1.
       -2    1    3    3    0  502  0.28695741387E+03  0.50819587343E+03  0.59946300384E+02  0.58668659614E+03  0.25500000920E-02 0.  1.
</event>
<event>
 5   0  0.6361716E-05  0.1500404E+04  0.7818609E-02  0.8884184E-01
        1   -1    0    0  501    0  0.00000000000E+00  0.00000000000E+00  0.16824487184E+04  0.16824487184E+04  0.50400001928E-02 0.  1.
       -1   -1    0    0    0  501  0.00000000000E+00  0.00000000000E+00 -0.33451431507E+03  0.33451431511E+03  0.50400001928E-02 0. -1.
    10030    2    1    2    0    0  0.00000000000E+00  0.00000000000E+00  0.13479344033E+04  0.20169630335E+04  0.15004041865E+04 0.  0.
        3    1    3    3  502    0  0.51376144483E+03  0.14555745233E+03  0.13823215034E+04  0.14818739970E+04  0.10100000352E+00 0.  1.
       -3    1    3    3    0  502 -0.51376144483E+03 -0.14555745233E+03 -0.34387100058E+02  0.53508903649E+03  0.10100000352E+00 0. -1.
</event>
<event>
 5   0  0.1186664E-04  0.1523834E+04  0.7818609E-02  0.8868756E-01
        2   -1    0    0  501    0  0.00000000000E+00  0.00000000000E+00  0.12776530136E+04  0.12776530136E+04  0.25500000920E-02 0. -1.
       -2   -1    0    0    0  501  0.00000000000E+00  0.00000000000E+00 -0.45436260033E+03  0.45436260034E+03  0.25500000920E-02 0.  1.
    10030    2    1    2    0    0  0.00000000000E+00  0.00000000000E+00  0.82329041328E+03  0.17320156139E+04  0.15238343028E+04 0.  0.
        3    1    3    3  502    0  0.73821138847E+03 -0.12545864407E+03  0.25162098957E+03  0.78994243970E+03  0.10100000352E+00 0.  1.
       -3    1    3    3    0  502 -0.73821138847E+03  0.12545864407E+03  0.57166942371E+03  0.94207317425E+03  0.10100000352E+00 0. -1.
</event>
<event>
 5   0  0.1254487E-04  0.1499669E+04  0.7818609E-02  0.8884673E-01
        2   -1    0    0  501    0  0.00000000000E+00  0.00000000000E+00  0.13473252130E+04  0.13473252130E+04  0.25500000920E-02 0.  1.
       -2   -1    0    0    0  501  0.00000000000E+00  0.00000000000E+00 -0.41730963305E+03  0.41730963306E+03  0.25500000920E-02 0. -1.
    10030    2    1    2    0    0  0.00000000000E+00  0.00000000000E+00  0.93001557990E+03  0.17646348460E+04  0.14996690171E+04 0.  0.
        5    1    3    3  502    0  0.33330253705E+03 -0.67137775812E+03  0.48827592905E+03  0.89458043137E+03  0.46999998093E+01 0.  1.
       -5    1    3    3    0  502 -0.33330253705E+03  0.67137775812E+03  0.44173965085E+03  0.87005441464E+03  0.46999998093E+01 0. -1.
</event>
<event>
 5   0  0.1219810E-04  0.1501385E+04  0.7818609E-02  0.8883532E-01
       -2   -1    0    0    0  501  0.00000000000E+00  0.00000000000E+00  0.39747774312E+03  0.39747774313E+03  0.25500000920E-02 0.  1.
        2   -1    0    0  501    0  0.00000000000E+00  0.00000000000E+00 -0.14177885471E+04  0.14177885471E+04  0.25500000920E-02 0. -1.
    10030    2    1    2    0    0  0.00000000000E+00  0.00000000000E+00 -0.10203108040E+04  0.18152662902E+04  0.15013852163E+04 0.  0.
        1    1    3    3  502    0 -0.98473208198E+02  0.39222738066E+03 -0.12748328078E+04  0.13374370934E+04  0.50400001928E-02 0. -1.
       -1    1    3    3    0  502  0.98473208198E+02 -0.39222738066E+03  0.25452200386E+03  0.47782919683E+03  0.50400001928E-02 0.  1.
</event>
<event>
 5   0  0.6542036E-05  0.1500737E+04  0.7818609E-02  0.8883963E-01
       -1   -1    0    0    0  501  0.00000000000E+00  0.00000000000E+00  0.85490297232E+03  0.85490297234E+03  0.50400001928E-02 0. -1.
        1   -1    0    0  501    0  0.00000000000E+00  0.00000000000E+00 -0.65861610015E+03  0.65861610017E+03  0.50400001928E-02 0.  1.
    10030    2    1    2    0    0  0.00000000000E+00  0.00000000000E+00  0.19628687217E+03  0.15135190725E+04  0.15007369678E+04 0.  0.
        4    1    3    3  502    0  0.45544691787E+03 -0.21417364893E+03  0.65943469011E+03  0.82955287373E+03  0.12699999809E+01 0. -1.
       -4    1    3    3    0  502 -0.45544691787E+03  0.21417364893E+03 -0.46314781794E+03  0.68396619877E+03  0.12699999809E+01 0.  1.
</event>
<event>
 5   0  0.6364378E-05  0.1504966E+04  0.7818609E-02  0.8881157E-01
       -1   -1    0    0    0  501  0.00000000000E+00  0.00000000000E+00  0.48072426881E+03  0.48072426883E+03  0.50400001928E-02 0.  1.
        1   -1    0    0  501    0  0.00000000000E+00  0.00000000000E+00 -0.11778700217E+04  0.11778700217E+04  0.50400001928E-02 0. -1.
    10030    2    1    2    0    0  0.00000000000E+00  0.00000000000E+00 -0.69714575286E+03  0.16585942905E+04  0.15049660527E+04 0.  0.
        5    1    3    3  502    0 -0.74821034460E+03 -0.70878157580E+02 -0.30783787501E+03  0.81217527682E+03  0.46999998093E+01 0. -1.
       -5    1    3    3    0  502  0.74821034460E+03  0.70878157580E+02 -0.38930787786E+03  0.84641901370E+03  0.46999998093E+01 0.  1.
</event>
<event>
 5   0  0.6361716E-05  0.1502857E+04  0.7818609E-02  0.8882556E-01
       -1   -1    0    0    0  501  0.00000000000E+00  0.00000000000E+00  0.37439895456E+03  0.37439895459E+03  0.50400001928E-02 0.  1.
        1   -1    0    0  501    0  0.00000000000E+00  0.00000000000E+00 -0.15081358542E+04  0.15081358543E+04  0.50400001928E-02 0. -1.
    10030    2    1    2    0    0  0.00000000000E+00  0.00000000000E+00 -0.11337368997E+04  0.18825348088E+04  0.15028565962E+04 0.  0.
        3    1    3    3  502    0 -0.70448518119E+02  0.14190318973E+03 -0.14869774878E+04  0.14953934493E+04  0.10100000352E+00 0. -1.
       -3    1    3    3    0  502  0.70448518119E+02 -0.14190318973E+03  0.35324058810E+03  0.38714135951E+03  0.10100000352E+00 0.  1.
</event>
<event>
 5   0  0.1228286E-04  0.1498292E+04  0.7818609E-02  0.8885590E-01
       -2   -1    0    0    0  501  0.00000000000E+00  0.00000000000E+00  0.26414159967E+03  0.26414159968E+03  0.25500000920E-02 0. -1.
        2   -1    0    0  501    0  0.00000000000E+00  0.00000000000E+00 -0.21246918903E+04  0.21246918903E+04  0.25500000920E-02 0.  1.
    10030    2    1    2    0    0  0.00000000000E+00  0.00000000000E+00 -0.18605502906E+04  0.23888334900E+04  0.14982917136E+04 0.  0.
        2    1    3    3  502    0  0.65591048287E+03 -0.16304740123E+03 -0.41507726998E+03  0.79315329959E+03  0.25500000920E-02 0. -1.
       -2    1    3    3    0  502 -0.65591048287E+03  0.16304740123E+03 -0.14454730206E+04  0.15956801904E+04  0.25500000920E-02 0.  1.
</event>
<event>
 5   0  0.6361716E-05  0.1500919E+04  0.7818609E-02  0.8883842E-01
        1   -1    0    0  501    0  0.00000000000E+00  0.00000000000E+00  0.68708359542E+03  0.68708359544E+03  0.50400001928E-02 0.  1.
       -1   -1    0    0    0  501  0.00000000000E+00  0.00000000000E+00 -0.81968159547E+03  0.81968159548E+03  0.50400001928E-02 0. -1.
    10030    2    1    2    0    0  0.00000000000E+00  0.00000000000E+00 -0.13259800004E+03  0.15067651909E+04  0.15009194219E+04 0.  0.
        3    1    3    3  502    0 -0.60908710234E+03 -0.31496510626E+03 -0.37244519141E+03  0.78032400142E+03  0.10100000352E+00 0. -1.
       -3    1    3    3    0  502  0.60908710234E+03  0.31496510626E+03  0.23984719136E+03  0.72644118950E+03  0.10100000352E+00 0.  1.
</event>
<event>
 5   0  0.6509279E-05  0.1500670E+04  0.7818609E-02  0.8884007E-01
       -1   -1    0    0    0  501  0.00000000000E+00  0.00000000000E+00  0.58516796675E+03  0.58516796677E+03  0.50400001928E-02 0. -1.
        1   -1    0    0  501    0  0.00000000000E+00  0.00000000000E+00 -0.96212160558E+03  0.96212160559E+03  0.50400001928E-02 0.  1.
    10030    2    1    2    0    0  0.00000000000E+00  0.00000000000E+00 -0.37695363883E+03  0.15472895724E+04  0.15006701753E+04 0.  0.
        2    1    3    3  502    0  0.62591641125E+02 -0.73338864028E+03 -0.38258886073E+02  0.73704840655E+03  0.25500000920E-02 0. -1.
       -2    1    3    3    0  502 -0.62591641125E+02  0.73338864028E+03 -0.33869475275E+03  0.81024116581E+03  0.25500000920E-02 0.  1.
</event>
<event>
 5   0  0.6542036E-05  0.1500982E+04  0.7818609E-02  0.8883800E-01
        1   -1    0    0  501    0  0.00000000000E+00  0.00000000000E+00  0.14692757048E+04  0.14692757048E+04  0.50400001928E-02 0.  1.
       -1   -1    0    0    0  501  0.00000000000E+00  0.00000000000E+00 -0.38334336874E+03  0.38334336877E+03  0.50400001928E-02 0. -1.
    10030    2    1    2    0    0  0.00000000000E+00  0.00000000000E+00  0.10859323360E+04  0.18526190736E+04  0.15009824760E+04 0.  0.
        4    1    3    3  502    0 -0.46327471398E+03 -0.63164825292E+02  0.12675391786E+04  0.13510256985E+04  0.12699999809E+01 0.  1.
       -4    1    3    3    0  502  0.46327471398E+03  0.63164825292E+02 -0.18160684255E+03  0.50159337508E+03  0.12699999809E+01 0. -1.
</event>
<event>
 5   0  0.1186664E-04  0.1502974E+04  0.7818609E-02  0.8882478E-01
       -2   -1    0    0    0  501  0.00000000000E+00  0.00000000000E+00  0.98802532672E+03  0.98802532672E+03  0.25500000920E-02 0. -1.
        2   -1    0    0  501    0  0.00000000000E+00  0.00000000000E+00 -0.57157699161E+03  0.57157699161E+03  0.25500000920E-02 0.  1.
    10030    2    1    2    0    0  0.00000000000E+00  0.00000000000E+00  0.41644833511E+03  0.15596023183E+04  0.15029737774E+04 0.  0.
        3    1    3    3  502    0 -0.61328983410E+03  0.35863936072E+03 -0.45924090827E+02  0.71193794953E+03  0.10100000352E+00 0. -1.
       -3    1    3    3    0  502  0.61328983410E+03 -0.35863936072E+03  0.46237242594E+03  0.84766436880E+03  0.10100000352E+00 0.  1.
</event>
<event>
 5   0  0.1186664E-04  0.1501330E+04  0.7818609E-02  0.8883569E-01
       -2   -1    0    0    0  501  0.00000000000E+00  0.00000000000E+00  0.36486700694E+03  0.36486700695E+03  0.25500000920E-02 0. -1.
        2   -1    0    0  501    0  0.00000000000E+00  0.00000000000E+00 -0.15443935316E+04  0.15443935316E+04  0.25500000920E-02 0.  1.
    10030    2    1    2    0    0  0.00000000000E+00  0.00000000000E+00 -0.11795265247E+04  0.19092605386E+04  0.15013304039E+04 0.  0.
        3    1    3    3  502    0  0.15410395021E+03  0.17061413268E+03 -0.14985181685E+04  0.15160520840E+04  0.10100000352E+00 0.  1.
       -3    1    3    3    0  502 -0.15410395021E+03 -0.17061413268E+03  0.31899164383E+03  0.39320845461E+03  0.10100000352E+00 0. -1.
</event>
<event>
 5   0  0.6509279E-05  0.1498456E+04  0.7818609E-02  0.8885480E-01
        1   -1    0    0  501    0  0.00000000000E+00  0.00000000000E+00  0.71539591834E+03  0.71539591836E+03  0.50400001928E-02 0.  1.
       -1   -1    0    0    0  501  0.00000000000E+00  0.00000000000E+00 -0.78466048960E+03  0.78466048962E+03  0.50400001928E-02 0. -1.
    10030    2    1    2    0    0  0.00000000000E+00  0.00000000000E+00 -0.69264571258E+02  0.15000564080E+04  0.14984564212E+04 0.  0.
        2    1    3    3  502    0 -0.29144930039E+02 -0.50147594298E+03 -0.59111734557E+03  0.77572370376E+03  0.25500000920E-02 0. -1.
       -2    1    3    3    0  502  0.29144930039E+02  0.50147594298E+03  0.52185277431E+03  0.72433270421E+03  0.25500000920E-02 0.  1.
</event>
<event>
 5   0  0.6364378E-05  0.1501345E+04  0.7818609E-02  0.8883559E-01
       -1   -1    0    0    0  501  0.00000000000E+00  0.00000000000E+00  0.12489425809E+04  0.12489425809E+04  0.50400001928E-02 0. -1.
        1   -1    0    0  501    0  0.00000000000E+00  0.00000000000E+00 -0.45118918169E+03  0.45118918172E+03  0.50400001928E-02 0.  1.
    10030    2    1    2    0    0  0.00000000000E+00  0.00000000000E+00  0.79775339916E+03  0.17001317626E+04  0.15013452382E+04 0.  0.
        5    1    3    3  502    0 -0.36322864683E+03 -0.35018427951E+03 -0.23052408626E+03  0.55473193872E+03  0.46999998093E+01 0.  1.
       -5    1    3    3    0  502  0.36322864683E+03  0.35018427951E+03  0.10282774854E+04  0.11453998239E+04  0.46999998093E+01 0. -1.
</event>
<event>
 5   0  0.1254487E-04  0.1499935E+04  0.7818609E-02  0.8884496E-01
       -2   -1    0    0    0  501  0.00000000000E+00  0.00000000000E+00  0.76076252422E+03  0.76076252422E+03  0.25500000920E-02 0.  1.
        2   -1    0    0  501    0  0.00000000000E+00  0.00000000000E+00 -0.73932577456E+03  0.73932577456E+03  0.25500000920E-02 0. -1.
    10030    2    1    2    0    0  0.00000000000E+00  0.00000000000E+00  0.21436749661E+02  0.15000882988E+04  0.14999351219E+04 0.  0.
        5    1    3    3  502    0 -0.29243625590E+03 -0.57398892673E+03  0.39474587061E+03  0.75553202720E+03  0.46999998093E+01 0.  1.
       -5    1    3    3    0  502  0.29243625590E+03  0.57398892673E+03 -0.37330912095E+03  0.74455627158E+03  0.46999998093E+01 0. -1.
</event>
<event>
 5   0  0.1219810E-04  0.1500618E+04  0.7818609E-02  0.8884042E-01
       -2   -1    0    0    0  501  0.00000000000E+00  0.00000000000E+00  0.81306674286E+03  0.81306674287E+03  0.25500000920E-02 0.  1.
        2   -1    0    0  501    0  0.00000000000E+00  0.00000000000E+00 -0.69239568453E+03  0.69239568453E+03  0.25500000920E-02 0. -1.
    10030    2    1    2    0    0  0.00000000000E+00  0.00000000000E+00  0.12067105834E+03  0.15054624274E+04  0.15006184112E+04 0.  0.
        1    1    3    3  502    0  0.67383497040E+03 -0.29746399724E+03  0.20371470282E+03  0.76422383969E+03  0.50400001928E-02 0.  1.
       -1    1    3    3    0  502 -0.67383497040E+03  0.29746399724E+03 -0.83043644481E+02  0.74123858770E+03  0.50400001928E-02 0. -1.
</event>
<event>
 5   0  0.4462875E-05  0.1500665E+04  0.7818609E-02  0.8884011E-01
       -3   -1    0    0    0  501  0.00000000000E+00  0.00000000000E+00  0.60798528264E+03  0.60798529103E+03  0.10100000352E+00 0. -1.
        3   -1    0    0  501    0  0.00000000000E+00  0.00000000000E+00 -0.92600779809E+03  0.92600780360E+03  0.10100000352E+00 0.  1.
    10030    2    1    2    0    0  0.00000000000E+00  0.00000000000E+00 -0.31802251545E+03  0.15339930946E+04  0.15006653504E+04 0.  0.
        4    1    3    3  502    0  0.64027206622E+03  0.36853694443E+03 -0.29318840805E+03  0.79481372264E+03  0.12699999809E+01 0.  1.
       -4    1    3    3    0  502 -0.64027206622E+03 -0.36853694443E+03 -0.24834107396E+02  0.73917937199E+03  0.12699999809E+01 0. -1.
</event>
<event>
 5   0  0.6542036E-05  0.1500195E+04  0.7818609E-02  0.8884323E-01
       -1   -1    0    0    0  501  0.00000000000E+00  0.00000000000E+00  0.27221735141E+04  0.27221735141E+04  0.50400001928E-02 0.  1.
        1   -1    0    0  501    0  0.00000000000E+00  0.00000000000E+00 -0.20669017341E+03  0.20669017347E+03  0.50400001928E-02 0. -1.
    10030    2    1    2    0    0  0.00000000000E+00  0.00000000000E+00  0.25154833407E+04  0.29288636876E+04  0.15001953416E+04 0.  0.
        4    1    3    3  502    0  0.91424880396E+02 -0.23129160295E+03 -0.12384910957E+03  0.27783903468E+03  0.12699999809E+01 0. -1.
       -4    1    3    3    0  502 -0.91424880396E+02  0.23129160295E+03  0.26393324503E+04  0.26510246529E+04  0.12699999809E+01 0.  1.
</event>
<event>
 5   0  0.1216921E-04  0.1487999E+04  0.7818609E-02  0.8892473E-01
       -2   -1    0    0    0  501  0.00000000000E+00  0.00000000000E+00  0.94839913848E+03  0.94839913848E+03  0.25500000920E-02 0.  1.
        2   -1    0    0  501    0  0.00000000000E+00  0.00000000000E+00 -0.58365217168E+03  0.58365217169E+03  0.25500000920E-02 0. -1.
    10030    2    1    2    0    0  0.00000000000E+00  0.00000000000E+00  0.36474696680E+03  0.15320513102E+04  0.14879989473E+04 0.  0.
        4    1    3    3  502    0  0.70303180061E+03  0.13027863609E+03  0.39415043458E+03  0.81644498508E+03  0.12699999809E+01 0.  1.
       -4    1    3    3    0  502 -0.70303180061E+03 -0.13027863609E+03 -0.29403467784E+02  0.71560632509E+03  0.12699999809E+01 0. -1.
</event>
<event>
 5   0  0.1186664E-04  0.1491344E+04  0.7818609E-02  0.8890230E-01
        2   -1    0    0  501    0  0.00000000000E+00  0.00000000000E+00  0.47169455082E+03  0.47169455083E+03  0.25500000920E-02 0. -1.
       -2   -1    0    0    0  501  0.00000000000E+00  0.00000000000E+00 -0.11787855409E+04  0.11787855409E+04  0.25500000920E-02 0.  1.
    10030    2    1    2    0    0  0.00000000000E+00  0.00000000000E+00 -0.70709099008E+03  0.16504800917E+04  0.14913439794E+04 0.  0.
        3    1    3    3  502    0  0.25994199745E+03 -0.68137983338E+03 -0.18145926352E+03  0.75151566444E+03  0.10100000352E+00 0. -1.
       -3    1    3    3    0  502 -0.25994199745E+03  0.68137983338E+03 -0.52563172656E+03  0.89896442729E+03  0.10100000352E+00 0.  1.
</event>
<event>
 5   0  0.1254487E-04  0.1498148E+04  0.7818609E-02  0.8885685E-01
        2   -1    0    0  501    0  0.00000000000E+00  0.00000000000E+00  0.76097292760E+03  0.76097292760E+03  0.25500000920E-02 0. -1.
       -2   -1    0    0    0  501  0.00000000000E+00  0.00000000000E+00 -0.73736117243E+03  0.73736117244E+03  0.25500000920E-02 0.  1.
    10030    2    1    2    0    0  0.00000000000E+00  0.00000000000E+00  0.23611755164E+02  0.14983341000E+04  0.14981480435E+04 0.  0.
        5    1    3    3  502    0 -0.50933746509E+02  0.25031885536E+03 -0.69243782214E+03  0.73806910477E+03  0.46999998093E+01 0.  1.
       -5    1    3    3    0  502  0.50933746509E+02 -0.25031885536E+03  0.71604957730E+03  0.76026499527E+03  0.46999998093E+01 0. -1.
</event>
<event>
 5   0  0.1254487E-04  0.1498968E+04  0.7818609E-02  0.8885140E-01
        2   -1    0    0  501    0  0.00000000000E+00  0.00000000000E+00  0.14538177840E+04  0.14538177840E+04  0.25500000920E-02 0.  1.
       -2   -1    0    0    0  501  0.00000000000E+00  0.00000000000E+00 -0.38637989707E+03  0.38637989708E+03  0.25500000920E-02 0. -1.
    10030    2    1    2    0    0  0.00000000000E+00  0.00000000000E+00  0.10674378869E+04  0.18401976810E+04  0.14989675990E+04 0.  0.
        5    1    3    3  502    0 -0.41264966683E+03 -0.44292912626E+03 -0.87243157929E+01  0.60544542455E+03  0.46999998093E+01 0. -1.
       -5    1    3    3    0  502  0.41264966683E+03  0.44292912626E+03  0.10761622027E+04  0.12347522565E+04  0.46999998093E+01 0.  1.
</event>
<event>
 5   0  0.1254487E-04  0.1498595E+04  0.7818609E-02  0.8885388E-01
        2   -1    0    0  501    0  0.00000000000E+00  0.00000000000E+00  0.14579162841E+04  0.14579162841E+04  0.25500000920E-02 0. -1.
       -2   -1    0    0    0  501  0.00000000000E+00  0.00000000000E+00 -0.38510222755E+03  0.38510222756E+03  0.25500000920E-02 0.  1.
    10030    2    1    2    0    0  0.00000000000E+00  0.00000000000E+00  0.10728140566E+04  0.18430185117E+04  0.14985950869E+04 0.  0.
        5    1    3    3  502    0 -0.41898494188E+03  0.57954791309E+03  0.26140696167E+03  0.76143276440E+03  0.46999998093E+01 0.  1.
       -5    1    3    3    0  502  0.41898494188E+03 -0.57954791309E+03  0.81140709491E+03  0.10815857473E+04  0.46999998093E+01 0. -1.
</event>
<event>
 5   0  0.6364378E-05  0.1495875E+04  0.7818609E-02  0.8887200E-01
        1   -1    0    0  501    0  0.00000000000E+00  0.00000000000E+00  0.89316987625E+03  0.89316987626E+03  0.50400001928E-02 0. -1.
       -1   -1    0    0    0  501  0.00000000000E+00  0.00000000000E+00 -0.62632065402E+03  0.62632065404E+03  0.50400001928E-02 0.  1.
    10030    2    1    2    0    0  0.00000000000E+00  0.00000000000E+00  0.26684922223E+03  0.15194905303E+04  0.14958753171E+04 0.  0.
        5    1    3    3  502    0  0.66578335352E+03  0.31981952263E+03  0.13938319544E+02  0.73876137395E+03  0.46999998093E+01 0. -1.
       -5    1    3    3    0  502 -0.66578335352E+03 -0.31981952263E+03  0.25291090269E+03  0.78072915636E+03  0.46999998093E+01 0.  1.
</event>
<event>
 5   0  0.1219810E-04  0.1502507E+04  0.7818609E-02  0.8882788E-01
       -2   -1    0    0    0  501  0.00000000000E+00  0.00000000000E+00  0.43662165320E+03  0.43662165320E+03  0.25500000920E-02 0. -1.
        2   -1    0    0  501    0  0.00000000000E+00  0.00000000000E+00 -0.12926101629E+04  0.12926101629E+04  0.25500000920E-02 0.  1.
    10030    2    1    2    0    0  0.00000000000E+00  0.00000000000E+00 -0.85598850970E+03  0.17292318161E+04  0.15025066872E+04 0.  0.
        1    1    3    3  502    0  0.20837008364E+03 -0.37887815103E+03  0.27904950053E+03  0.51462157830E+03  0.50400001928E-02 0. -1.
       -1    1    3    3    0  502 -0.20837008364E+03  0.37887815103E+03 -0.11350380102E+04  0.12146102378E+04  0.50400001928E-02 0.  1.
</event>
<event>
 5   0  0.6509279E-05  0.1500560E+04  0.7818609E-02  0.8884080E-01
       -1   -1    0    0    0  501  0.00000000000E+00  0.00000000000E+00  0.84290545834E+03  0.84290545836E+03  0.50400001928E-02 0.  1.
        1   -1    0    0  501    0  0.00000000000E+00  0.00000000000E+00 -0.66783326319E+03  0.66783326321E+03  0.50400001928E-02 0. -1.
    10030    2    1    2    0    0  0.00000000000E+00  0.00000000000E+00  0.17507219515E+03  0.15107387216E+04  0.15005602991E+04 0.  0.
        2    1    3    3  502    0  0.52401583582E+03 -0.63263020262E+02 -0.44930259763E+03  0.69315772387E+03  0.25500000920E-02 0. -1.
       -2    1    3    3    0  502 -0.52401583582E+03  0.63263020262E+02  0.62437479278E+03  0.81758099769E+03  0.25500000920E-02 0.  1.
</event>
<event>
 5   0  0.6542036E-05  0.1499679E+04  0.7818609E-02  0.8884667E-01
       -1   -1    0    0    0  501  0.00000000000E+00  0.00000000000E+00  0.58872732989E+03  0.58872732991E+03  0.50400001928E-02 0.  1.
        1   -1    0    0  501    0  0.00000000000E+00  0.00000000000E+00 -0.95504133405E+03  0.95504133406E+03  0.50400001928E-02 0. -1.
    10030    2    1    2    0    0  0.00000000000E+00  0.00000000000E+00 -0.36631400416E+03  0.15437686640E+04  0.14996785450E+04 0.  0.
        4    1    3    3  502    0  0.77715596918E+02  0.17267927829E+03 -0.93002141504E+03  0.94910446869E+03  0.12699999809E+01 0. -1.
       -4    1    3    3    0  502 -0.77715596918E+02 -0.17267927829E+03  0.56370741088E+03  0.59466419527E+03  0.12699999809E+01 0.  1.
</event>
<event>
 5   0  0.6361716E-05  0.1500949E+04  0.7818609E-02  0.8883822E-01
       -1   -1    0    0    0  501  0.00000000000E+00  0.00000000000E+00  0.64552998784E+03  0.64552998786E+03  0.50400001928E-02 0.  1.
        1   -1    0    0  501    0  0.00000000000E+00  0.00000000000E+00 -0.87248030973E+03  0.87248030974E+03  0.50400001928E-02 0. -1.
    10030    2    1    2    0    0  0.00000000000E+00  0.00000000000E+00 -0.22695032189E+03  0.15180102976E+04  0.15009493046E+04 0.  0.
        3    1    3    3  502    0 -0.50577005043E+03 -0.18133077472E+03 -0.64338504062E+03  0.83822939250E+03  0.10100000352E+00 0. -1.
       -3    1    3    3    0  502  0.50577005043E+03  0.18133077472E+03  0.41643471873E+03  0.67978090510E+03  0.10100000352E+00 0.  1.
</event>
<event>
 5   0  0.1219810E-04  0.1490232E+04  0.7818609E-02  0.8890975E-01
        2   -1    0    0  501    0  0.00000000000E+00  0.00000000000E+00  0.10209445117E+04  0.10209445117E+04  0.25500000920E-02 0. -1.
       -2   -1    0    0    0  501  0.00000000000E+00  0.00000000000E+00 -0.54380802229E+03  0.54380802229E+03  0.25500000920E-02 0.  1.
    10030    2    1    2    0    0  0.00000000000E+00  0.00000000000E+00  0.47713648941E+03  0.15647525340E+04  0.14902319494E+04 0.  0.
        1    1    3    3  502    0  0.88812659754E+02 -0.46392880350E+03  0.84364891523E+03  0.96688216213E+03  0.50400001928E-02 0. -1.
       -1    1    3    3    0  502 -0.88812659754E+02  0.46392880350E+03 -0.36651242582E+03  0.59787037187E+03  0.50400001928E-02 0.  1.
</event>
<event>
 5   0  0.6542036E-05  0.1500504E+04  0.7818609E-02  0.8884118E-01
       -1   -1    0    0    0  501  0.00000000000E+00  0.00000000000E+00  0.51540194932E+03  0.51540194934E+03  0.50400001928E-02 0. -1.
        1   -1    0    0  501    0  0.00000000000E+00  0.00000000000E+00 -0.10921141740E+04  0.10921141740E+04  0.50400001928E-02 0.  1.
    10030    2    1    2    0    0  0.00000000000E+00  0.00000000000E+00 -0.57671222465E+03  0.16075161233E+04  0.15005036143E+04 0.  0.
        4    1    3    3  502    0 -0.61757377022E+02  0.22668854525E+03  0.47497148261E+03  0.52990677705E+03  0.12699999809E+01 0. -1.
       -4    1    3    3    0  502  0.61757377022E+02 -0.22668854525E+03 -0.10516837073E+04  0.10776093463E+04  0.12699999809E+01 0.  1.
</event>
<event>
 5   0  0.6542036E-05  0.1471239E+04  0.7818609E-02  0.8903807E-01
        1   -1    0    0  501    0  0.00000000000E+00  0.00000000000E+00  0.59868355683E+03  0.59868355685E+03  0.50400001928E-02 0. -1.
       -1   -1    0    0    0  501  0.00000000000E+00  0.00000000000E+00 -0.90387685168E+03  0.90387685169E+03  0.50400001928E-02 0.  1.
    10030    2    1    2    0    0  0.00000000000E+00  0.00000000000E+00 -0.30519329485E+03  0.15025604085E+04  0.14712392172E+04 0.  0.
        4    1    3    3  502    0  0.18490200823E+03  0.14222914364E+03  0.55990648567E+03  0.60655978069E+03  0.12699999809E+01 0. -1.
       -4    1    3    3    0  502 -0.18490200823E+03 -0.14222914364E+03 -0.86509978053E+03  0.89600062785E+03  0.12699999809E+01 0.  1.
</event>
<event>
 5   0  0.6364378E-05  0.1501550E+04  0.7818609E-02  0.8883423E-01
       -1   -1    0    0    0  501  0.00000000000E+00  0.00000000000E+00  0.67418033367E+03  0.67418033369E+03  0.50400001928E-02 0.  1.
        1   -1    0    0  501    0  0.00000000000E+00  0.00000000000E+00 -0.83607218122E+03  0.83607218123E+03  0.50400001928E-02 0. -1.
    10030    2    1    2    0    0  0.00000000000E+00  0.00000000000E+00 -0.16189184755E+03  0.15102525149E+04  0.15015504282E+04 0.  0.
        5    1    3    3  502    0  0.39876097855E+02 -0.49480997958E+03  0.48553596954E+03  0.69440210742E+03  0.46999998093E+01 0.  1.
       -5    1    3    3    0  502 -0.39876097855E+02  0.49480997958E+03 -0.64742781709E+03  0.81585040750E+03  0.46999998093E+01 0. -1.
</event>
<event>
 5   0  0.1228286E-04  0.1502267E+04  0.7818609E-02  0.8882946E-01
        2   -1    0    0  501    0  0.00000000000E+00  0.00000000000E+00  0.12753848259E+04  0.12753848259E+04  0.25500000920E-02 0.  1.
       -2   -1    0    0    0  501  0.00000000000E+00  0.00000000000E+00 -0.44237775860E+03  0.44237775861E+03  0.25500000920E-02 0. -1.
    10030    2    1    2    0    0  0.00000000000E+00  0.00000000000E+00  0.83300706733E+03  0.17177625845E+04  0.15022674604E+04 0.  0.
        2    1    3    3  502    0 -0.61991722920E+03 -0.24845990778E+03  0.80957680144E+03  0.10494971626E+04  0.25500000920E-02 0.  1.
       -2    1    3    3    0  502  0.61991722920E+03  0.24845990778E+03  0.23430265888E+02  0.66826542197E+03  0.25500000920E-02 0. -1.
</event>
<event>
 5   0  0.1216921E-04  0.1498343E+04  0.7818609E-02  0.8885555E-01
        2   -1    0    0  501    0  0.00000000000E+00  0.00000000000E+00  0.53157249036E+03  0.53157249036E+03  0.25500000920E-02 0.  1.
       -2   -1    0    0    0  501  0.00000000000E+00  0.00000000000E+00 -0.10558447696E+04  0.10558447696E+04  0.25500000920E-02 0. -1.
    10030    2    1    2    0    0  0.00000000000E+00  0.00000000000E+00 -0.52427227922E+03  0.15874172599E+04  0.14983431297E+04 0.  0.
        4    1    3    3  502    0 -0.40620483830E+03  0.41464362816E+03 -0.76392195029E+03  0.95943215918E+03  0.12699999809E+01 0. -1.
       -4    1    3    3    0  502  0.40620483830E+03 -0.41464362816E+03  0.23964967108E+03  0.62798510076E+03  0.12699999809E+01 0.  1.
</event>
<event>
 5   0  0.1254487E-04  0.1498635E+04  0.7818609E-02  0.8885361E-01
       -2   -1    0    0    0  501  0.00000000000E+00  0.00000000000E+00  0.47871580974E+03  0.47871580975E+03  0.25500000920E-02 0.  1.
        2   -1    0    0  501    0  0.00000000000E+00  0.00000000000E+00 -0.11728807715E+04  0.11728807715E+04  0.25500000920E-02 0. -1.
    10030    2    1    2    0    0  0.00000000000E+00  0.00000000000E+00 -0.69416496180E+03  0.16515965813E+04  0.14986348031E+04 0.  0.
        5    1    3    3  502    0 -0.44708219228E+03  0.59391138663E+03 -0.45070762690E+03  0.86935187167E+03  0.46999998093E+01 0. -1.
       -5    1    3    3    0  502  0.44708219228E+03 -0.59391138663E+03 -0.24345733490E+03  0.78224470963E+03  0.46999998093E+01 0.  1.
</event>
<event>
 5   0  0.1186664E-04  0.1501965E+04  0.7818609E-02  0.8883148E-01
       -2   -1    0    0    0  501  0.00000000000E+00  0.00000000000E+00  0.69041849460E+03  0.69041849460E+03  0.25500000920E-02 0. -1.
        2   -1    0    0  501    0  0.00000000000E+00  0.00000000000E+00 -0.81685875785E+03  0.81685875785E+03  0.25500000920E-02 0.  1.
    10030    2    1    2    0    0  0.00000000000E+00  0.00000000000E+00 -0.12644026325E+03  0.15072772525E+04  0.15019645720E+04 0.  0.
        3    1    3    3  502    0  0.53406904592E+03 -0.52691460542E+03 -0.29851404794E+02  0.75083943942E+03  0.10100000352E+00 0.  1.
       -3    1    3    3    0  502 -0.53406904592E+03  0.52691460542E+03 -0.96588858456E+02  0.75643781304E+03  0.10100000352E+00 0. -1.
</event>
<event>
 5   0  0.1254487E-04  0.1505433E+04  0.7818609E-02  0.8880848E-01
       -2   -1    0    0    0  501  0.00000000000E+00  0.00000000000E+00  0.61213034468E+03  0.61213034469E+03  0.25500000920E-02 0.  1.
        2   -1    0    0  501    0  0.00000000000E+00  0.00000000000E+00 -0.92559024284E+03  0.92559024285E+03  0.25500000920E-02 0. -1.
    10030    2    1    2    0    0  0.00000000000E+00  0.00000000000E+00 -0.31345989816E+03  0.15377205875E+04  0.15054326613E+04 0.  0.
        5    1    3    3  502    0  0.81031065339E+02  0.72840123319E+03  0.18487454502E+02  0.73314273238E+03  0.46999998093E+01 0. -1.
       -5    1    3    3    0  502 -0.81031065339E+02 -0.72840123319E+03 -0.33194735266E+03  0.80457785516E+03  0.46999998093E+01 0.  1.
</event>
<event>
 5   0  0.1228286E-04  0.1498999E+04  0.7818609E-02  0.8885119E-01
       -2   -1    0    0    0  501  0.00000000000E+00  0.00000000000E+00  0.31538124126E+03  0.31538124127E+03  0.25500000920E-02 0. -1.
        2   -1    0    0  501    0  0.00000000000E+00  0.00000000000E+00 -0.17811749690E+04  0.17811749690E+04  0.25500000920E-02 0.  1.
    10030    2    1    2    0    0  0.00000000000E+00  0.00000000000E+00 -0.14657937277E+04  0.20965562103E+04  0.14989985625E+04 0.  0.
        2    1    3    3  502    0 -0.38234610997E+03  0.48043392697E+03 -0.13340571864E+04  0.14685754603E+04  0.25500000920E-02 0.  1.
       -2    1    3    3    0  502  0.38234610997E+03 -0.48043392697E+03 -0.13173654133E+03  0.62798074996E+03  0.25500000920E-02 0. -1.
</event>
<event>
 5   0  0.6668433E-05  0.1500884E+04  0.7818609E-02  0.8883865E-01
       -1   -1    0    0    0  501  0.00000000000E+00  0.00000000000E+00  0.39008458750E+03  0.39008458753E+03  0.50400001928E-02 0. -1.
        1   -1    0    0  501    0  0.00000000000E+00  0.00000000000E+00 -0.14436954091E+04  0.14436954091E+04  0.50400001928E-02 0.  1.
    10030    2    1    2    0    0  0.00000000000E+00  0.00000000000E+00 -0.10536108216E+04  0.18337799967E+04  0.15008841770E+04 0.  0.
        1    1    3    3  502    0 -0.72174844389E+03  0.12959236069E+03 -0.33189738956E+03  0.80490426352E+03  0.50400001928E-02 0.  1.
       -1    1    3    3    0  502  0.72174844389E+03 -0.12959236069E+03 -0.72171343206E+03  0.10288757331E+04  0.50400001928E-02 0. -1.
</event>
<event>
 5   0  0.6542036E-05  0.1500799E+04  0.7818609E-02  0.8883922E-01
       -1   -1    0    0    0  501  0.00000000000E+00  0.00000000000E+00  0.33747562706E+03  0.33747562709E+03  0.50400001928E-02 0. -1.
        1   -1    0    0  501    0  0.00000000000E+00  0.00000000000E+00 -0.16685629868E+04  0.16685629868E+04  0.50400001928E-02 0.  1.
    10030    2    1    2    0    0  0.00000000000E+00  0.00000000000E+00 -0.13310873597E+04  0.20060386139E+04  0.15007989076E+04 0.  0.
        4    1    3    3  502    0 -0.46611313386E+03  0.58803393470E+03 -0.65587116605E+03  0.99660120473E+03  0.12699999809E+01 0.  1.
       -4    1    3    3    0  502  0.46611313386E+03 -0.58803393470E+03 -0.67521619368E+03  0.10094374092E+04  0.12699999809E+01 0. -1.
</event>
<event>
 5   0  0.1219810E-04  0.1500651E+04  0.7818609E-02  0.8884020E-01
        2   -1    0    0  501    0  0.00000000000E+00  0.00000000000E+00  0.23177324602E+04  0.23177324602E+04  0.25500000920E-02 0. -1.
       -2   -1    0    0    0  501  0.00000000000E+00  0.00000000000E+00 -0.24290472287E+03  0.24290472289E+03  0.25500000920E-02 0.  1.
    10030    2    1    2    0    0  0.00000000000E+00  0.00000000000E+00  0.20748277373E+04  0.25606371831E+04  0.15006507401E+04 0.  0.
        1    1    3    3  502    0  0.26812232363E+03  0.62508299340E+03  0.15780063724E+04  0.17183487540E+04  0.50400001928E-02 0. -1.
       -1    1    3    3    0  502 -0.26812232363E+03 -0.62508299340E+03  0.49682136491E+03  0.84228842906E+03  0.50400001928E-02 0.  1.
</event>
<event>
 5   0  0.1216921E-04  0.1500948E+04  0.7818609E-02  0.8883823E-01
        2   -1    0    0  501    0  0.00000000000E+00  0.00000000000E+00  0.12179193701E+04  0.12179193701E+04  0.25500000920E-02 0.  1.
       -2   -1    0    0    0  501  0.00000000000E+00  0.00000000000E+00 -0.46243722552E+03  0.46243722552E+03  0.25500000920E-02 0. -1.
    10030    2    1    2    0    0  0.00000000000E+00  0.00000000000E+00  0.75548214454E+03  0.16803565956E+04  0.15009480396E+04 0.  0.
        4    1    3    3  502    0 -0.23843160242E+03 -0.22751629307E+03  0.11325704053E+04  0.11795467894E+04  0.12699999809E+01 0.  1.
       -4    1    3    3    0  502  0.23843160242E+03  0.22751629307E+03 -0.37708826075E+03  0.50080980615E+03  0.12699999809E+01 0. -1.
</event>
<event>
 5   0  0.6509279E-05  0.1499897E+04  0.7818609E-02  0.8884522E-01
        1   -1    0    0  501    0  0.00000000000E+00  0.00000000000E+00  0.91957944622E+03  0.91957944624E+03  0.50400001928E-02 0. -1.
       -1   -1    0    0    0  501  0.00000000000E+00  0.00000000000E+00 -0.61160827040E+03  0.61160827042E+03  0.50400001928E-02 0.  1.
    10030    2    1    2    0    0  0.00000000000E+00  0.00000000000E+00  0.30797117582E+03  0.15311877167E+04  0.14998965226E+04 0.  0.
        2    1    3    3  502    0 -0.17843927380E+03  0.68987883465E+03 -0.84662688602E+02  0.71759400206E+03  0.25500000920E-02 0.  1.
       -2    1    3    3    0  502  0.17843927380E+03 -0.68987883465E+03  0.39263386442E+03  0.81359371460E+03  0.25500000920E-02 0. -1.
</event>
<event>
 5   0  0.6509279E-05  0.1499194E+04  0.7818609E-02  0.8884989E-01
        1   -1    0    0  501    0  0.00000000000E+00  0.00000000000E+00  0.12676570420E+04  0.12676570420E+04  0.50400001928E-02 0. -1.
       -1   -1    0    0    0  501  0.00000000000E+00  0.00000000000E+00 -0.44325510443E+03  0.44325510445E+03  0.50400001928E-02 0.  1.
    10030    2    1    2    0    0  0.00000000000E+00  0.00000000000E+00  0.82440193759E+03  0.17109121465E+04  0.14991937227E+04 0.  0.
        2    1    3    3  502    0  0.67192206574E+02 -0.31739146277E+03 -0.35898391728E+03  0.48386112278E+03  0.25500000920E-02 0.  1.
       -2    1    3    3    0  502 -0.67192206574E+02  0.31739146277E+03  0.11833858549E+04  0.12270510237E+04  0.25500000920E-02 0. -1.
</event>
<event>
 5   0  0.1228286E-04  0.1501101E+04  0.7818609E-02  0.8883721E-01
        2   -1    0    0  501    0  0.00000000000E+00  0.00000000000E+00  0.86533739360E+03  0.86533739360E+03  0.25500000920E-02 0.  1.
       -2   -1    0    0    0  501  0.00000000000E+00  0.00000000000E+00 -0.65098981730E+03  0.65098981730E+03  0.25500000920E-02 0. -1.
    10030    2    1    2    0    0  0.00000000000E+00  0.00000000000E+00  0.21434757630E+03  0.15163272109E+04  0.15011007052E+04 0.  0.
        2    1    3    3  502    0 -0.14710737554E+03  0.30370161778E+03 -0.57003731793E+03  0.66243323922E+03  0.25500000920E-02 0. -1.
       -2    1    3    3    0  502  0.14710737554E+03 -0.30370161778E+03  0.78438489424E+03  0.85389397169E+03  0.25500000920E-02 0.  1.
</event>
<event>
 5   0  0.1186664E-04  0.1500002E+04  0.7818609E-02  0.8884451E-01
       -2   -1    0    0    0  501  0.00000000000E+00  0.00000000000E+00  0.40595205643E+03  0.40595205644E+03  0.25500000920E-02 0. -1.
        2   -1    0    0  501    0  0.00000000000E+00  0.00000000000E+00 -0.13856356971E+04  0.13856356971E+04  0.25500000920E-02 0.  1.
    10030    2    1    2    0    0  0.00000000000E+00  0.00000000000E+00 -0.97968364064E+03  0.17915877535E+04  0.15000022143E+04 0.  0.
        3    1    3    3  502    0 -0.52091429524E+03  0.31841004357E+03 -0.10101423079E+04  0.11803068038E+04  0.10100000352E+00 0.  1.
       -3    1    3    3    0  502  0.52091429524E+03 -0.31841004357E+03  0.30458667230E+02  0.61128094968E+03  0.10100000352E+00 0. -1.
</event>
<event>
 5   0  0.1228286E-04  0.1499002E+04  0.7818609E-02  0.8885117E-01
        2   -1    0    0  501    0  0.00000000000E+00  0.00000000000E+00  0.19516714305E+04  0.19516714305E+04  0.25500000920E-02 0.  1.
       -2   -1    0    0    0  501  0.00000000000E+00  0.00000000000E+00 -0.28783102224E+03  0.28783102225E+03  0.25500000920E-02 0. -1.
    10030    2    1    2    0    0  0.00000000000E+00  0.00000000000E+00  0.16638404083E+04  0.22395024528E+04  0.14990017784E+04 0.  0.
        2    1    3    3  502    0 -0.53238893084E+03 -0.51707984864E+03  0.67564195712E+03  0.10036441589E+04  0.25500000920E-02 0.  1.
       -2    1    3    3    0  502  0.53238893084E+03  0.51707984864E+03  0.98819845118E+03  0.12358582938E+04  0.25500000920E-02 0. -1.
</event>
<event>
 5   0  0.1219810E-04  0.1498739E+04  0.7818609E-02  0.8885292E-01
       -2   -1    0    0    0  501  0.00000000000E+00  0.00000000000E+00  0.45228654188E+03  0.45228654189E+03  0.25500000920E-02 0.  1.
        2   -1    0    0  501    0  0.00000000000E+00  0.00000000000E+00 -0.12415905823E+04  0.12415905823E+04  0.25500000920E-02 0. -1.
    10030    2    1    2    0    0  0.00000000000E+00  0.00000000000E+00 -0.78930404037E+03  0.16938771241E+04  0.14987390845E+04 0.  0.
        1    1    3    3  502    0  0.66191813569E+03  0.24175536763E+03 -0.10656493953E+03  0.71269724462E+03  0.50400001928E-02 0.  1.
       -1    1    3    3    0  502 -0.66191813569E+03 -0.24175536763E+03 -0.68273910084E+03  0.98117987952E+03  0.50400001928E-02 0. -1.
</event>
<event>
 5   0  0.6364378E-05  0.1500364E+04  0.7818609E-02  0.8884211E-01
       -1   -1    0    0    0  501  0.00000000000E+00  0.00000000000E+00  0.60230376280E+03  0.60230376282E+03  0.50400001928E-02 0.  1.
        1   -1    0    0  501    0  0.00000000000E+00  0.00000000000E+00 -0.93436794408E+03  0.93436794409E+03  0.50400001928E-02 0. -1.
    10030    2    1    2    0    0  0.00000000000E+00  0.00000000000E+00 -0.33206418128E+03  0.15366717069E+04  0.15003643939E+04 0.  0.
        5    1    3    3  502    0 -0.10114810082E+03 -0.35346287196E+03 -0.83575510071E+03  0.91305838724E+03  0.46999998093E+01 0. -1.
       -5    1    3    3    0  502  0.10114810082E+03  0.35346287196E+03  0.50369091943E+03  0.62361331967E+03  0.46999998093E+01 0.  1.
</event>
<event>
 5   0  0.1254487E-04  0.1500327E+04  0.7818609E-02  0.8884236E-01
        2   -1    0    0  501    0  0.00000000000E+00  0.00000000000E+00  0.38689971634E+03  0.38689971634E+03  0.25500000920E-02 0. -1.
       -2   -1    0    0    0  501  0.00000000000E+00  0.00000000000E+00 -0.14544987470E+04  0.14544987470E+04  0.25500000920E-02 0.  1.
    10030    2    1    2    0    0  0.00000000000E+00  0.00000000000E+00 -0.10675990307E+04  0.18413984634E+04  0.15003268346E+04 0.  0.
        5    1    3    3  502    0 -0.64117669178E+03  0.30287662977E+03 -0.23346353543E+03  0.74657157414E+03  0.46999998093E+01 0.  1.
       -5    1    3    3    0  502  0.64117669178E+03 -0.30287662977E+03 -0.83413549526E+03  0.10948268892E+04  0.46999998093E+01 0. -1.
</event>
<event>
 5   0  0.1216921E-04  0.1502839E+04  0.7818609E-02  0.8882567E-01
        2   -1    0    0  501    0  0.00000000000E+00  0.00000000000E+00  0.70144526702E+03  0.70144526703E+03  0.25500000920E-02 0. -1.
       -2   -1    0    0    0  501  0.00000000000E+00  0.00000000000E+00 -0.80495442081E+03  0.80495442082E+03  0.25500000920E-02 0.  1.
    10030    2    1    2    0    0  0.00000000000E+00  0.00000000000E+00 -0.10350915379E+03  0.15063996878E+04  0.15028392711E+04 0.  0.
        4    1    3    3  502    0 -0.62864711205E+03 -0.26485949248E+03 -0.36759170990E+03  0.77490194240E+03  0.12699999809E+01 0.  1.
       -4    1    3    3    0  502  0.62864711205E+03  0.26485949248E+03  0.26408255611E+03  0.73149774544E+03  0.12699999809E+01 0. -1.
</event>
<event>
 5   0  0.1228286E-04  0.1498832E+04  0.7818609E-02  0.8885230E-01
       -2   -1    0    0    0  501  0.00000000000E+00  0.00000000000E+00  0.36461366802E+03  0.36461366803E+03  0.25500000920E-02 0.  1.
        2   -1    0    0  501    0  0.00000000000E+00  0.00000000000E+00 -0.15403264495E+04  0.15403264495E+04  0.25500000920E-02 0. -1.
    10030    2    1    2    0    0  0.00000000000E+00  0.00000000000E+00 -0.11757127815E+04  0.19049401175E+04  0.14988316472E+04 0.  0.
        2    1    3    3  502    0  0.73016576972E+03 -0.18639876453E+02 -0.80103748885E+03  0.10840436130E+04  0.25500000920E-02 0.  1.
       -2    1    3    3    0  502 -0.73016576972E+03  0.18639876453E+02 -0.37467529262E+03  0.82089650454E+03  0.25500000920E-02 0. -1.
</event>
<event>
 5   0  0.6364378E-05  0.1501972E+04  0.7818609E-02  0.8883143E-01
       -1   -1    0    0    0  501  0.00000000000E+00  0.00000000000E+00  0.43322814982E+03  0.43322814984E+03  0.50400001928E-02 0. -1.
        1   -1    0    0  501    0  0.00000000000E+00  0.00000000000E+00 -0.13018076338E+04  0.13018076338E+04  0.50400001928E-02 0.  1.
    10030    2    1    2    0    0  0.00000000000E+00  0.00000000000E+00 -0.86857948402E+03  0.17350357837E+04  0.15019716544E+04 0.  0.
        5    1    3    3  502    0  0.13639280906E+03 -0.13310127549E+03  0.40481274829E+03  0.44745323674E+03  0.46999998093E+01 0. -1.
       -5    1    3    3    0  502 -0.13639280906E+03  0.13310127549E+03 -0.12733922323E+04  0.12875825469E+04  0.46999998093E+01 0.  1.
</event>
<event>
 5   0  0.6364378E-05  0.1506762E+04  0.7818609E-02  0.8879969E-01
       -1   -1    0    0    0  501  0.00000000000E+00  0.00000000000E+00  0.52933741517E+03  0.52933741519E+03  0.50400001928E-02 0.  1.
        1   -1    0    0  501    0  0.00000000000E+00  0.00000000000E+00 -0.10722510610E+04  0.10722510610E+04  0.50400001928E-02 0. -1.
    10030    2    1    2    0    0  0.00000000000E+00  0.00000000000E+00 -0.54291364586E+03  0.16015884762E+04  0.15067615672E+04 0.  0.
        5    1    3    3  502    0  0.15643202046E+03  0.59843792461E+03  0.18568101968E+03  0.64583160166E+03  0.46999998093E+01 0.  1.
       -5    1    3    3    0  502 -0.15643202046E+03 -0.59843792461E+03 -0.72859466554E+03  0.95575687457E+03  0.46999998093E+01 0. -1.
</event>
<event>
 5   0  0.1219810E-04  0.1498552E+04  0.7818609E-02  0.8885416E-01
       -2   -1    0    0    0  501  0.00000000000E+00  0.00000000000E+00  0.44184192882E+03  0.44184192883E+03  0.25500000920E-02 0. -1.
        2   -1    0    0  501    0  0.00000000000E+00  0.00000000000E+00 -0.12706229243E+04  0.12706229243E+04  0.25500000920E-02 0.  1.
    10030    2    1    2    0    0  0.00000000000E+00  0.00000000000E+00 -0.82878099543E+03  0.17124648531E+04  0.14985519459E+04 0.  0.
        1    1    3    3  502    0  0.36295594022E+03 -0.25448928334E+03  0.27591977817E+03  0.52214321205E+03  0.50400001928E-02 0. -1.
       -1    1    3    3    0  502 -0.36295594022E+03  0.25448928334E+03 -0.11047007736E+04  0.11903216410E+04  0.50400001928E-02 0.  1.
</event>
<event>
 5   0  0.1254487E-04  0.1501835E+04  0.7818609E-02  0.8883234E-01
       -2   -1    0    0    0  501  0.00000000000E+00  0.00000000000E+00  0.43888461723E+03  0.43888461724E+03  0.25500000920E-02 0.  1.
        2   -1    0    0  501    0  0.00000000000E+00  0.00000000000E+00 -0.12847954259E+04  0.12847954259E+04  0.25500000920E-02 0. -1.
    10030    2    1    2    0    0  0.00000000000E+00  0.00000000000E+00 -0.84591080868E+03  0.17236800432E+04  0.15018348095E+04 0.  0.
        5    1    3    3  502    0  0.71003834034E+03 -0.12193296625E+03 -0.66596994089E+03  0.98110149586E+03  0.46999998093E+01 0. -1.
       -5    1    3    3    0  502 -0.71003834034E+03  0.12193296625E+03 -0.17994086779E+03  0.74257854730E+03  0.46999998093E+01 0.  1.
</event>
<event>
 5   0  0.1254487E-04  0.1508410E+04  0.7818609E-02  0.8878879E-01
       -2   -1    0    0    0  501  0.00000000000E+00  0.00000000000E+00  0.77289891043E+03  0.77289891044E+03  0.25500000920E-02 0. -1.
        2   -1    0    0  501    0  0.00000000000E+00  0.00000000000E+00 -0.73596341182E+03  0.73596341182E+03  0.25500000920E-02 0.  1.
    10030    2    1    2    0    0  0.00000000000E+00  0.00000000000E+00  0.36935498617E+02  0.15088623223E+04  0.15084101818E+04 0.  0.
        5    1    3    3  502    0  0.33541457294E+03 -0.13751284863E+03  0.68002104390E+03  0.77062534958E+03  0.46999998093E+01 0. -1.
       -5    1    3    3    0  502 -0.33541457294E+03  0.13751284863E+03 -0.64308554528E+03  0.73823697268E+03  0.46999998093E+01 0.  1.
</event>
<event>
 5   0  0.6542036E-05  0.1493899E+04  0.7818609E-02  0.8888520E-01
       -1   -1    0    0    0  501  0.00000000000E+00  0.00000000000E+00  0.64780299348E+03  0.64780299350E+03  0.50400001928E-02 0.  1.
        1   -1    0    0  501    0  0.00000000000E+00  0.00000000000E+00 -0.86127044846E+03  0.86127044847E+03  0.50400001928E-02 0. -1.
    10030    2    1    2    0    0  0.00000000000E+00  0.00000000000E+00 -0.21346745498E+03  0.15090734420E+04  0.14938990257E+04 0.  0.
        4    1    3    3  502    0  0.13611197716E+03 -0.13118392827E+03 -0.83670541178E+03  0.85779557726E+03  0.12699999809E+01 0. -1.
       -4    1    3    3    0  502 -0.13611197716E+03  0.13118392827E+03  0.62323795680E+03  0.65127786471E+03  0.12699999809E+01 0.  1.
</event>
<event>
 5   0  0.6542036E-05  0.1500974E+04  0.7818609E-02  0.8883805E-01
       -1   -1    0    0    0  501  0.00000000000E+00  0.00000000000E+00  0.10553593721E+04  0.10553593721E+04  0.50400001928E-02 0. -1.
        1   -1    0    0  501    0  0.00000000000E+00  0.00000000000E+00 -0.53368652800E+03  0.53368652803E+03  0.50400001928E-02 0.  1.
    10030    2    1    2    0    0  0.00000000000E+00  0.00000000000E+00  0.52167284412E+03  0.15890459002E+04  0.15009744557E+04 0.  0.
        4    1    3    3  502    0  0.54309164135E+02 -0.71797898186E+03  0.48488132434E+03  0.86807535116E+03  0.12699999809E+01 0. -1.
       -4    1    3    3    0  502 -0.54309164135E+02  0.71797898186E+03  0.36791519783E+02  0.72097054900E+03  0.12699999809E+01 0.  1.
</event>
<event>
 5   0  0.6509279E-05  0.1497709E+04  0.7818609E-02  0.8885978E-01
       -1   -1    0    0    0  501  0.00000000000E+00  0.00000000000E+00  0.33852922837E+03  0.33852922841E+03  0.50400001928E-02 0. -1.
        1   -1    0    0  501    0  0.00000000000E+00  0.00000000000E+00 -0.16565282413E+04  0.16565282413E+04  0.50400001928E-02 0.  1.
    10030    2    1    2    0    0  0.00000000000E+00  0.00000000000E+00 -0.13179990129E+04  0.19950574697E+04  0.14977092206E+04 0.  0.
        2    1    3    3  502    0  0.45178440829E+03 -0.52463643907E+03 -0.10391205778E+04  0.12486489178E+04  0.25500000920E-02 0.  1.
       -2    1    3    3    0  502 -0.45178440829E+03  0.52463643907E+03 -0.27887843515E+03  0.74640855192E+03  0.25500000920E-02 0. -1.
</event>
<event>
 5   0  0.1219810E-04  0.1491293E+04  0.7818609E-02  0.8890264E-01
        2   -1    0    0  501    0  0.00000000000E+00  0.00000000000E+00  0.74338346891E+03  0.74338346891E+03  0.25500000920E-02 0.  1.
       -2   -1    0    0    0  501  0.00000000000E+00  0.00000000000E+00 -0.74791596386E+03  0.74791596386E+03  0.25500000920E-02 0. -1.
    10030    2    1    2    0    0  0.00000000000E+00  0.00000000000E+00 -0.45324949467E+01  0.14912994328E+04  0.14912925450E+04 0.  0.
        1    1    3    3  502    0 -0.15568505670E+03  0.97309946799E+02  0.72042741206E+03  0.74345323908E+03  0.50400001928E-02 0.  1.
       -1    1    3    3    0  502  0.15568505670E+03 -0.97309946799E+02 -0.72495990701E+03  0.74784619369E+03  0.50400001928E-02 0. -1.
</event>
<event>
 5   0  0.1254487E-04  0.1499550E+04  0.7818609E-02  0.8884753E-01
        2   -1    0    0  501    0  0.00000000000E+00  0.00000000000E+00  0.59934503581E+03  0.59934503581E+03  0.25500000920E-02 0.  1.
       -2   -1    0    0    0  501  0.00000000000E+00  0.00000000000E+00 -0.93796092406E+03  0.93796092406E+03  0.25500000920E-02 0. -1.
    10030    2    1    2    0    0  0.00000000000E+00  0.00000000000E+00 -0.33861588825E+03  0.15373059599E+04  0.14995495639E+04 0.  0.
        5    1    3    3  502    0  0.63301263412E+03  0.40157416954E+03 -0.18280472247E+03  0.77162585828E+03  0.46999998093E+01 0.  1.
       -5    1    3    3    0  502 -0.63301263412E+03 -0.40157416954E+03 -0.15581116578E+03  0.76568010160E+03  0.46999998093E+01 0. -1.
</event>
<event>
 5   0  0.1186664E-04  0.1479767E+04  0.7818609E-02  0.8898020E-01
       -2   -1    0    0    0  501  0.00000000000E+00  0.00000000000E+00  0.85673990648E+03  0.85673990648E+03  0.25500000920E-02 0.  1.
        2   -1    0    0  501    0  0.00000000000E+00  0.00000000000E+00 -0.63896601904E+03  0.63896601904E+03  0.25500000920E-02 0. -1.
    10030    2    1    2    0    0  0.00000000000E+00  0.00000000000E+00  0.21777388744E+03  0.14957059255E+04  0.14797671268E+04 0.  0.
        3    1    3    3  502    0 -0.63706827419E+03 -0.92733044747E+02  0.47746831911E+03  0.80151819039E+03  0.10100000352E+00 0. -1.
       -3    1    3    3    0  502  0.63706827419E+03  0.92733044747E+02 -0.25969443167E+03  0.69418773513E+03  0.10100000352E+00 0.  1.
</event>
<event>
 5   0  0.6668433E-05  0.1504536E+04  0.7818609E-02  0.8881442E-01
       -1   -1    0    0    0  501  0.00000000000E+00  0.00000000000E+00  0.18911038766E+03  0.18911038772E+03  0.50400001928E-02 0.  1.
        1   -1    0    0  501    0  0.00000000000E+00  0.00000000000E+00 -0.29924695144E+04  0.29924695144E+04  0.50400001928E-02 0. -1.
    10030    2    1    2    0    0  0.00000000000E+00  0.00000000000E+00 -0.28033591268E+04  0.31815799022E+04  0.15045359019E+04 0.  0.
        1    1    3    3  502    0 -0.19282209191E+03  0.65131560478E+03 -0.20853219087E+04  0.21931620641E+04  0.50400001928E-02 0.  1.
       -1    1    3    3    0  502  0.19282209191E+03 -0.65131560478E+03 -0.71803721805E+03  0.98841783811E+03  0.50400001928E-02 0. -1.
</event>
<event>
 5   0  0.1219810E-04  0.1498999E+04  0.7818609E-02  0.8885119E-01
        2   -1    0    0  501    0  0.00000000000E+00  0.00000000000E+00  0.17416260678E+04  0.17416260678E+04  0.25500000920E-02 0.  1.
       -2   -1    0    0    0  501  0.00000000000E+00  0.00000000000E+00 -0.32254320454E+03  0.32254320455E+03  0.25500000920E-02 0. -1.
    10030    2    1    2    0    0  0.00000000000E+00  0.00000000000E+00  0.14190828633E+04  0.20641692723E+04  0.14989992035E+04 0.  0.
        1    1    3    3  502    0 -0.27364377076E+02  0.58492622268E+03  0.65328786693E+02  0.58919890148E+03  0.50400001928E-02 0. -1.
       -1    1    3    3    0  502  0.27364377076E+02 -0.58492622268E+03  0.13537540766E+04  0.14749703709E+04  0.50400001928E-02 0.  1.
</event>
<event>
 5   0  0.6542036E-05  0.1503954E+04  0.7818609E-02  0.8881828E-01
        1   -1    0    0  501    0  0.00000000000E+00  0.00000000000E+00  0.12439964243E+04  0.12439964243E+04  0.50400001928E-02 0.  1.
       -1   -1    0    0    0  501  0.00000000000E+00  0.00000000000E+00 -0.45455883662E+03  0.45455883665E+03  0.50400001928E-02 0. -1.
    10030    2    1    2    0    0  0.00000000000E+00  0.00000000000E+00  0.78943758764E+03  0.16985552609E+04  0.15039542113E+04 0.  0.
        4    1    3    3  502    0  0.73981538274E+03 -0.78697956365E+02  0.51816813528E+03  0.90665318518E+03  0.12699999809E+01 0.  1.
       -4    1    3    3    0  502 -0.73981538274E+03  0.78697956365E+02  0.27126945236E+03  0.79190207574E+03  0.12699999809E+01 0. -1.
</event>
<event>
 5   0  0.1186664E-04  0.1502085E+04  0.7818609E-02  0.8883067E-01
       -2   -1    0    0    0  501  0.00000000000E+00  0.00000000000E+00  0.73990319479E+03  0.73990319480E+03  0.25500000920E-02 0.  1.
        2   -1    0    0  501    0  0.00000000000E+00  0.00000000000E+00 -0.76234982324E+03  0.76234982324E+03  0.25500000920E-02 0. -1.
    10030    2    1    2    0    0  0.00000000000E+00  0.00000000000E+00 -0.22446628443E+02  0.15022530180E+04  0.15020853102E+04 0.  0.
        3    1    3    3  502    0  0.14520104136E+03 -0.35348399966E+03  0.63540187137E+03  0.74146465106E+03  0.10100000352E+00 0.  1.
       -3    1    3    3    0  502 -0.14520104136E+03  0.35348399966E+03 -0.65784849982E+03  0.76078836698E+03  0.10100000352E+00 0. -1.
</event>
<event>
 5   0  0.1216921E-04  0.1499520E+04  0.7818609E-02  0.8884772E-01
       -2   -1    0    0    0  501  0.00000000000E+00  0.00000000000E+00  0.61019636195E+03  0.61019636196E+03  0.25500000920E-02 0.  1.
        2   -1    0    0  501    0  0.00000000000E+00  0.00000000000E+00 -0.92124488604E+03  0.92124488604E+03  0.25500000920E-02 0. -1.
    10030    2    1    2    0    0  0.00000000000E+00  0.00000000000E+00 -0.31104852408E+03  0.15314412480E+04  0.14995202939E+04 0.  0.
        4    1    3    3  502    0 -0.90465184038E+02 -0.36756462626E+03 -0.81648817802E+03  0.89996792262E+03  0.12699999809E+01 0. -1.
       -4    1    3    3    0  502  0.90465184038E+02  0.36756462626E+03  0.50543965393E+03  0.63147332538E+03  0.12699999809E+01 0.  1.
</event>
<event>
 5   0  0.6668433E-05  0.1501253E+04  0.7818609E-02  0.8883620E-01
       -1   -1    0    0    0  501  0.00000000000E+00  0.00000000000E+00  0.43767848142E+03  0.43767848145E+03  0.50400001928E-02 0. -1.
        1   -1    0    0  501    0  0.00000000000E+00  0.00000000000E+00 -0.12873379144E+04  0.12873379145E+04  0.50400001928E-02 0.  1.
    10030    2    1    2    0    0  0.00000000000E+00  0.00000000000E+00 -0.84965943302E+03  0.17250163959E+04  0.15012529481E+04 0.  0.
        1    1    3    3  502    0 -0.63160207606E+03  0.32620717306E+03 -0.70181492351E+03  0.99893768030E+03  0.50400001928E-02 0.  1.
       -1    1    3    3    0  502  0.63160207606E+03 -0.32620717306E+03 -0.14784450951E+03  0.72607871561E+03  0.50400001928E-02 0. -1.
</event>
<event>
 5   0  0.1186664E-04  0.1499273E+04  0.7818609E-02  0.8884937E-01
       -2   -1    0    0    0  501  0.00000000000E+00  0.00000000000E+00  0.10978805546E+04  0.10978805546E+04  0.25500000920E-02 0.  1.
        2   -1    0    0  501    0  0.00000000000E+00  0.00000000000E+00 -0.51185425752E+03  0.51185425753E+03  0.25500000920E-02 0. -1.
    10030    2    1    2    0    0  0.00000000000E+00  0.00000000000E+00  0.58602629711E+03  0.16097348122E+04  0.14992729387E+04 0.  0.
        3    1    3    3  502    0 -0.86692398087E+02  0.70433819022E+03  0.33665222199E+02  0.71045141669E+03  0.10100000352E+00 0. -1.
       -3    1    3    3    0  502  0.86692398087E+02 -0.70433819022E+03  0.55236107491E+03  0.89928339547E+03  0.10100000352E+00 0.  1.
</event>
<event>
 5   0  0.6364378E-05  0.1498448E+04  0.7818609E-02  0.8885486E-01
        1   -1    0    0  501    0  0.00000000000E+00  0.00000000000E+00  0.11369844377E+04  0.11369844378E+04  0.50400001928E-02 0. -1.
       -1   -1    0    0    0  501  0.00000000000E+00  0.00000000000E+00 -0.49370651277E+03  0.49370651279E+03  0.50400001928E-02 0.  1.
    10030    2    1    2    0    0  0.00000000000E+00  0.00000000000E+00  0.64327792498E+03  0.16306909505E+04  0.14984480263E+04 0.  0.
        5    1    3    3  502    0  0.60266618870E+03  0.38383175664E+03  0.76404574575E+02  0.71860496896E+03  0.46999998093E+01 0. -1.
       -5    1    3    3    0  502 -0.60266618870E+03 -0.38383175664E+03  0.56687335041E+03  0.91208598158E+03  0.46999998093E+01 0.  1.
</event>
<event>
 5   0  0.6364378E-05  0.1502248E+04  0.7818609E-02  0.8882959E-01
       -1   -1    0    0    0  501  0.00000000000E+00  0.00000000000E+00  0.50100703142E+03  0.50100703144E+03  0.50400001928E-02 0. -1.
        1   -1    0    0  501    0  0.00000000000E+00  0.00000000000E+00 -0.11261070070E+04  0.11261070071E+04  0.50400001928E-02 0.  1.
    10030    2    1    2    0    0  0.00000000000E+00  0.00000000000E+00 -0.62509997563E+03  0.16271140385E+04  0.15022483532E+04 0.  0.
        5    1    3    3  502    0  0.19748308570E+03  0.57955284855E+03  0.15868076723E+03  0.63252094770E+03  0.46999998093E+01 0. -1.
       -5    1    3    3    0  502 -0.19748308570E+03 -0.57955284855E+03 -0.78378074286E+03  0.99459309080E+03  0.46999998093E+01 0.  1.
</event>
<event>
 5   0  0.6668433E-05  0.1498104E+04  0.7818609E-02  0.8885715E-01
       -1   -1    0    0    0  501  0.00000000000E+00  0.00000000000E+00  0.32673041322E+03  0.32673041326E+03  0.50400001928E-02 0.  1.
        1   -1    0    0  501    0  0.00000000000E+00  0.00000000000E+00 -0.17172534529E+04  0.17172534529E+04  0.50400001928E-02 0. -1.
    10030    2    1    2    0    0  0.00000000000E+00  0.00000000000E+00 -0.13905230397E+04  0.20439838662E+04  0.14981040422E+04 0.  0.
        1    1    3    3  502    0 -0.56032603111E+03 -0.45657192269E+03 -0.96351324985E+03  0.12044836920E+04  0.50400001928E-02 0. -1.
       -1    1    3    3    0  502  0.56032603111E+03  0.45657192269E+03 -0.42700978985E+03  0.83950017414E+03  0.50400001928E-02 0.  1.
</event>
<event>
 5   0  0.6361716E-05  0.1501503E+04  0.7818609E-02  0.8883454E-01
       -1   -1    0    0    0  501  0.00000000000E+00  0.00000000000E+00  0.86872598306E+03  0.86872598307E+03  0.50400001928E-02 0.  1.
        1   -1    0    0  501    0  0.00000000000E+00  0.00000000000E+00 -0.64879855494E+03  0.64879855496E+03  0.50400001928E-02 0. -1.
    10030    2    1    2    0    0  0.00000000000E+00  0.00000000000E+00  0.21992742812E+03  0.15175245380E+04  0.15015034632E+04 0.  0.
        3    1    3    3  502    0 -0.41008313095E+03  0.59394920595E+02  0.74268853056E+03  0.85045998995E+03  0.10100000352E+00 0.  1.
       -3    1    3    3    0  502  0.41008313095E+03 -0.59394920595E+02 -0.52276110244E+03  0.66706454808E+03  0.10100000352E+00 0. -1.
</event>
<event>
 5   0  0.6361716E-05  0.1500954E+04  0.7818609E-02  0.8883819E-01
        1   -1    0    0  501    0  0.00000000000E+00  0.00000000000E+00  0.65844255451E+03  0.65844255453E+03  0.50400001928E-02 0. -1.
       -1   -1    0    0    0  501  0.00000000000E+00  0.00000000000E+00 -0.85537540824E+03  0.85537540825E+03  0.50400001928E-02 0.  1.
    10030    2    1    2    0    0  0.00000000000E+00  0.00000000000E+00 -0.19693285372E+03  0.15138179628E+04  0.15009537886E+04 0.  0.
        3    1    3    3  502    0  0.22979399083E+03  0.62624981329E+03 -0.44524677403E+03  0.80202169974E+03  0.10100000352E+00 0.  1.
       -3    1    3    3    0  502 -0.22979399083E+03 -0.62624981329E+03  0.24831392031E+03  0.71179626305E+03  0.10100000352E+00 0. -1.
</event>
<event>
 5   0  0.6542036E-05  0.1497878E+04  0.7818609E-02  0.8885865E-01
        1   -1    0    0  501    0  0.00000000000E+00  0.00000000000E+00  0.10022074572E+04  0.10022074572E+04  0.50400001928E-02 0. -1.
       -1   -1    0    0    0  501  0.00000000000E+00  0.00000000000E+00 -0.55967453002E+03  0.55967453004E+03  0.50400001928E-02 0.  1.
    10030    2    1    2    0    0  0.00000000000E+00  0.00000000000E+00  0.44253292715E+03  0.15618819872E+04  0.14978784832E+04 0.  0.
        4    1    3    3  502    0 -0.27418102100E+03  0.12117230958E+03 -0.49439120438E+03  0.57817145965E+03  0.12699999809E+01 0.  1.
       -4    1    3    3    0  502  0.27418102100E+03 -0.12117230958E+03  0.93692413153E+03  0.98371052756E+03  0.12699999809E+01 0. -1.
</event>
<event>
 5   0  0.6361716E-05  0.1502786E+04  0.7818609E-02  0.8882602E-01
       -1   -1    0    0    0  501  0.00000000000E+00  0.00000000000E+00  0.37681353261E+03  0.37681353265E+03  0.50400001928E-02 0. -1.
        1   -1    0    0  501    0  0.00000000000E+00  0.00000000000E+00 -0.14983316221E+04  0.14983316221E+04  0.50400001928E-02 0.  1.
    10030    2    1    2    0    0  0.00000000000E+00  0.00000000000E+00 -0.11215180895E+04  0.18751451548E+04  0.15027862544E+04 0.  0.
        3    1    3    3  502    0  0.59917529779E+03  0.18426271201E+03 -0.10776888130E+04  0.12467465550E+04  0.10100000352E+00 0.  1.
       -3    1    3    3    0  502 -0.59917529779E+03 -0.18426271201E+03 -0.43829276494E+02  0.62839859977E+03  0.10100000352E+00 0. -1.
</event>
<event>
 5   0  0.6668433E-05  0.1501853E+04  0.7818609E-02  0.8883222E-01
       -1   -1    0    0    0  501  0.00000000000E+00  0.00000000000E+00  0.42252662530E+03  0.42252662533E+03  0.50400001928E-02 0. -1.
        1   -1    0    0  501    0  0.00000000000E+00  0.00000000000E+00 -0.13345679530E+04  0.13345679530E+04  0.50400001928E-02 0.  1.
    10030    2    1    2    0    0  0.00000000000E+00  0.00000000000E+00 -0.91204132774E+03  0.17570945784E+04  0.15018528469E+04 0.  0.
        1    1    3    3  502    0 -0.59705585350E+03  0.45353036639E+03 -0.50461250043E+03  0.90376947340E+03  0.50400001928E-02 0. -1.
       -1    1    3    3    0  502  0.59705585350E+03 -0.45353036639E+03 -0.40742882730E+03  0.85332510497E+03  0.50400001928E-02 0.  1.
</event>
<event>
 5   0  0.6364378E-05  0.1502269E+04  0.7818609E-02  0.8882945E-01
        1   -1    0    0  501    0  0.00000000000E+00  0.00000000000E+00  0.10145961274E+04  0.10145961274E+04  0.50400001928E-02 0. -1.
       -1   -1    0    0    0  501  0.00000000000E+00  0.00000000000E+00 -0.55608661129E+03  0.55608661131E+03  0.50400001928E-02 0.  1.
    10030    2    1    2    0    0  0.00000000000E+00  0.00000000000E+00  0.45850951610E+03  0.15706827387E+04  0.15022693798E+04 0.  0.
        5    1    3    3  502    0  0.74880270741E+03  0.58172589922E+02  0.23926617832E+03  0.78826387646E+03  0.46999998093E+01 0. -1.
       -5    1    3    3    0  502 -0.74880270741E+03 -0.58172589922E+02  0.21924333777E+03  0.78241886225E+03  0.46999998093E+01 0.  1.
</event>
<event>
 5   0  0.1186664E-04  0.1485053E+04  0.7818609E-02  0.8894454E-01
       -2   -1    0    0    0  501  0.00000000000E+00  0.00000000000E+00  0.55775975541E+03  0.55775975542E+03  0.25500000920E-02 0. -1.
        2   -1    0    0  501    0  0.00000000000E+00  0.00000000000E+00 -0.98850007487E+03  0.98850007487E+03  0.25500000920E-02 0.  1.
    10030    2    1    2    0    0  0.00000000000E+00  0.00000000000E+00 -0.43074031945E+03  0.15462598303E+04  0.14850529418E+04 0.  0.
        3    1    3    3  502    0 -0.23280565889E+03 -0.44632281469E+03  0.35296842968E+03  0.61480830531E+03  0.10100000352E+00 0. -1.
       -3    1    3    3    0  502  0.23280565889E+03  0.44632281469E+03 -0.78370874914E+03  0.93145152498E+03  0.10100000352E+00 0.  1.
</event>
<event>
 5   0  0.1228286E-04  0.1499899E+04  0.7818609E-02  0.8884520E-01
        2   -1    0    0  501    0  0.00000000000E+00  0.00000000000E+00  0.95486900493E+03  0.95486900493E+03  0.25500000920E-02 0.  1.
       -2   -1    0    0    0  501  0.00000000000E+00  0.00000000000E+00 -0.58900648336E+03  0.58900648337E+03  0.25500000920E-02 0. -1.
    10030    2    1    2    0    0  0.00000000000E+00  0.00000000000E+00  0.36586252157E+03  0.15438754883E+04  0.14998987095E+04 0.  0.
        2    1    3    3  502    0 -0.58633519439E+02 -0.50967254727E+03  0.74597959596E+03  0.90536708170E+03  0.25500000920E-02 0.  1.
       -2    1    3    3    0  502  0.58633519439E+02  0.50967254727E+03 -0.38011707439E+03  0.63850840659E+03  0.25500000920E-02 0. -1.
</event>
<event>
 5   0  0.6364378E-05  0.1499016E+04  0.7818609E-02  0.8885108E-01
       -1   -1    0    0    0  501  0.00000000000E+00  0.00000000000E+00  0.73352858355E+03  0.73352858357E+03  0.50400001928E-02 0. -1.
        1   -1    0    0  501    0  0.00000000000E+00  0.00000000000E+00 -0.76583509411E+03  0.76583509412E+03  0.50400001928E-02 0.  1.
    10030    2    1    2    0    0  0.00000000000E+00  0.00000000000E+00 -0.32306510557E+02  0.14993636777E+04  0.14990155861E+04 0.  0.
        5    1    3    3  502    0  0.45539206933E+03  0.59527908367E+03 -0.15305958109E+02  0.74966358229E+03  0.46999998093E+01 0.  1.
       -5    1    3    3    0  502 -0.45539206933E+03 -0.59527908367E+03 -0.17000552448E+02  0.74970009540E+03  0.46999998093E+01 0. -1.
</event>
<event>
 5   0  0.1186664E-04  0.1498926E+04  0.7818609E-02  0.8885167E-01
       -2   -1    0    0    0  501  0.00000000000E+00  0.00000000000E+00  0.19048551178E+03  0.19048551180E+03  0.25500000920E-02 0.  1.
        2   -1    0    0  501    0  0.00000000000E+00  0.00000000000E+00 -0.29487530331E+04  0.29487530331E+04  0.25500000920E-02 0. -1.
    10030    2    1    2    0    0  0.00000000000E+00  0.00000000000E+00 -0.27582675213E+04  0.31392385449E+04  0.14989259230E+04 0.  0.
        3    1    3    3  502    0  0.58029538924E+03 -0.18156394444E+03 -0.46147860036E+03  0.76332870605E+03  0.10100000352E+00 0.  1.
       -3    1    3    3    0  502 -0.58029538924E+03  0.18156394444E+03 -0.22967889209E+04  0.23759098388E+04  0.10100000352E+00 0. -1.
</event>
<event>
 5   0  0.1219810E-04  0.1502822E+04  0.7818609E-02  0.8882579E-01
       -2   -1    0    0    0  501  0.00000000000E+00  0.00000000000E+00  0.29998735960E+03  0.29998735961E+03  0.25500000920E-02 0.  1.
        2   -1    0    0  501    0  0.00000000000E+00  0.00000000000E+00 -0.18821397517E+04  0.18821397517E+04  0.25500000920E-02 0. -1.
    10030    2    1    2    0    0  0.00000000000E+00  0.00000000000E+00 -0.15821523921E+04  0.21821271113E+04  0.15028215257E+04 0.  0.
        1    1    3    3  502    0  0.63065715591E+03 -0.38793004889E+03 -0.60512709766E+03  0.95624106557E+03  0.50400001928E-02 0.  1.
       -1    1    3    3    0  502 -0.63065715591E+03  0.38793004889E+03 -0.97702529439E+03  0.12258860457E+04  0.50400001928E-02 0. -1.
</event>
<event>
 5   0  0.1216921E-04  0.1495630E+04  0.7818609E-02  0.8887364E-01
        2   -1    0    0  501    0  0.00000000000E+00  0.00000000000E+00  0.94283403403E+03  0.94283403404E+03  0.25500000920E-02 0. -1.
       -2   -1    0    0    0  501  0.00000000000E+00  0.00000000000E+00 -0.59313427513E+03  0.59313427513E+03  0.25500000920E-02 0.  1.
    10030    2    1    2    0    0  0.00000000000E+00  0.00000000000E+00  0.34969975891E+03  0.15359683092E+04  0.14956298758E+04 0.  0.
        4    1    3    3  502    0 -0.54695738843E+03 -0.50823447804E+03  0.13175503176E+03  0.75817258636E+03  0.12699999809E+01 0. -1.
       -4    1    3    3    0  502  0.54695738843E+03  0.50823447804E+03  0.21794472715E+03  0.77779572280E+03  0.12699999809E+01 0.  1.
</event>
<event>
 5   0  0.1228286E-04  0.1500863E+04  0.7818609E-02  0.8883879E-01
        2   -1    0    0  501    0  0.00000000000E+00  0.00000000000E+00  0.11172462692E+04  0.11172462692E+04  0.25500000920E-02 0. -1.
       -2   -1    0    0    0  501  0.00000000000E+00  0.00000000000E+00 -0.50404980181E+03  0.50404980182E+03  0.25500000920E-02 0.  1.
    10030    2    1    2    0    0  0.00000000000E+00  0.00000000000E+00  0.61319646740E+03  0.16212960710E+04  0.15008634323E+04 0.  0.
        2    1    3    3  502    0 -0.41742802805E+03  0.56025395731E+03  0.60246848787E+03  0.92255023395E+03  0.25500000920E-02 0. -1.
       -2    1    3    3    0  502  0.41742802805E+03 -0.56025395731E+03  0.10727979530E+02  0.69874583708E+03  0.25500000920E-02 0.  1.
</event>
<event>
 5   0  0.6364378E-05  0.1497210E+04  0.7818609E-02  0.8886310E-01
        1   -1    0    0  501    0  0.00000000000E+00  0.00000000000E+00  0.12318365072E+04  0.12318365072E+04  0.50400001928E-02 0. -1.
       -1   -1    0    0    0  501  0.00000000000E+00  0.00000000000E+00 -0.45493843331E+03  0.45493843333E+03  0.50400001928E-02 0.  1.
    10030    2    1    2    0    0  0.00000000000E+00  0.00000000000E+00  0.77689807389E+03  0.16867749405E+04  0.14972104337E+04 0.  0.
        5    1    3    3  502    0  0.49491347104E+03 -0.18870920440E+03 -0.20752452972E+03  0.56889280895E+03  0.46999998093E+01 0.  1.
       -5    1    3    3    0  502 -0.49491347104E+03  0.18870920440E+03  0.98442260361E+03  0.11178821316E+04  0.46999998093E+01 0. -1.
</event>
<event>
 5   0  0.1228286E-04  0.1501737E+04  0.7818609E-02  0.8883299E-01
        2   -1    0    0  501    0  0.00000000000E+00  0.00000000000E+00  0.22260889673E+04  0.22260889673E+04  0.25500000920E-02 0.  1.
       -2   -1    0    0    0  501  0.00000000000E+00  0.00000000000E+00 -0.25327092698E+03  0.25327092700E+03  0.25500000920E-02 0. -1.
    10030    2    1    2    0    0  0.00000000000E+00  0.00000000000E+00  0.19728180403E+04  0.24793598943E+04  0.15017371492E+04 0.  0.
        2    1    3    3  502    0  0.30909374207E+03  0.68343641383E+03  0.92971128044E+03  0.11945657529E+04  0.25500000920E-02 0. -1.
       -2    1    3    3    0  502 -0.30909374207E+03 -0.68343641383E+03  0.10431067599E+04  0.12847941414E+04  0.25500000920E-02 0.  1.
</event>
<event>
 5   0  0.6364378E-05  0.1503132E+04  0.7818609E-02  0.8882373E-01
        1   -1    0    0  501    0  0.00000000000E+00  0.00000000000E+00  0.19695043018E+04  0.19695043019E+04  0.50400001928E-02 0.  1.
       -1   -1    0    0    0  501  0.00000000000E+00  0.00000000000E+00 -0.28679874749E+03  0.28679874754E+03  0.50400001928E-02 0. -1.
    10030    2    1    2    0    0  0.00000000000E+00  0.00000000000E+00  0.16827055544E+04  0.22563030494E+04  0.15031318864E+04 0.  0.
        5    1    3    3  502    0 -0.74076198587E+03 -0.99977526097E+02  0.95864230500E+03  0.12156237018E+04  0.46999998093E+01 0.  1.
       -5    1    3    3    0  502  0.74076198587E+03  0.99977526097E+02  0.72406324936E+03  0.10406793476E+04  0.46999998093E+01 0. -1.
</event>
<event>
 5   0  0.6542036E-05  0.1496250E+04  0.7818609E-02  0.8886951E-01
        1   -1    0    0  501    0  0.00000000000E+00  0.00000000000E+00  0.69236658494E+03  0.69236658496E+03  0.50400001928E-02 0. -1.
       -1   -1    0    0    0  501  0.00000000000E+00  0.00000000000E+00 -0.80837342220E+03  0.80837342221E+03  0.50400001928E-02 0.  1.
    10030    2    1    2    0    0  0.00000000000E+00  0.00000000000E+00 -0.11600683726E+03  0.15007400072E+04  0.14962496392E+04 0.  0.
        4    1    3    3  502    0 -0.18500559309E+01  0.50613297599E+03 -0.61057884506E+03  0.79308394954E+03  0.12699999809E+01 0.  1.
       -4    1    3    3    0  502  0.18500559309E+01 -0.50613297599E+03  0.49457200780E+03  0.70765605762E+03  0.12699999809E+01 0. -1.
</event>
<event>
 5   0  0.6509279E-05  0.1495015E+04  0.7818609E-02  0.8887775E-01
        1   -1    0    0  501    0  0.00000000000E+00  0.00000000000E+00  0.45256480243E+03  0.45256480246E+03  0.50400001928E-02 0. -1.
       -1   -1    0    0    0  501  0.00000000000E+00  0.00000000000E+00 -0.12346681189E+04  0.12346681189E+04  0.50400001928E-02 0.  1.
    10030    2    1    2    0    0  0.00000000000E+00  0.00000000000E+00 -0.78210331643E+03  0.16872329213E+04  0.14950148271E+04 0.  0.
        2    1    3    3  502    0  0.70334480507E+03 -0.17414825668E+03 -0.18373250539E+03  0.74751532671E+03  0.25500000920E-02 0. -1.
       -2    1    3    3    0  502 -0.70334480507E+03  0.17414825668E+03 -0.59837081104E+03  0.93971759462E+03  0.25500000920E-02 0.  1.
</event>
<event>
 5   0  0.6542036E-05  0.1490297E+04  0.7818609E-02  0.8890931E-01
       -1   -1    0    0    0  501  0.00000000000E+00  0.00000000000E+00  0.68708726165E+03  0.68708726167E+03  0.50400001928E-02 0. -1.
        1   -1    0    0  501    0  0.00000000000E+00  0.00000000000E+00 -0.80811583998E+03  0.80811583999E+03  0.50400001928E-02 0.  1.
    10030    2    1    2    0    0  0.00000000000E+00  0.00000000000E+00 -0.12102857833E+03  0.14952031017E+04  0.14902967485E+04 0.  0.
        4    1    3    3  502    0  0.43629065763E+03  0.11206956337E+03  0.53501832681E+03  0.69939641684E+03  0.12699999809E+01 0. -1.
       -4    1    3    3    0  502 -0.43629065763E+03 -0.11206956337E+03 -0.65604690513E+03  0.79580668482E+03  0.12699999809E+01 0.  1.
</event>
<event>
 5   0  0.1219810E-04  0.1496621E+04  0.7818609E-02  0.8886703E-01
        2   -1    0    0  501    0  0.00000000000E+00  0.00000000000E+00  0.52524117525E+03  0.52524117525E+03  0.25500000920E-02 0.  1.
       -2   -1    0    0    0  501  0.00000000000E+00  0.00000000000E+00 -0.10661173290E+04  0.10661173290E+04  0.25500000920E-02 0. -1.
    10030    2    1    2    0    0  0.00000000000E+00  0.00000000000E+00 -0.54087615374E+03  0.15913585042E+04  0.14966211529E+04 0.  0.
        1    1    3    3  502    0  0.65350285840E+03 -0.29733886861E+03 -0.46153853481E+02  0.71944879383E+03  0.50400001928E-02 0.  1.
       -1    1    3    3    0  502 -0.65350285840E+03  0.29733886861E+03 -0.49472230026E+03  0.87190971042E+03  0.50400001928E-02 0. -1.
</event>
<event>
 5   0  0.1216921E-04  0.1499576E+04  0.7818609E-02  0.8884735E-01
        2   -1    0    0  501    0  0.00000000000E+00  0.00000000000E+00  0.14333486242E+04  0.14333486242E+04  0.25500000920E-02 0. -1.
       -2   -1    0    0    0  501  0.00000000000E+00  0.00000000000E+00 -0.39221586328E+03  0.39221586329E+03  0.25500000920E-02 0.  1.
    10030    2    1    2    0    0  0.00000000000E+00  0.00000000000E+00  0.10411327609E+04  0.18255644875E+04  0.14995760308E+04 0.  0.
        4    1    3    3  502    0  0.74915847193E+02 -0.57153903576E+03 -0.63159238597E+02  0.57987925974E+03  0.12699999809E+01 0.  1.
       -4    1    3    3    0  502 -0.74915847193E+02  0.57153903576E+03  0.11042919995E+04  0.12456852277E+04  0.12699999809E+01 0. -1.
</event>
<event>
 5   0  0.6361716E-05  0.1497740E+04  0.7818609E-02  0.8885957E-01
        1   -1    0    0  501    0  0.00000000000E+00  0.00000000000E+00  0.81776835802E+03  0.81776835804E+03  0.50400001928E-02 0.  1.
       -1   -1    0    0    0  501  0.00000000000E+00  0.00000000000E+00 -0.68577609502E+03  0.68577609504E+03  0.50400001928E-02 0. -1.
    10030    2    1    2    0    0  0.00000000000E+00  0.00000000000E+00  0.13199226300E+03  0.15035444531E+04  0.14977396185E+04 0.  0.
        3    1    3    3  502    0 -0.34129087211E+02 -0.47935606239E+03  0.64255557798E+03  0.80238688308E+03  0.10100000352E+00 0.  1.
       -3    1    3    3    0  502  0.34129087211E+02  0.47935606239E+03 -0.51056331498E+03  0.70115756999E+03  0.10100000352E+00 0. -1.
</event>
<event>
 5   0  0.1186664E-04  0.1504118E+04  0.7818609E-02  0.8881719E-01
        2   -1    0    0  501    0  0.00000000000E+00  0.00000000000E+00  0.12338635876E+04  0.12338635876E+04  0.25500000920E-02 0. -1.
       -2   -1    0    0    0  501  0.00000000000E+00  0.00000000000E+00 -0.45839169805E+03  0.45839169805E+03  0.25500000920E-02 0.  1.
    10030    2    1    2    0    0  0.00000000000E+00  0.00000000000E+00  0.77547188960E+03  0.16922552857E+04  0.15041181139E+04 0.  0.
        3    1    3    3  502    0  0.14152643725E+03 -0.69706344098E+03  0.11291736194E+03  0.72019269229E+03  0.10100000352E+00 0. -1.
       -3    1    3    3    0  502 -0.14152643725E+03  0.69706344098E+03  0.66255452766E+03  0.97206259342E+03  0.10100000352E+00 0.  1.
</event>
<event>
 5   0  0.6361716E-05  0.1497398E+04  0.7818609E-02  0.8886185E-01
        1   -1    0    0  501    0  0.00000000000E+00  0.00000000000E+00  0.11277037256E+04  0.11277037256E+04  0.50400001928E-02 0. -1.
       -1   -1    0    0    0  501  0.00000000000E+00  0.00000000000E+00 -0.49707208078E+03  0.49707208080E+03  0.50400001928E-02 0.  1.
    10030    2    1    2    0    0  0.00000000000E+00  0.00000000000E+00  0.63063164479E+03  0.16247758064E+04  0.14973977927E+04 0.  0.
        3    1    3    3  502    0  0.11259346968E+03 -0.56050397652E+03 -0.20924164325E+03  0.60878902140E+03  0.10100000352E+00 0.  1.
       -3    1    3    3    0  502 -0.11259346968E+03  0.56050397652E+03  0.83987328803E+03  0.10159867850E+04  0.10100000352E+00 0. -1.
</event>
<event>
 5   0  0.6509279E-05  0.1497479E+04  0.7818609E-02  0.8886131E-01
       -1   -1    0    0    0  501  0.00000000000E+00  0.00000000000E+00  0.47228754979E+03  0.47228754982E+03  0.50400001928E-02 0. -1.
        1   -1    0    0  501    0  0.00000000000E+00  0.00000000000E+00 -0.11870119887E+04  0.11870119887E+04  0.50400001928E-02 0.  1.
    10030    2    1    2    0    0  0.00000000000E+00  0.00000000000E+00 -0.71472443886E+03  0.16592995385E+04  0.14974791935E+04 0.  0.
        2    1    3    3  502    0  0.70007192769E+03 -0.24626646758E+03 -0.24731708082E+03  0.78224907508E+03  0.25500000920E-02 0.  1.
       -2    1    3    3    0  502 -0.70007192769E+03  0.24626646758E+03 -0.46740735804E+03  0.87705046340E+03  0.25500000920E-02 0. -1.
</event>
<event>
 5   0  0.1228286E-04  0.1497927E+04  0.7818609E-02  0.8885833E-01
       -2   -1    0    0    0  501  0.00000000000E+00  0.00000000000E+00  0.11301693825E+04  0.11301693825E+04  0.25500000920E-02 0. -1.
        2   -1    0    0  501    0  0.00000000000E+00  0.00000000000E+00 -0.49633799724E+03  0.49633799724E+03  0.25500000920E-02 0.  1.
    10030    2    1    2    0    0  0.00000000000E+00  0.00000000000E+00  0.63383138525E+03  0.16265073797E+04  0.14979265774E+04 0.  0.
        2    1    3    3  502    0  0.60560326206E+03 -0.56342325288E+02  0.79148610350E+03  0.99818836934E+03  0.25500000920E-02 0. -1.
       -2    1    3    3    0  502 -0.60560326206E+03  0.56342325288E+02 -0.15765471825E+03  0.62831901040E+03  0.25500000920E-02 0.  1.
</event>
<event>
 5   0  0.4462875E-05  0.1503477E+04  0.7818609E-02  0.8882144E-01
        3   -1    0    0  501    0  0.00000000000E+00  0.00000000000E+00  0.41938425689E+03  0.41938426905E+03  0.10100000352E+00 0. -1.
       -3   -1    0    0    0  501  0.00000000000E+00  0.00000000000E+00 -0.13474779322E+04  0.13474779360E+04  0.10100000352E+00 0.  1.
    10030    2    1    2    0    0  0.00000000000E+00  0.00000000000E+00 -0.92809367533E+03  0.17668622051E+04  0.15034773631E+04 0.  0.
        4    1    3    3  502    0 -0.21403170936E+03  0.55400968144E+03 -0.10056180537E+04  0.11679064956E+04  0.12699999809E+01 0.  1.
       -4    1    3    3    0  502  0.21403170936E+03 -0.55400968144E+03  0.77524378337E+02  0.59895570944E+03  0.12699999809E+01 0. -1.
</event>
<event>
 5   0  0.6668433E-05  0.1504643E+04  0.7818609E-02  0.8881371E-01
       -1   -1    0    0    0  501  0.00000000000E+00  0.00000000000E+00  0.62353496708E+03  0.62353496710E+03  0.50400001928E-02 0. -1.
        1   -1    0    0  501    0  0.00000000000E+00  0.00000000000E+00 -0.90770794250E+03  0.90770794251E+03  0.50400001928E-02 0.  1.
    10030    2    1    2    0    0  0.00000000000E+00  0.00000000000E+00 -0.28417297542E+03  0.15312429096E+04  0.15046430036E+04 0.  0.
        1    1    3    3  502    0 -0.91547231354E+02 -0.28610729178E+03 -0.84402606348E+03  0.89588965495E+03  0.50400001928E-02 0.  1.
       -1    1    3    3    0  502  0.91547231354E+02  0.28610729178E+03  0.55985308806E+03  0.63535325467E+03  0.50400001928E-02 0. -1.
</event>
<event>
 5   0  0.1216921E-04  0.1500341E+04  0.7818609E-02  0.8884226E-01
       -2   -1    0    0    0  501  0.00000000000E+00  0.00000000000E+00  0.45873706908E+03  0.45873706909E+03  0.25500000920E-02 0. -1.
        2   -1    0    0  501    0  0.00000000000E+00  0.00000000000E+00 -0.12267503889E+04  0.12267503889E+04  0.25500000920E-02 0.  1.
    10030    2    1    2    0    0  0.00000000000E+00  0.00000000000E+00 -0.76801331985E+03  0.16854874580E+04  0.15003411318E+04 0.  0.
        4    1    3    3  502    0  0.37333963652E+03  0.34373403449E+03  0.23663521571E+03  0.55994054049E+03  0.12699999809E+01 0. -1.
       -4    1    3    3    0  502 -0.37333963652E+03 -0.34373403449E+03 -0.10046485356E+04  0.11255469175E+04  0.12699999809E+01 0.  1.
</event>
<event>
 5   0  0.6668433E-05  0.1502690E+04  0.7818609E-02  0.8882666E-01
        1   -1    0    0  501    0  0.00000000000E+00  0.00000000000E+00  0.48074559437E+03  0.48074559439E+03  0.50400001928E-02 0.  1.
       -1   -1    0    0    0  501  0.00000000000E+00  0.00000000000E+00 -0.11742581495E+04  0.11742581495E+04  0.50400001928E-02 0. -1.
    10030    2    1    2    0    0  0.00000000000E+00  0.00000000000E+00 -0.69351255509E+03  0.16550037439E+04  0.15026901637E+04 0.  0.
        1    1    3    3  502    0 -0.30399555778E+03 -0.48163550968E+03  0.19294791727E+03  0.60134429584E+03  0.50400001928E-02 0.  1.
       -1    1    3    3    0  502  0.30399555778E+03  0.48163550968E+03 -0.88646047235E+03  0.10536594480E+04  0.50400001928E-02 0. -1.
</event>
<event>
 5   0  0.1216921E-04  0.1497416E+04  0.7818609E-02  0.8886173E-01
        2   -1    0    0  501    0  0.00000000000E+00  0.00000000000E+00  0.20142019777E+04  0.20142019777E+04  0.25500000920E-02 0. -1.
       -2   -1    0    0    0  501  0.00000000000E+00  0.00000000000E+00 -0.27830555166E+03  0.27830555167E+03  0.25500000920E-02 0.  1.
    10030    2    1    2    0    0  0.00000000000E+00  0.00000000000E+00  0.17358964260E+04  0.22925075294E+04  0.14974158976E+04 0.  0.
        4    1    3    3  502    0 -0.30899089081E+02 -0.54980733764E+03  0.16445606795E+04  0.17343080187E+04  0.12699999809E+01 0. -1.
       -4    1    3    3    0  502  0.30899089081E+02  0.54980733764E+03  0.91335746527E+02  0.55819951068E+03  0.12699999809E+01 0.  1.
</event>
<event>
 5   0  0.1254487E-04  0.1498213E+04  0.7818609E-02  0.8885642E-01
       -2   -1    0    0    0  501  0.00000000000E+00  0.00000000000E+00  0.54107236780E+03  0.54107236781E+03  0.25500000920E-02 0. -1.
        2   -1    0    0  501    0  0.00000000000E+00  0.00000000000E+00 -0.10371272480E+04  0.10371272480E+04  0.25500000920E-02 0.  1.
    10030    2    1    2    0    0  0.00000000000E+00  0.00000000000E+00 -0.49605488018E+03  0.15781996158E+04  0.14982134638E+04 0.  0.
        5    1    3    3  502    0  0.29377404382E+03  0.45200173559E+02 -0.97233589570E+03  0.10167622281E+04  0.46999998093E+01 0.  1.
       -5    1    3    3    0  502 -0.29377404382E+03 -0.45200173559E+02  0.47628101552E+03  0.56143738765E+03  0.46999998093E+01 0. -1.
</event>
<event>
 5   0  0.6542036E-05  0.1499668E+04  0.7818609E-02  0.8884673E-01
        1   -1    0    0  501    0  0.00000000000E+00  0.00000000000E+00  0.14988414530E+04  0.14988414530E+04  0.50400001928E-02 0. -1.
       -1   -1    0    0    0  501  0.00000000000E+00  0.00000000000E+00 -0.37512399072E+03  0.37512399076E+03  0.50400001928E-02 0.  1.
    10030    2    1    2    0    0  0.00000000000E+00  0.00000000000E+00  0.11237174623E+04  0.18739654438E+04  0.14996684798E+04 0.  0.
        4    1    3    3  502    0  0.19378906338E+03 -0.47052636191E+03 -0.12632260367E+03  0.52431695704E+03  0.12699999809E+01 0.  1.
       -4    1    3    3    0  502 -0.19378906338E+03  0.47052636191E+03  0.12500400660E+04  0.13496484867E+04  0.12699999809E+01 0. -1.
</event>
<event>
 5   0  0.1254487E-04  0.1502582E+04  0.7818609E-02  0.8882738E-01
       -2   -1    0    0    0  501  0.00000000000E+00  0.00000000000E+00  0.11684788832E+04  0.11684788832E+04  0.25500000920E-02 0.  1.
        2   -1    0    0  501    0  0.00000000000E+00  0.00000000000E+00 -0.48305365604E+03  0.48305365604E+03  0.25500000920E-02 0. -1.
    10030    2    1    2    0    0  0.00000000000E+00  0.00000000000E+00  0.68542522714E+03  0.16515325392E+04  0.15025817735E+04 0.  0.
        5    1    3    3  502    0  0.84464047324E+02  0.50480842087E+03  0.94718427979E+03  0.10766363671E+04  0.46999998093E+01 0.  1.
       -5    1    3    3    0  502 -0.84464047324E+02 -0.50480842087E+03 -0.26175905265E+03  0.57489617212E+03  0.46999998093E+01 0. -1.
</event>
<event>
 5   0  0.6509279E-05  0.1500174E+04  0.7818609E-02  0.8884338E-01
       -1   -1    0    0    0  501  0.00000000000E+00  0.00000000000E+00  0.25249321880E+03  0.25249321885E+03  0.50400001928E-02 0.  1.
        1   -1    0    0  501    0  0.00000000000E+00  0.00000000000E+00 -0.22282982289E+04  0.22282982289E+04  0.50400001928E-02 0. -1.
    10030    2    1    2    0    0  0.00000000000E+00  0.00000000000E+00 -0.19758050101E+04  0.24807914477E+04  0.15001735797E+04 0.  0.
        2    1    3    3  502    0 -0.67685932733E+03 -0.31086603404E+03 -0.11344548831E+04  0.13571161048E+04  0.25500000920E-02 0. -1.
       -2    1    3    3    0  502  0.67685932733E+03  0.31086603404E+03 -0.84135012692E+03  0.11236753429E+04  0.25500000920E-02 0.  1.
</event>
<event>
 5   0  0.1228286E-04  0.1498658E+04  0.7818609E-02  0.8885346E-01
       -2   -1    0    0    0  501  0.00000000000E+00  0.00000000000E+00  0.66737169861E+03  0.66737169861E+03  0.25500000920E-02 0.  1.
        2   -1    0    0  501    0  0.00000000000E+00  0.00000000000E+00 -0.84135063562E+03  0.84135063562E+03  0.25500000920E-02 0. -1.
    10030    2    1    2    0    0  0.00000000000E+00  0.00000000000E+00 -0.17397893701E+03  0.15087223342E+04  0.14986575364E+04 0.  0.
        2    1    3    3  502    0 -0.17183388953E+03  0.48280099938E+03  0.46337199323E+03  0.69089600861E+03  0.25500000920E-02 0.  1.
       -2    1    3    3    0  502  0.17183388953E+03 -0.48280099938E+03 -0.63735093025E+03  0.81782632562E+03  0.25500000920E-02 0. -1.
</event>
<event>
 5   0  0.6364378E-05  0.1500900E+04  0.7818609E-02  0.8883854E-01
        1   -1    0    0  501    0  0.00000000000E+00  0.00000000000E+00  0.78432205683E+03  0.78432205685E+03  0.50400001928E-02 0. -1.
       -1   -1    0    0    0  501  0.00000000000E+00  0.00000000000E+00 -0.71804119556E+03  0.71804119558E+03  0.50400001928E-02 0.  1.
    10030    2    1    2    0    0  0.00000000000E+00  0.00000000000E+00  0.66280861270E+02  0.15023632524E+04  0.15009004596E+04 0.  0.
        5    1    3    3  502    0  0.53923634417E+03 -0.11794747354E+03 -0.47575058790E+03  0.72873050799E+03  0.46999998093E+01 0.  1.
       -5    1    3    3    0  502 -0.53923634417E+03  0.11794747354E+03  0.54203144917E+03  0.77363274444E+03  0.46999998093E+01 0. -1.
</event>
</LesHouchesEvents>
