<LesHouchesEvents version="3.0">
<header>
<!--
#*********************************************************************
#                                                                    *
#                        MadGraph5_aMC@NLO                           *
#                                                                    *
#                           Going Beyond                             *
#                                                                    *
#                   http://madgraph.hep.uiuc.edu                     *
#                   http://madgraph.phys.ucl.ac.be                   *
#                   http://amcatnlo.cern.ch                          *
#                                                                    *
#                     The MadGraph5_aMC@NLO team                     *
#                                                                    *
#....................................................................*
#                                                                    *
# This file contains all the information necessary to reproduce      *
# the events generated:                                              *
#                                                                    *
# 1. software version                                                *
# 2. proc_card          : code generation info including model       *
# 3. param_card         : model primary parameters in the LH format  *
# 4. run_card           : running parameters (collider and cuts)     *
# 5. pythia_card        : present only if pythia has been run        *
# 6. pgs_card           : present only if pgs has been run           *
# 7. delphes_cards      : present only if delphes has been run       *
#                                                                    *
#                                                                    *
#*********************************************************************
-->
<MGVersion>
#5.2.2.3
</MGVersion>
<MG5ProcCard>
#************************************************************
#*                     MadGraph5_aMC@NLO                    *
#*                                                          *
#*                *                       *                 *
#*                  *        * *        *                   *
#*                    * * * * 5 * * * *                     *
#*                  *        * *        *                   *
#*                *                       *                 *
#*                                                          *
#*                                                          *
#*         VERSION 2.2.3                 2015-02-10         *
#*                                                          *
#*    The MadGraph5_aMC@NLO Development Team - Find us at   *
#*    https://server06.fynu.ucl.ac.be/projects/madgraph     *
#*                                                          *
#************************************************************
#*                                                          *
#*               Command File for MadGraph5_aMC@NLO         *
#*                                                          *
#*     run as ./bin/mg5_aMC  filename                       *
#*                                                          *
#************************************************************
set group_subprocesses Auto
set ignore_six_quark_processes False
set loop_optimized_output True
set gauge unitary
set complex_mass_scheme False
import model sm
define p = g u c d s u~ c~ d~ s~
define j = g u c d s u~ c~ d~ s~
define l+ = e+ mu+
define l- = e- mu-
define vl = ve vm vt
define vl~ = ve~ vm~ vt~
import model Zprime_UFO
generate p p > zph, zph > j j
add process p p > zph, zph > b b~
output Dijet_signal
</MG5ProcCard>
<MGProcCard>
#*********************************************************************
#                        MadGraph/MadEvent                           *
#                   http://madgraph.hep.uiuc.edu                     *
#                                                                    *
#                          proc_card.dat                             *
#*********************************************************************
#                                                                    *
#            This Files is generated by MADGRAPH 5                   *
#                                                                    *
# WARNING: This Files is generated for MADEVENT (compatibility issue)*
#          This files is NOT a valid MG4 proc_card.dat               *
#          Running this in MG4 will NEVER reproduce the result of MG5*
#                                                                    *
#*********************************************************************
#*********************************************************************
# Process(es) requested : mg2 input                                  *
#*********************************************************************
# Begin PROCESS # This is TAG. Do not modify this line
p p > zph , zph > j j           #Process
# Be carefull the coupling are here in MG5 convention
          
end_coup           # End the couplings input

done               # this tells MG there are no more procs
# End PROCESS  # This is TAG. Do not modify this line
#*********************************************************************
# Model information                                                  *
#*********************************************************************
# Begin MODEL  # This is TAG. Do not modify this line
Zprime_UFO
# End   MODEL  # This is TAG. Do not modify this line
#*********************************************************************
# Start multiparticle definitions                                    *
#*********************************************************************
# Begin MULTIPARTICLES # This is TAG. Do not modify this line

# End  MULTIPARTICLES # This is TAG. Do not modify this line
</MGProcCard>
<MGRunCard>
#*********************************************************************
#                       MadGraph5_aMC@NLO                            *
#                                                                    *
#                     run_card.dat MadEvent                          *
#                                                                    *
#  This file is used to set the parameters of the run.               *
#                                                                    *
#  Some notation/conventions:                                        *
#                                                                    *
#   Lines starting with a '# ' are info or comments                  *
#                                                                    *
#   mind the format:   value    = variable     ! comment             *
#*********************************************************************
#
#*******************                                                 
# Running parameters
#*******************                                                 
#                                                                    
#*********************************************************************
# Tag name for the run (one word)                                    *
#*********************************************************************
  tag_1     = run_tag ! name of the run 
#*********************************************************************
# Run to generate the grid pack                                      *
#*********************************************************************
  .false.     = gridpack  !True = setting up the grid pack
#*********************************************************************
# Number of events and rnd seed                                      *
# Warning: Do not generate more than 1M events in a single run       *
# If you want to run Pythia, avoid more than 50k events in a run.    *
#*********************************************************************
  2000 = nevents ! Number of unweighted events requested 
 1461 = iseed   ! rnd seed (0=assigned automatically=default))
#*********************************************************************
# Collider type and energy                                           *
# lpp: 0=No PDF, 1=proton, -1=antiproton, 2=photon from proton,      *
#                                         3=photon from electron     *
#*********************************************************************
        1     = lpp1    ! beam 1 type 
        1     = lpp2    ! beam 2 type
     4000     = ebeam1  ! beam 1 total energy in GeV
     4000     = ebeam2  ! beam 2 total energy in GeV
#*********************************************************************
# Beam polarization from -100 (left-handed) to 100 (right-handed)    *
#*********************************************************************
        0     = polbeam1 ! beam polarization for beam 1
        0     = polbeam2 ! beam polarization for beam 2
#*********************************************************************
# PDF CHOICE: this automatically fixes also alpha_s and its evol.    *
#*********************************************************************
 'nn23lo1'    = pdlabel     ! PDF set                                     
 230000    = lhaid     ! if pdlabel=lhapdf, this is the lhapdf number
#*********************************************************************
# Renormalization and factorization scales                           *
#*********************************************************************
 F        = fixed_ren_scale  ! if .true. use fixed ren scale
 F        = fixed_fac_scale  ! if .true. use fixed fac scale
 91.1880  = scale            ! fixed ren scale
 91.1880  = dsqrt_q2fact1    ! fixed fact scale for pdf1
 91.1880  = dsqrt_q2fact2    ! fixed fact scale for pdf2
 1        = scalefact        ! scale factor for event-by-event scales
#*********************************************************************
# Matching - Warning! ickkw > 1 is still beta
#*********************************************************************
 0        = ickkw            ! 0 no matching, 1 MLM, 2 CKKW matching
 1        = highestmult      ! for ickkw=2, highest mult group
 1        = ktscheme         ! for ickkw=1, 1 Durham kT, 2 Pythia pTE
 1        = alpsfact         ! scale factor for QCD emission vx
 F        = chcluster        ! cluster only according to channel diag
 T        = pdfwgt           ! for ickkw=1, perform pdf reweighting
 5        = asrwgtflavor     ! highest quark flavor for a_s reweight
 T        = clusinfo         ! include clustering tag in output
 3.0      = lhe_version       ! Change the way clustering information pass to shower.        
#*********************************************************************
#**********************************************************
#
#**********************************************************
# Automatic ptj and mjj cuts if xqcut > 0
# (turn off for VBF and single top processes)
#**********************************************************
   T  = auto_ptj_mjj  ! Automatic setting of ptj and mjj
#**********************************************************
#                                                                    
#**********************************
# BW cutoff (M+/-bwcutoff*Gamma)
#**********************************
  15  = bwcutoff      ! (M+/-bwcutoff*Gamma)
#**********************************************************
# Apply pt/E/eta/dr/mij cuts on decay products or not
# (note that etmiss/ptll/ptheavy/ht/sorted cuts always apply)
#**********************************************************
   T  = cut_decays    ! Cut decay products 
#*************************************************************
# Number of helicities to sum per event (0 = all helicities)
# 0 gives more stable result, but longer run time (needed for
# long decay chains e.g.).
# Use >=2 if most helicities contribute, e.g. pure QCD.
#*************************************************************
   0  = nhel          ! Number of helicities used per event
#*******************                                                 
# Standard Cuts
#*******************                                                 
#                                                                    
#*********************************************************************
# Minimum and maximum pt's (for max, -1 means no cut)                *
#*********************************************************************
 20  = ptj       ! minimum pt for the jets 
  0  = ptb       ! minimum pt for the b 
 10  = pta       ! minimum pt for the photons 
 10  = ptl       ! minimum pt for the charged leptons 
  0  = misset    ! minimum missing Et (sum of neutrino's momenta)
  0  = ptheavy   ! minimum pt for one heavy final state
 1.0 = ptonium   ! minimum pt for the quarkonium states
 -1  = ptjmax    ! maximum pt for the jets
 -1  = ptbmax    ! maximum pt for the b
 -1  = ptamax    ! maximum pt for the photons
 -1  = ptlmax    ! maximum pt for the charged leptons
 -1  = missetmax ! maximum missing Et (sum of neutrino's momenta)
#*********************************************************************
# Minimum and maximum E's (in the center of mass frame)              *
#*********************************************************************
  0  = ej     ! minimum E for the jets 
  0  = eb     ! minimum E for the b 
  0  = ea     ! minimum E for the photons 
  0  = el     ! minimum E for the charged leptons 
 -1   = ejmax ! maximum E for the jets
 -1   = ebmax ! maximum E for the b
 -1   = eamax ! maximum E for the photons
 -1   = elmax ! maximum E for the charged leptons
#*********************************************************************
# Maximum and minimum absolute rapidity (for max, -1 means no cut)   *
#*********************************************************************
   5  = etaj    ! max rap for the jets 
  -1  = etab    ! max rap for the b
 2.5  = etaa    ! max rap for the photons 
 2.5  = etal    ! max rap for the charged leptons 
 0.6  = etaonium ! max rap for the quarkonium states
   0  = etajmin ! min rap for the jets
   0  = etabmin ! min rap for the b
   0  = etaamin ! min rap for the photons
   0  = etalmin ! main rap for the charged leptons
#*********************************************************************
# Minimum and maximum DeltaR distance                                *
#*********************************************************************
 0.4 = drjj    ! min distance between jets 
 0   = drbb    ! min distance between b's 
 0.4 = drll    ! min distance between leptons 
 0.4 = draa    ! min distance between gammas 
 0   = drbj    ! min distance between b and jet 
 0.4 = draj    ! min distance between gamma and jet 
 0.4 = drjl    ! min distance between jet and lepton 
 0   = drab    ! min distance between gamma and b 
 0   = drbl    ! min distance between b and lepton 
 0.4 = dral    ! min distance between gamma and lepton 
 -1  = drjjmax ! max distance between jets
 -1  = drbbmax ! max distance between b's
 -1  = drllmax ! max distance between leptons
 -1  = draamax ! max distance between gammas
 -1  = drbjmax ! max distance between b and jet
 -1  = drajmax ! max distance between gamma and jet
 -1  = drjlmax ! max distance between jet and lepton
 -1  = drabmax ! max distance between gamma and b
 -1  = drblmax ! max distance between b and lepton
 -1  = dralmax ! maxdistance between gamma and lepton
#*********************************************************************
# Minimum and maximum invariant mass for pairs                       *
# WARNING: for four lepton final state mmll cut require to have      *
#          different lepton masses for each flavor!                  *           
#*********************************************************************
 0   = mmjj    ! min invariant mass of a jet pair 
 0   = mmbb    ! min invariant mass of a b pair 
 0   = mmaa    ! min invariant mass of gamma gamma pair
 0   = mmll    ! min invariant mass of l+l- (same flavour) lepton pair
 -1  = mmjjmax ! max invariant mass of a jet pair
 -1  = mmbbmax ! max invariant mass of a b pair
 -1  = mmaamax ! max invariant mass of gamma gamma pair
 -1  = mmllmax ! max invariant mass of l+l- (same flavour) lepton pair
#*********************************************************************
# Minimum and maximum invariant mass for all letpons                 *
#*********************************************************************
 0   = mmnl    ! min invariant mass for all letpons (l+- and vl) 
 -1  = mmnlmax ! max invariant mass for all letpons (l+- and vl) 
#*********************************************************************
# Minimum and maximum pt for 4-momenta sum of leptons                *
#*********************************************************************
 0   = ptllmin  ! Minimum pt for 4-momenta sum of leptons(l and vl)
 -1  = ptllmax  ! Maximum pt for 4-momenta sum of leptons(l and vl)
#*********************************************************************
# Inclusive cuts                                                     *
#*********************************************************************
 0  = xptj ! minimum pt for at least one jet  
 0  = xptb ! minimum pt for at least one b 
 0  = xpta ! minimum pt for at least one photon 
 0  = xptl ! minimum pt for at least one charged lepton 
#*********************************************************************
# Control the pt's of the jets sorted by pt                          *
#*********************************************************************
 0   = ptj1min ! minimum pt for the leading jet in pt
 0   = ptj2min ! minimum pt for the second jet in pt
 0   = ptj3min ! minimum pt for the third jet in pt
 0   = ptj4min ! minimum pt for the fourth jet in pt
 -1  = ptj1max ! maximum pt for the leading jet in pt 
 -1  = ptj2max ! maximum pt for the second jet in pt
 -1  = ptj3max ! maximum pt for the third jet in pt
 -1  = ptj4max ! maximum pt for the fourth jet in pt
 0   = cutuse  ! reject event if fails any (0) / all (1) jet pt cuts
#*********************************************************************
# Control the pt's of leptons sorted by pt                           *
#*********************************************************************
 0   = ptl1min ! minimum pt for the leading lepton in pt
 0   = ptl2min ! minimum pt for the second lepton in pt
 0   = ptl3min ! minimum pt for the third lepton in pt
 0   = ptl4min ! minimum pt for the fourth lepton in pt
 -1  = ptl1max ! maximum pt for the leading lepton in pt 
 -1  = ptl2max ! maximum pt for the second lepton in pt
 -1  = ptl3max ! maximum pt for the third lepton in pt
 -1  = ptl4max ! maximum pt for the fourth lepton in pt
#*********************************************************************
# Control the Ht(k)=Sum of k leading jets                            *
#*********************************************************************
 0   = htjmin ! minimum jet HT=Sum(jet pt)
 -1  = htjmax ! maximum jet HT=Sum(jet pt)
 0   = ihtmin  !inclusive Ht for all partons (including b)
 -1  = ihtmax  !inclusive Ht for all partons (including b)
 0   = ht2min ! minimum Ht for the two leading jets
 0   = ht3min ! minimum Ht for the three leading jets
 0   = ht4min ! minimum Ht for the four leading jets
 -1  = ht2max ! maximum Ht for the two leading jets
 -1  = ht3max ! maximum Ht for the three leading jets
 -1  = ht4max ! maximum Ht for the four leading jets
#***********************************************************************
# Photon-isolation cuts, according to hep-ph/9801442                   *
# When ptgmin=0, all the other parameters are ignored                  *
# When ptgmin>0, pta and draj are not going to be used                 *
#***********************************************************************
   0 = ptgmin ! Min photon transverse momentum
 0.4 = R0gamma ! Radius of isolation code
 1.0 = xn ! n parameter of eq.(3.4) in hep-ph/9801442
 1.0 = epsgamma ! epsilon_gamma parameter of eq.(3.4) in hep-ph/9801442
 .true. = isoEM ! isolate photons from EM energy (photons and leptons)
#*********************************************************************
# WBF cuts                                                           *
#*********************************************************************
 0   = xetamin ! minimum rapidity for two jets in the WBF case  
 0   = deltaeta ! minimum rapidity for two jets in the WBF case 
#*********************************************************************
# KT DURHAM CUT                                                      *
#*********************************************************************
 -1    =  ktdurham        
 0.4  =  dparameter 
#*********************************************************************
# maximal pdg code for quark to be considered as a light jet         *
# (otherwise b cuts are applied)                                     *
#*********************************************************************
 4 = maxjetflavor    ! Maximum jet pdg code
#*********************************************************************
# Jet measure cuts                                                   *
#*********************************************************************
 0   = xqcut   ! minimum kt jet measure between partons
#*********************************************************************
#
#*********************************************************************
# Store info for systematics studies                                 *
# WARNING: If use_syst is T, matched Pythia output is                *
#          meaningful ONLY if plotted taking matchscale              *
#          reweighting into account!                                 *
#*********************************************************************
   F  = use_syst      ! Enable systematics studies
#
#**************************************
# Parameter of the systematics study
#  will be used by SysCalc (if installed)
#**************************************                                  
#
0.5 1 2 = sys_scalefact  # factorization/renormalization scale factor
0.5 1 2 = sys_alpsfact  # \alpha_s emission scale factors
30 50 = sys_matchscale # variation of merging scale
# PDF sets and number of members (0 or none for all members).
CT10nlo.LHgrid = sys_pdf # matching scales
# MSTW2008nlo68cl.LHgrid 1  = sys_pdf
</MGRunCard>
<slha>
######################################################################
## PARAM_CARD AUTOMATICALY GENERATED BY MG5 FOLLOWING UFO MODEL   ####
######################################################################
##                                                                  ##
##  Width set on Auto will be computed following the information    ##
##        present in the decay.py files of the model.               ##
##        See  arXiv:1402.1178 for more details.                    ##
##                                                                  ##
######################################################################

###################################
## INFORMATION FOR CKMBLOCK
###################################
Block ckmblock 
    1 2.277360e-01 # cabi 

###################################
## INFORMATION FOR FRBLOCK
###################################
Block frblock 
    1 6.000000e-01 # gz 

###################################
## INFORMATION FOR MASS
###################################
Block mass 
    1 5.040000e-03 # MD 
    2 2.550000e-03 # MU 
    3 1.010000e-01 # MS 
    4 1.270000e+00 # MC 
    5 4.700000e+00 # MB 
    6 1.720000e+02 # MT 
   11 5.110000e-04 # Me 
   13 1.056600e-01 # MM 
   15 1.777000e+00 # MTA 
   23 9.118760e+01 # MZ 
   25 1.200000e+02 # MH 
  10030 4.000000e+03 # MZph 
  10031 3.000000e+02 # MZpl 
## Dependent parameters, given by model restrictions.
## Those values should be edited following the 
## analytical expression. MG5 ignores those values 
## but they are important for interfacing the output of MG5
## to external program such as Pythia.
  12 0.000000 # ve : 0.0 
  14 0.000000 # vm : 0.0 
  16 0.000000 # vt : 0.0 
  21 0.000000 # g : 0.0 
  22 0.000000 # a : 0.0 
  24 79.824360 # w+ : cmath.sqrt(MZ__exp__2/2. + cmath.sqrt(MZ__exp__4/4. - (aEW*cmath.pi*MZ__exp__2)/(Gf*sqrt__2))) 

###################################
## INFORMATION FOR SMINPUTS
###################################
Block sminputs 
    1 1.279000e+02 # aEWM1 
    2 1.166370e-05 # Gf 
    3 1.184000e-01 # aS 

###################################
## INFORMATION FOR YUKAWA
###################################
Block yukawa 
    1 5.040000e-03 # ymdo 
    2 2.550000e-03 # ymup 
    3 1.010000e-01 # yms 
    4 1.270000e+00 # ymc 
    5 4.700000e+00 # ymb 
    6 1.720000e+02 # ymt 
   11 5.110000e-04 # yme 
   13 1.056600e-01 # ymm 
   15 1.777000e+00 # ymtau 

###################################
## INFORMATION FOR DECAY
###################################
DECAY   6 1.508336e+00 # WT 
DECAY  23 2.495200e+00 # WZ 
DECAY  24 2.085000e+00 # WW 
DECAY  25 5.753088e-03 # WH 
## Dependent parameters, given by model restrictions.
## Those values should be edited following the 
## analytical expression. MG5 ignores those values 
## but they are important for interfacing the output of MG5
## to external program such as Pythia.
DECAY  1 0.000000 # d : 0.0 
DECAY  2 0.000000 # u : 0.0 
DECAY  3 0.000000 # s : 0.0 
DECAY  4 0.000000 # c : 0.0 
DECAY  5 0.000000 # b : 0.0 
DECAY  11 0.000000 # e- : 0.0 
DECAY  12 0.000000 # ve : 0.0 
DECAY  13 0.000000 # mu- : 0.0 
DECAY  14 0.000000 # vm : 0.0 
DECAY  15 0.000000 # ta- : 0.0 
DECAY  16 0.000000 # vt : 0.0 
DECAY  21 0.000000 # g : 0.0 
DECAY  22 0.000000 # a : 0.0 
DECAY  10030 0.308725 # zph : (gz__exp__2*MZph*(5 + cmath.sqrt(1 - (4*MT__exp__2)/MZph__exp__2)))/(144.*cmath.pi) 
DECAY  10031 0.132629 # zpl : (5*gz__exp__2*MZpl)/(144.*cmath.pi) 
#===========================================================
# QUANTUM NUMBERS OF NEW STATE(S) (NON SM PDG CODE)
#===========================================================

Block QNUMBERS 10030  # zph 
        1 0  # 3 times electric charge
        2 3  # number of spin states (2S+1)
        3 1  # colour rep (1: singlet, 3: triplet, 8: octet)
        4 0  # Particle/Antiparticle distinction (0=own anti)
Block QNUMBERS 10031  # zpl 
        1 0  # 3 times electric charge
        2 3  # number of spin states (2S+1)
        3 1  # colour rep (1: singlet, 3: triplet, 8: octet)
        4 0  # Particle/Antiparticle distinction (0=own anti)
</slha>
## END BANNER##
<MGGenerationInfo>
#  Number of Events        :         3822
#  Integrated weight (pb)  :  0.15036E-04
#  Max wgt                 :  0.61616E-08
#  Average wgt             :  0.39341E-08
</MGGenerationInfo>
</header>
<init>
     2212     2212  0.40000000000E+04  0.40000000000E+04 0 0  247000  247000 2   1
  0.15052431993E-04  0.27048527535E-07  0.61615630000E-08   0
</init>
<event>
 5   0  0.6161563E-08  0.4002581E+04  0.7818609E-02  0.8004026E-01
       -2   -1    0    0    0  501  0.00000000000E+00  0.00000000000E+00  0.16511339502E+04  0.16511339502E+04  0.25500000920E-02 0. -1.
        2   -1    0    0  501    0  0.00000000000E+00  0.00000000000E+00 -0.24257043110E+04  0.24257043110E+04  0.25500000920E-02 0.  1.
    10030    2    1    2    0    0  0.00000000000E+00  0.00000000000E+00 -0.77457036082E+03  0.40768382613E+04  0.40025805382E+04 0.  0.
        1    1    3    3  502    0 -0.76627713799E+03 -0.18487491374E+04 -0.39790531583E+03  0.20404368810E+04  0.50400001928E-02 0.  1.
       -1    1    3    3    0  502  0.76627713799E+03  0.18487491374E+04 -0.37666504500E+03  0.20364013802E+04  0.50400001928E-02 0. -1.
</event>
<event>
 5   0  0.6161563E-08  0.3968108E+04  0.7818609E-02  0.8011011E-01
       -2   -1    0    0    0  501  0.00000000000E+00  0.00000000000E+00  0.14701340272E+04  0.14701340272E+04  0.25500000920E-02 0. -1.
        2   -1    0    0  501    0  0.00000000000E+00  0.00000000000E+00 -0.26776272925E+04  0.26776272925E+04  0.25500000920E-02 0.  1.
    10030    2    1    2    0    0  0.00000000000E+00  0.00000000000E+00 -0.12074932653E+04  0.41477613197E+04  0.39681083629E+04 0.  0.
        1    1    3    3  502    0 -0.54491183077E+03 -0.19002444891E+04 -0.42693463661E+03  0.20224072799E+04  0.50400001928E-02 0. -1.
       -1    1    3    3    0  502  0.54491183077E+03  0.19002444891E+04 -0.78055862872E+03  0.21253540398E+04  0.50400001928E-02 0.  1.
</event>
<event>
 5   0  0.5945387E-08  0.4148446E+04  0.7818609E-02  0.7975252E-01
        2   -1    0    0  501    0  0.00000000000E+00  0.00000000000E+00  0.19730267381E+04  0.19730267381E+04  0.25500000920E-02 0.  1.
       -2   -1    0    0    0  501  0.00000000000E+00  0.00000000000E+00 -0.21806091093E+04  0.21806091093E+04  0.25500000920E-02 0. -1.
    10030    2    1    2    0    0  0.00000000000E+00  0.00000000000E+00 -0.20758237113E+03  0.41536358474E+04  0.41484455296E+04 0.  0.
        3    1    3    3  502    0  0.20218164321E+04 -0.46168568854E+03 -0.14263027933E+03  0.20787589487E+04  0.10100000352E+00 0.  1.
       -3    1    3    3    0  502 -0.20218164321E+04  0.46168568854E+03 -0.64952091799E+02  0.20748768987E+04  0.10100000352E+00 0. -1.
</event>
<event>
 5   0  0.6161563E-08  0.4017799E+04  0.7818609E-02  0.8000966E-01
        2   -1    0    0  501    0  0.00000000000E+00  0.00000000000E+00  0.20633681821E+04  0.20633681821E+04  0.25500000920E-02 0.  1.
       -2   -1    0    0    0  501  0.00000000000E+00  0.00000000000E+00 -0.19558686613E+04  0.19558686613E+04  0.25500000920E-02 0. -1.
    10030    2    1    2    0    0  0.00000000000E+00  0.00000000000E+00  0.10749952085E+03  0.40192368434E+04  0.40177989815E+04 0.  0.
        1    1    3    3  502    0  0.75462130813E+02 -0.17367775923E+04 -0.95338073046E+03  0.19826814559E+04  0.50400001928E-02 0. -1.
       -1    1    3    3    0  502 -0.75462130813E+02  0.17367775923E+04  0.10608802513E+04  0.20365553874E+04  0.50400001928E-02 0.  1.
</event>
<event>
 5   0  0.5945387E-08  0.4022025E+04  0.7818609E-02  0.8000118E-01
       -2   -1    0    0    0  501  0.00000000000E+00  0.00000000000E+00  0.18951963517E+04  0.18951963517E+04  0.25500000920E-02 0.  1.
        2   -1    0    0  501    0  0.00000000000E+00  0.00000000000E+00 -0.21339059007E+04  0.21339059007E+04  0.25500000920E-02 0. -1.
    10030    2    1    2    0    0  0.00000000000E+00  0.00000000000E+00 -0.23870954894E+03  0.40291022524E+04  0.40220247030E+04 0.  0.
        3    1    3    3  502    0 -0.14434411738E+03  0.98241013994E+03  0.16324951815E+04  0.19107604337E+04  0.10100000352E+00 0.  1.
       -3    1    3    3    0  502  0.14434411738E+03 -0.98241013994E+03 -0.18712047304E+04  0.21183418187E+04  0.10100000352E+00 0. -1.
</event>
<event>
 5   0  0.1879500E-08  0.3731540E+04  0.7818609E-02  0.8061008E-01
        1   -1    0    0  501    0  0.00000000000E+00  0.00000000000E+00  0.16321828888E+04  0.16321828888E+04  0.50400001928E-02 0. -1.
       -1   -1    0    0    0  501  0.00000000000E+00  0.00000000000E+00 -0.21327867721E+04  0.21327867721E+04  0.50400001928E-02 0.  1.
    10030    2    1    2    0    0  0.00000000000E+00  0.00000000000E+00 -0.50060388329E+03  0.37649696608E+04  0.37315402047E+04 0.  0.
        1    1    3    3  502    0  0.13527130184E+04  0.12510665935E+04  0.45751247677E+02  0.18431205355E+04  0.50400001928E-02 0.  1.
       -1    1    3    3    0  502 -0.13527130184E+04 -0.12510665935E+04 -0.54635513097E+03  0.19218491254E+04  0.50400001928E-02 0. -1.
</event>
<event>
 5   0  0.1879500E-08  0.3991595E+04  0.7818609E-02  0.8006244E-01
       -1   -1    0    0    0  501  0.00000000000E+00  0.00000000000E+00  0.22244135937E+04  0.22244135937E+04  0.50400001928E-02 0. -1.
        1   -1    0    0  501    0  0.00000000000E+00  0.00000000000E+00 -0.17906774081E+04  0.17906774081E+04  0.50400001928E-02 0.  1.
    10030    2    1    2    0    0  0.00000000000E+00  0.00000000000E+00  0.43373618561E+03  0.40150910018E+04  0.39915947532E+04 0.  0.
        3    1    3    3  502    0  0.11275381073E+04 -0.14220709071E+04 -0.61842917563E+03  0.19173112694E+04  0.10100000352E+00 0.  1.
       -3    1    3    3    0  502 -0.11275381073E+04  0.14220709071E+04  0.10521653612E+04  0.20977797324E+04  0.10100000352E+00 0. -1.
</event>
<event>
 5   0  0.6161563E-08  0.3977701E+04  0.7818609E-02  0.8009060E-01
        2   -1    0    0  501    0  0.00000000000E+00  0.00000000000E+00  0.11627996160E+04  0.11627996160E+04  0.25500000920E-02 0. -1.
       -2   -1    0    0    0  501  0.00000000000E+00  0.00000000000E+00 -0.34017269796E+04  0.34017269796E+04  0.25500000920E-02 0.  1.
    10030    2    1    2    0    0  0.00000000000E+00  0.00000000000E+00 -0.22389273636E+04  0.45645265957E+04  0.39777012587E+04 0.  0.
        1    1    3    3  502    0  0.38998998542E+03  0.12439761412E+04  0.60410694358E+03  0.14368416850E+04  0.50400001928E-02 0. -1.
       -1    1    3    3    0  502 -0.38998998542E+03 -0.12439761412E+04 -0.28430343071E+04  0.31276849106E+04  0.50400001928E-02 0.  1.
</event>
<event>
 5   0  0.1879500E-08  0.4025746E+04  0.7818609E-02  0.7999373E-01
       -1   -1    0    0    0  501  0.00000000000E+00  0.00000000000E+00  0.11977259290E+04  0.11977259290E+04  0.50400001928E-02 0.  1.
        1   -1    0    0  501    0  0.00000000000E+00  0.00000000000E+00 -0.33827915491E+04  0.33827915491E+04  0.50400001928E-02 0. -1.
    10030    2    1    2    0    0  0.00000000000E+00  0.00000000000E+00 -0.21850656201E+04  0.45805174781E+04  0.40257457201E+04 0.  0.
        2    1    3    3  502    0  0.18968704901E+04 -0.67090764436E+03 -0.11590961834E+04  0.23220117755E+04  0.25500000920E-02 0.  1.
       -2    1    3    3    0  502 -0.18968704901E+04  0.67090764436E+03 -0.10259694367E+04  0.22585057025E+04  0.25500000920E-02 0. -1.
</event>
<event>
 5   0  0.6161563E-08  0.3977898E+04  0.7818609E-02  0.8009020E-01
       -2   -1    0    0    0  501  0.00000000000E+00  0.00000000000E+00  0.24401658596E+04  0.24401658596E+04  0.25500000920E-02 0.  1.
        2   -1    0    0  501    0  0.00000000000E+00  0.00000000000E+00 -0.16211678751E+04  0.16211678751E+04  0.25500000920E-02 0. -1.
    10030    2    1    2    0    0  0.00000000000E+00  0.00000000000E+00  0.81899798444E+03  0.40613337347E+04  0.39778981895E+04 0.  0.
        1    1    3    3  502    0 -0.19292030136E+04  0.47912879888E+03  0.34078331041E+03  0.20168098419E+04  0.50400001928E-02 0. -1.
       -1    1    3    3    0  502  0.19292030136E+04 -0.47912879888E+03  0.47821467403E+03  0.20445238928E+04  0.50400001928E-02 0.  1.
</event>
<event>
 5   0  0.5888700E-08  0.3977354E+04  0.7818609E-02  0.8009131E-01
        2   -1    0    0  501    0  0.00000000000E+00  0.00000000000E+00  0.25577282516E+04  0.25577282516E+04  0.25500000920E-02 0. -1.
       -2   -1    0    0    0  501  0.00000000000E+00  0.00000000000E+00 -0.15462298336E+04  0.15462298336E+04  0.25500000920E-02 0.  1.
    10030    2    1    2    0    0  0.00000000000E+00  0.00000000000E+00  0.10114984179E+04  0.41039580852E+04  0.39773537579E+04 0.  0.
        5    1    3    3  502    0  0.25038798894E+03 -0.75512239955E+03 -0.13748775223E+04  0.15884628653E+04  0.46999998093E+01 0.  1.
       -5    1    3    3    0  502 -0.25038798894E+03  0.75512239955E+03  0.23863759402E+04  0.25154952199E+04  0.46999998093E+01 0. -1.
</event>
<event>
 5   0  0.5888700E-08  0.4004893E+04  0.7818609E-02  0.8003560E-01
        2   -1    0    0  501    0  0.00000000000E+00  0.00000000000E+00  0.26360045801E+04  0.26360045801E+04  0.25500000920E-02 0. -1.
       -2   -1    0    0    0  501  0.00000000000E+00  0.00000000000E+00 -0.15211627331E+04  0.15211627331E+04  0.25500000920E-02 0.  1.
    10030    2    1    2    0    0  0.00000000000E+00  0.00000000000E+00  0.11148418470E+04  0.41571673132E+04  0.40048929731E+04 0.  0.
        5    1    3    3  502    0 -0.14362659107E+04  0.11110423643E+04 -0.31876744111E+03  0.18436132113E+04  0.46999998093E+01 0.  1.
       -5    1    3    3    0  502  0.14362659107E+04 -0.11110423643E+04  0.14336092881E+04  0.23135541019E+04  0.46999998093E+01 0. -1.
</event>
<event>
 5   0  0.1879500E-08  0.4002637E+04  0.7818609E-02  0.8004015E-01
       -1   -1    0    0    0  501  0.00000000000E+00  0.00000000000E+00  0.27140830596E+04  0.27140830597E+04  0.50400001928E-02 0.  1.
        1   -1    0    0  501    0  0.00000000000E+00  0.00000000000E+00 -0.14757381371E+04  0.14757381371E+04  0.50400001928E-02 0. -1.
    10030    2    1    2    0    0  0.00000000000E+00  0.00000000000E+00  0.12383449226E+04  0.41898211968E+04  0.40026370699E+04 0.  0.
        5    1    3    3  502    0  0.18736256661E+04  0.69155726922E+03  0.75375079014E+03  0.21346866132E+04  0.46999998093E+01 0.  1.
       -5    1    3    3    0  502 -0.18736256661E+04 -0.69155726922E+03  0.48459413242E+03  0.20551345835E+04  0.46999998093E+01 0. -1.
</event>
<event>
 5   0  0.1879500E-08  0.3996601E+04  0.7818609E-02  0.8005233E-01
       -1   -1    0    0    0  501  0.00000000000E+00  0.00000000000E+00  0.28061542152E+04  0.28061542152E+04  0.50400001928E-02 0.  1.
        1   -1    0    0  501    0  0.00000000000E+00  0.00000000000E+00 -0.14230168079E+04  0.14230168079E+04  0.50400001928E-02 0. -1.
    10030    2    1    2    0    0  0.00000000000E+00  0.00000000000E+00  0.13831374073E+04  0.42291710231E+04  0.39966008626E+04 0.  0.
        1    1    3    3  502    0  0.14371477535E+04 -0.13073011810E+04  0.11865204833E+04  0.22764579725E+04  0.50400001928E-02 0.  1.
       -1    1    3    3    0  502 -0.14371477535E+04  0.13073011810E+04  0.19661692396E+03  0.19527130506E+04  0.50400001928E-02 0. -1.
</event>
<event>
 5   0  0.1879500E-08  0.3993482E+04  0.7818609E-02  0.8005863E-01
        1   -1    0    0  501    0  0.00000000000E+00  0.00000000000E+00  0.26437834472E+04  0.26437834472E+04  0.50400001928E-02 0. -1.
       -1   -1    0    0    0  501  0.00000000000E+00  0.00000000000E+00 -0.15080561157E+04  0.15080561157E+04  0.50400001928E-02 0.  1.
    10030    2    1    2    0    0  0.00000000000E+00  0.00000000000E+00  0.11357273315E+04  0.41518395629E+04  0.39934815868E+04 0.  0.
        3    1    3    3  502    0 -0.46845326327E+03 -0.17558939524E+04 -0.29220226000E+03  0.18406504836E+04  0.10100000352E+00 0. -1.
       -3    1    3    3    0  502  0.46845326327E+03  0.17558939524E+04  0.14279295915E+04  0.23111890793E+04  0.10100000352E+00 0.  1.
</event>
<event>
 5   0  0.1879500E-08  0.3972132E+04  0.7818609E-02  0.8010192E-01
       -1   -1    0    0    0  501  0.00000000000E+00  0.00000000000E+00  0.25227435218E+04  0.25227435218E+04  0.50400001928E-02 0. -1.
        1   -1    0    0  501    0  0.00000000000E+00  0.00000000000E+00 -0.15635589279E+04  0.15635589279E+04  0.50400001928E-02 0.  1.
    10030    2    1    2    0    0  0.00000000000E+00  0.00000000000E+00  0.95918459390E+03  0.40863024498E+04  0.39721320000E+04 0.  0.
        3    1    3    3  502    0  0.15844907735E+04 -0.19176176298E+03 -0.73636025375E+03  0.17577286533E+04  0.10100000352E+00 0.  1.
       -3    1    3    3    0  502 -0.15844907735E+04  0.19176176298E+03  0.16955448476E+04  0.23285737965E+04  0.10100000352E+00 0. -1.
</event>
<event>
 5   0  0.6161563E-08  0.4011982E+04  0.7818609E-02  0.8002134E-01
        2   -1    0    0  501    0  0.00000000000E+00  0.00000000000E+00  0.19002188887E+04  0.19002188887E+04  0.25500000920E-02 0.  1.
       -2   -1    0    0    0  501  0.00000000000E+00  0.00000000000E+00 -0.21176503812E+04  0.21176503812E+04  0.25500000920E-02 0. -1.
    10030    2    1    2    0    0  0.00000000000E+00  0.00000000000E+00 -0.21743149247E+03  0.40178692699E+04  0.40119816819E+04 0.  0.
        1    1    3    3  502    0  0.14779213914E+04 -0.72574058831E+03 -0.12562804899E+04  0.20710363854E+04  0.50400001928E-02 0. -1.
       -1    1    3    3    0  502 -0.14779213914E+04  0.72574058831E+03  0.10388489974E+04  0.19468328844E+04  0.50400001928E-02 0.  1.
</event>
<event>
 5   0  0.1879500E-08  0.3901908E+04  0.7818609E-02  0.8024632E-01
       -1   -1    0    0    0  501  0.00000000000E+00  0.00000000000E+00  0.14466739243E+04  0.14466739243E+04  0.50400001928E-02 0. -1.
        1   -1    0    0  501    0  0.00000000000E+00  0.00000000000E+00 -0.26310155771E+04  0.26310155771E+04  0.50400001928E-02 0.  1.
    10030    2    1    2    0    0  0.00000000000E+00  0.00000000000E+00 -0.11843416528E+04  0.40776895014E+04  0.39019080613E+04 0.  0.
        4    1    3    3  502    0 -0.17806370855E+04  0.53103380283E+03  0.29220833990E+02  0.18583650879E+04  0.12699999809E+01 0.  1.
       -4    1    3    3    0  502  0.17806370855E+04 -0.53103380283E+03 -0.12135624868E+04  0.22193244135E+04  0.12699999809E+01 0. -1.
</event>
<event>
 5   0  0.1879500E-08  0.4008196E+04  0.7818609E-02  0.8002895E-01
        1   -1    0    0  501    0  0.00000000000E+00  0.00000000000E+00  0.20510835753E+04  0.20510835753E+04  0.50400001928E-02 0.  1.
       -1   -1    0    0    0  501  0.00000000000E+00  0.00000000000E+00 -0.19581883401E+04  0.19581883401E+04  0.50400001928E-02 0. -1.
    10030    2    1    2    0    0  0.00000000000E+00  0.00000000000E+00  0.92895235266E+02  0.40092719154E+04  0.40081955749E+04 0.  0.
        1    1    3    3  502    0  0.48310047401E+03 -0.25620678147E+03  0.19750161851E+04  0.20493210862E+04  0.50400001928E-02 0.  1.
       -1    1    3    3    0  502 -0.48310047401E+03  0.25620678147E+03 -0.18821209499E+04  0.19599508292E+04  0.50400001928E-02 0. -1.
</event>
<event>
 5   0  0.5951623E-08  0.4008402E+04  0.7818609E-02  0.8002854E-01
       -2   -1    0    0    0  501  0.00000000000E+00  0.00000000000E+00  0.14156216519E+04  0.14156216519E+04  0.25500000920E-02 0. -1.
        2   -1    0    0  501    0  0.00000000000E+00  0.00000000000E+00 -0.28374960646E+04  0.28374960646E+04  0.25500000920E-02 0.  1.
    10030    2    1    2    0    0  0.00000000000E+00  0.00000000000E+00 -0.14218744127E+04  0.42531177165E+04  0.40084016097E+04 0.  0.
        2    1    3    3  502    0  0.19040433856E+04  0.15836003080E+03 -0.68706244141E+02  0.19118524162E+04  0.25500000920E-02 0. -1.
       -2    1    3    3    0  502 -0.19040433856E+04 -0.15836003080E+03 -0.13531681686E+04  0.23412653002E+04  0.25500000920E-02 0.  1.
</event>
<event>
 5   0  0.1879500E-08  0.3991096E+04  0.7818609E-02  0.8006345E-01
       -1   -1    0    0    0  501  0.00000000000E+00  0.00000000000E+00  0.15602692360E+04  0.15602692360E+04  0.50400001928E-02 0.  1.
        1   -1    0    0  501    0  0.00000000000E+00  0.00000000000E+00 -0.25522598481E+04  0.25522598481E+04  0.50400001928E-02 0. -1.
    10030    2    1    2    0    0  0.00000000000E+00  0.00000000000E+00 -0.99199061207E+03  0.41125290841E+04  0.39910963523E+04 0.  0.
        3    1    3    3  502    0  0.13140090382E+04  0.11997932219E+04  0.43486717872E+03  0.18317295109E+04  0.10100000352E+00 0.  1.
       -3    1    3    3    0  502 -0.13140090382E+04 -0.11997932219E+04 -0.14268577908E+04  0.22807995732E+04  0.10100000352E+00 0. -1.
</event>
<event>
 5   0  0.5945387E-08  0.4007290E+04  0.7818609E-02  0.8003078E-01
       -2   -1    0    0    0  501  0.00000000000E+00  0.00000000000E+00  0.14258786658E+04  0.14258786658E+04  0.25500000920E-02 0.  1.
        2   -1    0    0  501    0  0.00000000000E+00  0.00000000000E+00 -0.28155225288E+04  0.28155225288E+04  0.25500000920E-02 0. -1.
    10030    2    1    2    0    0  0.00000000000E+00  0.00000000000E+00 -0.13896438631E+04  0.42414011946E+04  0.40072901102E+04 0.  0.
        3    1    3    3  502    0 -0.89952295128E+03  0.15022992423E+04 -0.17256552376E+04  0.24584406770E+04  0.10100000352E+00 0. -1.
       -3    1    3    3    0  502  0.89952295128E+03 -0.15022992423E+04  0.33601137455E+03  0.17829605176E+04  0.10100000352E+00 0.  1.
</event>
<event>
 5   0  0.1879500E-08  0.3998067E+04  0.7818609E-02  0.8004937E-01
       -1   -1    0    0    0  501  0.00000000000E+00  0.00000000000E+00  0.16348641855E+04  0.16348641855E+04  0.50400001928E-02 0. -1.
        1   -1    0    0  501    0  0.00000000000E+00  0.00000000000E+00 -0.24443220234E+04  0.24443220234E+04  0.50400001928E-02 0.  1.
    10030    2    1    2    0    0  0.00000000000E+00  0.00000000000E+00 -0.80945783790E+03  0.40791862088E+04  0.39980667997E+04 0.  0.
        1    1    3    3  502    0 -0.39054663513E+03 -0.14182879406E+03  0.15903202487E+04  0.16437033110E+04  0.50400001928E-02 0. -1.
       -1    1    3    3    0  502  0.39054663513E+03  0.14182879406E+03 -0.23997780866E+04  0.24354828979E+04  0.50400001928E-02 0.  1.
</event>
<event>
 5   0  0.5951623E-08  0.3966407E+04  0.7818609E-02  0.8011358E-01
       -2   -1    0    0    0  501  0.00000000000E+00  0.00000000000E+00  0.13464594405E+04  0.13464594405E+04  0.25500000920E-02 0.  1.
        2   -1    0    0  501    0  0.00000000000E+00  0.00000000000E+00 -0.29210655665E+04  0.29210655665E+04  0.25500000920E-02 0. -1.
    10030    2    1    2    0    0  0.00000000000E+00  0.00000000000E+00 -0.15746061260E+04  0.42675250069E+04  0.39664070936E+04 0.  0.
        2    1    3    3  502    0 -0.96738028485E+03  0.12380343732E+03 -0.26452296923E+04  0.28192892777E+04  0.25500000920E-02 0. -1.
       -2    1    3    3    0  502  0.96738028485E+03 -0.12380343732E+03  0.10706235663E+04  0.14482357292E+04  0.25500000920E-02 0.  1.
</event>
<event>
 5   0  0.1879500E-08  0.3990667E+04  0.7818609E-02  0.8006432E-01
       -1   -1    0    0    0  501  0.00000000000E+00  0.00000000000E+00  0.30442129075E+04  0.30442129075E+04  0.50400001928E-02 0. -1.
        1   -1    0    0  501    0  0.00000000000E+00  0.00000000000E+00 -0.13078437555E+04  0.13078437555E+04  0.50400001928E-02 0.  1.
    10030    2    1    2    0    0  0.00000000000E+00  0.00000000000E+00  0.17363691520E+04  0.43520566630E+04  0.39906665315E+04 0.  0.
        2    1    3    3  502    0  0.19096173785E+04  0.48563930203E+03  0.52527226517E+03  0.20392143135E+04  0.25500000920E-02 0. -1.
       -2    1    3    3    0  502 -0.19096173785E+04 -0.48563930203E+03  0.12110968869E+04  0.23128423494E+04  0.25500000920E-02 0.  1.
</event>
<event>
 5   0  0.5945387E-08  0.4001759E+04  0.7818609E-02  0.8004192E-01
       -2   -1    0    0    0  501  0.00000000000E+00  0.00000000000E+00  0.18545493953E+04  0.18545493953E+04  0.25500000920E-02 0.  1.
        2   -1    0    0  501    0  0.00000000000E+00  0.00000000000E+00 -0.21587560154E+04  0.21587560154E+04  0.25500000920E-02 0. -1.
    10030    2    1    2    0    0  0.00000000000E+00  0.00000000000E+00 -0.30420662012E+03  0.40133054107E+04  0.40017594445E+04 0.  0.
        3    1    3    3  502    0  0.14461879206E+04 -0.12805597811E+04 -0.67536226496E+03  0.20463154825E+04  0.10100000352E+00 0. -1.
       -3    1    3    3    0  502 -0.14461879206E+04  0.12805597811E+04  0.37115564484E+03  0.19669899282E+04  0.10100000352E+00 0.  1.
</event>
<event>
 5   0  0.5888700E-08  0.3995598E+04  0.7818609E-02  0.8005435E-01
       -2   -1    0    0    0  501  0.00000000000E+00  0.00000000000E+00  0.26299760753E+04  0.26299760753E+04  0.25500000920E-02 0.  1.
        2   -1    0    0  501    0  0.00000000000E+00  0.00000000000E+00 -0.15175806155E+04  0.15175806155E+04  0.25500000920E-02 0. -1.
    10030    2    1    2    0    0  0.00000000000E+00  0.00000000000E+00  0.11123954598E+04  0.41475566908E+04  0.39955979332E+04 0.  0.
        5    1    3    3  502    0  0.17760627467E+04  0.77240787307E+01  0.15057101430E+04  0.23284423262E+04  0.46999998093E+01 0.  1.
       -5    1    3    3    0  502 -0.17760627467E+04 -0.77240787307E+01 -0.39331468321E+03  0.18191143646E+04  0.46999998093E+01 0. -1.
</event>
<event>
 5   0  0.1879500E-08  0.4057589E+04  0.7818609E-02  0.7993029E-01
       -1   -1    0    0    0  501  0.00000000000E+00  0.00000000000E+00  0.27801406221E+04  0.27801406221E+04  0.50400001928E-02 0.  1.
        1   -1    0    0  501    0  0.00000000000E+00  0.00000000000E+00 -0.14805028629E+04  0.14805028629E+04  0.50400001928E-02 0. -1.
    10030    2    1    2    0    0  0.00000000000E+00  0.00000000000E+00  0.12996377592E+04  0.42606434850E+04  0.40575885205E+04 0.  0.
        2    1    3    3  502    0 -0.15474306120E+04  0.94695583090E+03 -0.30377957540E+03  0.18394425447E+04  0.25500000920E-02 0. -1.
       -2    1    3    3    0  502  0.15474306120E+04 -0.94695583090E+03  0.16034173346E+04  0.24212009404E+04  0.25500000920E-02 0.  1.
</event>
<event>
 5   0  0.5945387E-08  0.4017007E+04  0.7818609E-02  0.8001124E-01
        2   -1    0    0  501    0  0.00000000000E+00  0.00000000000E+00  0.20785180172E+04  0.20785180172E+04  0.25500000920E-02 0.  1.
       -2   -1    0    0    0  501  0.00000000000E+00  0.00000000000E+00 -0.19408478586E+04  0.19408478586E+04  0.25500000920E-02 0. -1.
    10030    2    1    2    0    0  0.00000000000E+00  0.00000000000E+00  0.13767015865E+03  0.40193658758E+04  0.40170074646E+04 0.  0.
        3    1    3    3  502    0  0.19696696549E+04 -0.19637536648E+03  0.40951316700E+03  0.20213517453E+04  0.10100000352E+00 0.  1.
       -3    1    3    3    0  502 -0.19696696549E+04  0.19637536648E+03 -0.27184300835E+03  0.19980141305E+04  0.10100000352E+00 0. -1.
</event>
<event>
 5   0  0.6161563E-08  0.4007016E+04  0.7818609E-02  0.8003133E-01
        2   -1    0    0  501    0  0.00000000000E+00  0.00000000000E+00  0.14488272554E+04  0.14488272554E+04  0.25500000920E-02 0.  1.
       -2   -1    0    0    0  501  0.00000000000E+00  0.00000000000E+00 -0.27705471875E+04  0.27705471875E+04  0.25500000920E-02 0. -1.
    10030    2    1    2    0    0  0.00000000000E+00  0.00000000000E+00 -0.13217199321E+04  0.42193744429E+04  0.40070159858E+04 0.  0.
        1    1    3    3  502    0  0.38903464154E+03  0.18750830105E+04 -0.40788840497E+02  0.19154498109E+04  0.50400001928E-02 0.  1.
       -1    1    3    3    0  502 -0.38903464154E+03 -0.18750830105E+04 -0.12809310916E+04  0.23039246320E+04  0.50400001928E-02 0. -1.
</event>
<event>
 5   0  0.1879500E-08  0.4001531E+04  0.7818609E-02  0.8004238E-01
       -1   -1    0    0    0  501  0.00000000000E+00  0.00000000000E+00  0.21262430977E+04  0.21262430977E+04  0.50400001928E-02 0.  1.
        1   -1    0    0  501    0  0.00000000000E+00  0.00000000000E+00 -0.18826926780E+04  0.18826926780E+04  0.50400001928E-02 0. -1.
    10030    2    1    2    0    0  0.00000000000E+00  0.00000000000E+00  0.24355041966E+03  0.40089357757E+04  0.40015308629E+04 0.  0.
        5    1    3    3  502    0  0.12251223282E+04 -0.15768476733E+04  0.24717439448E+03  0.20120861252E+04  0.46999998093E+01 0.  1.
       -5    1    3    3    0  502 -0.12251223282E+04  0.15768476733E+04 -0.36239748167E+01  0.19968496506E+04  0.46999998093E+01 0. -1.
</event>
<event>
 5   0  0.5945387E-08  0.3995494E+04  0.7818609E-02  0.8005456E-01
       -2   -1    0    0    0  501  0.00000000000E+00  0.00000000000E+00  0.25790866146E+04  0.25790866146E+04  0.25500000920E-02 0. -1.
        2   -1    0    0  501    0  0.00000000000E+00  0.00000000000E+00 -0.15474439886E+04  0.15474439886E+04  0.25500000920E-02 0.  1.
    10030    2    1    2    0    0  0.00000000000E+00  0.00000000000E+00  0.10316426260E+04  0.41265306033E+04  0.39954935004E+04 0.  0.
        3    1    3    3  502    0  0.11588165669E+04  0.48250193099E+02  0.21957614904E+04  0.24832544069E+04  0.10100000352E+00 0. -1.
       -3    1    3    3    0  502 -0.11588165669E+04 -0.48250193099E+02 -0.11641188644E+04  0.16432761963E+04  0.10100000352E+00 0.  1.
</event>
<event>
 5   0  0.1879500E-08  0.3994593E+04  0.7818609E-02  0.8005638E-01
        1   -1    0    0  501    0  0.00000000000E+00  0.00000000000E+00  0.22236129796E+04  0.22236129796E+04  0.50400001928E-02 0. -1.
       -1   -1    0    0    0  501  0.00000000000E+00  0.00000000000E+00 -0.17940141383E+04  0.17940141383E+04  0.50400001928E-02 0.  1.
    10030    2    1    2    0    0  0.00000000000E+00  0.00000000000E+00  0.42959884128E+03  0.40176271179E+04  0.39945929072E+04 0.  0.
        4    1    3    3  502    0 -0.14647257188E+04  0.53890140108E+03 -0.10387241663E+04  0.18747761621E+04  0.12699999809E+01 0.  1.
       -4    1    3    3    0  502  0.14647257188E+04 -0.53890140108E+03  0.14683230076E+04  0.21428509558E+04  0.12699999809E+01 0. -1.
</event>
<event>
 5   0  0.1879500E-08  0.3987542E+04  0.7818609E-02  0.8007064E-01
       -1   -1    0    0    0  501  0.00000000000E+00  0.00000000000E+00  0.18015910359E+04  0.18015910359E+04  0.50400001928E-02 0.  1.
        1   -1    0    0  501    0  0.00000000000E+00  0.00000000000E+00 -0.22064512319E+04  0.22064512319E+04  0.50400001928E-02 0. -1.
    10030    2    1    2    0    0  0.00000000000E+00  0.00000000000E+00 -0.40486019602E+03  0.40080422679E+04  0.39875419800E+04 0.  0.
        1    1    3    3  502    0 -0.37455884931E+03 -0.10161962004E+04 -0.18850055629E+04  0.21739813756E+04  0.50400001928E-02 0. -1.
       -1    1    3    3    0  502  0.37455884931E+03  0.10161962004E+04  0.14801453669E+04  0.18340608922E+04  0.50400001928E-02 0.  1.
</event>
<event>
 5   0  0.1879500E-08  0.4002266E+04  0.7818609E-02  0.8004090E-01
       -1   -1    0    0    0  501  0.00000000000E+00  0.00000000000E+00  0.21409286417E+04  0.21409286417E+04  0.50400001928E-02 0. -1.
        1   -1    0    0  501    0  0.00000000000E+00  0.00000000000E+00 -0.18704657792E+04  0.18704657792E+04  0.50400001928E-02 0.  1.
    10030    2    1    2    0    0  0.00000000000E+00  0.00000000000E+00  0.27046286253E+03  0.40113944209E+04  0.40022662381E+04 0.  0.
        5    1    3    3  502    0  0.47962677067E+03 -0.13482163976E+04 -0.12668093783E+04  0.19111664985E+04  0.46999998093E+01 0.  1.
       -5    1    3    3    0  502 -0.47962677067E+03  0.13482163976E+04  0.15372722408E+04  0.21002279225E+04  0.46999998093E+01 0. -1.
</event>
<event>
 5   0  0.5846812E-08  0.3997751E+04  0.7818609E-02  0.8005000E-01
       -2   -1    0    0    0  501  0.00000000000E+00  0.00000000000E+00  0.24684290532E+04  0.24684290532E+04  0.25500000920E-02 0.  1.
        2   -1    0    0  501    0  0.00000000000E+00  0.00000000000E+00 -0.16186423831E+04  0.16186423831E+04  0.25500000920E-02 0. -1.
    10030    2    1    2    0    0  0.00000000000E+00  0.00000000000E+00  0.84978667011E+03  0.40870714364E+04  0.39977513106E+04 0.  0.
        4    1    3    3  502    0  0.30120391131E+03 -0.10596309306E+04 -0.12802934365E+04  0.16889921260E+04  0.12699999809E+01 0. -1.
       -4    1    3    3    0  502 -0.30120391131E+03  0.10596309306E+04  0.21300801066E+04  0.23980793104E+04  0.12699999809E+01 0.  1.
</event>
<event>
 5   0  0.5846812E-08  0.4006245E+04  0.7818609E-02  0.8003288E-01
       -2   -1    0    0    0  501  0.00000000000E+00  0.00000000000E+00  0.21359476994E+04  0.21359476994E+04  0.25500000920E-02 0.  1.
        2   -1    0    0  501    0  0.00000000000E+00  0.00000000000E+00 -0.18785569621E+04  0.18785569621E+04  0.25500000920E-02 0. -1.
    10030    2    1    2    0    0  0.00000000000E+00  0.00000000000E+00  0.25739073735E+03  0.40145046615E+04  0.40062448359E+04 0.  0.
        4    1    3    3  502    0 -0.17543334596E+03 -0.55970882437E+03  0.20479632825E+04  0.21303065616E+04  0.12699999809E+01 0.  1.
       -4    1    3    3    0  502  0.17543334596E+03  0.55970882437E+03 -0.17905725452E+04  0.18841980998E+04  0.12699999809E+01 0. -1.
</event>
<event>
 5   0  0.1879500E-08  0.4024119E+04  0.7818609E-02  0.7999699E-01
        1   -1    0    0  501    0  0.00000000000E+00  0.00000000000E+00  0.19113206339E+04  0.19113206339E+04  0.50400001928E-02 0. -1.
       -1   -1    0    0    0  501  0.00000000000E+00  0.00000000000E+00 -0.21181074528E+04  0.21181074528E+04  0.50400001928E-02 0.  1.
    10030    2    1    2    0    0  0.00000000000E+00  0.00000000000E+00 -0.20678681892E+03  0.40294280867E+04  0.40241185268E+04 0.  0.
        2    1    3    3  502    0  0.19232922997E+03 -0.49179688394E+03 -0.20474823021E+04  0.21144830302E+04  0.25500000920E-02 0.  1.
       -2    1    3    3    0  502 -0.19232922997E+03  0.49179688394E+03  0.18406954832E+04  0.19149450565E+04  0.25500000920E-02 0. -1.
</event>
<event>
 5   0  0.1879500E-08  0.3952917E+04  0.7818609E-02  0.8014113E-01
        1   -1    0    0  501    0  0.00000000000E+00  0.00000000000E+00  0.13818915580E+04  0.13818915580E+04  0.50400001928E-02 0.  1.
       -1   -1    0    0    0  501  0.00000000000E+00  0.00000000000E+00 -0.28268411411E+04  0.28268411411E+04  0.50400001928E-02 0. -1.
    10030    2    1    2    0    0  0.00000000000E+00  0.00000000000E+00 -0.14449495831E+04  0.42087326991E+04  0.39529168515E+04 0.  0.
        5    1    3    3  502    0  0.13716112718E+04  0.13303949882E+04 -0.12602326645E+04  0.22889903373E+04  0.46999998093E+01 0. -1.
       -5    1    3    3    0  502 -0.13716112718E+04 -0.13303949882E+04 -0.18471691852E+03  0.19197423618E+04  0.46999998093E+01 0.  1.
</event>
<event>
 5   0  0.1879500E-08  0.4003407E+04  0.7818609E-02  0.8003860E-01
        1   -1    0    0  501    0  0.00000000000E+00  0.00000000000E+00  0.26971939068E+04  0.26971939068E+04  0.50400001928E-02 0. -1.
       -1   -1    0    0    0  501  0.00000000000E+00  0.00000000000E+00 -0.14855498434E+04  0.14855498434E+04  0.50400001928E-02 0.  1.
    10030    2    1    2    0    0  0.00000000000E+00  0.00000000000E+00  0.12116440634E+04  0.41827437502E+04  0.40034065424E+04 0.  0.
        5    1    3    3  502    0  0.14044601356E+03  0.65459990530E+03 -0.13650988251E+04  0.15204417158E+04  0.46999998093E+01 0.  1.
       -5    1    3    3    0  502 -0.14044601356E+03 -0.65459990530E+03  0.25767428886E+04  0.26623020344E+04  0.46999998093E+01 0. -1.
</event>
<event>
 5   0  0.5951623E-08  0.4007594E+04  0.7818609E-02  0.8003016E-01
        2   -1    0    0  501    0  0.00000000000E+00  0.00000000000E+00  0.22727405467E+04  0.22727405467E+04  0.25500000920E-02 0. -1.
       -2   -1    0    0    0  501  0.00000000000E+00  0.00000000000E+00 -0.17666788964E+04  0.17666788964E+04  0.25500000920E-02 0.  1.
    10030    2    1    2    0    0  0.00000000000E+00  0.00000000000E+00  0.50606165030E+03  0.40394194430E+04  0.40075941714E+04 0.  0.
        2    1    3    3  502    0 -0.15858752686E+04  0.19121546351E+03 -0.96638606932E+03  0.18669402122E+04  0.25500000920E-02 0.  1.
       -2    1    3    3    0  502  0.15858752686E+04 -0.19121546351E+03  0.14724477196E+04  0.21724792308E+04  0.25500000920E-02 0. -1.
</event>
<event>
 5   0  0.5945387E-08  0.4004124E+04  0.7818609E-02  0.8003715E-01
        2   -1    0    0  501    0  0.00000000000E+00  0.00000000000E+00  0.31124670450E+04  0.31124670450E+04  0.25500000920E-02 0. -1.
       -2   -1    0    0    0  501  0.00000000000E+00  0.00000000000E+00 -0.12878055600E+04  0.12878055600E+04  0.25500000920E-02 0.  1.
    10030    2    1    2    0    0  0.00000000000E+00  0.00000000000E+00  0.18246614850E+04  0.44002726050E+04  0.40041240569E+04 0.  0.
        3    1    3    3  502    0 -0.46891015080E+03  0.38296285014E+03  0.30094592338E+04  0.30697527855E+04  0.10100000352E+00 0. -1.
       -3    1    3    3    0  502  0.46891015080E+03 -0.38296285014E+03 -0.11847977488E+04  0.13305198194E+04  0.10100000352E+00 0.  1.
</event>
<event>
 5   0  0.6161563E-08  0.3996753E+04  0.7818609E-02  0.8005202E-01
       -2   -1    0    0    0  501  0.00000000000E+00  0.00000000000E+00  0.12900692723E+04  0.12900692723E+04  0.25500000920E-02 0. -1.
        2   -1    0    0  501    0  0.00000000000E+00  0.00000000000E+00 -0.30955763846E+04  0.30955763846E+04  0.25500000920E-02 0.  1.
    10030    2    1    2    0    0  0.00000000000E+00  0.00000000000E+00 -0.18055071123E+04  0.43856456569E+04  0.39967526687E+04 0.  0.
        1    1    3    3  502    0 -0.60580870780E+03 -0.13268986826E+04  0.59611618583E+03  0.15757597569E+04  0.50400001928E-02 0. -1.
       -1    1    3    3    0  502  0.60580870780E+03  0.13268986826E+04 -0.24016232982E+04  0.28098859000E+04  0.50400001928E-02 0.  1.
</event>
<event>
 5   0  0.5951623E-08  0.3987973E+04  0.7818609E-02  0.8006977E-01
        2   -1    0    0  501    0  0.00000000000E+00  0.00000000000E+00  0.24822891891E+04  0.24822891891E+04  0.25500000920E-02 0.  1.
       -2   -1    0    0    0  501  0.00000000000E+00  0.00000000000E+00 -0.16017398843E+04  0.16017398843E+04  0.25500000920E-02 0. -1.
    10030    2    1    2    0    0  0.00000000000E+00  0.00000000000E+00  0.88054930480E+03  0.40840290734E+04  0.39879727173E+04 0.  0.
        2    1    3    3  502    0  0.13634858520E+03  0.61947758121E+02 -0.15959722500E+04  0.16029834323E+04  0.25500000920E-02 0. -1.
       -2    1    3    3    0  502 -0.13634858520E+03 -0.61947758121E+02  0.24765215548E+04  0.24810456411E+04  0.25500000920E-02 0.  1.
</event>
<event>
 5   0  0.5945387E-08  0.3998876E+04  0.7818609E-02  0.8004773E-01
        2   -1    0    0  501    0  0.00000000000E+00  0.00000000000E+00  0.13659282494E+04  0.13659282494E+04  0.25500000920E-02 0. -1.
       -2   -1    0    0    0  501  0.00000000000E+00  0.00000000000E+00 -0.29267659305E+04  0.29267659305E+04  0.25500000920E-02 0.  1.
    10030    2    1    2    0    0  0.00000000000E+00  0.00000000000E+00 -0.15608376811E+04  0.42926941799E+04  0.39988759740E+04 0.  0.
        3    1    3    3  502    0 -0.13275170286E+04  0.11028154504E+04 -0.18641763888E+04  0.25404048885E+04  0.10100000352E+00 0.  1.
       -3    1    3    3    0  502  0.13275170286E+04 -0.11028154504E+04  0.30333870769E+03  0.17522892914E+04  0.10100000352E+00 0. -1.
</event>
<event>
 5   0  0.1879500E-08  0.3995057E+04  0.7818609E-02  0.8005544E-01
        1   -1    0    0  501    0  0.00000000000E+00  0.00000000000E+00  0.13909740842E+04  0.13909740842E+04  0.50400001928E-02 0. -1.
       -1   -1    0    0    0  501  0.00000000000E+00  0.00000000000E+00 -0.28685803941E+04  0.28685803941E+04  0.50400001928E-02 0.  1.
    10030    2    1    2    0    0  0.00000000000E+00  0.00000000000E+00 -0.14776063099E+04  0.42595544784E+04  0.39950574398E+04 0.  0.
        5    1    3    3  502    0 -0.21473022309E+02 -0.12917098062E+04 -0.23631930578E+04  0.26932654590E+04  0.46999998093E+01 0.  1.
       -5    1    3    3    0  502  0.21473022309E+02  0.12917098062E+04  0.88558674791E+03  0.15662890193E+04  0.46999998093E+01 0. -1.
</event>
<event>
 5   0  0.5888700E-08  0.4048971E+04  0.7818609E-02  0.7994740E-01
       -2   -1    0    0    0  501  0.00000000000E+00  0.00000000000E+00  0.16223357732E+04  0.16223357732E+04  0.25500000920E-02 0. -1.
        2   -1    0    0  501    0  0.00000000000E+00  0.00000000000E+00 -0.25263215850E+04  0.25263215850E+04  0.25500000920E-02 0.  1.
    10030    2    1    2    0    0  0.00000000000E+00  0.00000000000E+00 -0.90398581185E+03  0.41486573582E+04  0.40489711691E+04 0.  0.
        5    1    3    3  502    0 -0.14352794183E+04 -0.14195186620E+04 -0.60892896281E+03  0.21085247952E+04  0.46999998093E+01 0. -1.
       -5    1    3    3    0  502  0.14352794183E+04  0.14195186620E+04 -0.29505684904E+03  0.20401325630E+04  0.46999998093E+01 0.  1.
</event>
<event>
 5   0  0.1879500E-08  0.4011499E+04  0.7818609E-02  0.8002231E-01
        1   -1    0    0  501    0  0.00000000000E+00  0.00000000000E+00  0.15811021959E+04  0.15811021959E+04  0.50400001928E-02 0. -1.
       -1   -1    0    0    0  501  0.00000000000E+00  0.00000000000E+00 -0.25444471461E+04  0.25444471461E+04  0.50400001928E-02 0.  1.
    10030    2    1    2    0    0  0.00000000000E+00  0.00000000000E+00 -0.96334495026E+03  0.41255493420E+04  0.40114989568E+04 0.  0.
        5    1    3    3  502    0  0.93145933051E+03  0.14152164352E+04  0.62242114655E+03  0.18049610014E+04  0.46999998093E+01 0. -1.
       -5    1    3    3    0  502 -0.93145933051E+03 -0.14152164352E+04 -0.15857660968E+04  0.23205883406E+04  0.46999998093E+01 0.  1.
</event>
<event>
 5   0  0.1879500E-08  0.3987805E+04  0.7818609E-02  0.8007011E-01
       -1   -1    0    0    0  501  0.00000000000E+00  0.00000000000E+00  0.20951622347E+04  0.20951622347E+04  0.50400001928E-02 0.  1.
        1   -1    0    0  501    0  0.00000000000E+00  0.00000000000E+00 -0.18975370637E+04  0.18975370637E+04  0.50400001928E-02 0. -1.
    10030    2    1    2    0    0  0.00000000000E+00  0.00000000000E+00  0.19762517096E+03  0.39926992984E+04  0.39878054089E+04 0.  0.
        3    1    3    3  502    0 -0.77790877481E+03  0.11615835114E+04 -0.13246317142E+04  0.19258939494E+04  0.10100000352E+00 0. -1.
       -3    1    3    3    0  502  0.77790877481E+03 -0.11615835114E+04  0.15222568851E+04  0.20668053490E+04  0.10100000352E+00 0.  1.
</event>
<event>
 5   0  0.5945387E-08  0.4002173E+04  0.7818609E-02  0.8004108E-01
       -2   -1    0    0    0  501  0.00000000000E+00  0.00000000000E+00  0.25058449995E+04  0.25058449995E+04  0.25500000920E-02 0. -1.
        2   -1    0    0  501    0  0.00000000000E+00  0.00000000000E+00 -0.15980028214E+04  0.15980028214E+04  0.25500000920E-02 0.  1.
    10030    2    1    2    0    0  0.00000000000E+00  0.00000000000E+00  0.90784217811E+03  0.41038478209E+04  0.40021730993E+04 0.  0.
        3    1    3    3  502    0 -0.28346679130E+03  0.45366698982E+03 -0.15233244156E+04  0.16145229775E+04  0.10100000352E+00 0.  1.
       -3    1    3    3    0  502  0.28346679130E+03 -0.45366698982E+03  0.24311665937E+04  0.24893248434E+04  0.10100000352E+00 0. -1.
</event>
<event>
 5   0  0.1879500E-08  0.4006165E+04  0.7818609E-02  0.8003304E-01
        1   -1    0    0  501    0  0.00000000000E+00  0.00000000000E+00  0.22068916989E+04  0.22068916989E+04  0.50400001928E-02 0.  1.
       -1   -1    0    0    0  501  0.00000000000E+00  0.00000000000E+00 -0.18180954737E+04  0.18180954737E+04  0.50400001928E-02 0. -1.
    10030    2    1    2    0    0  0.00000000000E+00  0.00000000000E+00  0.38879622517E+03  0.40249871726E+04  0.40061651533E+04 0.  0.
        1    1    3    3  502    0  0.18705714689E+04 -0.60117459757E+03 -0.19716528602E+03  0.19746702679E+04  0.50400001928E-02 0. -1.
       -1    1    3    3    0  502 -0.18705714689E+04  0.60117459757E+03  0.58596151119E+03  0.20503169047E+04  0.50400001928E-02 0.  1.
</event>
<event>
 5   0  0.1879500E-08  0.3994559E+04  0.7818609E-02  0.8005645E-01
        1   -1    0    0  501    0  0.00000000000E+00  0.00000000000E+00  0.33104884181E+04  0.33104884181E+04  0.50400001928E-02 0.  1.
       -1   -1    0    0    0  501  0.00000000000E+00  0.00000000000E+00 -0.12049957841E+04  0.12049957841E+04  0.50400001928E-02 0. -1.
    10030    2    1    2    0    0  0.00000000000E+00  0.00000000000E+00  0.21054926340E+04  0.45154842022E+04  0.39945585924E+04 0.  0.
        5    1    3    3  502    0  0.90667532231E+03 -0.85548514632E+03  0.28167591337E+04  0.30802709431E+04  0.46999998093E+01 0.  1.
       -5    1    3    3    0  502 -0.90667532231E+03  0.85548514632E+03 -0.71126649964E+03  0.14352132591E+04  0.46999998093E+01 0. -1.
</event>
<event>
 5   0  0.1879500E-08  0.4012203E+04  0.7818609E-02  0.8002089E-01
       -1   -1    0    0    0  501  0.00000000000E+00  0.00000000000E+00  0.28427259391E+04  0.28427259392E+04  0.50400001928E-02 0.  1.
        1   -1    0    0  501    0  0.00000000000E+00  0.00000000000E+00 -0.14156988799E+04  0.14156988799E+04  0.50400001928E-02 0. -1.
    10030    2    1    2    0    0  0.00000000000E+00  0.00000000000E+00  0.14270270593E+04  0.42584248191E+04  0.40122033487E+04 0.  0.
        4    1    3    3  502    0 -0.16765652336E+04  0.62965926492E+03  0.16729225508E+04  0.24507168841E+04  0.12699999809E+01 0.  1.
       -4    1    3    3    0  502  0.16765652336E+04 -0.62965926492E+03 -0.24589549153E+03  0.18077079349E+04  0.12699999809E+01 0. -1.
</event>
<event>
 5   0  0.1879500E-08  0.4010105E+04  0.7818609E-02  0.8002511E-01
       -1   -1    0    0    0  501  0.00000000000E+00  0.00000000000E+00  0.19364817343E+04  0.19364817343E+04  0.50400001928E-02 0.  1.
        1   -1    0    0  501    0  0.00000000000E+00  0.00000000000E+00 -0.20760510249E+04  0.20760510249E+04  0.50400001928E-02 0. -1.
    10030    2    1    2    0    0  0.00000000000E+00  0.00000000000E+00 -0.13956929055E+03  0.40125327592E+04  0.40101046815E+04 0.  0.
        5    1    3    3  502    0  0.10245269679E+04  0.16815124849E+04 -0.44826366118E+03  0.20194311438E+04  0.46999998093E+01 0. -1.
       -5    1    3    3    0  502 -0.10245269679E+04 -0.16815124849E+04  0.30869437062E+03  0.19931016154E+04  0.46999998093E+01 0.  1.
</event>
<event>
 5   0  0.5846812E-08  0.4038606E+04  0.7818609E-02  0.7996804E-01
        2   -1    0    0  501    0  0.00000000000E+00  0.00000000000E+00  0.29943440645E+04  0.29943440645E+04  0.25500000920E-02 0. -1.
       -2   -1    0    0    0  501  0.00000000000E+00  0.00000000000E+00 -0.13617619339E+04  0.13617619339E+04  0.25500000920E-02 0.  1.
    10030    2    1    2    0    0  0.00000000000E+00  0.00000000000E+00  0.16325821306E+04  0.43561059984E+04  0.40386055832E+04 0.  0.
        4    1    3    3  502    0  0.12998556253E+04  0.13217079244E+04  0.16798887758E+04  0.25017122928E+04  0.12699999809E+01 0. -1.
       -4    1    3    3    0  502 -0.12998556253E+04 -0.13217079244E+04 -0.47306645181E+02  0.18543937057E+04  0.12699999809E+01 0.  1.
</event>
<event>
 5   0  0.6161563E-08  0.3955746E+04  0.7818609E-02  0.8013534E-01
        2   -1    0    0  501    0  0.00000000000E+00  0.00000000000E+00  0.13999126768E+04  0.13999126768E+04  0.25500000920E-02 0.  1.
       -2   -1    0    0    0  501  0.00000000000E+00  0.00000000000E+00 -0.27944475573E+04  0.27944475573E+04  0.25500000920E-02 0. -1.
    10030    2    1    2    0    0  0.00000000000E+00  0.00000000000E+00 -0.13945348805E+04  0.41943602342E+04  0.39557464834E+04 0.  0.
        1    1    3    3  502    0  0.72069408495E+03  0.12968268696E+04 -0.20841502794E+04  0.25582889361E+04  0.50400001928E-02 0. -1.
       -1    1    3    3    0  502 -0.72069408495E+03 -0.12968268696E+04  0.68961539888E+03  0.16360712980E+04  0.50400001928E-02 0.  1.
</event>
<event>
 5   0  0.1879500E-08  0.3970527E+04  0.7818609E-02  0.8010519E-01
        1   -1    0    0  501    0  0.00000000000E+00  0.00000000000E+00  0.16175648416E+04  0.16175648416E+04  0.50400001928E-02 0. -1.
       -1   -1    0    0    0  501  0.00000000000E+00  0.00000000000E+00 -0.24365456778E+04  0.24365456778E+04  0.50400001928E-02 0.  1.
    10030    2    1    2    0    0  0.00000000000E+00  0.00000000000E+00 -0.81898083621E+03  0.40541105195E+04  0.39705267275E+04 0.  0.
        4    1    3    3  502    0  0.19113443581E+04  0.15263294806E+03 -0.93484568526E+03  0.21331835692E+04  0.12699999809E+01 0.  1.
       -4    1    3    3    0  502 -0.19113443581E+04 -0.15263294806E+03  0.11586484906E+03  0.19209269502E+04  0.12699999809E+01 0. -1.
</event>
<event>
 5   0  0.5951623E-08  0.3974536E+04  0.7818609E-02  0.8009703E-01
       -2   -1    0    0    0  501  0.00000000000E+00  0.00000000000E+00  0.31255083792E+04  0.31255083792E+04  0.25500000920E-02 0.  1.
        2   -1    0    0  501    0  0.00000000000E+00  0.00000000000E+00 -0.12635496582E+04  0.12635496582E+04  0.25500000920E-02 0. -1.
    10030    2    1    2    0    0  0.00000000000E+00  0.00000000000E+00  0.18619587210E+04  0.43890580374E+04  0.39745364732E+04 0.  0.
        2    1    3    3  502    0  0.10749383280E+04 -0.16597971090E+04  0.11485454973E+04  0.22868265373E+04  0.25500000920E-02 0.  1.
       -2    1    3    3    0  502 -0.10749383280E+04  0.16597971090E+04  0.71341322369E+03  0.21022315001E+04  0.25500000920E-02 0. -1.
</event>
<event>
 5   0  0.1879500E-08  0.4014643E+04  0.7818609E-02  0.8001599E-01
        1   -1    0    0  501    0  0.00000000000E+00  0.00000000000E+00  0.24365965792E+04  0.24365965793E+04  0.50400001928E-02 0. -1.
       -1   -1    0    0    0  501  0.00000000000E+00  0.00000000000E+00 -0.16536754523E+04  0.16536754523E+04  0.50400001928E-02 0.  1.
    10030    2    1    2    0    0  0.00000000000E+00  0.00000000000E+00  0.78292112698E+03  0.40902720315E+04  0.40146431723E+04 0.  0.
        5    1    3    3  502    0 -0.30758237659E+03  0.18451539822E+04 -0.35034725141E+03  0.19031461906E+04  0.46999998093E+01 0.  1.
       -5    1    3    3    0  502  0.30758237659E+03 -0.18451539822E+04  0.11332683784E+04  0.21871258409E+04  0.46999998093E+01 0. -1.
</event>
<event>
 5   0  0.5951623E-08  0.4009483E+04  0.7818609E-02  0.8002636E-01
       -2   -1    0    0    0  501  0.00000000000E+00  0.00000000000E+00  0.18360893204E+04  0.18360893204E+04  0.25500000920E-02 0.  1.
        2   -1    0    0  501    0  0.00000000000E+00  0.00000000000E+00 -0.21888847711E+04  0.21888847711E+04  0.25500000920E-02 0. -1.
    10030    2    1    2    0    0  0.00000000000E+00  0.00000000000E+00 -0.35279545074E+03  0.40249740915E+04  0.40094827356E+04 0.  0.
        2    1    3    3  502    0 -0.16930364789E+04 -0.36252382074E+01 -0.12541389132E+04  0.21069527937E+04  0.25500000920E-02 0. -1.
       -2    1    3    3    0  502  0.16930364789E+04  0.36252382074E+01  0.90134346249E+03  0.19180212978E+04  0.25500000920E-02 0.  1.
</event>
<event>
 5   0  0.1879500E-08  0.4009681E+04  0.7818609E-02  0.8002596E-01
       -1   -1    0    0    0  501  0.00000000000E+00  0.00000000000E+00  0.14537861711E+04  0.14537861711E+04  0.50400001928E-02 0.  1.
        1   -1    0    0  501    0  0.00000000000E+00  0.00000000000E+00 -0.27647711258E+04  0.27647711258E+04  0.50400001928E-02 0. -1.
    10030    2    1    2    0    0  0.00000000000E+00  0.00000000000E+00 -0.13109849546E+04  0.42185572969E+04  0.40096812986E+04 0.  0.
        4    1    3    3  502    0  0.32189280409E+03  0.15398582959E+04 -0.19630564238E+04  0.25156253069E+04  0.12699999809E+01 0. -1.
       -4    1    3    3    0  502 -0.32189280409E+03 -0.15398582959E+04  0.65207146917E+03  0.17029319900E+04  0.12699999809E+01 0.  1.
</event>
<event>
 5   0  0.1879500E-08  0.4009484E+04  0.7818609E-02  0.8002636E-01
       -1   -1    0    0    0  501  0.00000000000E+00  0.00000000000E+00  0.29845067009E+04  0.29845067009E+04  0.50400001928E-02 0. -1.
        1   -1    0    0  501    0  0.00000000000E+00  0.00000000000E+00 -0.13466176805E+04  0.13466176805E+04  0.50400001928E-02 0.  1.
    10030    2    1    2    0    0  0.00000000000E+00  0.00000000000E+00  0.16378890204E+04  0.43311243814E+04  0.40094835034E+04 0.  0.
        4    1    3    3  502    0 -0.16018890172E+04  0.97939908886E+03  0.15779610026E+04  0.24525973044E+04  0.12699999809E+01 0.  1.
       -4    1    3    3    0  502  0.16018890172E+04 -0.97939908886E+03  0.59928017802E+02  0.18785270770E+04  0.12699999809E+01 0. -1.
</event>
<event>
 5   0  0.1879500E-08  0.4004704E+04  0.7818609E-02  0.8003598E-01
        1   -1    0    0  501    0  0.00000000000E+00  0.00000000000E+00  0.12918618015E+04  0.12918618015E+04  0.50400001928E-02 0.  1.
       -1   -1    0    0    0  501  0.00000000000E+00  0.00000000000E+00 -0.31035926530E+04  0.31035926530E+04  0.50400001928E-02 0. -1.
    10030    2    1    2    0    0  0.00000000000E+00  0.00000000000E+00 -0.18117308515E+04  0.43954544545E+04  0.40047036324E+04 0.  0.
        4    1    3    3  502    0  0.15485160981E+04  0.86253228560E+03 -0.19281691481E+04  0.26191032676E+04  0.12699999809E+01 0. -1.
       -4    1    3    3    0  502 -0.15485160981E+04 -0.86253228560E+03  0.11643829656E+03  0.17763511870E+04  0.12699999809E+01 0.  1.
</event>
<event>
 5   0  0.5951623E-08  0.3991534E+04  0.7818609E-02  0.8006257E-01
        2   -1    0    0  501    0  0.00000000000E+00  0.00000000000E+00  0.16747916407E+04  0.16747916407E+04  0.25500000920E-02 0. -1.
       -2   -1    0    0    0  501  0.00000000000E+00  0.00000000000E+00 -0.23782578755E+04  0.23782578755E+04  0.25500000920E-02 0.  1.
    10030    2    1    2    0    0  0.00000000000E+00  0.00000000000E+00 -0.70346623484E+03  0.40530495162E+04  0.39915342461E+04 0.  0.
        2    1    3    3  502    0  0.16235747659E+04  0.42033474738E+03 -0.14502609840E+04  0.22171903937E+04  0.25500000920E-02 0.  1.
       -2    1    3    3    0  502 -0.16235747659E+04 -0.42033474738E+03  0.74679474917E+03  0.18358591225E+04  0.25500000920E-02 0. -1.
</event>
<event>
 5   0  0.5888700E-08  0.3994298E+04  0.7818609E-02  0.8005698E-01
       -2   -1    0    0    0  501  0.00000000000E+00  0.00000000000E+00  0.30329438655E+04  0.30329438655E+04  0.25500000920E-02 0.  1.
        2   -1    0    0  501    0  0.00000000000E+00  0.00000000000E+00 -0.13150934068E+04  0.13150934068E+04  0.25500000920E-02 0. -1.
    10030    2    1    2    0    0  0.00000000000E+00  0.00000000000E+00  0.17178504588E+04  0.43480372723E+04  0.39942981765E+04 0.  0.
        5    1    3    3  502    0 -0.47710031376E+03  0.94325378116E+03  0.27034596616E+04  0.29027691325E+04  0.46999998093E+01 0.  1.
       -5    1    3    3    0  502  0.47710031376E+03 -0.94325378116E+03 -0.98560920282E+03  0.14452681397E+04  0.46999998093E+01 0. -1.
</event>
<event>
 5   0  0.5888700E-08  0.4005102E+04  0.7818609E-02  0.8003518E-01
       -2   -1    0    0    0  501  0.00000000000E+00  0.00000000000E+00  0.20991097894E+04  0.20991097895E+04  0.25500000920E-02 0. -1.
        2   -1    0    0  501    0  0.00000000000E+00  0.00000000000E+00 -0.19104340386E+04  0.19104340386E+04  0.25500000920E-02 0.  1.
    10030    2    1    2    0    0  0.00000000000E+00  0.00000000000E+00  0.18867575087E+03  0.40095438280E+04  0.40051021423E+04 0.  0.
        5    1    3    3  502    0 -0.68872335767E+03 -0.16177501000E+04 -0.86523095810E+03  0.19596178072E+04  0.46999998093E+01 0.  1.
       -5    1    3    3    0  502  0.68872335767E+03  0.16177501000E+04  0.10539067090E+04  0.20499260208E+04  0.46999998093E+01 0. -1.
</event>
<event>
 5   0  0.5846812E-08  0.3997257E+04  0.7818609E-02  0.8005100E-01
        2   -1    0    0  501    0  0.00000000000E+00  0.00000000000E+00  0.19966475120E+04  0.19966475120E+04  0.25500000920E-02 0. -1.
       -2   -1    0    0    0  501  0.00000000000E+00  0.00000000000E+00 -0.20006116729E+04  0.20006116729E+04  0.25500000920E-02 0.  1.
    10030    2    1    2    0    0  0.00000000000E+00  0.00000000000E+00 -0.39641609077E+01  0.39972591849E+04  0.39972572193E+04 0.  0.
        4    1    3    3  502    0 -0.16352426832E+02 -0.19795397783E+04  0.27309908068E+03  0.19983567890E+04  0.12699999809E+01 0.  1.
       -4    1    3    3    0  502  0.16352426832E+02  0.19795397783E+04 -0.27706324159E+03  0.19989023959E+04  0.12699999809E+01 0. -1.
</event>
<event>
 5   0  0.1879500E-08  0.4002618E+04  0.7818609E-02  0.8004019E-01
       -1   -1    0    0    0  501  0.00000000000E+00  0.00000000000E+00  0.18302938056E+04  0.18302938056E+04  0.50400001928E-02 0. -1.
        1   -1    0    0  501    0  0.00000000000E+00  0.00000000000E+00 -0.21883034212E+04  0.21883034212E+04  0.50400001928E-02 0.  1.
    10030    2    1    2    0    0  0.00000000000E+00  0.00000000000E+00 -0.35800961558E+03  0.40185972268E+04  0.40026182414E+04 0.  0.
        4    1    3    3  502    0 -0.15886635636E+03 -0.75197160082E+02 -0.21805389715E+04  0.21876117003E+04  0.12699999809E+01 0.  1.
       -4    1    3    3    0  502  0.15886635636E+03  0.75197160082E+02  0.18225293559E+04  0.18309855265E+04  0.12699999809E+01 0. -1.
</event>
<event>
 5   0  0.1879500E-08  0.4024377E+04  0.7818609E-02  0.7999647E-01
        1   -1    0    0  501    0  0.00000000000E+00  0.00000000000E+00  0.22500023893E+04  0.22500023893E+04  0.50400001928E-02 0.  1.
       -1   -1    0    0    0  501  0.00000000000E+00  0.00000000000E+00 -0.17995104775E+04  0.17995104775E+04  0.50400001928E-02 0. -1.
    10030    2    1    2    0    0  0.00000000000E+00  0.00000000000E+00  0.45049191172E+03  0.40495128668E+04  0.40243771563E+04 0.  0.
        2    1    3    3  502    0  0.20083903500E+04 -0.28538512888E+02  0.34623265595E+03  0.20382157140E+04  0.25500000920E-02 0.  1.
       -2    1    3    3    0  502 -0.20083903500E+04  0.28538512888E+02  0.10425925577E+03  0.20112971528E+04  0.25500000920E-02 0. -1.
</event>
<event>
 5   0  0.5951623E-08  0.3993278E+04  0.7818609E-02  0.8005904E-01
       -2   -1    0    0    0  501  0.00000000000E+00  0.00000000000E+00  0.18128379528E+04  0.18128379528E+04  0.25500000920E-02 0.  1.
        2   -1    0    0  501    0  0.00000000000E+00  0.00000000000E+00 -0.21990751636E+04  0.21990751636E+04  0.25500000920E-02 0. -1.
    10030    2    1    2    0    0  0.00000000000E+00  0.00000000000E+00 -0.38623721081E+03  0.40119131163E+04  0.39932778103E+04 0.  0.
        2    1    3    3  502    0 -0.18561271671E+04  0.68862110097E+03  0.67242921113E+02  0.19808908833E+04  0.25500000920E-02 0.  1.
       -2    1    3    3    0  502  0.18561271671E+04 -0.68862110097E+03 -0.45348013192E+03  0.20310222330E+04  0.25500000920E-02 0. -1.
</event>
<event>
 5   0  0.1879500E-08  0.3997951E+04  0.7818609E-02  0.8004960E-01
       -1   -1    0    0    0  501  0.00000000000E+00  0.00000000000E+00  0.19790479978E+04  0.19790479978E+04  0.50400001928E-02 0.  1.
        1   -1    0    0  501    0  0.00000000000E+00  0.00000000000E+00 -0.20191037159E+04  0.20191037159E+04  0.50400001928E-02 0. -1.
    10030    2    1    2    0    0  0.00000000000E+00  0.00000000000E+00 -0.40055718106E+02  0.39981517137E+04  0.39979510584E+04 0.  0.
        2    1    3    3  502    0  0.39120035400E+03  0.15014580935E+04  0.12403881428E+04  0.19864483050E+04  0.25500000920E-02 0.  1.
       -2    1    3    3    0  502 -0.39120035400E+03 -0.15014580935E+04 -0.12804438610E+04  0.20117034087E+04  0.25500000920E-02 0. -1.
</event>
<event>
 5   0  0.5945387E-08  0.4005284E+04  0.7818609E-02  0.8003481E-01
        2   -1    0    0  501    0  0.00000000000E+00  0.00000000000E+00  0.17792480005E+04  0.17792480005E+04  0.25500000920E-02 0. -1.
       -2   -1    0    0    0  501  0.00000000000E+00  0.00000000000E+00 -0.22540845824E+04  0.22540845824E+04  0.25500000920E-02 0.  1.
    10030    2    1    2    0    0  0.00000000000E+00  0.00000000000E+00 -0.47483658186E+03  0.40333325829E+04  0.40052842527E+04 0.  0.
        3    1    3    3  502    0 -0.12632196048E+04 -0.19708025654E+03  0.13148075970E+04  0.18339256868E+04  0.10100000352E+00 0. -1.
       -3    1    3    3    0  502  0.12632196048E+04  0.19708025654E+03 -0.17896441789E+04  0.21994068961E+04  0.10100000352E+00 0.  1.
</event>
<event>
 5   0  0.5888700E-08  0.3995925E+04  0.7818609E-02  0.8005369E-01
       -2   -1    0    0    0  501  0.00000000000E+00  0.00000000000E+00  0.15265966109E+04  0.15265966109E+04  0.25500000920E-02 0.  1.
        2   -1    0    0  501    0  0.00000000000E+00  0.00000000000E+00 -0.26148714150E+04  0.26148714150E+04  0.25500000920E-02 0. -1.
    10030    2    1    2    0    0  0.00000000000E+00  0.00000000000E+00 -0.10882748041E+04  0.41414680260E+04  0.39959248442E+04 0.  0.
        5    1    3    3  502    0  0.25427180315E+03  0.45265809519E+03 -0.25437295315E+04  0.25961770972E+04  0.46999998093E+01 0. -1.
       -5    1    3    3    0  502 -0.25427180315E+03 -0.45265809519E+03  0.14554547274E+04  0.15452909287E+04  0.46999998093E+01 0.  1.
</event>
<event>
 5   0  0.1879500E-08  0.3993031E+04  0.7818609E-02  0.8005954E-01
        1   -1    0    0  501    0  0.00000000000E+00  0.00000000000E+00  0.24107922929E+04  0.24107922929E+04  0.50400001928E-02 0.  1.
       -1   -1    0    0    0  501  0.00000000000E+00  0.00000000000E+00 -0.16534288177E+04  0.16534288177E+04  0.50400001928E-02 0. -1.
    10030    2    1    2    0    0  0.00000000000E+00  0.00000000000E+00  0.75736347525E+03  0.40642211106E+04  0.39930306538E+04 0.  0.
        5    1    3    3  502    0  0.13847375765E+04  0.11697445232E+04 -0.47304746559E+03  0.18733916835E+04  0.46999998093E+01 0. -1.
       -5    1    3    3    0  502 -0.13847375765E+04 -0.11697445232E+04  0.12304109408E+04  0.21908294271E+04  0.46999998093E+01 0.  1.
</event>
<event>
 5   0  0.1879500E-08  0.3999871E+04  0.7818609E-02  0.8004572E-01
       -1   -1    0    0    0  501  0.00000000000E+00  0.00000000000E+00  0.21733374385E+04  0.21733374385E+04  0.50400001928E-02 0. -1.
        1   -1    0    0  501    0  0.00000000000E+00  0.00000000000E+00 -0.18403689882E+04  0.18403689882E+04  0.50400001928E-02 0.  1.
    10030    2    1    2    0    0  0.00000000000E+00  0.00000000000E+00  0.33296845031E+03  0.40137064266E+04  0.39998714092E+04 0.  0.
        3    1    3    3  502    0 -0.17622004627E+04  0.75143632519E+03  0.74269665065E+03  0.20546545565E+04  0.10100000352E+00 0. -1.
       -3    1    3    3    0  502  0.17622004627E+04 -0.75143632519E+03 -0.40972820034E+03  0.19590518701E+04  0.10100000352E+00 0.  1.
</event>
<event>
 5   0  0.5945387E-08  0.3995117E+04  0.7818609E-02  0.8005532E-01
        2   -1    0    0  501    0  0.00000000000E+00  0.00000000000E+00  0.22579081683E+04  0.22579081683E+04  0.25500000920E-02 0.  1.
       -2   -1    0    0    0  501  0.00000000000E+00  0.00000000000E+00 -0.17672283049E+04  0.17672283049E+04  0.25500000920E-02 0. -1.
    10030    2    1    2    0    0  0.00000000000E+00  0.00000000000E+00  0.49067986348E+03  0.40251364732E+04  0.39951166315E+04 0.  0.
        3    1    3    3  502    0 -0.32566454163E+03 -0.59564520400E+03 -0.16474433329E+04  0.17818305610E+04  0.10100000352E+00 0. -1.
       -3    1    3    3    0  502  0.32566454163E+03  0.59564520400E+03  0.21381231964E+04  0.22433059122E+04  0.10100000352E+00 0.  1.
</event>
<event>
 5   0  0.6161563E-08  0.3997820E+04  0.7818609E-02  0.8004987E-01
        2   -1    0    0  501    0  0.00000000000E+00  0.00000000000E+00  0.13542569676E+04  0.13542569676E+04  0.25500000920E-02 0. -1.
       -2   -1    0    0    0  501  0.00000000000E+00  0.00000000000E+00 -0.29504302818E+04  0.29504302818E+04  0.25500000920E-02 0.  1.
    10030    2    1    2    0    0  0.00000000000E+00  0.00000000000E+00 -0.15961733142E+04  0.43046872494E+04  0.39978197891E+04 0.  0.
        1    1    3    3  502    0 -0.17925433403E+04 -0.60371952763E+03 -0.14942025156E+04  0.24104626221E+04  0.50400001928E-02 0.  1.
       -1    1    3    3    0  502  0.17925433403E+04  0.60371952763E+03 -0.10197079862E+03  0.18942246273E+04  0.50400001928E-02 0. -1.
</event>
<event>
 5   0  0.6161563E-08  0.3992415E+04  0.7818609E-02  0.8006078E-01
        2   -1    0    0  501    0  0.00000000000E+00  0.00000000000E+00  0.20768066151E+04  0.20768066151E+04  0.25500000920E-02 0.  1.
       -2   -1    0    0    0  501  0.00000000000E+00  0.00000000000E+00 -0.19187363735E+04  0.19187363735E+04  0.25500000920E-02 0. -1.
    10030    2    1    2    0    0  0.00000000000E+00  0.00000000000E+00  0.15807024160E+03  0.39955429887E+04  0.39924150051E+04 0.  0.
        1    1    3    3  502    0  0.11767951954E+03 -0.16946797884E+04  0.11282153694E+04  0.20392787878E+04  0.50400001928E-02 0.  1.
       -1    1    3    3    0  502 -0.11767951954E+03  0.16946797884E+04 -0.97014512782E+03  0.19562642009E+04  0.50400001928E-02 0. -1.
</event>
<event>
 5   0  0.5951623E-08  0.3991918E+04  0.7818609E-02  0.8006179E-01
       -2   -1    0    0    0  501  0.00000000000E+00  0.00000000000E+00  0.30478738805E+04  0.30478738805E+04  0.25500000920E-02 0. -1.
        2   -1    0    0  501    0  0.00000000000E+00  0.00000000000E+00 -0.13070924321E+04  0.13070924321E+04  0.25500000920E-02 0.  1.
    10030    2    1    2    0    0  0.00000000000E+00  0.00000000000E+00  0.17407814484E+04  0.43549663127E+04  0.39919182774E+04 0.  0.
        2    1    3    3  502    0  0.70002463013E+03 -0.33698348809E+03 -0.11353659464E+04  0.13757355074E+04  0.25500000920E-02 0.  1.
       -2    1    3    3    0  502 -0.70002463013E+03  0.33698348809E+03  0.28761473948E+04  0.29792308052E+04  0.25500000920E-02 0. -1.
</event>
<event>
 5   0  0.1879500E-08  0.4002518E+04  0.7818609E-02  0.8004039E-01
       -1   -1    0    0    0  501  0.00000000000E+00  0.00000000000E+00  0.12855226444E+04  0.12855226444E+04  0.50400001928E-02 0.  1.
        1   -1    0    0  501    0  0.00000000000E+00  0.00000000000E+00 -0.31154932350E+04  0.31154932350E+04  0.50400001928E-02 0. -1.
    10030    2    1    2    0    0  0.00000000000E+00  0.00000000000E+00 -0.18299705907E+04  0.44010158794E+04  0.40025177586E+04 0.  0.
        1    1    3    3  502    0  0.11884522064E+04  0.13504106016E+04 -0.18792262338E+04  0.26014454978E+04  0.50400001928E-02 0. -1.
       -1    1    3    3    0  502 -0.11884522064E+04 -0.13504106016E+04  0.49255643172E+02  0.17995703816E+04  0.50400001928E-02 0.  1.
</event>
<event>
 5   0  0.6161563E-08  0.3952567E+04  0.7818609E-02  0.8014184E-01
        2   -1    0    0  501    0  0.00000000000E+00  0.00000000000E+00  0.12554523418E+04  0.12554523418E+04  0.25500000920E-02 0. -1.
       -2   -1    0    0    0  501  0.00000000000E+00  0.00000000000E+00 -0.31109875229E+04  0.31109875229E+04  0.25500000920E-02 0.  1.
    10030    2    1    2    0    0  0.00000000000E+00  0.00000000000E+00 -0.18555351811E+04  0.43664398646E+04  0.39525670498E+04 0.  0.
        1    1    3    3  502    0  0.67489259328E+03 -0.20007252085E+02  0.11240852999E+04  0.13112772644E+04  0.50400001928E-02 0. -1.
       -1    1    3    3    0  502 -0.67489259328E+03  0.20007252085E+02 -0.29796204811E+04  0.30551626002E+04  0.50400001928E-02 0.  1.
</event>
<event>
 5   0  0.5846812E-08  0.3998487E+04  0.7818609E-02  0.8004852E-01
        2   -1    0    0  501    0  0.00000000000E+00  0.00000000000E+00  0.20062727179E+04  0.20062727179E+04  0.25500000920E-02 0. -1.
       -2   -1    0    0    0  501  0.00000000000E+00  0.00000000000E+00 -0.19922390127E+04  0.19922390127E+04  0.25500000920E-02 0.  1.
    10030    2    1    2    0    0  0.00000000000E+00  0.00000000000E+00  0.14033705245E+02  0.39985117306E+04  0.39984871032E+04 0.  0.
        4    1    3    3  502    0  0.14089582356E+03  0.49353929352E+03  0.19392659281E+04  0.20060375420E+04  0.12699999809E+01 0. -1.
       -4    1    3    3    0  502 -0.14089582356E+03 -0.49353929352E+03 -0.19252322228E+04  0.19924741885E+04  0.12699999809E+01 0.  1.
</event>
<event>
 5   0  0.5945387E-08  0.3998533E+04  0.7818609E-02  0.8004843E-01
       -2   -1    0    0    0  501  0.00000000000E+00  0.00000000000E+00  0.16967480087E+04  0.16967480087E+04  0.25500000920E-02 0.  1.
        2   -1    0    0  501    0  0.00000000000E+00  0.00000000000E+00 -0.23557213677E+04  0.23557213677E+04  0.25500000920E-02 0. -1.
    10030    2    1    2    0    0  0.00000000000E+00  0.00000000000E+00 -0.65897335898E+03  0.40524693765E+04  0.39985325007E+04 0.  0.
        3    1    3    3  502    0  0.11956791425E+04  0.14687592194E+04 -0.97856558695E+03  0.21317816198E+04  0.10100000352E+00 0. -1.
       -3    1    3    3    0  502 -0.11956791425E+04 -0.14687592194E+04  0.31959222796E+03  0.19206877567E+04  0.10100000352E+00 0.  1.
</event>
<event>
 5   0  0.1879500E-08  0.3944427E+04  0.7818609E-02  0.8015852E-01
        1   -1    0    0  501    0  0.00000000000E+00  0.00000000000E+00  0.27204356829E+04  0.27204356830E+04  0.50400001928E-02 0. -1.
       -1   -1    0    0    0  501  0.00000000000E+00  0.00000000000E+00 -0.14297804518E+04  0.14297804518E+04  0.50400001928E-02 0.  1.
    10030    2    1    2    0    0  0.00000000000E+00  0.00000000000E+00  0.12906552312E+04  0.41502161347E+04  0.39444268328E+04 0.  0.
        5    1    3    3  502    0 -0.11123628307E+04 -0.15426148515E+04  0.11946703450E+04  0.22459454513E+04  0.46999998093E+01 0. -1.
       -5    1    3    3    0  502  0.11123628307E+04  0.15426148515E+04  0.95984886179E+02  0.19042706834E+04  0.46999998093E+01 0.  1.
</event>
<event>
 5   0  0.1879500E-08  0.4008370E+04  0.7818609E-02  0.8002860E-01
       -1   -1    0    0    0  501  0.00000000000E+00  0.00000000000E+00  0.20735293660E+04  0.20735293660E+04  0.50400001928E-02 0.  1.
        1   -1    0    0  501    0  0.00000000000E+00  0.00000000000E+00 -0.19371598026E+04  0.19371598026E+04  0.50400001928E-02 0. -1.
    10030    2    1    2    0    0  0.00000000000E+00  0.00000000000E+00  0.13636956347E+03  0.40106891686E+04  0.40083701113E+04 0.  0.
        2    1    3    3  502    0  0.99771273080E+03 -0.18696581970E+03  0.17972965126E+04  0.20641370267E+04  0.25500000920E-02 0.  1.
       -2    1    3    3    0  502 -0.99771273080E+03  0.18696581970E+03 -0.16609269491E+04  0.19465521419E+04  0.25500000920E-02 0. -1.
</event>
<event>
 5   0  0.6161563E-08  0.3999810E+04  0.7818609E-02  0.8004585E-01
        2   -1    0    0  501    0  0.00000000000E+00  0.00000000000E+00  0.26376349672E+04  0.26376349672E+04  0.25500000920E-02 0. -1.
       -2   -1    0    0    0  501  0.00000000000E+00  0.00000000000E+00 -0.15163656574E+04  0.15163656574E+04  0.25500000920E-02 0.  1.
    10030    2    1    2    0    0  0.00000000000E+00  0.00000000000E+00  0.11212693097E+04  0.41540006246E+04  0.39998095360E+04 0.  0.
        1    1    3    3  502    0  0.17246996492E+04  0.42998423594E+03  0.15125625392E+04  0.23339496048E+04  0.50400001928E-02 0. -1.
       -1    1    3    3    0  502 -0.17246996492E+04 -0.42998423594E+03 -0.39129322946E+03  0.18200510197E+04  0.50400001928E-02 0.  1.
</event>
<event>
 5   0  0.5846812E-08  0.4003354E+04  0.7818609E-02  0.8003870E-01
       -2   -1    0    0    0  501  0.00000000000E+00  0.00000000000E+00  0.24525270890E+04  0.24525270890E+04  0.25500000920E-02 0. -1.
        2   -1    0    0  501    0  0.00000000000E+00  0.00000000000E+00 -0.16337074172E+04  0.16337074172E+04  0.25500000920E-02 0.  1.
    10030    2    1    2    0    0  0.00000000000E+00  0.00000000000E+00  0.81881967181E+03  0.40862345062E+04  0.40033544416E+04 0.  0.
        4    1    3    3  502    0 -0.16869755822E+04  0.97506856304E+03  0.87722667615E+03  0.21368606815E+04  0.12699999809E+01 0. -1.
       -4    1    3    3    0  502  0.16869755822E+04 -0.97506856304E+03 -0.58407004337E+02  0.19493738248E+04  0.12699999809E+01 0.  1.
</event>
<event>
 5   0  0.5945387E-08  0.4022504E+04  0.7818609E-02  0.8000022E-01
        2   -1    0    0  501    0  0.00000000000E+00  0.00000000000E+00  0.15040104623E+04  0.15040104623E+04  0.25500000920E-02 0.  1.
       -2   -1    0    0    0  501  0.00000000000E+00  0.00000000000E+00 -0.26895660528E+04  0.26895660528E+04  0.25500000920E-02 0. -1.
    10030    2    1    2    0    0  0.00000000000E+00  0.00000000000E+00 -0.11855555905E+04  0.41935765151E+04  0.40225044350E+04 0.  0.
        3    1    3    3  502    0 -0.15621819980E+04 -0.80670193356E+03 -0.16110220165E+04  0.23846535498E+04  0.10100000352E+00 0. -1.
       -3    1    3    3    0  502  0.15621819980E+04  0.80670193356E+03  0.42546642600E+03  0.18089229653E+04  0.10100000352E+00 0.  1.
</event>
<event>
 5   0  0.1879500E-08  0.4131169E+04  0.7818609E-02  0.7978596E-01
       -1   -1    0    0    0  501  0.00000000000E+00  0.00000000000E+00  0.29314287757E+04  0.29314287757E+04  0.50400001928E-02 0. -1.
        1   -1    0    0  501    0  0.00000000000E+00  0.00000000000E+00 -0.14554812194E+04  0.14554812194E+04  0.50400001928E-02 0.  1.
    10030    2    1    2    0    0  0.00000000000E+00  0.00000000000E+00  0.14759475564E+04  0.43869099951E+04  0.41311690979E+04 0.  0.
        3    1    3    3  502    0 -0.10364030503E+02 -0.16449992865E+04 -0.58856195798E+03  0.17471506101E+04  0.10100000352E+00 0.  1.
       -3    1    3    3    0  502  0.10364030503E+02  0.16449992865E+04  0.20645095143E+04  0.26397593850E+04  0.10100000352E+00 0. -1.
</event>
<event>
 5   0  0.5951623E-08  0.3997081E+04  0.7818609E-02  0.8005136E-01
        2   -1    0    0  501    0  0.00000000000E+00  0.00000000000E+00  0.26806370803E+04  0.26806370803E+04  0.25500000920E-02 0. -1.
       -2   -1    0    0    0  501  0.00000000000E+00  0.00000000000E+00 -0.14900058457E+04  0.14900058457E+04  0.25500000920E-02 0.  1.
    10030    2    1    2    0    0  0.00000000000E+00  0.00000000000E+00  0.11906312346E+04  0.41706429259E+04  0.39970813951E+04 0.  0.
        2    1    3    3  502    0 -0.19903868960E+04 -0.54199076431E+02  0.41583675759E+03  0.20340840063E+04  0.25500000920E-02 0.  1.
       -2    1    3    3    0  502  0.19903868960E+04  0.54199076431E+02  0.77479447702E+03  0.21365589197E+04  0.25500000920E-02 0. -1.
</event>
<event>
 5   0  0.1879500E-08  0.3998636E+04  0.7818609E-02  0.8004822E-01
       -1   -1    0    0    0  501  0.00000000000E+00  0.00000000000E+00  0.11746081244E+04  0.11746081244E+04  0.50400001928E-02 0. -1.
        1   -1    0    0  501    0  0.00000000000E+00  0.00000000000E+00 -0.34030685628E+04  0.34030685628E+04  0.50400001928E-02 0.  1.
    10030    2    1    2    0    0  0.00000000000E+00  0.00000000000E+00 -0.22284604384E+04  0.45776766873E+04  0.39986357583E+04 0.  0.
        1    1    3    3  502    0 -0.17477184561E+04 -0.96113011603E+03 -0.12719527476E+04  0.23656193045E+04  0.50400001928E-02 0.  1.
       -1    1    3    3    0  502  0.17477184561E+04  0.96113011603E+03 -0.95650769090E+03  0.22120573828E+04  0.50400001928E-02 0. -1.
</event>
<event>
 5   0  0.1879500E-08  0.3997628E+04  0.7818609E-02  0.8005025E-01
       -1   -1    0    0    0  501  0.00000000000E+00  0.00000000000E+00  0.24377679137E+04  0.24377679137E+04  0.50400001928E-02 0. -1.
        1   -1    0    0  501    0  0.00000000000E+00  0.00000000000E+00 -0.16388999834E+04  0.16388999834E+04  0.50400001928E-02 0.  1.
    10030    2    1    2    0    0  0.00000000000E+00  0.00000000000E+00  0.79886793024E+03  0.40766678971E+04  0.39976281935E+04 0.  0.
        2    1    3    3  502    0  0.28991656472E+03 -0.15291906481E+04 -0.87946789362E+03  0.17877190575E+04  0.25500000920E-02 0.  1.
       -2    1    3    3    0  502 -0.28991656472E+03  0.15291906481E+04  0.16783358239E+04  0.22889488396E+04  0.25500000920E-02 0. -1.
</event>
<event>
 5   0  0.5888700E-08  0.4008371E+04  0.7818609E-02  0.8002860E-01
        2   -1    0    0  501    0  0.00000000000E+00  0.00000000000E+00  0.17960889337E+04  0.17960889337E+04  0.25500000920E-02 0.  1.
       -2   -1    0    0    0  501  0.00000000000E+00  0.00000000000E+00 -0.22363920393E+04  0.22363920393E+04  0.25500000920E-02 0. -1.
    10030    2    1    2    0    0  0.00000000000E+00  0.00000000000E+00 -0.44030310565E+03  0.40324809730E+04  0.40083707379E+04 0.  0.
        5    1    3    3  502    0  0.16727818926E+04  0.46189743535E+03  0.78846984720E+03  0.19061099892E+04  0.46999998093E+01 0.  1.
       -5    1    3    3    0  502 -0.16727818926E+04 -0.46189743535E+03 -0.12287729528E+04  0.21263709838E+04  0.46999998093E+01 0. -1.
</event>
<event>
 5   0  0.1879500E-08  0.3919647E+04  0.7818609E-02  0.8020955E-01
        1   -1    0    0  501    0  0.00000000000E+00  0.00000000000E+00  0.30999704991E+04  0.30999704991E+04  0.50400001928E-02 0. -1.
       -1   -1    0    0    0  501  0.00000000000E+00  0.00000000000E+00 -0.12390141176E+04  0.12390141176E+04  0.50400001928E-02 0.  1.
    10030    2    1    2    0    0  0.00000000000E+00  0.00000000000E+00  0.18609563815E+04  0.43389846167E+04  0.39196465211E+04 0.  0.
        1    1    3    3  502    0 -0.25037488212E+03  0.13958882579E+04  0.24278615506E+04  0.28117082563E+04  0.50400001928E-02 0. -1.
       -1    1    3    3    0  502  0.25037488212E+03 -0.13958882579E+04 -0.56690516908E+03  0.15272763603E+04  0.50400001928E-02 0.  1.
</event>
<event>
 5   0  0.5846812E-08  0.3977212E+04  0.7818609E-02  0.8009159E-01
        2   -1    0    0  501    0  0.00000000000E+00  0.00000000000E+00  0.23109363286E+04  0.23109363286E+04  0.25500000920E-02 0. -1.
       -2   -1    0    0    0  501  0.00000000000E+00  0.00000000000E+00 -0.17112345955E+04  0.17112345955E+04  0.25500000920E-02 0.  1.
    10030    2    1    2    0    0  0.00000000000E+00  0.00000000000E+00  0.59970173316E+03  0.40221709241E+04  0.39772121862E+04 0.  0.
        4    1    3    3  502    0 -0.78779081619E+03  0.51662104883E+03 -0.14712428598E+04  0.17470171275E+04  0.12699999809E+01 0.  1.
       -4    1    3    3    0  502  0.78779081619E+03 -0.51662104883E+03  0.20709445930E+04  0.22751537966E+04  0.12699999809E+01 0. -1.
</event>
<event>
 5   0  0.5945387E-08  0.3982173E+04  0.7818609E-02  0.8008152E-01
        2   -1    0    0  501    0  0.00000000000E+00  0.00000000000E+00  0.18373343595E+04  0.18373343595E+04  0.25500000920E-02 0. -1.
       -2   -1    0    0    0  501  0.00000000000E+00  0.00000000000E+00 -0.21577054259E+04  0.21577054259E+04  0.25500000920E-02 0.  1.
    10030    2    1    2    0    0  0.00000000000E+00  0.00000000000E+00 -0.32037106637E+03  0.39950397854E+04  0.39821734351E+04 0.  0.
        3    1    3    3  502    0  0.54506621902E+03  0.24543344394E+03 -0.20655563986E+04  0.21503157918E+04  0.10100000352E+00 0.  1.
       -3    1    3    3    0  502 -0.54506621902E+03 -0.24543344394E+03  0.17451853322E+04  0.18447239936E+04  0.10100000352E+00 0. -1.
</event>
<event>
 5   0  0.5945387E-08  0.4001512E+04  0.7818609E-02  0.8004242E-01
       -2   -1    0    0    0  501  0.00000000000E+00  0.00000000000E+00  0.23811069503E+04  0.23811069503E+04  0.25500000920E-02 0. -1.
        2   -1    0    0  501    0  0.00000000000E+00  0.00000000000E+00 -0.16811609641E+04  0.16811609641E+04  0.25500000920E-02 0.  1.
    10030    2    1    2    0    0  0.00000000000E+00  0.00000000000E+00  0.69994598615E+03  0.40622679144E+04  0.40015117424E+04 0.  0.
        3    1    3    3  502    0 -0.53552957838E+03  0.99025546842E+03 -0.13291126415E+04  0.17418203828E+04  0.10100000352E+00 0.  1.
       -3    1    3    3    0  502  0.53552957838E+03 -0.99025546842E+03  0.20290586277E+04  0.23204475316E+04  0.10100000352E+00 0. -1.
</event>
<event>
 5   0  0.1879500E-08  0.4000590E+04  0.7818609E-02  0.8004427E-01
       -1   -1    0    0    0  501  0.00000000000E+00  0.00000000000E+00  0.27597239839E+04  0.27597239839E+04  0.50400001928E-02 0.  1.
        1   -1    0    0  501    0  0.00000000000E+00  0.00000000000E+00 -0.14498481893E+04  0.14498481893E+04  0.50400001928E-02 0. -1.
    10030    2    1    2    0    0  0.00000000000E+00  0.00000000000E+00  0.13098757946E+04  0.42095721733E+04  0.40005903670E+04 0.  0.
        5    1    3    3  502    0 -0.19451667894E+03  0.19636724318E+04  0.99963622755E+03  0.22120444922E+04  0.46999998093E+01 0. -1.
       -5    1    3    3    0  502  0.19451667894E+03 -0.19636724318E+04  0.31023956705E+03  0.19975276811E+04  0.46999998093E+01 0.  1.
</event>
<event>
 5   0  0.5951623E-08  0.3993203E+04  0.7818609E-02  0.8005919E-01
       -2   -1    0    0    0  501  0.00000000000E+00  0.00000000000E+00  0.26543693630E+04  0.26543693630E+04  0.25500000920E-02 0. -1.
        2   -1    0    0  501    0  0.00000000000E+00  0.00000000000E+00 -0.15018320754E+04  0.15018320754E+04  0.25500000920E-02 0.  1.
    10030    2    1    2    0    0  0.00000000000E+00  0.00000000000E+00  0.11525372877E+04  0.41562014384E+04  0.39932027493E+04 0.  0.
        2    1    3    3  502    0 -0.17610021047E+04  0.93346747010E+03  0.69909904431E+03  0.21121622580E+04  0.25500000920E-02 0. -1.
       -2    1    3    3    0  502  0.17610021047E+04 -0.93346747010E+03  0.45343824336E+03  0.20440391804E+04  0.25500000920E-02 0.  1.
</event>
<event>
 5   0  0.5846812E-08  0.4000313E+04  0.7818609E-02  0.8004483E-01
        2   -1    0    0  501    0  0.00000000000E+00  0.00000000000E+00  0.13532316954E+04  0.13532316954E+04  0.25500000920E-02 0. -1.
       -2   -1    0    0    0  501  0.00000000000E+00  0.00000000000E+00 -0.29563502785E+04  0.29563502785E+04  0.25500000920E-02 0.  1.
    10030    2    1    2    0    0  0.00000000000E+00  0.00000000000E+00 -0.16031185831E+04  0.43095819740E+04  0.40003134376E+04 0.  0.
        4    1    3    3  502    0 -0.44595052628E+02 -0.92075049175E+03  0.11107376951E+04  0.14434368802E+04  0.12699999809E+01 0. -1.
       -4    1    3    3    0  502  0.44595052628E+02  0.92075049175E+03 -0.27138562782E+04  0.28661450938E+04  0.12699999809E+01 0.  1.
</event>
<event>
 5   0  0.5846812E-08  0.4006623E+04  0.7818609E-02  0.8003212E-01
        2   -1    0    0  501    0  0.00000000000E+00  0.00000000000E+00  0.14838239517E+04  0.14838239517E+04  0.25500000920E-02 0. -1.
       -2   -1    0    0    0  501  0.00000000000E+00  0.00000000000E+00 -0.27046716707E+04  0.27046716707E+04  0.25500000920E-02 0.  1.
    10030    2    1    2    0    0  0.00000000000E+00  0.00000000000E+00 -0.12208477191E+04  0.41884956224E+04  0.40066228205E+04 0.  0.
        4    1    3    3  502    0  0.27071764081E+03 -0.42415127608E+03 -0.26375330658E+04  0.26851023504E+04  0.12699999809E+01 0.  1.
       -4    1    3    3    0  502 -0.27071764081E+03  0.42415127608E+03  0.14166853467E+04  0.15033932721E+04  0.12699999809E+01 0. -1.
</event>
<event>
 5   0  0.1879500E-08  0.3994268E+04  0.7818609E-02  0.8005704E-01
       -1   -1    0    0    0  501  0.00000000000E+00  0.00000000000E+00  0.30647114334E+04  0.30647114334E+04  0.50400001928E-02 0.  1.
        1   -1    0    0  501    0  0.00000000000E+00  0.00000000000E+00 -0.13014417428E+04  0.13014417428E+04  0.50400001928E-02 0. -1.
    10030    2    1    2    0    0  0.00000000000E+00  0.00000000000E+00  0.17632696906E+04  0.43661531763E+04  0.39942675870E+04 0.  0.
        4    1    3    3  502    0  0.14793264056E+03  0.11987499182E+04  0.26202064198E+04  0.28851982129E+04  0.12699999809E+01 0.  1.
       -4    1    3    3    0  502 -0.14793264056E+03 -0.11987499182E+04 -0.85693672926E+03  0.14809549633E+04  0.12699999809E+01 0. -1.
</event>
<event>
 5   0  0.1879500E-08  0.3992473E+04  0.7818609E-02  0.8006067E-01
        1   -1    0    0  501    0  0.00000000000E+00  0.00000000000E+00  0.21959057118E+04  0.21959057118E+04  0.50400001928E-02 0.  1.
       -1   -1    0    0    0  501  0.00000000000E+00  0.00000000000E+00 -0.18147230336E+04  0.18147230336E+04  0.50400001928E-02 0. -1.
    10030    2    1    2    0    0  0.00000000000E+00  0.00000000000E+00  0.38118267826E+03  0.40106287454E+04  0.39924732559E+04 0.  0.
        5    1    3    3  502    0 -0.57225538223E+03  0.11291307138E+04 -0.13599712041E+04  0.18579440673E+04  0.46999998093E+01 0. -1.
       -5    1    3    3    0  502  0.57225538223E+03 -0.11291307138E+04  0.17411538824E+04  0.21526846781E+04  0.46999998093E+01 0.  1.
</event>
<event>
 5   0  0.1879500E-08  0.3988394E+04  0.7818609E-02  0.8006892E-01
       -1   -1    0    0    0  501  0.00000000000E+00  0.00000000000E+00  0.16218907460E+04  0.16218907460E+04  0.50400001928E-02 0.  1.
        1   -1    0    0  501    0  0.00000000000E+00  0.00000000000E+00 -0.24519667534E+04  0.24519667534E+04  0.50400001928E-02 0. -1.
    10030    2    1    2    0    0  0.00000000000E+00  0.00000000000E+00 -0.83007600739E+03  0.40738574994E+04  0.39883942568E+04 0.  0.
        1    1    3    3  502    0 -0.47625421530E+03  0.43912456661E+03  0.15114232972E+04  0.16443992356E+04  0.50400001928E-02 0.  1.
       -1    1    3    3    0  502  0.47625421530E+03 -0.43912456661E+03 -0.23414993046E+04  0.24294582639E+04  0.50400001928E-02 0. -1.
</event>
<event>
 5   0  0.1879500E-08  0.3818397E+04  0.7818609E-02  0.8042218E-01
        1   -1    0    0  501    0  0.00000000000E+00  0.00000000000E+00  0.21888757067E+04  0.21888757067E+04  0.50400001928E-02 0. -1.
       -1   -1    0    0    0  501  0.00000000000E+00  0.00000000000E+00 -0.16652565762E+04  0.16652565762E+04  0.50400001928E-02 0.  1.
    10030    2    1    2    0    0  0.00000000000E+00  0.00000000000E+00  0.52361913049E+03  0.38541322829E+04  0.38183973942E+04 0.  0.
        4    1    3    3  502    0 -0.11328655653E+04 -0.99807139732E+02 -0.12860648817E+04  0.17167732370E+04  0.12699999809E+01 0.  1.
       -4    1    3    3    0  502  0.11328655653E+04  0.99807139732E+02  0.18096840122E+04  0.21373590459E+04  0.12699999809E+01 0. -1.
</event>
<event>
 5   0  0.1879500E-08  0.4005606E+04  0.7818609E-02  0.8003417E-01
       -1   -1    0    0    0  501  0.00000000000E+00  0.00000000000E+00  0.17595759884E+04  0.17595759884E+04  0.50400001928E-02 0. -1.
        1   -1    0    0  501    0  0.00000000000E+00  0.00000000000E+00 -0.22796513704E+04  0.22796513704E+04  0.50400001928E-02 0.  1.
    10030    2    1    2    0    0  0.00000000000E+00  0.00000000000E+00 -0.52007538203E+03  0.40392273589E+04  0.40056059783E+04 0.  0.
        1    1    3    3  502    0  0.14860289230E+04 -0.67381013530E+03 -0.14312154280E+04  0.21704100211E+04  0.50400001928E-02 0.  1.
       -1    1    3    3    0  502 -0.14860289230E+04  0.67381013530E+03  0.91114004600E+03  0.18688173377E+04  0.50400001928E-02 0. -1.
</event>
<event>
 5   0  0.5951623E-08  0.4006912E+04  0.7818609E-02  0.8003154E-01
       -2   -1    0    0    0  501  0.00000000000E+00  0.00000000000E+00  0.22025503600E+04  0.22025503600E+04  0.25500000920E-02 0.  1.
        2   -1    0    0  501    0  0.00000000000E+00  0.00000000000E+00 -0.18223584936E+04  0.18223584936E+04  0.25500000920E-02 0. -1.
    10030    2    1    2    0    0  0.00000000000E+00  0.00000000000E+00  0.38019186638E+03  0.40249088536E+04  0.40069122057E+04 0.  0.
        2    1    3    3  502    0  0.19042314272E+04  0.25619999400E+03 -0.37999217771E+03  0.19586040489E+04  0.25500000920E-02 0. -1.
       -2    1    3    3    0  502 -0.19042314272E+04 -0.25619999400E+03  0.76018404408E+03  0.20663048047E+04  0.25500000920E-02 0.  1.
</event>
<event>
 5   0  0.1879500E-08  0.4013207E+04  0.7818609E-02  0.8001888E-01
        1   -1    0    0  501    0  0.00000000000E+00  0.00000000000E+00  0.19622933290E+04  0.19622933290E+04  0.50400001928E-02 0.  1.
       -1   -1    0    0    0  501  0.00000000000E+00  0.00000000000E+00 -0.20519138058E+04  0.20519138058E+04  0.50400001928E-02 0. -1.
    10030    2    1    2    0    0  0.00000000000E+00  0.00000000000E+00 -0.89620476754E+02  0.40142071348E+04  0.40132065847E+04 0.  0.
        4    1    3    3  502    0  0.72832266442E+03  0.54111412757E+03  0.17453836513E+04  0.19671360160E+04  0.12699999809E+01 0.  1.
       -4    1    3    3    0  502 -0.72832266442E+03 -0.54111412757E+03 -0.18350041280E+04  0.20470711188E+04  0.12699999809E+01 0. -1.
</event>
<event>
 5   0  0.5951623E-08  0.3999696E+04  0.7818609E-02  0.8004608E-01
        2   -1    0    0  501    0  0.00000000000E+00  0.00000000000E+00  0.18993275613E+04  0.18993275613E+04  0.25500000920E-02 0.  1.
       -2   -1    0    0    0  501  0.00000000000E+00  0.00000000000E+00 -0.21056884932E+04  0.21056884932E+04  0.25500000920E-02 0. -1.
    10030    2    1    2    0    0  0.00000000000E+00  0.00000000000E+00 -0.20636093187E+03  0.40050160544E+04  0.39996960837E+04 0.  0.
        2    1    3    3  502    0 -0.10230692546E+04 -0.13883343929E+04  0.91071216796E+03  0.19502665815E+04  0.25500000920E-02 0.  1.
       -2    1    3    3    0  502  0.10230692546E+04  0.13883343929E+04 -0.11170730998E+04  0.20547494729E+04  0.25500000920E-02 0. -1.
</event>
<event>
 5   0  0.1879500E-08  0.3914349E+04  0.7818609E-02  0.8022051E-01
        1   -1    0    0  501    0  0.00000000000E+00  0.00000000000E+00  0.16490561739E+04  0.16490561739E+04  0.50400001928E-02 0. -1.
       -1   -1    0    0    0  501  0.00000000000E+00  0.00000000000E+00 -0.23228634488E+04  0.23228634488E+04  0.50400001928E-02 0.  1.
    10030    2    1    2    0    0  0.00000000000E+00  0.00000000000E+00 -0.67380727497E+03  0.39719196227E+04  0.39143491471E+04 0.  0.
        1    1    3    3  502    0 -0.39311733399E+03  0.15347536695E+04  0.82913717605E+03  0.17881494683E+04  0.50400001928E-02 0. -1.
       -1    1    3    3    0  502  0.39311733399E+03 -0.15347536695E+04 -0.15029444510E+04  0.21837701544E+04  0.50400001928E-02 0.  1.
</event>
<event>
 5   0  0.1879500E-08  0.3978060E+04  0.7818609E-02  0.8008987E-01
       -1   -1    0    0    0  501  0.00000000000E+00  0.00000000000E+00  0.25789652006E+04  0.25789652006E+04  0.50400001928E-02 0.  1.
        1   -1    0    0  501    0  0.00000000000E+00  0.00000000000E+00 -0.15340414870E+04  0.15340414870E+04  0.50400001928E-02 0. -1.
    10030    2    1    2    0    0  0.00000000000E+00  0.00000000000E+00  0.10449237136E+04  0.41130066876E+04  0.39780596332E+04 0.  0.
        5    1    3    3  502    0 -0.13875645527E+04  0.21408391158E+03 -0.93425073717E+03  0.16864204218E+04  0.46999998093E+01 0. -1.
       -5    1    3    3    0  502  0.13875645527E+04 -0.21408391158E+03  0.19791744507E+04  0.24265862658E+04  0.46999998093E+01 0.  1.
</event>
<event>
 5   0  0.5951623E-08  0.3971695E+04  0.7818609E-02  0.8010281E-01
        2   -1    0    0  501    0  0.00000000000E+00  0.00000000000E+00  0.25160309080E+04  0.25160309081E+04  0.25500000920E-02 0. -1.
       -2   -1    0    0    0  501  0.00000000000E+00  0.00000000000E+00 -0.15673858353E+04  0.15673858353E+04  0.25500000920E-02 0.  1.
    10030    2    1    2    0    0  0.00000000000E+00  0.00000000000E+00  0.94864507277E+03  0.40834167433E+04  0.39716954598E+04 0.  0.
        2    1    3    3  502    0  0.24331318164E+03  0.91737093392E+03  0.22677587276E+04  0.24583531848E+04  0.25500000920E-02 0. -1.
       -2    1    3    3    0  502 -0.24331318164E+03 -0.91737093392E+03 -0.13191136548E+04  0.16250635585E+04  0.25500000920E-02 0.  1.
</event>
<event>
 5   0  0.6161563E-08  0.3798389E+04  0.7818609E-02  0.8046501E-01
        2   -1    0    0  501    0  0.00000000000E+00  0.00000000000E+00  0.19419800565E+04  0.19419800565E+04  0.25500000920E-02 0.  1.
       -2   -1    0    0    0  501  0.00000000000E+00  0.00000000000E+00 -0.18573514929E+04  0.18573514929E+04  0.25500000920E-02 0. -1.
    10030    2    1    2    0    0  0.00000000000E+00  0.00000000000E+00  0.84628563638E+02  0.37993315494E+04  0.37983888991E+04 0.  0.
        1    1    3    3  502    0  0.46122290498E+03 -0.17901475996E+04 -0.39320686696E+03  0.18899647184E+04  0.50400001928E-02 0. -1.
       -1    1    3    3    0  502 -0.46122290498E+03  0.17901475996E+04  0.47783543059E+03  0.19093668310E+04  0.50400001928E-02 0.  1.
</event>
<event>
 5   0  0.5888700E-08  0.3991734E+04  0.7818609E-02  0.8006216E-01
       -2   -1    0    0    0  501  0.00000000000E+00  0.00000000000E+00  0.20080274188E+04  0.20080274189E+04  0.25500000920E-02 0. -1.
        2   -1    0    0  501    0  0.00000000000E+00  0.00000000000E+00 -0.19837799123E+04  0.19837799123E+04  0.25500000920E-02 0.  1.
    10030    2    1    2    0    0  0.00000000000E+00  0.00000000000E+00  0.24247506570E+02  0.39918073311E+04  0.39917336869E+04 0.  0.
        5    1    3    3  502    0  0.14612257396E+03  0.10332079120E+03 -0.19757346866E+04  0.19838287815E+04  0.46999998093E+01 0.  1.
       -5    1    3    3    0  502 -0.14612257396E+03 -0.10332079120E+03  0.19999821932E+04  0.20079785496E+04  0.46999998093E+01 0. -1.
</event>
<event>
 5   0  0.1879500E-08  0.4095531E+04  0.7818609E-02  0.7985547E-01
        1   -1    0    0  501    0  0.00000000000E+00  0.00000000000E+00  0.18668490868E+04  0.18668490868E+04  0.50400001928E-02 0. -1.
       -1   -1    0    0    0  501  0.00000000000E+00  0.00000000000E+00 -0.22462143637E+04  0.22462143637E+04  0.50400001928E-02 0.  1.
    10030    2    1    2    0    0  0.00000000000E+00  0.00000000000E+00 -0.37936527691E+03  0.41130634506E+04  0.40955308490E+04 0.  0.
        4    1    3    3  502    0  0.90895655252E+03 -0.88900336121E+03  0.14224346224E+04  0.19078393167E+04  0.12699999809E+01 0. -1.
       -4    1    3    3    0  502 -0.90895655252E+03  0.88900336121E+03 -0.18017998993E+04  0.22052241338E+04  0.12699999809E+01 0.  1.
</event>
<event>
 5   0  0.1879500E-08  0.3988841E+04  0.7818609E-02  0.8006801E-01
        1   -1    0    0  501    0  0.00000000000E+00  0.00000000000E+00  0.13480839812E+04  0.13480839812E+04  0.50400001928E-02 0. -1.
       -1   -1    0    0    0  501  0.00000000000E+00  0.00000000000E+00 -0.29506417185E+04  0.29506417185E+04  0.50400001928E-02 0.  1.
    10030    2    1    2    0    0  0.00000000000E+00  0.00000000000E+00 -0.16025577374E+04  0.42987256997E+04  0.39888408516E+04 0.  0.
        1    1    3    3  502    0  0.22415426280E+03  0.11080024634E+04 -0.25720346971E+04  0.28094976554E+04  0.50400001928E-02 0.  1.
       -1    1    3    3    0  502 -0.22415426280E+03 -0.11080024634E+04  0.96947695977E+03  0.14892280443E+04  0.50400001928E-02 0. -1.
</event>
<event>
 5   0  0.1879500E-08  0.3997245E+04  0.7818609E-02  0.8005103E-01
        1   -1    0    0  501    0  0.00000000000E+00  0.00000000000E+00  0.12115233635E+04  0.12115233635E+04  0.50400001928E-02 0. -1.
       -1   -1    0    0    0  501  0.00000000000E+00  0.00000000000E+00 -0.32970824380E+04  0.32970824380E+04  0.50400001928E-02 0.  1.
    10030    2    1    2    0    0  0.00000000000E+00  0.00000000000E+00 -0.20855590745E+04  0.45086058014E+04  0.39972452538E+04 0.  0.
        5    1    3    3  502    0 -0.36837767187E+03 -0.70523698551E+03  0.10251805351E+04  0.12977205148E+04  0.46999998093E+01 0. -1.
       -5    1    3    3    0  502  0.36837767187E+03  0.70523698551E+03 -0.31107396097E+04  0.32108852866E+04  0.46999998093E+01 0.  1.
</event>
<event>
 5   0  0.5945387E-08  0.3987861E+04  0.7818609E-02  0.8007000E-01
        2   -1    0    0  501    0  0.00000000000E+00  0.00000000000E+00  0.15597484845E+04  0.15597484845E+04  0.25500000920E-02 0.  1.
       -2   -1    0    0    0  501  0.00000000000E+00  0.00000000000E+00 -0.25489741252E+04  0.25489741252E+04  0.25500000920E-02 0. -1.
    10030    2    1    2    0    0  0.00000000000E+00  0.00000000000E+00 -0.98922564068E+03  0.41087226097E+04  0.39878608445E+04 0.  0.
        3    1    3    3  502    0 -0.74946349648E+03 -0.14641645241E+04  0.66661505155E+03  0.17747813734E+04  0.10100000352E+00 0.  1.
       -3    1    3    3    0  502  0.74946349648E+03  0.14641645241E+04 -0.16558406922E+04  0.23339412363E+04  0.10100000352E+00 0. -1.
</event>
<event>
 5   0  0.5951623E-08  0.3997860E+04  0.7818609E-02  0.8004978E-01
       -2   -1    0    0    0  501  0.00000000000E+00  0.00000000000E+00  0.15907934402E+04  0.15907934402E+04  0.25500000920E-02 0. -1.
        2   -1    0    0  501    0  0.00000000000E+00  0.00000000000E+00 -0.25117785594E+04  0.25117785594E+04  0.25500000920E-02 0.  1.
    10030    2    1    2    0    0  0.00000000000E+00  0.00000000000E+00 -0.92098511919E+03  0.41025719997E+04  0.39978598553E+04 0.  0.
        2    1    3    3  502    0 -0.92993198581E+02  0.44796258704E+03  0.15363418089E+04  0.16030172701E+04  0.25500000920E-02 0. -1.
       -2    1    3    3    0  502  0.92993198581E+02 -0.44796258704E+03 -0.24573269281E+04  0.24995547296E+04  0.25500000920E-02 0.  1.
</event>
<event>
 5   0  0.1879500E-08  0.3907222E+04  0.7818609E-02  0.8023529E-01
        1   -1    0    0  501    0  0.00000000000E+00  0.00000000000E+00  0.15812136449E+04  0.15812136449E+04  0.50400001928E-02 0.  1.
       -1   -1    0    0    0  501  0.00000000000E+00  0.00000000000E+00 -0.24137124583E+04  0.24137124583E+04  0.50400001928E-02 0. -1.
    10030    2    1    2    0    0  0.00000000000E+00  0.00000000000E+00 -0.83249881340E+03  0.39949261032E+04  0.39072215570E+04 0.  0.
        2    1    3    3  502    0 -0.92964219528E+03  0.17126270776E+04 -0.27432084555E+03  0.19678866951E+04  0.25500000920E-02 0.  1.
       -2    1    3    3    0  502  0.92964219528E+03 -0.17126270776E+04 -0.55817796785E+03  0.20270394081E+04  0.25500000920E-02 0. -1.
</event>
<event>
 5   0  0.1879500E-08  0.3979581E+04  0.7818609E-02  0.8008678E-01
        1   -1    0    0  501    0  0.00000000000E+00  0.00000000000E+00  0.22655489073E+04  0.22655489073E+04  0.50400001928E-02 0.  1.
       -1   -1    0    0    0  501  0.00000000000E+00  0.00000000000E+00 -0.17475971798E+04  0.17475971798E+04  0.50400001928E-02 0. -1.
    10030    2    1    2    0    0  0.00000000000E+00  0.00000000000E+00  0.51795172750E+03  0.40131460871E+04  0.39795813253E+04 0.  0.
        2    1    3    3  502    0  0.93963020354E+03  0.13522988999E+04 -0.86742742324E+03  0.18611951989E+04  0.25500000920E-02 0. -1.
       -2    1    3    3    0  502 -0.93963020354E+03 -0.13522988999E+04  0.13853791507E+04  0.21519508882E+04  0.25500000920E-02 0.  1.
</event>
<event>
 5   0  0.5846812E-08  0.4008848E+04  0.7818609E-02  0.8002764E-01
       -2   -1    0    0    0  501  0.00000000000E+00  0.00000000000E+00  0.13236137380E+04  0.13236137380E+04  0.25500000920E-02 0. -1.
        2   -1    0    0  501    0  0.00000000000E+00  0.00000000000E+00 -0.30354145779E+04  0.30354145779E+04  0.25500000920E-02 0.  1.
    10030    2    1    2    0    0  0.00000000000E+00  0.00000000000E+00 -0.17118008400E+04  0.43590283159E+04  0.40088484311E+04 0.  0.
        4    1    3    3  502    0  0.83678615896E+03  0.15450331860E+04  0.19291569120E+03  0.17676415639E+04  0.12699999809E+01 0. -1.
       -4    1    3    3    0  502 -0.83678615896E+03 -0.15450331860E+04 -0.19047165312E+04  0.25913867520E+04  0.12699999809E+01 0.  1.
</event>
<event>
 5   0  0.1879500E-08  0.3998800E+04  0.7818609E-02  0.8004789E-01
        1   -1    0    0  501    0  0.00000000000E+00  0.00000000000E+00  0.22447333515E+04  0.22447333515E+04  0.50400001928E-02 0.  1.
       -1   -1    0    0    0  501  0.00000000000E+00  0.00000000000E+00 -0.17808794899E+04  0.17808794899E+04  0.50400001928E-02 0. -1.
    10030    2    1    2    0    0  0.00000000000E+00  0.00000000000E+00  0.46385386156E+03  0.40256128414E+04  0.39987996129E+04 0.  0.
        3    1    3    3  502    0  0.23536713576E+03 -0.19403539021E+04  0.65573507034E+03  0.20616399896E+04  0.10100000352E+00 0.  1.
       -3    1    3    3    0  502 -0.23536713576E+03  0.19403539021E+04 -0.19188120878E+03  0.19639728518E+04  0.10100000352E+00 0. -1.
</event>
<event>
 5   0  0.6161563E-08  0.4007478E+04  0.7818609E-02  0.8003040E-01
        2   -1    0    0  501    0  0.00000000000E+00  0.00000000000E+00  0.14582873904E+04  0.14582873904E+04  0.25500000920E-02 0. -1.
       -2   -1    0    0    0  501  0.00000000000E+00  0.00000000000E+00 -0.27532092117E+04  0.27532092117E+04  0.25500000920E-02 0.  1.
    10030    2    1    2    0    0  0.00000000000E+00  0.00000000000E+00 -0.12949218212E+04  0.42114966021E+04  0.40074781480E+04 0.  0.
        1    1    3    3  502    0  0.48092070226E+03 -0.18505826298E+03 -0.26823860524E+04  0.27314329969E+04  0.50400001928E-02 0.  1.
       -1    1    3    3    0  502 -0.48092070226E+03  0.18505826298E+03  0.13874642312E+04  0.14800636052E+04  0.50400001928E-02 0. -1.
</event>
<event>
 5   0  0.1879500E-08  0.3962889E+04  0.7818609E-02  0.8012075E-01
        1   -1    0    0  501    0  0.00000000000E+00  0.00000000000E+00  0.33199777476E+04  0.33199777476E+04  0.50400001928E-02 0. -1.
       -1   -1    0    0    0  501  0.00000000000E+00  0.00000000000E+00 -0.11825750989E+04  0.11825750989E+04  0.50400001928E-02 0.  1.
    10030    2    1    2    0    0  0.00000000000E+00  0.00000000000E+00  0.21374026487E+04  0.45025528465E+04  0.39628893566E+04 0.  0.
        2    1    3    3  502    0 -0.37991801181E+03 -0.47850164745E+03 -0.10728750415E+04  0.12346507105E+04  0.25500000920E-02 0.  1.
       -2    1    3    3    0  502  0.37991801181E+03  0.47850164745E+03  0.32102776902E+04  0.32679021360E+04  0.25500000920E-02 0. -1.
</event>
<event>
 5   0  0.1879500E-08  0.3972471E+04  0.7818609E-02  0.8010123E-01
       -1   -1    0    0    0  501  0.00000000000E+00  0.00000000000E+00  0.15637053880E+04  0.15637053880E+04  0.50400001928E-02 0.  1.
        1   -1    0    0  501    0  0.00000000000E+00  0.00000000000E+00 -0.25229382112E+04  0.25229382112E+04  0.50400001928E-02 0. -1.
    10030    2    1    2    0    0  0.00000000000E+00  0.00000000000E+00 -0.95923282321E+03  0.40866435991E+04  0.39724713086E+04 0.  0.
        4    1    3    3  502    0 -0.32797808795E+03  0.77031099672E+03  0.13733117710E+04  0.16083953156E+04  0.12699999809E+01 0.  1.
       -4    1    3    3    0  502  0.32797808795E+03 -0.77031099672E+03 -0.23325445942E+04  0.24782482835E+04  0.12699999809E+01 0. -1.
</event>
<event>
 5   0  0.5846812E-08  0.3989717E+04  0.7818609E-02  0.8006624E-01
       -2   -1    0    0    0  501  0.00000000000E+00  0.00000000000E+00  0.30071552952E+04  0.30071552952E+04  0.25500000920E-02 0. -1.
        2   -1    0    0  501    0  0.00000000000E+00  0.00000000000E+00 -0.13233305585E+04  0.13233305585E+04  0.25500000920E-02 0.  1.
    10030    2    1    2    0    0  0.00000000000E+00  0.00000000000E+00  0.16838247368E+04  0.43304858537E+04  0.39897170307E+04 0.  0.
        4    1    3    3  502    0  0.59224729504E+03 -0.24799296757E+03 -0.12081088275E+04  0.13681322752E+04  0.12699999809E+01 0.  1.
       -4    1    3    3    0  502 -0.59224729504E+03  0.24799296757E+03  0.28919335643E+04  0.29623535785E+04  0.12699999809E+01 0. -1.
</event>
<event>
 5   0  0.5951623E-08  0.3925338E+04  0.7818609E-02  0.8019780E-01
       -2   -1    0    0    0  501  0.00000000000E+00  0.00000000000E+00  0.27882122077E+04  0.27882122077E+04  0.25500000920E-02 0. -1.
        2   -1    0    0  501    0  0.00000000000E+00  0.00000000000E+00 -0.13815555911E+04  0.13815555911E+04  0.25500000920E-02 0.  1.
    10030    2    1    2    0    0  0.00000000000E+00  0.00000000000E+00  0.14066566166E+04  0.41697677988E+04  0.39253382859E+04 0.  0.
        2    1    3    3  502    0  0.16648809116E+04 -0.89647213733E+03  0.12619846244E+04  0.22733446582E+04  0.25500000920E-02 0.  1.
       -2    1    3    3    0  502 -0.16648809116E+04  0.89647213733E+03  0.14467199226E+03  0.18964231406E+04  0.25500000920E-02 0. -1.
</event>
<event>
 5   0  0.1879500E-08  0.4002324E+04  0.7818609E-02  0.8004078E-01
        1   -1    0    0  501    0  0.00000000000E+00  0.00000000000E+00  0.20360083295E+04  0.20360083296E+04  0.50400001928E-02 0.  1.
       -1   -1    0    0    0  501  0.00000000000E+00  0.00000000000E+00 -0.19669119097E+04  0.19669119097E+04  0.50400001928E-02 0. -1.
    10030    2    1    2    0    0  0.00000000000E+00  0.00000000000E+00  0.69096419812E+02  0.40029202393E+04  0.40023238408E+04 0.  0.
        5    1    3    3  502    0  0.12035516512E+04 -0.12565420613E+04  0.10232259448E+04  0.20185261834E+04  0.46999998093E+01 0.  1.
       -5    1    3    3    0  502 -0.12035516512E+04  0.12565420613E+04 -0.95412952502E+03  0.19843940559E+04  0.46999998093E+01 0. -1.
</event>
<event>
 5   0  0.5888700E-08  0.3944015E+04  0.7818609E-02  0.8015937E-01
        2   -1    0    0  501    0  0.00000000000E+00  0.00000000000E+00  0.29780856085E+04  0.29780856085E+04  0.25500000920E-02 0.  1.
       -2   -1    0    0    0  501  0.00000000000E+00  0.00000000000E+00 -0.13058095933E+04  0.13058095933E+04  0.25500000920E-02 0. -1.
    10030    2    1    2    0    0  0.00000000000E+00  0.00000000000E+00  0.16722760152E+04  0.42838952018E+04  0.39440145828E+04 0.  0.
        5    1    3    3  502    0  0.22660943382E+03 -0.19000989919E+04  0.31856313979E+03  0.19399053014E+04  0.46999998093E+01 0.  1.
       -5    1    3    3    0  502 -0.22660943382E+03  0.19000989919E+04  0.13537128754E+04  0.23439899005E+04  0.46999998093E+01 0. -1.
</event>
<event>
 5   0  0.5951623E-08  0.3978120E+04  0.7818609E-02  0.8008975E-01
       -2   -1    0    0    0  501  0.00000000000E+00  0.00000000000E+00  0.17340014925E+04  0.17340014925E+04  0.25500000920E-02 0. -1.
        2   -1    0    0  501    0  0.00000000000E+00  0.00000000000E+00 -0.22816354319E+04  0.22816354319E+04  0.25500000920E-02 0.  1.
    10030    2    1    2    0    0  0.00000000000E+00  0.00000000000E+00 -0.54763393942E+03  0.40156369245E+04  0.39781197792E+04 0.  0.
        2    1    3    3  502    0 -0.14862951483E+04  0.12159276645E+04 -0.79717148443E+03  0.20791911237E+04  0.25500000920E-02 0.  1.
       -2    1    3    3    0  502  0.14862951483E+04 -0.12159276645E+04  0.24953754501E+03  0.19364458008E+04  0.25500000920E-02 0. -1.
</event>
<event>
 5   0  0.5888700E-08  0.4005615E+04  0.7818609E-02  0.8003415E-01
       -2   -1    0    0    0  501  0.00000000000E+00  0.00000000000E+00  0.24402372699E+04  0.24402372699E+04  0.25500000920E-02 0. -1.
        2   -1    0    0  501    0  0.00000000000E+00  0.00000000000E+00 -0.16437903521E+04  0.16437903521E+04  0.25500000920E-02 0.  1.
    10030    2    1    2    0    0  0.00000000000E+00  0.00000000000E+00  0.79644691782E+03  0.40840276220E+04  0.40056152991E+04 0.  0.
        5    1    3    3  502    0  0.16031011394E+03  0.18260863291E+04 -0.42436984281E+03  0.18815957237E+04  0.46999998093E+01 0.  1.
       -5    1    3    3    0  502 -0.16031011394E+03 -0.18260863291E+04  0.12208167606E+04  0.22024318984E+04  0.46999998093E+01 0. -1.
</event>
<event>
 5   0  0.1879500E-08  0.4008705E+04  0.7818609E-02  0.8002793E-01
        1   -1    0    0  501    0  0.00000000000E+00  0.00000000000E+00  0.24988295336E+04  0.24988295337E+04  0.50400001928E-02 0.  1.
       -1   -1    0    0    0  501  0.00000000000E+00  0.00000000000E+00 -0.16077246679E+04  0.16077246679E+04  0.50400001928E-02 0. -1.
    10030    2    1    2    0    0  0.00000000000E+00  0.00000000000E+00  0.89110486577E+03  0.41065542015E+04  0.40087054679E+04 0.  0.
        3    1    3    3  502    0  0.11089441194E+04  0.57234767470E+03  0.20523049639E+04  0.24019355936E+04  0.10100000352E+00 0.  1.
       -3    1    3    3    0  502 -0.11089441194E+04 -0.57234767470E+03 -0.11612000981E+04  0.17046186080E+04  0.10100000352E+00 0. -1.
</event>
<event>
 5   0  0.6161563E-08  0.4013522E+04  0.7818609E-02  0.8001824E-01
        2   -1    0    0  501    0  0.00000000000E+00  0.00000000000E+00  0.28153744678E+04  0.28153744678E+04  0.25500000920E-02 0.  1.
       -2   -1    0    0    0  501  0.00000000000E+00  0.00000000000E+00 -0.14303925132E+04  0.14303925132E+04  0.25500000920E-02 0. -1.
    10030    2    1    2    0    0  0.00000000000E+00  0.00000000000E+00  0.13849819546E+04  0.42457669810E+04  0.40135224234E+04 0.  0.
        1    1    3    3  502    0 -0.46241339952E+03  0.14756018899E+04  0.20455102689E+04  0.25642424515E+04  0.50400001928E-02 0.  1.
       -1    1    3    3    0  502  0.46241339952E+03 -0.14756018899E+04 -0.66052831435E+03  0.16815245296E+04  0.50400001928E-02 0. -1.
</event>
<event>
 5   0  0.1879500E-08  0.3992858E+04  0.7818609E-02  0.8005989E-01
       -1   -1    0    0    0  501  0.00000000000E+00  0.00000000000E+00  0.16248297247E+04  0.16248297247E+04  0.50400001928E-02 0. -1.
        1   -1    0    0  501    0  0.00000000000E+00  0.00000000000E+00 -0.24530127354E+04  0.24530127354E+04  0.50400001928E-02 0.  1.
    10030    2    1    2    0    0  0.00000000000E+00  0.00000000000E+00 -0.82818301064E+03  0.40778424601E+04  0.39928576271E+04 0.  0.
        3    1    3    3  502    0  0.23304317985E+03  0.14520129507E+04 -0.17930435281E+04  0.23189773256E+04  0.10100000352E+00 0.  1.
       -3    1    3    3    0  502 -0.23304317985E+03 -0.14520129507E+04  0.96486051751E+03  0.17588651345E+04  0.10100000352E+00 0. -1.
</event>
<event>
 5   0  0.5951623E-08  0.4017395E+04  0.7818609E-02  0.8001047E-01
        2   -1    0    0  501    0  0.00000000000E+00  0.00000000000E+00  0.20536226792E+04  0.20536226792E+04  0.25500000920E-02 0. -1.
       -2   -1    0    0    0  501  0.00000000000E+00  0.00000000000E+00 -0.19647546286E+04  0.19647546286E+04  0.25500000920E-02 0.  1.
    10030    2    1    2    0    0  0.00000000000E+00  0.00000000000E+00  0.88868050653E+02  0.40183773078E+04  0.40173945110E+04 0.  0.
        2    1    3    3  502    0 -0.18012233056E+04  0.87036906880E+03  0.22590870439E+03  0.20132020403E+04  0.25500000920E-02 0. -1.
       -2    1    3    3    0  502  0.18012233056E+04 -0.87036906880E+03 -0.13704065374E+03  0.20051752675E+04  0.25500000920E-02 0.  1.
</event>
<event>
 5   0  0.5945387E-08  0.3800630E+04  0.7818609E-02  0.8046020E-01
        2   -1    0    0  501    0  0.00000000000E+00  0.00000000000E+00  0.21797957298E+04  0.21797957298E+04  0.25500000920E-02 0.  1.
       -2   -1    0    0    0  501  0.00000000000E+00  0.00000000000E+00 -0.16566677783E+04  0.16566677783E+04  0.25500000920E-02 0. -1.
    10030    2    1    2    0    0  0.00000000000E+00  0.00000000000E+00  0.52312795158E+03  0.38364635081E+04  0.38006301313E+04 0.  0.
        3    1    3    3  502    0 -0.17917628291E+04  0.42481491644E+03 -0.21223932171E+03  0.18536254446E+04  0.10100000352E+00 0. -1.
       -3    1    3    3    0  502  0.17917628291E+04 -0.42481491644E+03  0.73536727329E+03  0.19828380635E+04  0.10100000352E+00 0.  1.
</event>
<event>
 5   0  0.6161563E-08  0.3996480E+04  0.7818609E-02  0.8005257E-01
        2   -1    0    0  501    0  0.00000000000E+00  0.00000000000E+00  0.21776030904E+04  0.21776030904E+04  0.25500000920E-02 0.  1.
       -2   -1    0    0    0  501  0.00000000000E+00  0.00000000000E+00 -0.18336505835E+04  0.18336505835E+04  0.25500000920E-02 0. -1.
    10030    2    1    2    0    0  0.00000000000E+00  0.00000000000E+00  0.34395250699E+03  0.40112536739E+04  0.39964800399E+04 0.  0.
        1    1    3    3  502    0  0.12183057306E+04  0.50898937330E+03 -0.13334429844E+04  0.18765418269E+04  0.50400001928E-02 0. -1.
       -1    1    3    3    0  502 -0.12183057306E+04 -0.50898937330E+03  0.16773954914E+04  0.21347118470E+04  0.50400001928E-02 0.  1.
</event>
<event>
 5   0  0.5888700E-08  0.4000475E+04  0.7818609E-02  0.8004451E-01
       -2   -1    0    0    0  501  0.00000000000E+00  0.00000000000E+00  0.16982023929E+04  0.16982023929E+04  0.25500000920E-02 0.  1.
        2   -1    0    0  501    0  0.00000000000E+00  0.00000000000E+00 -0.23559916817E+04  0.23559916817E+04  0.25500000920E-02 0. -1.
    10030    2    1    2    0    0  0.00000000000E+00  0.00000000000E+00 -0.65778928878E+03  0.40541940746E+04  0.40004753275E+04 0.  0.
        5    1    3    3  502    0  0.43962842829E+03  0.17578427373E+04  0.52961975065E+03  0.18878038602E+04  0.46999998093E+01 0.  1.
       -5    1    3    3    0  502 -0.43962842829E+03 -0.17578427373E+04 -0.11874090394E+04  0.21663902144E+04  0.46999998093E+01 0. -1.
</event>
<event>
 5   0  0.1879500E-08  0.4003401E+04  0.7818609E-02  0.8003861E-01
       -1   -1    0    0    0  501  0.00000000000E+00  0.00000000000E+00  0.33126930699E+04  0.33126930699E+04  0.50400001928E-02 0. -1.
        1   -1    0    0  501    0  0.00000000000E+00  0.00000000000E+00 -0.12095307464E+04  0.12095307464E+04  0.50400001928E-02 0.  1.
    10030    2    1    2    0    0  0.00000000000E+00  0.00000000000E+00  0.21031623235E+04  0.45222238162E+04  0.40034006151E+04 0.  0.
        4    1    3    3  502    0  0.61561039613E+03 -0.14427956404E+04  0.24561764708E+04  0.29143506804E+04  0.12699999809E+01 0. -1.
       -4    1    3    3    0  502 -0.61561039613E+03  0.14427956404E+04 -0.35301414727E+03  0.16078731358E+04  0.12699999809E+01 0.  1.
</event>
<event>
 5   0  0.1879500E-08  0.4004981E+04  0.7818609E-02  0.8003543E-01
        1   -1    0    0  501    0  0.00000000000E+00  0.00000000000E+00  0.23149193126E+04  0.23149193126E+04  0.50400001928E-02 0.  1.
       -1   -1    0    0    0  501  0.00000000000E+00  0.00000000000E+00 -0.17322277107E+04  0.17322277107E+04  0.50400001928E-02 0. -1.
    10030    2    1    2    0    0  0.00000000000E+00  0.00000000000E+00  0.58269160185E+03  0.40471470233E+04  0.40049805899E+04 0.  0.
        5    1    3    3  502    0  0.12840614017E+04 -0.37978054013E+03  0.17959471815E+04  0.22401998372E+04  0.46999998093E+01 0.  1.
       -5    1    3    3    0  502 -0.12840614017E+04  0.37978054013E+03 -0.12132555796E+04  0.18069471861E+04  0.46999998093E+01 0. -1.
</event>
<event>
 5   0  0.5846812E-08  0.3999448E+04  0.7818609E-02  0.8004658E-01
       -2   -1    0    0    0  501  0.00000000000E+00  0.00000000000E+00  0.19599022104E+04  0.19599022104E+04  0.25500000920E-02 0. -1.
        2   -1    0    0  501    0  0.00000000000E+00  0.00000000000E+00 -0.20403550775E+04  0.20403550775E+04  0.25500000920E-02 0.  1.
    10030    2    1    2    0    0  0.00000000000E+00  0.00000000000E+00 -0.80452867156E+02  0.40002572879E+04  0.39994481751E+04 0.  0.
        4    1    3    3  502    0 -0.16130913656E+04 -0.11314253660E+04 -0.38192063493E+03  0.20070007715E+04  0.12699999809E+01 0.  1.
       -4    1    3    3    0  502  0.16130913656E+04  0.11314253660E+04  0.30146776777E+03  0.19932565164E+04  0.12699999809E+01 0. -1.
</event>
<event>
 5   0  0.1879500E-08  0.4011443E+04  0.7818609E-02  0.8002242E-01
       -1   -1    0    0    0  501  0.00000000000E+00  0.00000000000E+00  0.16583170264E+04  0.16583170264E+04  0.50400001928E-02 0. -1.
        1   -1    0    0  501    0  0.00000000000E+00  0.00000000000E+00 -0.24259046041E+04  0.24259046041E+04  0.50400001928E-02 0.  1.
    10030    2    1    2    0    0  0.00000000000E+00  0.00000000000E+00 -0.76758757777E+03  0.40842216305E+04  0.40114430867E+04 0.  0.
        4    1    3    3  502    0  0.12404756701E+03 -0.12329377416E+04  0.12219674093E+04  0.17403244628E+04  0.12699999809E+01 0. -1.
       -4    1    3    3    0  502 -0.12404756701E+03  0.12329377416E+04 -0.19895549870E+04  0.23438971677E+04  0.12699999809E+01 0.  1.
</event>
<event>
 5   0  0.1879500E-08  0.4011456E+04  0.7818609E-02  0.8002240E-01
        1   -1    0    0  501    0  0.00000000000E+00  0.00000000000E+00  0.19724745277E+04  0.19724745277E+04  0.50400001928E-02 0. -1.
       -1   -1    0    0    0  501  0.00000000000E+00  0.00000000000E+00 -0.20395419663E+04  0.20395419663E+04  0.50400001928E-02 0.  1.
    10030    2    1    2    0    0  0.00000000000E+00  0.00000000000E+00 -0.67067438544E+02  0.40120164940E+04  0.40114558837E+04 0.  0.
        3    1    3    3  502    0  0.17488576215E+04 -0.53100619889E+03 -0.85976901919E+03  0.20198201257E+04  0.10100000352E+00 0.  1.
       -3    1    3    3    0  502 -0.17488576215E+04  0.53100619889E+03  0.79270158065E+03  0.19921963683E+04  0.10100000352E+00 0. -1.
</event>
<event>
 5   0  0.6161563E-08  0.3765509E+04  0.7818609E-02  0.8053597E-01
        2   -1    0    0  501    0  0.00000000000E+00  0.00000000000E+00  0.16019779134E+04  0.16019779134E+04  0.25500000920E-02 0.  1.
       -2   -1    0    0    0  501  0.00000000000E+00  0.00000000000E+00 -0.22127420558E+04  0.22127420558E+04  0.25500000920E-02 0. -1.
    10030    2    1    2    0    0  0.00000000000E+00  0.00000000000E+00 -0.61076414236E+03  0.38147199692E+04  0.37655086783E+04 0.  0.
        1    1    3    3  502    0 -0.50599737567E+03 -0.76603005691E+03 -0.19706186298E+04  0.21739763514E+04  0.50400001928E-02 0. -1.
       -1    1    3    3    0  502  0.50599737567E+03  0.76603005691E+03  0.13598544875E+04  0.16407436178E+04  0.50400001928E-02 0.  1.
</event>
<event>
 5   0  0.1879500E-08  0.3996787E+04  0.7818609E-02  0.8005195E-01
       -1   -1    0    0    0  501  0.00000000000E+00  0.00000000000E+00  0.22988904550E+04  0.22988904550E+04  0.50400001928E-02 0.  1.
        1   -1    0    0  501    0  0.00000000000E+00  0.00000000000E+00 -0.17371755038E+04  0.17371755038E+04  0.50400001928E-02 0. -1.
    10030    2    1    2    0    0  0.00000000000E+00  0.00000000000E+00  0.56171495121E+03  0.40360659588E+04  0.39967868016E+04 0.  0.
        5    1    3    3  502    0  0.14672643813E+04  0.28800472434E+03  0.16196858644E+04  0.22043629182E+04  0.46999998093E+01 0.  1.
       -5    1    3    3    0  502 -0.14672643813E+04 -0.28800472434E+03 -0.10579709132E+04  0.18317030406E+04  0.46999998093E+01 0. -1.
</event>
<event>
 5   0  0.5846812E-08  0.4055660E+04  0.7818609E-02  0.7993411E-01
        2   -1    0    0  501    0  0.00000000000E+00  0.00000000000E+00  0.26380710581E+04  0.26380710581E+04  0.25500000920E-02 0.  1.
       -2   -1    0    0    0  501  0.00000000000E+00  0.00000000000E+00 -0.15587502076E+04  0.15587502076E+04  0.25500000920E-02 0. -1.
    10030    2    1    2    0    0  0.00000000000E+00  0.00000000000E+00  0.10793208504E+04  0.41968212657E+04  0.40556596551E+04 0.  0.
        4    1    3    3  502    0 -0.66959387485E+03 -0.53228633189E+03 -0.13629220830E+04  0.16091124615E+04  0.12699999809E+01 0. -1.
       -4    1    3    3    0  502  0.66959387485E+03  0.53228633189E+03  0.24422429335E+04  0.25877088042E+04  0.12699999809E+01 0.  1.
</event>
<event>
 5   0  0.6161563E-08  0.4003756E+04  0.7818609E-02  0.8003789E-01
       -2   -1    0    0    0  501  0.00000000000E+00  0.00000000000E+00  0.26295286668E+04  0.26295286668E+04  0.25500000920E-02 0. -1.
        2   -1    0    0  501    0  0.00000000000E+00  0.00000000000E+00 -0.15240429593E+04  0.15240429593E+04  0.25500000920E-02 0.  1.
    10030    2    1    2    0    0  0.00000000000E+00  0.00000000000E+00  0.11054857075E+04  0.41535716261E+04  0.40037555624E+04 0.  0.
        1    1    3    3  502    0 -0.16457201735E+04  0.73395810723E+03  0.14573966624E+04  0.23175621727E+04  0.50400001928E-02 0. -1.
       -1    1    3    3    0  502  0.16457201735E+04 -0.73395810723E+03 -0.35191095492E+03  0.18360094534E+04  0.50400001928E-02 0.  1.
</event>
<event>
 5   0  0.5945387E-08  0.3996406E+04  0.7818609E-02  0.8005272E-01
       -2   -1    0    0    0  501  0.00000000000E+00  0.00000000000E+00  0.12205533356E+04  0.12205533357E+04  0.25500000920E-02 0.  1.
        2   -1    0    0  501    0  0.00000000000E+00  0.00000000000E+00 -0.32713152458E+04  0.32713152458E+04  0.25500000920E-02 0. -1.
    10030    2    1    2    0    0  0.00000000000E+00  0.00000000000E+00 -0.20507619102E+04  0.44918685815E+04  0.39964057528E+04 0.  0.
        3    1    3    3  502    0  0.19430464748E+04  0.20044825003E+03 -0.55223382203E+03  0.20299190399E+04  0.10100000352E+00 0. -1.
       -3    1    3    3    0  502 -0.19430464748E+04 -0.20044825003E+03 -0.14985280881E+04  0.24619495416E+04  0.10100000352E+00 0.  1.
</event>
<event>
 5   0  0.5951623E-08  0.3994218E+04  0.7818609E-02  0.8005714E-01
        2   -1    0    0  501    0  0.00000000000E+00  0.00000000000E+00  0.16884269394E+04  0.16884269394E+04  0.25500000920E-02 0.  1.
       -2   -1    0    0    0  501  0.00000000000E+00  0.00000000000E+00 -0.23622254012E+04  0.23622254012E+04  0.25500000920E-02 0. -1.
    10030    2    1    2    0    0  0.00000000000E+00  0.00000000000E+00 -0.67379846179E+03  0.40506523405E+04  0.39942183236E+04 0.  0.
        2    1    3    3  502    0  0.68634769721E+03  0.31134781999E+03 -0.22124714952E+04  0.23373148576E+04  0.25500000920E-02 0. -1.
       -2    1    3    3    0  502 -0.68634769721E+03 -0.31134781999E+03  0.15386730334E+04  0.17133374829E+04  0.25500000920E-02 0.  1.
</event>
<event>
 5   0  0.6161563E-08  0.4002784E+04  0.7818609E-02  0.8003985E-01
        2   -1    0    0  501    0  0.00000000000E+00  0.00000000000E+00  0.21583313906E+04  0.21583313906E+04  0.25500000920E-02 0. -1.
       -2   -1    0    0    0  501  0.00000000000E+00  0.00000000000E+00 -0.18558642239E+04  0.18558642239E+04  0.25500000920E-02 0.  1.
    10030    2    1    2    0    0  0.00000000000E+00  0.00000000000E+00  0.30246716673E+03  0.40141956145E+04  0.40027840367E+04 0.  0.
        1    1    3    3  502    0 -0.58227807007E+03 -0.44090937503E+03 -0.17174415663E+04  0.18662942859E+04  0.50400001928E-02 0.  1.
       -1    1    3    3    0  502  0.58227807007E+03  0.44090937503E+03  0.20199087330E+04  0.21479013286E+04  0.50400001928E-02 0. -1.
</event>
<event>
 5   0  0.5888700E-08  0.3997119E+04  0.7818609E-02  0.8005128E-01
       -2   -1    0    0    0  501  0.00000000000E+00  0.00000000000E+00  0.18190342036E+04  0.18190342036E+04  0.25500000920E-02 0.  1.
        2   -1    0    0  501    0  0.00000000000E+00  0.00000000000E+00 -0.21958022746E+04  0.21958022746E+04  0.25500000920E-02 0. -1.
    10030    2    1    2    0    0  0.00000000000E+00  0.00000000000E+00 -0.37676807104E+03  0.40148364782E+04  0.39971186832E+04 0.  0.
        5    1    3    3  502    0  0.15390917411E+04  0.71871836791E+03 -0.12460749160E+04  0.21066761180E+04  0.46999998093E+01 0. -1.
       -5    1    3    3    0  502 -0.15390917411E+04 -0.71871836791E+03  0.86930684494E+03  0.19081603603E+04  0.46999998093E+01 0.  1.
</event>
<event>
 5   0  0.5951623E-08  0.3979306E+04  0.7818609E-02  0.8008734E-01
        2   -1    0    0  501    0  0.00000000000E+00  0.00000000000E+00  0.19655113681E+04  0.19655113681E+04  0.25500000920E-02 0.  1.
       -2   -1    0    0    0  501  0.00000000000E+00  0.00000000000E+00 -0.20140910337E+04  0.20140910337E+04  0.25500000920E-02 0. -1.
    10030    2    1    2    0    0  0.00000000000E+00  0.00000000000E+00 -0.48579665656E+02  0.39796024018E+04  0.39793058808E+04 0.  0.
        2    1    3    3  502    0  0.14038967572E+04 -0.56807152198E+03  0.12661890023E+04  0.19740481120E+04  0.25500000920E-02 0.  1.
       -2    1    3    3    0  502 -0.14038967572E+04  0.56807152198E+03 -0.13147686680E+04  0.20055542898E+04  0.25500000920E-02 0. -1.
</event>
<event>
 5   0  0.1879500E-08  0.4013223E+04  0.7818609E-02  0.8001884E-01
        1   -1    0    0  501    0  0.00000000000E+00  0.00000000000E+00  0.17886470000E+04  0.17886470000E+04  0.50400001928E-02 0. -1.
       -1   -1    0    0    0  501  0.00000000000E+00  0.00000000000E+00 -0.22511371931E+04  0.22511371931E+04  0.50400001928E-02 0.  1.
    10030    2    1    2    0    0  0.00000000000E+00  0.00000000000E+00 -0.46249019317E+03  0.40397841931E+04  0.40132230374E+04 0.  0.
        3    1    3    3  502    0 -0.16106381335E+04  0.91099207427E+03 -0.10125444246E+04  0.21093382798E+04  0.10100000352E+00 0.  1.
       -3    1    3    3    0  502  0.16106381335E+04 -0.91099207427E+03  0.55005423139E+03  0.19304459133E+04  0.10100000352E+00 0. -1.
</event>
<event>
 5   0  0.1879500E-08  0.4008438E+04  0.7818609E-02  0.8002846E-01
        1   -1    0    0  501    0  0.00000000000E+00  0.00000000000E+00  0.26807642533E+04  0.26807642533E+04  0.50400001928E-02 0.  1.
       -1   -1    0    0    0  501  0.00000000000E+00  0.00000000000E+00 -0.14984137243E+04  0.14984137243E+04  0.50400001928E-02 0. -1.
    10030    2    1    2    0    0  0.00000000000E+00  0.00000000000E+00  0.11823505290E+04  0.41791779776E+04  0.40084380743E+04 0.  0.
        1    1    3    3  502    0 -0.32585410874E+03  0.81116428571E+03 -0.12891777844E+04  0.15576096297E+04  0.50400001928E-02 0. -1.
       -1    1    3    3    0  502  0.32585410874E+03 -0.81116428571E+03  0.24715283135E+04  0.26215683479E+04  0.50400001928E-02 0.  1.
</event>
<event>
 5   0  0.5951623E-08  0.3991577E+04  0.7818609E-02  0.8006248E-01
       -2   -1    0    0    0  501  0.00000000000E+00  0.00000000000E+00  0.15887702880E+04  0.15887702880E+04  0.25500000920E-02 0. -1.
        2   -1    0    0  501    0  0.00000000000E+00  0.00000000000E+00 -0.25070787769E+04  0.25070787769E+04  0.25500000920E-02 0.  1.
    10030    2    1    2    0    0  0.00000000000E+00  0.00000000000E+00 -0.91830848890E+03  0.40958490649E+04  0.39915772674E+04 0.  0.
        2    1    3    3  502    0 -0.39695232058E+03  0.29214697849E+03  0.15253397687E+04  0.16029917067E+04  0.25500000920E-02 0. -1.
       -2    1    3    3    0  502  0.39695232058E+03 -0.29214697849E+03 -0.24436482576E+04  0.24928573582E+04  0.25500000920E-02 0.  1.
</event>
<event>
 5   0  0.5888700E-08  0.3931255E+04  0.7818609E-02  0.8018560E-01
       -2   -1    0    0    0  501  0.00000000000E+00  0.00000000000E+00  0.16595741931E+04  0.16595741931E+04  0.25500000920E-02 0. -1.
        2   -1    0    0  501    0  0.00000000000E+00  0.00000000000E+00 -0.23281221470E+04  0.23281221470E+04  0.25500000920E-02 0.  1.
    10030    2    1    2    0    0  0.00000000000E+00  0.00000000000E+00 -0.66854795393E+03  0.39876963400E+04  0.39312549820E+04 0.  0.
        5    1    3    3  502    0 -0.18372104614E+04  0.63803544453E+03 -0.62338858683E+03  0.20423190074E+04  0.46999998093E+01 0.  1.
       -5    1    3    3    0  502  0.18372104614E+04 -0.63803544453E+03 -0.45159367096E+02  0.19453773326E+04  0.46999998093E+01 0. -1.
</event>
<event>
 5   0  0.5888700E-08  0.4005035E+04  0.7818609E-02  0.8003532E-01
        2   -1    0    0  501    0  0.00000000000E+00  0.00000000000E+00  0.16192114604E+04  0.16192114604E+04  0.25500000920E-02 0.  1.
       -2   -1    0    0    0  501  0.00000000000E+00  0.00000000000E+00 -0.24765617428E+04  0.24765617428E+04  0.25500000920E-02 0. -1.
    10030    2    1    2    0    0  0.00000000000E+00  0.00000000000E+00 -0.85735028236E+03  0.40957732032E+04  0.40050354088E+04 0.  0.
        5    1    3    3  502    0  0.90337105524E+03 -0.11211400637E+04 -0.18519758903E+04  0.23458199193E+04  0.46999998093E+01 0. -1.
       -5    1    3    3    0  502 -0.90337105524E+03  0.11211400637E+04  0.99462560791E+03  0.17499532839E+04  0.46999998093E+01 0.  1.
</event>
<event>
 5   0  0.1879500E-08  0.4001937E+04  0.7818609E-02  0.8004156E-01
        1   -1    0    0  501    0  0.00000000000E+00  0.00000000000E+00  0.27600677378E+04  0.27600677378E+04  0.50400001928E-02 0. -1.
       -1   -1    0    0    0  501  0.00000000000E+00  0.00000000000E+00 -0.14506438714E+04  0.14506438714E+04  0.50400001928E-02 0.  1.
    10030    2    1    2    0    0  0.00000000000E+00  0.00000000000E+00  0.13094238664E+04  0.42107116092E+04  0.40019372052E+04 0.  0.
        4    1    3    3  502    0 -0.14558987139E+04 -0.13127475162E+04  0.23262764583E+03  0.19740983615E+04  0.12699999809E+01 0. -1.
       -4    1    3    3    0  502  0.14558987139E+04  0.13127475162E+04  0.10767962205E+04  0.22366132477E+04  0.12699999809E+01 0.  1.
</event>
<event>
 5   0  0.1879500E-08  0.4005018E+04  0.7818609E-02  0.8003535E-01
        3   -1    0    0  501    0  0.00000000000E+00  0.00000000000E+00  0.28210934706E+04  0.28210934724E+04  0.10100000352E+00 0.  1.
       -3   -1    0    0    0  501  0.00000000000E+00  0.00000000000E+00 -0.14214499015E+04  0.14214499051E+04  0.10100000352E+00 0. -1.
    10030    2    1    2    0    0  0.00000000000E+00  0.00000000000E+00  0.13996435691E+04  0.42425433775E+04  0.40050183756E+04 0.  0.
        3    1    3    3  502    0  0.11773092368E+04 -0.10165126933E+04  0.20358458251E+04  0.25620349975E+04  0.10100000352E+00 0.  1.
       -3    1    3    3    0  502 -0.11773092368E+04  0.10165126933E+04 -0.63620225592E+03  0.16805083800E+04  0.10100000352E+00 0. -1.
</event>
<event>
 5   0  0.6161563E-08  0.3974760E+04  0.7818609E-02  0.8009658E-01
        2   -1    0    0  501    0  0.00000000000E+00  0.00000000000E+00  0.26682138349E+04  0.26682138349E+04  0.25500000920E-02 0.  1.
       -2   -1    0    0    0  501  0.00000000000E+00  0.00000000000E+00 -0.14802705196E+04  0.14802705196E+04  0.25500000920E-02 0. -1.
    10030    2    1    2    0    0  0.00000000000E+00  0.00000000000E+00  0.11879433154E+04  0.41484843545E+04  0.39747595045E+04 0.  0.
        1    1    3    3  502    0  0.15622533849E+04  0.90320349047E+03 -0.27504595954E+03  0.18253937832E+04  0.50400001928E-02 0. -1.
       -1    1    3    3    0  502 -0.15622533849E+04 -0.90320349047E+03  0.14629892749E+04  0.23230905713E+04  0.50400001928E-02 0.  1.
</event>
<event>
 5   0  0.5846812E-08  0.4026127E+04  0.7818609E-02  0.7999296E-01
       -2   -1    0    0    0  501  0.00000000000E+00  0.00000000000E+00  0.19850849759E+04  0.19850849759E+04  0.25500000920E-02 0. -1.
        2   -1    0    0  501    0  0.00000000000E+00  0.00000000000E+00 -0.20414367680E+04  0.20414367680E+04  0.25500000920E-02 0.  1.
    10030    2    1    2    0    0  0.00000000000E+00  0.00000000000E+00 -0.56351792166E+02  0.40265217439E+04  0.40261273986E+04 0.  0.
        4    1    3    3  502    0  0.36256848062E+03  0.10331178083E+04 -0.17176120655E+04  0.20369047914E+04  0.12699999809E+01 0.  1.
       -4    1    3    3    0  502 -0.36256848062E+03 -0.10331178083E+04  0.16612602733E+04  0.19896169525E+04  0.12699999809E+01 0. -1.
</event>
<event>
 5   0  0.5951623E-08  0.4002421E+04  0.7818609E-02  0.8004058E-01
       -2   -1    0    0    0  501  0.00000000000E+00  0.00000000000E+00  0.17279370420E+04  0.17279370420E+04  0.25500000920E-02 0.  1.
        2   -1    0    0  501    0  0.00000000000E+00  0.00000000000E+00 -0.23177024532E+04  0.23177024532E+04  0.25500000920E-02 0. -1.
    10030    2    1    2    0    0  0.00000000000E+00  0.00000000000E+00 -0.58976541119E+03  0.40456394953E+04  0.40024212279E+04 0.  0.
        2    1    3    3  502    0 -0.42143196772E+03  0.74567577608E+03 -0.21230602816E+04  0.22893278982E+04  0.25500000920E-02 0. -1.
       -2    1    3    3    0  502  0.42143196772E+03 -0.74567577608E+03  0.15332948704E+04  0.17563115971E+04  0.25500000920E-02 0.  1.
</event>
<event>
 5   0  0.5951623E-08  0.4006788E+04  0.7818609E-02  0.8003179E-01
       -2   -1    0    0    0  501  0.00000000000E+00  0.00000000000E+00  0.31868571959E+04  0.31868571959E+04  0.25500000920E-02 0. -1.
        2   -1    0    0  501    0  0.00000000000E+00  0.00000000000E+00 -0.12594186312E+04  0.12594186312E+04  0.25500000920E-02 0.  1.
    10030    2    1    2    0    0  0.00000000000E+00  0.00000000000E+00  0.19274385647E+04  0.44462758271E+04  0.40067879042E+04 0.  0.
        2    1    3    3  502    0  0.11679316577E+04  0.10834559026E+03 -0.83854999037E+03  0.14418631039E+04  0.25500000920E-02 0.  1.
       -2    1    3    3    0  502 -0.11679316577E+04 -0.10834559026E+03  0.27659885551E+04  0.30044127231E+04  0.25500000920E-02 0. -1.
</event>
<event>
 5   0  0.1879500E-08  0.3992283E+04  0.7818609E-02  0.8006105E-01
       -1   -1    0    0    0  501  0.00000000000E+00  0.00000000000E+00  0.16623806194E+04  0.16623806194E+04  0.50400001928E-02 0. -1.
        1   -1    0    0  501    0  0.00000000000E+00  0.00000000000E+00 -0.23969126340E+04  0.23969126340E+04  0.50400001928E-02 0.  1.
    10030    2    1    2    0    0  0.00000000000E+00  0.00000000000E+00 -0.73453201467E+03  0.40592932534E+04  0.39922831108E+04 0.  0.
        2    1    3    3  502    0  0.98635450035E+02  0.10352826360E+04  0.13651642355E+04  0.17161621364E+04  0.25500000920E-02 0. -1.
       -2    1    3    3    0  502 -0.98635450035E+02 -0.10352826360E+04 -0.20996962502E+04  0.23431311170E+04  0.25500000920E-02 0.  1.
</event>
<event>
 5   0  0.1879500E-08  0.4004886E+04  0.7818609E-02  0.8003562E-01
       -1   -1    0    0    0  501  0.00000000000E+00  0.00000000000E+00  0.14930923492E+04  0.14930923492E+04  0.50400001928E-02 0.  1.
        1   -1    0    0  501    0  0.00000000000E+00  0.00000000000E+00 -0.26855520293E+04  0.26855520293E+04  0.50400001928E-02 0. -1.
    10030    2    1    2    0    0  0.00000000000E+00  0.00000000000E+00 -0.11924596802E+04  0.41786443785E+04  0.40048856105E+04 0.  0.
        3    1    3    3  502    0  0.13041208629E+04 -0.14920972633E+04 -0.29619182571E+03  0.20037003458E+04  0.10100000352E+00 0.  1.
       -3    1    3    3    0  502 -0.13041208629E+04  0.14920972633E+04 -0.89626785445E+03  0.21749440327E+04  0.10100000352E+00 0. -1.
</event>
<event>
 5   0  0.5888700E-08  0.4007520E+04  0.7818609E-02  0.8003031E-01
       -2   -1    0    0    0  501  0.00000000000E+00  0.00000000000E+00  0.32599127543E+04  0.32599127543E+04  0.25500000920E-02 0.  1.
        2   -1    0    0  501    0  0.00000000000E+00  0.00000000000E+00 -0.12316444138E+04  0.12316444138E+04  0.25500000920E-02 0. -1.
    10030    2    1    2    0    0  0.00000000000E+00  0.00000000000E+00  0.20282683405E+04  0.44915571682E+04  0.40075195987E+04 0.  0.
        5    1    3    3  502    0 -0.19171322578E+04 -0.33346325088E+03  0.15498135021E+04  0.24876771927E+04  0.46999998093E+01 0.  1.
       -5    1    3    3    0  502  0.19171322578E+04  0.33346325088E+03  0.47845483837E+03  0.20038799755E+04  0.46999998093E+01 0. -1.
</event>
<event>
 5   0  0.6161563E-08  0.4009391E+04  0.7818609E-02  0.8002655E-01
       -2   -1    0    0    0  501  0.00000000000E+00  0.00000000000E+00  0.14000148674E+04  0.14000148675E+04  0.25500000920E-02 0.  1.
        2   -1    0    0  501    0  0.00000000000E+00  0.00000000000E+00 -0.28705442709E+04  0.28705442709E+04  0.25500000920E-02 0. -1.
    10030    2    1    2    0    0  0.00000000000E+00  0.00000000000E+00 -0.14705294034E+04  0.42705591383E+04  0.40093913039E+04 0.  0.
        1    1    3    3  502    0 -0.36004350893E+03 -0.17268679214E+04  0.27919313626E+03  0.17859599529E+04  0.50400001928E-02 0.  1.
       -1    1    3    3    0  502  0.36004350893E+03  0.17268679214E+04 -0.17497225397E+04  0.24845991854E+04  0.50400001928E-02 0. -1.
</event>
<event>
 5   0  0.1879500E-08  0.3964925E+04  0.7818609E-02  0.8011660E-01
        1   -1    0    0  501    0  0.00000000000E+00  0.00000000000E+00  0.30310635744E+04  0.30310635744E+04  0.50400001928E-02 0. -1.
       -1   -1    0    0    0  501  0.00000000000E+00  0.00000000000E+00 -0.12966264447E+04  0.12966264447E+04  0.50400001928E-02 0.  1.
    10030    2    1    2    0    0  0.00000000000E+00  0.00000000000E+00  0.17344371297E+04  0.43276900191E+04  0.39649248095E+04 0.  0.
        4    1    3    3  502    0  0.78051927391E+03  0.13594199302E+04  0.21918991347E+04  0.26947460573E+04  0.12699999809E+01 0.  1.
       -4    1    3    3    0  502 -0.78051927391E+03 -0.13594199302E+04 -0.45746200501E+03  0.16329439619E+04  0.12699999809E+01 0. -1.
</event>
<event>
 5   0  0.1879500E-08  0.4004502E+04  0.7818609E-02  0.8003639E-01
       -1   -1    0    0    0  501  0.00000000000E+00  0.00000000000E+00  0.20510052413E+04  0.20510052413E+04  0.50400001928E-02 0.  1.
        1   -1    0    0  501    0  0.00000000000E+00  0.00000000000E+00 -0.19546555734E+04  0.19546555734E+04  0.50400001928E-02 0. -1.
    10030    2    1    2    0    0  0.00000000000E+00  0.00000000000E+00  0.96349667885E+02  0.40056608147E+04  0.40045018796E+04 0.  0.
        3    1    3    3  502    0  0.28962727666E+03 -0.16755600619E+03 -0.19264911740E+04  0.19553330223E+04  0.10100000352E+00 0. -1.
       -3    1    3    3    0  502 -0.28962727666E+03  0.16755600619E+03  0.20228408419E+04  0.20503277924E+04  0.10100000352E+00 0.  1.
</event>
<event>
 5   0  0.5888700E-08  0.3983097E+04  0.7818609E-02  0.8007965E-01
       -2   -1    0    0    0  501  0.00000000000E+00  0.00000000000E+00  0.15931099806E+04  0.15931099806E+04  0.25500000920E-02 0. -1.
        2   -1    0    0  501    0  0.00000000000E+00  0.00000000000E+00 -0.24896366352E+04  0.24896366352E+04  0.25500000920E-02 0.  1.
    10030    2    1    2    0    0  0.00000000000E+00  0.00000000000E+00 -0.89652665459E+03  0.40827466158E+04  0.39830967709E+04 0.  0.
        5    1    3    3  502    0 -0.12406148059E+04 -0.15567233821E+04 -0.51086581879E+03  0.20551201327E+04  0.46999998093E+01 0. -1.
       -5    1    3    3    0  502  0.12406148059E+04  0.15567233821E+04 -0.38566083580E+03  0.20276264831E+04  0.46999998093E+01 0.  1.
</event>
<event>
 5   0  0.5888700E-08  0.3964829E+04  0.7818609E-02  0.8011680E-01
        2   -1    0    0  501    0  0.00000000000E+00  0.00000000000E+00  0.13390161302E+04  0.13390161302E+04  0.25500000920E-02 0. -1.
       -2   -1    0    0    0  501  0.00000000000E+00  0.00000000000E+00 -0.29349659668E+04  0.29349659668E+04  0.25500000920E-02 0.  1.
    10030    2    1    2    0    0  0.00000000000E+00  0.00000000000E+00 -0.15959498365E+04  0.42739820970E+04  0.39648287585E+04 0.  0.
        5    1    3    3  502    0  0.12431183285E+04 -0.15049573177E+04 -0.11709367275E+04  0.22762589081E+04  0.46999998093E+01 0.  1.
       -5    1    3    3    0  502 -0.12431183285E+04  0.15049573177E+04 -0.42501310902E+03  0.19977231889E+04  0.46999998093E+01 0. -1.
</event>
<event>
 5   0  0.5951623E-08  0.3964102E+04  0.7818609E-02  0.8011828E-01
        2   -1    0    0  501    0  0.00000000000E+00  0.00000000000E+00  0.21484066495E+04  0.21484066495E+04  0.25500000920E-02 0. -1.
       -2   -1    0    0    0  501  0.00000000000E+00  0.00000000000E+00 -0.18285764083E+04  0.18285764083E+04  0.25500000920E-02 0.  1.
    10030    2    1    2    0    0  0.00000000000E+00  0.00000000000E+00  0.31983024125E+03  0.39769830578E+04  0.39641017720E+04 0.  0.
        2    1    3    3  502    0 -0.28067157037E+03 -0.73176026119E+03  0.19863461967E+04  0.21353736964E+04  0.25500000920E-02 0. -1.
       -2    1    3    3    0  502  0.28067157037E+03  0.73176026119E+03 -0.16665159554E+04  0.18416093614E+04  0.25500000920E-02 0.  1.
</event>
<event>
 5   0  0.5846812E-08  0.4000424E+04  0.7818609E-02  0.8004461E-01
        2   -1    0    0  501    0  0.00000000000E+00  0.00000000000E+00  0.24304839946E+04  0.24304839946E+04  0.25500000920E-02 0. -1.
       -2   -1    0    0    0  501  0.00000000000E+00  0.00000000000E+00 -0.16461120539E+04  0.16461120539E+04  0.25500000920E-02 0.  1.
    10030    2    1    2    0    0  0.00000000000E+00  0.00000000000E+00  0.78437194066E+03  0.40765960486E+04  0.40004244777E+04 0.  0.
        4    1    3    3  502    0 -0.83973975789E+03 -0.55418712591E+03 -0.13694763965E+04  0.16993391201E+04  0.12699999809E+01 0.  1.
       -4    1    3    3    0  502  0.83973975789E+03  0.55418712591E+03  0.21538483372E+04  0.23772569285E+04  0.12699999809E+01 0. -1.
</event>
<event>
 5   0  0.1879500E-08  0.3995913E+04  0.7818609E-02  0.8005372E-01
       -1   -1    0    0    0  501  0.00000000000E+00  0.00000000000E+00  0.15855769079E+04  0.15855769079E+04  0.50400001928E-02 0.  1.
        1   -1    0    0  501    0  0.00000000000E+00  0.00000000000E+00 -0.25175884079E+04  0.25175884080E+04  0.50400001928E-02 0. -1.
    10030    2    1    2    0    0  0.00000000000E+00  0.00000000000E+00 -0.93201150009E+03  0.41031653158E+04  0.39959129336E+04 0.  0.
        1    1    3    3  502    0 -0.64138828471E+03  0.87273809913E+03  0.12579794633E+04  0.16599888709E+04  0.50400001928E-02 0.  1.
       -1    1    3    3    0  502  0.64138828471E+03 -0.87273809913E+03 -0.21899909634E+04  0.24431764449E+04  0.50400001928E-02 0. -1.
</event>
<event>
 5   0  0.1879500E-08  0.3988595E+04  0.7818609E-02  0.8006851E-01
       -1   -1    0    0    0  501  0.00000000000E+00  0.00000000000E+00  0.20297394826E+04  0.20297394826E+04  0.50400001928E-02 0.  1.
        1   -1    0    0  501    0  0.00000000000E+00  0.00000000000E+00 -0.19594747121E+04  0.19594747121E+04  0.50400001928E-02 0. -1.
    10030    2    1    2    0    0  0.00000000000E+00  0.00000000000E+00  0.70264770486E+02  0.39892141947E+04  0.39885953359E+04 0.  0.
        1    1    3    3  502    0  0.15775431618E+04  0.10890907640E+04 -0.51491846192E+03  0.19849186739E+04  0.50400001928E-02 0.  1.
       -1    1    3    3    0  502 -0.15775431618E+04 -0.10890907640E+04  0.58518323241E+03  0.20042955209E+04  0.50400001928E-02 0. -1.
</event>
<event>
 5   0  0.1879500E-08  0.3979264E+04  0.7818609E-02  0.8008743E-01
        1   -1    0    0  501    0  0.00000000000E+00  0.00000000000E+00  0.22535903648E+04  0.22535903648E+04  0.50400001928E-02 0.  1.
       -1   -1    0    0    0  501  0.00000000000E+00  0.00000000000E+00 -0.17565908085E+04  0.17565908086E+04  0.50400001928E-02 0. -1.
    10030    2    1    2    0    0  0.00000000000E+00  0.00000000000E+00  0.49699955625E+03  0.40101811734E+04  0.39792643144E+04 0.  0.
        5    1    3    3  502    0  0.92579628935E+03  0.17382565032E+04 -0.36504117057E+02  0.19697687887E+04  0.46999998093E+01 0. -1.
       -5    1    3    3    0  502 -0.92579628935E+03 -0.17382565032E+04  0.53350367331E+03  0.20404123847E+04  0.46999998093E+01 0.  1.
</event>
<event>
 5   0  0.6161563E-08  0.3981714E+04  0.7818609E-02  0.8008246E-01
        2   -1    0    0  501    0  0.00000000000E+00  0.00000000000E+00  0.23434754975E+04  0.23434754975E+04  0.25500000920E-02 0.  1.
       -2   -1    0    0    0  501  0.00000000000E+00  0.00000000000E+00 -0.16912959974E+04  0.16912959974E+04  0.25500000920E-02 0. -1.
    10030    2    1    2    0    0  0.00000000000E+00  0.00000000000E+00  0.65217950003E+03  0.40347714949E+04  0.39817135652E+04 0.  0.
        1    1    3    3  502    0  0.79422567951E+03  0.16670487638E+04 -0.42791200001E+03  0.18955090848E+04  0.50400001928E-02 0.  1.
       -1    1    3    3    0  502 -0.79422567951E+03 -0.16670487638E+04  0.10800915000E+04  0.21392624101E+04  0.50400001928E-02 0. -1.
</event>
<event>
 5   0  0.5846812E-08  0.4012718E+04  0.7818609E-02  0.8001986E-01
       -2   -1    0    0    0  501  0.00000000000E+00  0.00000000000E+00  0.18602201507E+04  0.18602201507E+04  0.25500000920E-02 0.  1.
        2   -1    0    0  501    0  0.00000000000E+00  0.00000000000E+00 -0.21639780969E+04  0.21639780969E+04  0.25500000920E-02 0. -1.
    10030    2    1    2    0    0  0.00000000000E+00  0.00000000000E+00 -0.30375794622E+03  0.40241982475E+04  0.40127176135E+04 0.  0.
        4    1    3    3  502    0 -0.45492739483E+03  0.30002249362E+03  0.17845783816E+04  0.18659298069E+04  0.12699999809E+01 0.  1.
       -4    1    3    3    0  502  0.45492739483E+03 -0.30002249362E+03 -0.20883363278E+04  0.21582684407E+04  0.12699999809E+01 0. -1.
</event>
<event>
 5   0  0.1879500E-08  0.3993672E+04  0.7818609E-02  0.8005824E-01
        1   -1    0    0  501    0  0.00000000000E+00  0.00000000000E+00  0.19787797525E+04  0.19787797525E+04  0.50400001928E-02 0. -1.
       -1   -1    0    0    0  501  0.00000000000E+00  0.00000000000E+00 -0.20150574984E+04  0.20150574984E+04  0.50400001928E-02 0.  1.
    10030    2    1    2    0    0  0.00000000000E+00  0.00000000000E+00 -0.36277745939E+02  0.39938372510E+04  0.39936724843E+04 0.  0.
        4    1    3    3  502    0  0.10368508762E+04  0.12442902626E+04 -0.11861063049E+04  0.20075277773E+04  0.12699999809E+01 0.  1.
       -4    1    3    3    0  502 -0.10368508762E+04 -0.12442902626E+04  0.11498285589E+04  0.19863094737E+04  0.12699999809E+01 0. -1.
</event>
<event>
 5   0  0.1879500E-08  0.3993691E+04  0.7818609E-02  0.8005821E-01
        3   -1    0    0  501    0  0.00000000000E+00  0.00000000000E+00  0.24697982836E+04  0.24697982857E+04  0.10100000352E+00 0. -1.
       -3   -1    0    0    0  501  0.00000000000E+00  0.00000000000E+00 -0.16144604839E+04  0.16144604870E+04  0.10100000352E+00 0.  1.
    10030    2    1    2    0    0  0.00000000000E+00  0.00000000000E+00  0.85533779972E+03  0.40842587727E+04  0.39936908958E+04 0.  0.
        1    1    3    3  502    0  0.19780711666E+04  0.80385195147E+02  0.16066495176E+03  0.19862126136E+04  0.50400001928E-02 0.  1.
       -1    1    3    3    0  502 -0.19780711666E+04 -0.80385195147E+02  0.69467284797E+03  0.20980461591E+04  0.50400001928E-02 0. -1.
</event>
<event>
 5   0  0.6161563E-08  0.3990841E+04  0.7818609E-02  0.8006397E-01
        2   -1    0    0  501    0  0.00000000000E+00  0.00000000000E+00  0.22207983806E+04  0.22207983806E+04  0.25500000920E-02 0.  1.
       -2   -1    0    0    0  501  0.00000000000E+00  0.00000000000E+00 -0.17929147448E+04  0.17929147448E+04  0.25500000920E-02 0. -1.
    10030    2    1    2    0    0  0.00000000000E+00  0.00000000000E+00  0.42788363582E+03  0.40137131253E+04  0.39908405940E+04 0.  0.
        1    1    3    3  502    0 -0.86331389073E+03 -0.15322341990E+03  0.20166751521E+04  0.21990377349E+04  0.50400001928E-02 0.  1.
       -1    1    3    3    0  502  0.86331389073E+03  0.15322341990E+03 -0.15887915163E+04  0.18146753904E+04  0.50400001928E-02 0. -1.
</event>
<event>
 5   0  0.1879500E-08  0.3991854E+04  0.7818609E-02  0.8006192E-01
        1   -1    0    0  501    0  0.00000000000E+00  0.00000000000E+00  0.24638018442E+04  0.24638018442E+04  0.50400001928E-02 0.  1.
       -1   -1    0    0    0  501  0.00000000000E+00  0.00000000000E+00 -0.16169013594E+04  0.16169013594E+04  0.50400001928E-02 0. -1.
    10030    2    1    2    0    0  0.00000000000E+00  0.00000000000E+00  0.84690048478E+03  0.40807032037E+04  0.39918539810E+04 0.  0.
        5    1    3    3  502    0 -0.65712953357E+03 -0.18748576959E+04  0.22736892351E+03  0.19996573009E+04  0.46999998093E+01 0.  1.
       -5    1    3    3    0  502  0.65712953357E+03  0.18748576959E+04  0.61953156126E+03  0.20810459027E+04  0.46999998093E+01 0. -1.
</event>
<event>
 5   0  0.5951623E-08  0.3992930E+04  0.7818609E-02  0.8005974E-01
       -2   -1    0    0    0  501  0.00000000000E+00  0.00000000000E+00  0.13628998492E+04  0.13628998492E+04  0.25500000920E-02 0.  1.
        2   -1    0    0  501    0  0.00000000000E+00  0.00000000000E+00 -0.29245532253E+04  0.29245532253E+04  0.25500000920E-02 0. -1.
    10030    2    1    2    0    0  0.00000000000E+00  0.00000000000E+00 -0.15616533762E+04  0.42874530745E+04  0.39929303274E+04 0.  0.
        2    1    3    3  502    0  0.10701499884E+03  0.19802483588E+04 -0.53354117888E+03  0.20536557555E+04  0.25500000920E-02 0. -1.
       -2    1    3    3    0  502 -0.10701499884E+03 -0.19802483588E+04 -0.10281121973E+04  0.22337973191E+04  0.25500000920E-02 0.  1.
</event>
<event>
 5   0  0.5951623E-08  0.4002780E+04  0.7818609E-02  0.8003986E-01
       -2   -1    0    0    0  501  0.00000000000E+00  0.00000000000E+00  0.16379765204E+04  0.16379765204E+04  0.25500000920E-02 0.  1.
        2   -1    0    0  501    0  0.00000000000E+00  0.00000000000E+00 -0.24454325801E+04  0.24454325801E+04  0.25500000920E-02 0. -1.
    10030    2    1    2    0    0  0.00000000000E+00  0.00000000000E+00 -0.80745605974E+03  0.40834091005E+04  0.40027796084E+04 0.  0.
        2    1    3    3  502    0 -0.73485332855E+03  0.17668828214E+04 -0.10017764399E+04  0.21599630447E+04  0.25500000920E-02 0. -1.
       -2    1    3    3    0  502  0.73485332855E+03 -0.17668828214E+04  0.19432038013E+03  0.19234460557E+04  0.25500000920E-02 0.  1.
</event>
<event>
 5   0  0.5846812E-08  0.4025191E+04  0.7818609E-02  0.7999484E-01
        2   -1    0    0  501    0  0.00000000000E+00  0.00000000000E+00  0.13462857764E+04  0.13462857764E+04  0.25500000920E-02 0. -1.
       -2   -1    0    0    0  501  0.00000000000E+00  0.00000000000E+00 -0.30086776114E+04  0.30086776114E+04  0.25500000920E-02 0.  1.
    10030    2    1    2    0    0  0.00000000000E+00  0.00000000000E+00 -0.16623918350E+04  0.43549633878E+04  0.40251906162E+04 0.  0.
        4    1    3    3  502    0  0.43518878146E+03 -0.29724280282E+03 -0.29326974014E+04  0.29796741803E+04  0.12699999809E+01 0.  1.
       -4    1    3    3    0  502 -0.43518878146E+03  0.29724280282E+03  0.12703055665E+04  0.13752892076E+04  0.12699999809E+01 0. -1.
</event>
<event>
 5   0  0.5945387E-08  0.3967190E+04  0.7818609E-02  0.8011198E-01
       -2   -1    0    0    0  501  0.00000000000E+00  0.00000000000E+00  0.14625001510E+04  0.14625001510E+04  0.25500000920E-02 0.  1.
        2   -1    0    0  501    0  0.00000000000E+00  0.00000000000E+00 -0.26903578403E+04  0.26903578403E+04  0.25500000920E-02 0. -1.
    10030    2    1    2    0    0  0.00000000000E+00  0.00000000000E+00 -0.12278576893E+04  0.41528579913E+04  0.39671898103E+04 0.  0.
        3    1    3    3  502    0 -0.93441703502E+03  0.41862373339E+03  0.11644832621E+04  0.15506135248E+04  0.10100000352E+00 0.  1.
       -3    1    3    3    0  502  0.93441703502E+03 -0.41862373339E+03 -0.23923409514E+04  0.26022444665E+04  0.10100000352E+00 0. -1.
</event>
<event>
 5   0  0.6161563E-08  0.4039308E+04  0.7818609E-02  0.7996664E-01
        2   -1    0    0  501    0  0.00000000000E+00  0.00000000000E+00  0.33211094358E+04  0.33211094358E+04  0.25500000920E-02 0. -1.
       -2   -1    0    0    0  501  0.00000000000E+00  0.00000000000E+00 -0.12282044299E+04  0.12282044299E+04  0.25500000920E-02 0.  1.
    10030    2    1    2    0    0  0.00000000000E+00  0.00000000000E+00  0.20929050059E+04  0.45493138657E+04  0.40393075254E+04 0.  0.
        1    1    3    3  502    0 -0.14774644860E+04  0.11668809318E+04  0.18698476995E+04  0.26534586554E+04  0.50400001928E-02 0. -1.
       -1    1    3    3    0  502  0.14774644860E+04 -0.11668809318E+04  0.22305730639E+03  0.18958552103E+04  0.50400001928E-02 0.  1.
</event>
<event>
 5   0  0.5888700E-08  0.4001850E+04  0.7818609E-02  0.8004173E-01
        2   -1    0    0  501    0  0.00000000000E+00  0.00000000000E+00  0.18952282802E+04  0.18952282802E+04  0.25500000920E-02 0. -1.
       -2   -1    0    0    0  501  0.00000000000E+00  0.00000000000E+00 -0.21125167799E+04  0.21125167799E+04  0.25500000920E-02 0.  1.
    10030    2    1    2    0    0  0.00000000000E+00  0.00000000000E+00 -0.21728849968E+03  0.40077450601E+04  0.40018503438E+04 0.  0.
        5    1    3    3  502    0  0.28479428797E+03  0.21902354971E+03 -0.20799441543E+04  0.21107507851E+04  0.46999998093E+01 0.  1.
       -5    1    3    3    0  502 -0.28479428797E+03 -0.21902354971E+03  0.18626556546E+04  0.18969942750E+04  0.46999998093E+01 0. -1.
</event>
<event>
 5   0  0.1879500E-08  0.4025395E+04  0.7818609E-02  0.7999443E-01
       -1   -1    0    0    0  501  0.00000000000E+00  0.00000000000E+00  0.20003959634E+04  0.20003959634E+04  0.50400001928E-02 0.  1.
        1   -1    0    0  501    0  0.00000000000E+00  0.00000000000E+00 -0.20250745167E+04  0.20250745168E+04  0.50400001928E-02 0. -1.
    10030    2    1    2    0    0  0.00000000000E+00  0.00000000000E+00 -0.24678553315E+02  0.40254704802E+04  0.40253948323E+04 0.  0.
        4    1    3    3  502    0  0.18016296796E+03  0.19693482642E+04  0.36204456820E+03  0.20104400421E+04  0.12699999809E+01 0.  1.
       -4    1    3    3    0  502 -0.18016296796E+03 -0.19693482642E+04 -0.38672312151E+03  0.20150304381E+04  0.12699999809E+01 0. -1.
</event>
<event>
 5   0  0.1879500E-08  0.3999561E+04  0.7818609E-02  0.8004635E-01
        1   -1    0    0  501    0  0.00000000000E+00  0.00000000000E+00  0.18784949494E+04  0.18784949494E+04  0.50400001928E-02 0.  1.
       -1   -1    0    0    0  501  0.00000000000E+00  0.00000000000E+00 -0.21288971032E+04  0.21288971032E+04  0.50400001928E-02 0. -1.
    10030    2    1    2    0    0  0.00000000000E+00  0.00000000000E+00 -0.25040215384E+03  0.40073920526E+04  0.39995612040E+04 0.  0.
        5    1    3    3  502    0 -0.43884051331E+03  0.16875957186E+04 -0.11061685778E+04  0.20649918446E+04  0.46999998093E+01 0. -1.
       -5    1    3    3    0  502  0.43884051331E+03 -0.16875957186E+04  0.85576642399E+03  0.19424002080E+04  0.46999998093E+01 0.  1.
</event>
<event>
 5   0  0.5846812E-08  0.3994360E+04  0.7818609E-02  0.8005685E-01
       -2   -1    0    0    0  501  0.00000000000E+00  0.00000000000E+00  0.18037294642E+04  0.18037294642E+04  0.25500000920E-02 0.  1.
        2   -1    0    0  501    0  0.00000000000E+00  0.00000000000E+00 -0.22113782591E+04  0.22113782591E+04  0.25500000920E-02 0. -1.
    10030    2    1    2    0    0  0.00000000000E+00  0.00000000000E+00 -0.40764879493E+03  0.40151077233E+04  0.39943600852E+04 0.  0.
        4    1    3    3  502    0  0.10230103507E+04  0.80135395311E+02 -0.19261286233E+04  0.21824172254E+04  0.12699999809E+01 0. -1.
       -4    1    3    3    0  502 -0.10230103507E+04 -0.80135395311E+02  0.15184798284E+04  0.18326904980E+04  0.12699999809E+01 0.  1.
</event>
<event>
 5   0  0.5951623E-08  0.3999945E+04  0.7818609E-02  0.8004558E-01
        2   -1    0    0  501    0  0.00000000000E+00  0.00000000000E+00  0.17907536411E+04  0.17907536411E+04  0.25500000920E-02 0.  1.
       -2   -1    0    0    0  501  0.00000000000E+00  0.00000000000E+00 -0.22336354520E+04  0.22336354520E+04  0.25500000920E-02 0. -1.
    10030    2    1    2    0    0  0.00000000000E+00  0.00000000000E+00 -0.44288181086E+03  0.40243890931E+04  0.39999454090E+04 0.  0.
        2    1    3    3  502    0 -0.19264541887E+04  0.45258271414E+03  0.69869435082E+02  0.19801360035E+04  0.25500000920E-02 0.  1.
       -2    1    3    3    0  502  0.19264541887E+04 -0.45258271414E+03 -0.51275124595E+03  0.20442530897E+04  0.25500000920E-02 0. -1.
</event>
<event>
 5   0  0.1879500E-08  0.3975676E+04  0.7818609E-02  0.8009472E-01
        1   -1    0    0  501    0  0.00000000000E+00  0.00000000000E+00  0.17912185569E+04  0.17912185569E+04  0.50400001928E-02 0. -1.
       -1   -1    0    0    0  501  0.00000000000E+00  0.00000000000E+00 -0.22060396659E+04  0.22060396660E+04  0.50400001928E-02 0.  1.
    10030    2    1    2    0    0  0.00000000000E+00  0.00000000000E+00 -0.41482110902E+03  0.39972582229E+04  0.39756756341E+04 0.  0.
        5    1    3    3  502    0  0.10328438176E+04  0.87160588712E+03  0.12582457836E+04  0.18465285581E+04  0.46999998093E+01 0. -1.
       -5    1    3    3    0  502 -0.10328438176E+04 -0.87160588712E+03 -0.16730668926E+04  0.21507296648E+04  0.46999998093E+01 0.  1.
</event>
<event>
 5   0  0.1879500E-08  0.4000724E+04  0.7818609E-02  0.8004401E-01
        1   -1    0    0  501    0  0.00000000000E+00  0.00000000000E+00  0.17992880390E+04  0.17992880390E+04  0.50400001928E-02 0.  1.
       -1   -1    0    0    0  501  0.00000000000E+00  0.00000000000E+00 -0.22239062289E+04  0.22239062289E+04  0.50400001928E-02 0. -1.
    10030    2    1    2    0    0  0.00000000000E+00  0.00000000000E+00 -0.42461818994E+03  0.40231942679E+04  0.40007238732E+04 0.  0.
        4    1    3    3  502    0  0.49613825056E+03 -0.12033641327E+03  0.17326719886E+04  0.18063188669E+04  0.12699999809E+01 0.  1.
       -4    1    3    3    0  502 -0.49613825056E+03  0.12033641327E+03 -0.21572901785E+04  0.22168754009E+04  0.12699999809E+01 0. -1.
</event>
<event>
 5   0  0.5888700E-08  0.3997963E+04  0.7818609E-02  0.8004958E-01
        2   -1    0    0  501    0  0.00000000000E+00  0.00000000000E+00  0.15860064822E+04  0.15860064822E+04  0.25500000920E-02 0.  1.
       -2   -1    0    0    0  501  0.00000000000E+00  0.00000000000E+00 -0.25194902158E+04  0.25194902158E+04  0.25500000920E-02 0. -1.
    10030    2    1    2    0    0  0.00000000000E+00  0.00000000000E+00 -0.93348373369E+03  0.41054966980E+04  0.39979633886E+04 0.  0.
        5    1    3    3  502    0 -0.10863705939E+04  0.41636654800E+03  0.12025087144E+04  0.16732039529E+04  0.46999998093E+01 0.  1.
       -5    1    3    3    0  502  0.10863705939E+04 -0.41636654800E+03 -0.21359924481E+04  0.24322927451E+04  0.46999998093E+01 0. -1.
</event>
<event>
 5   0  0.1879500E-08  0.4035674E+04  0.7818609E-02  0.7997388E-01
        1   -1    0    0  501    0  0.00000000000E+00  0.00000000000E+00  0.18476802294E+04  0.18476802294E+04  0.50400001928E-02 0.  1.
       -1   -1    0    0    0  501  0.00000000000E+00  0.00000000000E+00 -0.22036638893E+04  0.22036638893E+04  0.50400001928E-02 0. -1.
    10030    2    1    2    0    0  0.00000000000E+00  0.00000000000E+00 -0.35598365994E+03  0.40513441187E+04  0.40356740208E+04 0.  0.
        2    1    3    3  502    0 -0.24742035520E+02 -0.13149270144E+04 -0.17143003706E+04  0.21606644770E+04  0.25500000920E-02 0. -1.
       -2    1    3    3    0  502  0.24742035520E+02  0.13149270144E+04  0.13583167106E+04  0.18906796418E+04  0.25500000920E-02 0.  1.
</event>
<event>
 5   0  0.1879500E-08  0.3876495E+04  0.7818609E-02  0.8029936E-01
       -1   -1    0    0    0  501  0.00000000000E+00  0.00000000000E+00  0.26139767031E+04  0.26139767031E+04  0.50400001928E-02 0.  1.
        1   -1    0    0  501    0  0.00000000000E+00  0.00000000000E+00 -0.14371987493E+04  0.14371987493E+04  0.50400001928E-02 0. -1.
    10030    2    1    2    0    0  0.00000000000E+00  0.00000000000E+00  0.11767779538E+04  0.40511754523E+04  0.38764953493E+04 0.  0.
        3    1    3    3  502    0  0.15742238259E+04  0.27900586509E+03  0.17335679028E+04  0.23582371829E+04  0.10100000352E+00 0. -1.
       -3    1    3    3    0  502 -0.15742238259E+04 -0.27900586509E+03 -0.55678994903E+03  0.16929382695E+04  0.10100000352E+00 0.  1.
</event>
<event>
 5   0  0.1879500E-08  0.3981744E+04  0.7818609E-02  0.8008240E-01
        1   -1    0    0  501    0  0.00000000000E+00  0.00000000000E+00  0.20726095380E+04  0.20726095380E+04  0.50400001928E-02 0. -1.
       -1   -1    0    0    0  501  0.00000000000E+00  0.00000000000E+00 -0.19123579553E+04  0.19123579553E+04  0.50400001928E-02 0.  1.
    10030    2    1    2    0    0  0.00000000000E+00  0.00000000000E+00  0.16025158271E+03  0.39849674933E+04  0.39817440090E+04 0.  0.
        1    1    3    3  502    0  0.32357255644E+03  0.15985126056E+04  0.12228161218E+04  0.20384359243E+04  0.50400001928E-02 0. -1.
       -1    1    3    3    0  502 -0.32357255644E+03 -0.15985126056E+04 -0.10625645391E+04  0.19465315691E+04  0.50400001928E-02 0.  1.
</event>
<event>
 5   0  0.6161563E-08  0.3955600E+04  0.7818609E-02  0.8013564E-01
        2   -1    0    0  501    0  0.00000000000E+00  0.00000000000E+00  0.17110338285E+04  0.17110338285E+04  0.25500000920E-02 0.  1.
       -2   -1    0    0    0  501  0.00000000000E+00  0.00000000000E+00 -0.22861574803E+04  0.22861574803E+04  0.25500000920E-02 0. -1.
    10030    2    1    2    0    0  0.00000000000E+00  0.00000000000E+00 -0.57512365180E+03  0.39971913087E+04  0.39555999727E+04 0.  0.
        1    1    3    3  502    0 -0.55099999967E+03  0.18974335014E+04 -0.19809907226E+03  0.19857235796E+04  0.50400001928E-02 0. -1.
       -1    1    3    3    0  502  0.55099999967E+03 -0.18974335014E+04 -0.37702457953E+03  0.20114677292E+04  0.50400001928E-02 0.  1.
</event>
<event>
 5   0  0.5945387E-08  0.4002716E+04  0.7818609E-02  0.8003999E-01
       -2   -1    0    0    0  501  0.00000000000E+00  0.00000000000E+00  0.31514593115E+04  0.31514593115E+04  0.25500000920E-02 0. -1.
        2   -1    0    0  501    0  0.00000000000E+00  0.00000000000E+00 -0.12709771853E+04  0.12709771853E+04  0.25500000920E-02 0.  1.
    10030    2    1    2    0    0  0.00000000000E+00  0.00000000000E+00  0.18804821262E+04  0.44224364968E+04  0.40027155209E+04 0.  0.
        3    1    3    3  502    0 -0.13579765141E+04 -0.69308592106E+03  0.23727131231E+04  0.28203254921E+04  0.10100000352E+00 0. -1.
       -3    1    3    3    0  502  0.13579765141E+04  0.69308592106E+03 -0.49223099691E+03  0.16021110047E+04  0.10100000352E+00 0.  1.
</event>
<event>
 5   0  0.5888700E-08  0.3987674E+04  0.7818609E-02  0.8007038E-01
        2   -1    0    0  501    0  0.00000000000E+00  0.00000000000E+00  0.23487210546E+04  0.23487210546E+04  0.25500000920E-02 0. -1.
       -2   -1    0    0    0  501  0.00000000000E+00  0.00000000000E+00 -0.16925743636E+04  0.16925743636E+04  0.25500000920E-02 0.  1.
    10030    2    1    2    0    0  0.00000000000E+00  0.00000000000E+00  0.65614669100E+03  0.40412954182E+04  0.39876735294E+04 0.  0.
        5    1    3    3  502    0 -0.12985583056E+04  0.28643473131E+03  0.18336695402E+04  0.22650970401E+04  0.46999998093E+01 0. -1.
       -5    1    3    3    0  502  0.12985583056E+04 -0.28643473131E+03 -0.11775228492E+04  0.17761983782E+04  0.46999998093E+01 0.  1.
</event>
<event>
 5   0  0.5846812E-08  0.4000611E+04  0.7818609E-02  0.8004423E-01
       -2   -1    0    0    0  501  0.00000000000E+00  0.00000000000E+00  0.20516005918E+04  0.20516005918E+04  0.25500000920E-02 0.  1.
        2   -1    0    0  501    0  0.00000000000E+00  0.00000000000E+00 -0.19502929944E+04  0.19502929944E+04  0.25500000920E-02 0. -1.
    10030    2    1    2    0    0  0.00000000000E+00  0.00000000000E+00  0.10130759743E+03  0.40018935862E+04  0.40006110841E+04 0.  0.
        4    1    3    3  502    0  0.19628076085E+04 -0.32367112057E+03 -0.15880278728E+03  0.19956444174E+04  0.12699999809E+01 0.  1.
       -4    1    3    3    0  502 -0.19628076085E+04  0.32367112057E+03  0.26011038471E+03  0.20062491689E+04  0.12699999809E+01 0. -1.
</event>
<event>
 5   0  0.6161563E-08  0.4129749E+04  0.7818609E-02  0.7978872E-01
        2   -1    0    0  501    0  0.00000000000E+00  0.00000000000E+00  0.17489883823E+04  0.17489883823E+04  0.25500000920E-02 0. -1.
       -2   -1    0    0    0  501  0.00000000000E+00  0.00000000000E+00 -0.24378131551E+04  0.24378131551E+04  0.25500000920E-02 0.  1.
    10030    2    1    2    0    0  0.00000000000E+00  0.00000000000E+00 -0.68882477280E+03  0.41868015374E+04  0.41297490900E+04 0.  0.
        1    1    3    3  502    0 -0.14360782473E+03 -0.14416096703E+04 -0.18360802593E+04  0.23388143080E+04  0.50400001928E-02 0.  1.
       -1    1    3    3    0  502  0.14360782473E+03  0.14416096703E+04  0.11472554865E+04  0.18479872294E+04  0.50400001928E-02 0. -1.
</event>
<event>
 5   0  0.1879500E-08  0.3979237E+04  0.7818609E-02  0.8008748E-01
       -1   -1    0    0    0  501  0.00000000000E+00  0.00000000000E+00  0.18189816124E+04  0.18189816124E+04  0.50400001928E-02 0. -1.
        1   -1    0    0  501    0  0.00000000000E+00  0.00000000000E+00 -0.21762624356E+04  0.21762624356E+04  0.50400001928E-02 0.  1.
    10030    2    1    2    0    0  0.00000000000E+00  0.00000000000E+00 -0.35728082316E+03  0.39952440480E+04  0.39792367882E+04 0.  0.
        2    1    3    3  502    0 -0.44967432168E+03  0.72174184571E+03 -0.19846154922E+04  0.21591241139E+04  0.25500000920E-02 0.  1.
       -2    1    3    3    0  502  0.44967432168E+03 -0.72174184571E+03  0.16273346690E+04  0.18361199341E+04  0.25500000920E-02 0. -1.
</event>
<event>
 5   0  0.1879500E-08  0.3898552E+04  0.7818609E-02  0.8025330E-01
        1   -1    0    0  501    0  0.00000000000E+00  0.00000000000E+00  0.23469549500E+04  0.23469549501E+04  0.50400001928E-02 0.  1.
       -1   -1    0    0    0  501  0.00000000000E+00  0.00000000000E+00 -0.16189816054E+04  0.16189816054E+04  0.50400001928E-02 0. -1.
    10030    2    1    2    0    0  0.00000000000E+00  0.00000000000E+00  0.72797334464E+03  0.39659365555E+04  0.38985519839E+04 0.  0.
        3    1    3    3  502    0 -0.25974172573E+03 -0.18786071388E+04  0.82238182023E+03  0.20671096765E+04  0.10100000352E+00 0.  1.
       -3    1    3    3    0  502  0.25974172573E+03  0.18786071388E+04 -0.94408475595E+02  0.18988268790E+04  0.10100000352E+00 0. -1.
</event>
<event>
 5   0  0.5945387E-08  0.4021592E+04  0.7818609E-02  0.8000205E-01
        2   -1    0    0  501    0  0.00000000000E+00  0.00000000000E+00  0.23631439272E+04  0.23631439272E+04  0.25500000920E-02 0.  1.
       -2   -1    0    0    0  501  0.00000000000E+00  0.00000000000E+00 -0.17109834491E+04  0.17109834491E+04  0.25500000920E-02 0. -1.
    10030    2    1    2    0    0  0.00000000000E+00  0.00000000000E+00  0.65216047812E+03  0.40741273764E+04  0.40215917980E+04 0.  0.
        3    1    3    3  502    0 -0.18743709602E+04  0.49696051943E+03 -0.21290745096E+03  0.19507859562E+04  0.10100000352E+00 0. -1.
       -3    1    3    3    0  502  0.18743709602E+04 -0.49696051943E+03  0.86506792909E+03  0.21233414201E+04  0.10100000352E+00 0.  1.
</event>
<event>
 5   0  0.5945387E-08  0.3999837E+04  0.7818609E-02  0.8004579E-01
       -2   -1    0    0    0  501  0.00000000000E+00  0.00000000000E+00  0.29051494659E+04  0.29051494659E+04  0.25500000920E-02 0.  1.
        2   -1    0    0  501    0  0.00000000000E+00  0.00000000000E+00 -0.13767535967E+04  0.13767535967E+04  0.25500000920E-02 0. -1.
    10030    2    1    2    0    0  0.00000000000E+00  0.00000000000E+00  0.15283958692E+04  0.42819030626E+04  0.39998374847E+04 0.  0.
        3    1    3    3  502    0  0.63445655164E+03  0.11266892178E+04  0.23974718963E+04  0.27239374466E+04  0.10100000352E+00 0.  1.
       -3    1    3    3    0  502 -0.63445655164E+03 -0.11266892178E+04 -0.86907602708E+03  0.15579656159E+04  0.10100000352E+00 0. -1.
</event>
<event>
 5   0  0.1879500E-08  0.4008026E+04  0.7818609E-02  0.8002929E-01
       -1   -1    0    0    0  501  0.00000000000E+00  0.00000000000E+00  0.21683396937E+04  0.21683396937E+04  0.50400001928E-02 0.  1.
        1   -1    0    0  501    0  0.00000000000E+00  0.00000000000E+00 -0.18521398809E+04  0.18521398809E+04  0.50400001928E-02 0. -1.
    10030    2    1    2    0    0  0.00000000000E+00  0.00000000000E+00  0.31619981277E+03  0.40204795746E+04  0.40080261587E+04 0.  0.
        4    1    3    3  502    0  0.58763294502E+02 -0.19857753345E+04  0.42218584562E+03  0.20310094301E+04  0.12699999809E+01 0. -1.
       -4    1    3    3    0  502 -0.58763294502E+02  0.19857753345E+04 -0.10598603286E+03  0.19894701445E+04  0.12699999809E+01 0.  1.
</event>
<event>
 5   0  0.1879500E-08  0.3987632E+04  0.7818609E-02  0.8007046E-01
       -1   -1    0    0    0  501  0.00000000000E+00  0.00000000000E+00  0.26748383040E+04  0.26748383040E+04  0.50400001928E-02 0. -1.
        1   -1    0    0  501    0  0.00000000000E+00  0.00000000000E+00 -0.14861837922E+04  0.14861837922E+04  0.50400001928E-02 0.  1.
    10030    2    1    2    0    0  0.00000000000E+00  0.00000000000E+00  0.11886545118E+04  0.41610220962E+04  0.39876315447E+04 0.  0.
        1    1    3    3  502    0  0.12692278607E+04 -0.49611429181E+03  0.21130266547E+04  0.25143489011E+04  0.50400001928E-02 0. -1.
       -1    1    3    3    0  502 -0.12692278607E+04  0.49611429181E+03 -0.92437214286E+03  0.16466731951E+04  0.50400001928E-02 0.  1.
</event>
<event>
 5   0  0.5888700E-08  0.4000278E+04  0.7818609E-02  0.8004490E-01
       -2   -1    0    0    0  501  0.00000000000E+00  0.00000000000E+00  0.16699994790E+04  0.16699994790E+04  0.25500000920E-02 0.  1.
        2   -1    0    0  501    0  0.00000000000E+00  0.00000000000E+00 -0.23955434166E+04  0.23955434166E+04  0.25500000920E-02 0. -1.
    10030    2    1    2    0    0  0.00000000000E+00  0.00000000000E+00 -0.72554393761E+03  0.40655428956E+04  0.40002781192E+04 0.  0.
        5    1    3    3  502    0  0.16166854955E+04 -0.75524740866E+03 -0.12810977049E+04  0.21966574743E+04  0.46999998093E+01 0.  1.
       -5    1    3    3    0  502 -0.16166854955E+04  0.75524740866E+03  0.55555376730E+03  0.18688854213E+04  0.46999998093E+01 0. -1.
</event>
<event>
 5   0  0.1879500E-08  0.3978825E+04  0.7818609E-02  0.8008832E-01
        1   -1    0    0  501    0  0.00000000000E+00  0.00000000000E+00  0.24710696046E+04  0.24710696046E+04  0.50400001928E-02 0. -1.
       -1   -1    0    0    0  501  0.00000000000E+00  0.00000000000E+00 -0.16016390503E+04  0.16016390503E+04  0.50400001928E-02 0.  1.
    10030    2    1    2    0    0  0.00000000000E+00  0.00000000000E+00  0.86943055423E+03  0.40727086549E+04  0.39788247384E+04 0.  0.
        1    1    3    3  502    0 -0.13359952866E+04  0.67784188190E+03  0.17745739728E+04  0.23223836478E+04  0.50400001928E-02 0. -1.
       -1    1    3    3    0  502  0.13359952866E+04 -0.67784188190E+03 -0.90514341852E+03  0.17503250072E+04  0.50400001928E-02 0.  1.
</event>
<event>
 5   0  0.1879500E-08  0.3814742E+04  0.7818609E-02  0.8042999E-01
        1   -1    0    0  501    0  0.00000000000E+00  0.00000000000E+00  0.25780978850E+04  0.25780978850E+04  0.50400001928E-02 0.  1.
       -1   -1    0    0    0  501  0.00000000000E+00  0.00000000000E+00 -0.14111424015E+04  0.14111424015E+04  0.50400001928E-02 0. -1.
    10030    2    1    2    0    0  0.00000000000E+00  0.00000000000E+00  0.11669554835E+04  0.39892402865E+04  0.38147415329E+04 0.  0.
        1    1    3    3  502    0  0.42456196004E+03  0.18244551338E+04  0.95932585665E+03  0.21045653927E+04  0.50400001928E-02 0. -1.
       -1    1    3    3    0  502 -0.42456196004E+03 -0.18244551338E+04  0.20762962681E+03  0.18846748937E+04  0.50400001928E-02 0.  1.
</event>
<event>
 5   0  0.5846812E-08  0.3997914E+04  0.7818609E-02  0.8004968E-01
       -2   -1    0    0    0  501  0.00000000000E+00  0.00000000000E+00  0.19766750470E+04  0.19766750470E+04  0.25500000920E-02 0. -1.
        2   -1    0    0  501    0  0.00000000000E+00  0.00000000000E+00 -0.20214897320E+04  0.20214897320E+04  0.25500000920E-02 0.  1.
    10030    2    1    2    0    0  0.00000000000E+00  0.00000000000E+00 -0.44814684967E+02  0.39981647790E+04  0.39979136114E+04 0.  0.
        4    1    3    3  502    0  0.14358321796E+04 -0.13843349281E+04 -0.15594272061E+03  0.20005791627E+04  0.12699999809E+01 0. -1.
       -4    1    3    3    0  502 -0.14358321796E+04  0.13843349281E+04  0.11112803565E+03  0.19975856163E+04  0.12699999809E+01 0.  1.
</event>
<event>
 5   0  0.1879500E-08  0.4001992E+04  0.7818609E-02  0.8004145E-01
        1   -1    0    0  501    0  0.00000000000E+00  0.00000000000E+00  0.23599721193E+04  0.23599721193E+04  0.50400001928E-02 0.  1.
       -1   -1    0    0    0  501  0.00000000000E+00  0.00000000000E+00 -0.16966237562E+04  0.16966237562E+04  0.50400001928E-02 0. -1.
    10030    2    1    2    0    0  0.00000000000E+00  0.00000000000E+00  0.66334836315E+03  0.40565958755E+04  0.40019918849E+04 0.  0.
        3    1    3    3  502    0 -0.88931253279E+02 -0.13627107411E+04 -0.11508460200E+04  0.17858711890E+04  0.10100000352E+00 0. -1.
       -3    1    3    3    0  502  0.88931253279E+02  0.13627107411E+04  0.18141943832E+04  0.22707246865E+04  0.10100000352E+00 0.  1.
</event>
<event>
 5   0  0.1879500E-08  0.3994736E+04  0.7818609E-02  0.8005609E-01
        1   -1    0    0  501    0  0.00000000000E+00  0.00000000000E+00  0.12324348788E+04  0.12324348789E+04  0.50400001928E-02 0. -1.
       -1   -1    0    0    0  501  0.00000000000E+00  0.00000000000E+00 -0.32370711045E+04  0.32370711045E+04  0.50400001928E-02 0.  1.
    10030    2    1    2    0    0  0.00000000000E+00  0.00000000000E+00 -0.20046362256E+04  0.44695059833E+04  0.39947362038E+04 0.  0.
        3    1    3    3  502    0  0.22271791268E+02 -0.19881574740E+04 -0.12152322847E+04  0.23302479890E+04  0.10100000352E+00 0. -1.
       -3    1    3    3    0  502 -0.22271791268E+02  0.19881574740E+04 -0.78940394098E+03  0.21392579944E+04  0.10100000352E+00 0.  1.
</event>
<event>
 5   0  0.1879500E-08  0.4000371E+04  0.7818609E-02  0.8004472E-01
        1   -1    0    0  501    0  0.00000000000E+00  0.00000000000E+00  0.18391265493E+04  0.18391265493E+04  0.50400001928E-02 0.  1.
       -1   -1    0    0    0  501  0.00000000000E+00  0.00000000000E+00 -0.21753491963E+04  0.21753491964E+04  0.50400001928E-02 0. -1.
    10030    2    1    2    0    0  0.00000000000E+00  0.00000000000E+00 -0.33622264705E+03  0.40144757457E+04  0.40003712133E+04 0.  0.
        1    1    3    3  502    0 -0.13044754963E+04  0.15123878564E+04 -0.59243285170E+02  0.19981198952E+04  0.50400001928E-02 0.  1.
       -1    1    3    3    0  502  0.13044754963E+04 -0.15123878564E+04 -0.27697936188E+03  0.20163558505E+04  0.50400001928E-02 0. -1.
</event>
<event>
 5   0  0.1879500E-08  0.3989042E+04  0.7818609E-02  0.8006761E-01
        1   -1    0    0  501    0  0.00000000000E+00  0.00000000000E+00  0.25155513313E+04  0.25155513313E+04  0.50400001928E-02 0. -1.
       -1   -1    0    0    0  501  0.00000000000E+00  0.00000000000E+00 -0.15814084697E+04  0.15814084697E+04  0.50400001928E-02 0.  1.
    10030    2    1    2    0    0  0.00000000000E+00  0.00000000000E+00  0.93414286160E+03  0.40969598010E+04  0.39890420811E+04 0.  0.
        5    1    3    3  502    0 -0.75169137738E+03  0.99045414707E+03  0.20687655456E+04  0.24136802433E+04  0.46999998093E+01 0. -1.
       -5    1    3    3    0  502  0.75169137738E+03 -0.99045414707E+03 -0.11346226840E+04  0.16832795577E+04  0.46999998093E+01 0.  1.
</event>
<event>
 5   0  0.1879500E-08  0.3995640E+04  0.7818609E-02  0.8005427E-01
        1   -1    0    0  501    0  0.00000000000E+00  0.00000000000E+00  0.26489197397E+04  0.26489197397E+04  0.50400001928E-02 0. -1.
       -1   -1    0    0    0  501  0.00000000000E+00  0.00000000000E+00 -0.15067596544E+04  0.15067596544E+04  0.50400001928E-02 0.  1.
    10030    2    1    2    0    0  0.00000000000E+00  0.00000000000E+00  0.11421600853E+04  0.41556793941E+04  0.39956403199E+04 0.  0.
        5    1    3    3  502    0  0.62315705433E+03  0.68283387109E+03 -0.12709237177E+04  0.15715775501E+04  0.46999998093E+01 0.  1.
       -5    1    3    3    0  502 -0.62315705433E+03 -0.68283387109E+03  0.24130838030E+04  0.25841018440E+04  0.46999998093E+01 0. -1.
</event>
<event>
 5   0  0.1879500E-08  0.3872727E+04  0.7818609E-02  0.8030725E-01
        1   -1    0    0  501    0  0.00000000000E+00  0.00000000000E+00  0.24209693625E+04  0.24209693625E+04  0.50400001928E-02 0.  1.
       -1   -1    0    0    0  501  0.00000000000E+00  0.00000000000E+00 -0.15487616370E+04  0.15487616370E+04  0.50400001928E-02 0. -1.
    10030    2    1    2    0    0  0.00000000000E+00  0.00000000000E+00  0.87220772550E+03  0.39697309996E+04  0.38727274488E+04 0.  0.
        2    1    3    3  502    0 -0.14762464318E+04  0.27901635166E+03  0.16883209032E+04  0.22599958239E+04  0.25500000920E-02 0.  1.
       -2    1    3    3    0  502  0.14762464318E+04 -0.27901635166E+03 -0.81611317769E+03  0.17097351756E+04  0.25500000920E-02 0. -1.
</event>
<event>
 5   0  0.1879500E-08  0.4013242E+04  0.7818609E-02  0.8001881E-01
        1   -1    0    0  501    0  0.00000000000E+00  0.00000000000E+00  0.22669950971E+04  0.22669950971E+04  0.50400001928E-02 0. -1.
       -1   -1    0    0    0  501  0.00000000000E+00  0.00000000000E+00 -0.17761519191E+04  0.17761519191E+04  0.50400001928E-02 0.  1.
    10030    2    1    2    0    0  0.00000000000E+00  0.00000000000E+00  0.49084317798E+03  0.40431470161E+04  0.40132419275E+04 0.  0.
        2    1    3    3  502    0  0.73844396145E+03  0.10378433300E+04  0.18074945270E+04  0.22112111448E+04  0.25500000920E-02 0. -1.
       -2    1    3    3    0  502 -0.73844396145E+03 -0.10378433300E+04 -0.13166513490E+04  0.18319358713E+04  0.25500000920E-02 0.  1.
</event>
<event>
 5   0  0.1879500E-08  0.3955575E+04  0.7818609E-02  0.8013569E-01
        1   -1    0    0  501    0  0.00000000000E+00  0.00000000000E+00  0.20743654867E+04  0.20743654867E+04  0.50400001928E-02 0.  1.
       -1   -1    0    0    0  501  0.00000000000E+00  0.00000000000E+00 -0.18857056364E+04  0.18857056364E+04  0.50400001928E-02 0. -1.
    10030    2    1    2    0    0  0.00000000000E+00  0.00000000000E+00  0.18865985022E+03  0.39600711231E+04  0.39555746436E+04 0.  0.
        2    1    3    3  502    0  0.17078290673E+04  0.75081544084E+03 -0.56310426549E+03  0.19487150544E+04  0.25500000920E-02 0.  1.
       -2    1    3    3    0  502 -0.17078290673E+04 -0.75081544084E+03  0.75176411571E+03  0.20113560687E+04  0.25500000920E-02 0. -1.
</event>
<event>
 5   0  0.5888700E-08  0.3923205E+04  0.7818609E-02  0.8020220E-01
       -2   -1    0    0    0  501  0.00000000000E+00  0.00000000000E+00  0.17618858966E+04  0.17618858966E+04  0.25500000920E-02 0.  1.
        2   -1    0    0  501    0  0.00000000000E+00  0.00000000000E+00 -0.21839582523E+04  0.21839582523E+04  0.25500000920E-02 0. -1.
    10030    2    1    2    0    0  0.00000000000E+00  0.00000000000E+00 -0.42207235574E+03  0.39458441489E+04  0.39232054463E+04 0.  0.
        5    1    3    3  502    0  0.65474113471E+03  0.78120494610E+03  0.14746111196E+04  0.17926146171E+04  0.46999998093E+01 0.  1.
       -5    1    3    3    0  502 -0.65474113471E+03 -0.78120494610E+03 -0.18966834753E+04  0.21532295319E+04  0.46999998093E+01 0. -1.
</event>
<event>
 5   0  0.1879500E-08  0.3988974E+04  0.7818609E-02  0.8006775E-01
       -1   -1    0    0    0  501  0.00000000000E+00  0.00000000000E+00  0.14392520644E+04  0.14392520644E+04  0.50400001928E-02 0. -1.
        1   -1    0    0  501    0  0.00000000000E+00  0.00000000000E+00 -0.27639199872E+04  0.27639199872E+04  0.50400001928E-02 0.  1.
    10030    2    1    2    0    0  0.00000000000E+00  0.00000000000E+00 -0.13246679228E+04  0.42031720517E+04  0.39889735760E+04 0.  0.
        3    1    3    3  502    0  0.15146246749E+04 -0.48625490204E+03  0.60536800428E+03  0.17020582147E+04  0.10100000352E+00 0. -1.
       -3    1    3    3    0  502 -0.15146246749E+04  0.48625490204E+03 -0.19300359271E+04  0.25011138370E+04  0.10100000352E+00 0.  1.
</event>
<event>
 5   0  0.5945387E-08  0.3988590E+04  0.7818609E-02  0.8006852E-01
       -2   -1    0    0    0  501  0.00000000000E+00  0.00000000000E+00  0.20025886532E+04  0.20025886532E+04  0.25500000920E-02 0. -1.
        2   -1    0    0  501    0  0.00000000000E+00  0.00000000000E+00 -0.19860356170E+04  0.19860356170E+04  0.25500000920E-02 0.  1.
    10030    2    1    2    0    0  0.00000000000E+00  0.00000000000E+00  0.16553036248E+02  0.39886242702E+04  0.39885899220E+04 0.  0.
        3    1    3    3  502    0  0.11827064473E+04  0.15379880903E+04 -0.45325803487E+03  0.19923967383E+04  0.10100000352E+00 0.  1.
       -3    1    3    3    0  502 -0.11827064473E+04 -0.15379880903E+04  0.46981107112E+03  0.19962275319E+04  0.10100000352E+00 0. -1.
</event>
<event>
 5   0  0.1879500E-08  0.3994647E+04  0.7818609E-02  0.8005627E-01
       -1   -1    0    0    0  501  0.00000000000E+00  0.00000000000E+00  0.17716100570E+04  0.17716100570E+04  0.50400001928E-02 0.  1.
        1   -1    0    0  501    0  0.00000000000E+00  0.00000000000E+00 -0.22517943160E+04  0.22517943160E+04  0.50400001928E-02 0. -1.
    10030    2    1    2    0    0  0.00000000000E+00  0.00000000000E+00 -0.48018425895E+03  0.40234043730E+04  0.39946471467E+04 0.  0.
        4    1    3    3  502    0 -0.72850245721E+03 -0.16152495133E+04  0.68825522701E+03  0.19009060184E+04  0.12699999809E+01 0.  1.
       -4    1    3    3    0  502  0.72850245721E+03  0.16152495133E+04 -0.11684394860E+04  0.21224983547E+04  0.12699999809E+01 0. -1.
</event>
<event>
 5   0  0.5846812E-08  0.4002840E+04  0.7818609E-02  0.8003974E-01
       -2   -1    0    0    0  501  0.00000000000E+00  0.00000000000E+00  0.21097329650E+04  0.21097329650E+04  0.25500000920E-02 0. -1.
        2   -1    0    0  501    0  0.00000000000E+00  0.00000000000E+00 -0.18986680905E+04  0.18986680905E+04  0.25500000920E-02 0.  1.
    10030    2    1    2    0    0  0.00000000000E+00  0.00000000000E+00  0.21106487454E+03  0.40084010555E+04  0.40028403216E+04 0.  0.
        4    1    3    3  502    0  0.15337687743E+04 -0.97871266943E+03 -0.72950601660E+03  0.19602310536E+04  0.12699999809E+01 0.  1.
       -4    1    3    3    0  502 -0.15337687743E+04  0.97871266943E+03  0.94057089113E+03  0.20481700019E+04  0.12699999809E+01 0. -1.
</event>
<event>
 5   0  0.6161563E-08  0.3987325E+04  0.7818609E-02  0.8007108E-01
       -2   -1    0    0    0  501  0.00000000000E+00  0.00000000000E+00  0.21652726131E+04  0.21652726131E+04  0.25500000920E-02 0.  1.
        2   -1    0    0  501    0  0.00000000000E+00  0.00000000000E+00 -0.18356531779E+04  0.18356531779E+04  0.25500000920E-02 0. -1.
    10030    2    1    2    0    0  0.00000000000E+00  0.00000000000E+00  0.32961943522E+03  0.40009257910E+04  0.39873246937E+04 0.  0.
        1    1    3    3  502    0 -0.52527445005E+03  0.19227200148E+04  0.20882333676E+03  0.20040889923E+04  0.50400001928E-02 0. -1.
       -1    1    3    3    0  502  0.52527445005E+03 -0.19227200148E+04  0.12079609845E+03  0.19968367987E+04  0.50400001928E-02 0.  1.
</event>
<event>
 5   0  0.1879500E-08  0.3997298E+04  0.7818609E-02  0.8005092E-01
        1   -1    0    0  501    0  0.00000000000E+00  0.00000000000E+00  0.20579753071E+04  0.20579753071E+04  0.50400001928E-02 0.  1.
       -1   -1    0    0    0  501  0.00000000000E+00  0.00000000000E+00 -0.19410333170E+04  0.19410333170E+04  0.50400001928E-02 0. -1.
    10030    2    1    2    0    0  0.00000000000E+00  0.00000000000E+00  0.11694199009E+03  0.39990086242E+04  0.39972984060E+04 0.  0.
        3    1    3    3  502    0 -0.19331222323E+04  0.39677481994E+03 -0.25821902323E+03  0.19902434266E+04  0.10100000352E+00 0. -1.
       -3    1    3    3    0  502  0.19331222323E+04 -0.39677481994E+03  0.37516101332E+03  0.20087651976E+04  0.10100000352E+00 0.  1.
</event>
<event>
 5   0  0.5945387E-08  0.3855066E+04  0.7818609E-02  0.8034440E-01
        2   -1    0    0  501    0  0.00000000000E+00  0.00000000000E+00  0.27168729303E+04  0.27168729303E+04  0.25500000920E-02 0.  1.
       -2   -1    0    0    0  501  0.00000000000E+00  0.00000000000E+00 -0.13675216496E+04  0.13675216496E+04  0.25500000920E-02 0. -1.
    10030    2    1    2    0    0  0.00000000000E+00  0.00000000000E+00  0.13493512808E+04  0.40843945799E+04  0.38550655254E+04 0.  0.
        3    1    3    3  502    0  0.15780974013E+04  0.96576592896E+03  0.10187841911E+03  0.18529636963E+04  0.10100000352E+00 0. -1.
       -3    1    3    3    0  502 -0.15780974013E+04 -0.96576592896E+03  0.12474728617E+04  0.22314308836E+04  0.10100000352E+00 0.  1.
</event>
<event>
 5   0  0.1879500E-08  0.3999918E+04  0.7818609E-02  0.8004563E-01
        1   -1    0    0  501    0  0.00000000000E+00  0.00000000000E+00  0.24205768234E+04  0.24205768234E+04  0.50400001928E-02 0. -1.
       -1   -1    0    0    0  501  0.00000000000E+00  0.00000000000E+00 -0.16524306087E+04  0.16524306087E+04  0.50400001928E-02 0.  1.
    10030    2    1    2    0    0  0.00000000000E+00  0.00000000000E+00  0.76814621470E+03  0.40730074322E+04  0.39999176161E+04 0.  0.
        4    1    3    3  502    0 -0.66361051895E+02  0.13500328941E+04 -0.11169180422E+04  0.17534252565E+04  0.12699999809E+01 0.  1.
       -4    1    3    3    0  502  0.66361051895E+02 -0.13500328941E+04  0.18850642569E+04  0.23195821757E+04  0.12699999809E+01 0. -1.
</event>
<event>
 5   0  0.5951623E-08  0.4027308E+04  0.7818609E-02  0.7999060E-01
       -2   -1    0    0    0  501  0.00000000000E+00  0.00000000000E+00  0.22199995628E+04  0.22199995628E+04  0.25500000920E-02 0. -1.
        2   -1    0    0  501    0  0.00000000000E+00  0.00000000000E+00 -0.18264879404E+04  0.18264879404E+04  0.25500000920E-02 0.  1.
    10030    2    1    2    0    0  0.00000000000E+00  0.00000000000E+00  0.39351162241E+03  0.40464875031E+04  0.40273079986E+04 0.  0.
        2    1    3    3  502    0 -0.55481949094E+03  0.67181074833E+03 -0.16272817360E+04  0.18458602865E+04  0.25500000920E-02 0.  1.
       -2    1    3    3    0  502  0.55481949094E+03 -0.67181074833E+03  0.20207933584E+04  0.22006272166E+04  0.25500000920E-02 0. -1.
</event>
<event>
 5   0  0.1879500E-08  0.3988303E+04  0.7818609E-02  0.8006910E-01
       -1   -1    0    0    0  501  0.00000000000E+00  0.00000000000E+00  0.35448487552E+04  0.35448487552E+04  0.50400001928E-02 0.  1.
        1   -1    0    0  501    0  0.00000000000E+00  0.00000000000E+00 -0.11218079467E+04  0.11218079467E+04  0.50400001928E-02 0. -1.
    10030    2    1    2    0    0  0.00000000000E+00  0.00000000000E+00  0.24230408085E+04  0.46666567019E+04  0.39883026482E+04 0.  0.
        4    1    3    3  502    0 -0.11227304351E+04 -0.16361807899E+04  0.98036791827E+03  0.22133084004E+04  0.12699999809E+01 0. -1.
       -4    1    3    3    0  502  0.11227304351E+04  0.16361807899E+04  0.14426728902E+04  0.24533483015E+04  0.12699999809E+01 0.  1.
</event>
<event>
 5   0  0.1879500E-08  0.3967044E+04  0.7818609E-02  0.8011228E-01
        1   -1    0    0  501    0  0.00000000000E+00  0.00000000000E+00  0.16077574835E+04  0.16077574835E+04  0.50400001928E-02 0.  1.
       -1   -1    0    0    0  501  0.00000000000E+00  0.00000000000E+00 -0.24471102983E+04  0.24471102983E+04  0.50400001928E-02 0. -1.
    10030    2    1    2    0    0  0.00000000000E+00  0.00000000000E+00 -0.83935281477E+03  0.40548677817E+04  0.39670441868E+04 0.  0.
        4    1    3    3  502    0 -0.18413338046E+04  0.38237172816E+03 -0.10642235278E+04  0.21608543793E+04  0.12699999809E+01 0.  1.
       -4    1    3    3    0  502  0.18413338046E+04 -0.38237172816E+03  0.22487071305E+03  0.18940134025E+04  0.12699999809E+01 0. -1.
</event>
<event>
 5   0  0.1879500E-08  0.3989445E+04  0.7818609E-02  0.8006679E-01
       -1   -1    0    0    0  501  0.00000000000E+00  0.00000000000E+00  0.20899856835E+04  0.20899856835E+04  0.50400001928E-02 0. -1.
        1   -1    0    0  501    0  0.00000000000E+00  0.00000000000E+00 -0.19038010247E+04  0.19038010247E+04  0.50400001928E-02 0.  1.
    10030    2    1    2    0    0  0.00000000000E+00  0.00000000000E+00  0.18618465877E+03  0.39937867082E+04  0.39894445157E+04 0.  0.
        2    1    3    3  502    0  0.21763891539E+03  0.30685296624E+02  0.20778264592E+04  0.20894188377E+04  0.25500000920E-02 0. -1.
       -2    1    3    3    0  502 -0.21763891539E+03 -0.30685296624E+02 -0.18916418004E+04  0.19043678705E+04  0.25500000920E-02 0.  1.
</event>
<event>
 5   0  0.5951623E-08  0.3996804E+04  0.7818609E-02  0.8005192E-01
        2   -1    0    0  501    0  0.00000000000E+00  0.00000000000E+00  0.22448320394E+04  0.22448320394E+04  0.25500000920E-02 0.  1.
       -2   -1    0    0    0  501  0.00000000000E+00  0.00000000000E+00 -0.17790244937E+04  0.17790244937E+04  0.25500000920E-02 0. -1.
    10030    2    1    2    0    0  0.00000000000E+00  0.00000000000E+00  0.46580754572E+03  0.40238565331E+04  0.39968043146E+04 0.  0.
        2    1    3    3  502    0  0.74787168446E+02 -0.11510476609E+04 -0.14100446830E+04  0.18217381388E+04  0.25500000920E-02 0. -1.
       -2    1    3    3    0  502 -0.74787168446E+02  0.11510476609E+04  0.18758522287E+04  0.22021183943E+04  0.25500000920E-02 0.  1.
</event>
<event>
 5   0  0.6161563E-08  0.4009381E+04  0.7818609E-02  0.8002657E-01
        2   -1    0    0  501    0  0.00000000000E+00  0.00000000000E+00  0.25324369818E+04  0.25324369818E+04  0.25500000920E-02 0. -1.
       -2   -1    0    0    0  501  0.00000000000E+00  0.00000000000E+00 -0.15869236872E+04  0.15869236872E+04  0.25500000920E-02 0.  1.
    10030    2    1    2    0    0  0.00000000000E+00  0.00000000000E+00  0.94551329458E+03  0.41193606689E+04  0.40093811157E+04 0.  0.
        1    1    3    3  502    0 -0.14488121487E+04 -0.12681335713E+04 -0.10073446998E+03  0.19280474139E+04  0.50400001928E-02 0. -1.
       -1    1    3    3    0  502  0.14488121487E+04  0.12681335713E+04  0.10462477646E+04  0.21913132550E+04  0.50400001928E-02 0.  1.
</event>
<event>
 5   0  0.5888700E-08  0.3982181E+04  0.7818609E-02  0.8008151E-01
       -2   -1    0    0    0  501  0.00000000000E+00  0.00000000000E+00  0.23808111241E+04  0.23808111241E+04  0.25500000920E-02 0.  1.
        2   -1    0    0  501    0  0.00000000000E+00  0.00000000000E+00 -0.16651638407E+04  0.16651638407E+04  0.25500000920E-02 0. -1.
    10030    2    1    2    0    0  0.00000000000E+00  0.00000000000E+00  0.71564728337E+03  0.40459749648E+04  0.39821806063E+04 0.  0.
        5    1    3    3  502    0 -0.11961372606E+03 -0.69672670849E+02  0.23759105993E+04  0.23799443250E+04  0.46999998093E+01 0.  1.
       -5    1    3    3    0  502  0.11961372606E+03  0.69672670849E+02 -0.16602633159E+04  0.16660306397E+04  0.46999998093E+01 0. -1.
</event>
<event>
 5   0  0.6161563E-08  0.4003024E+04  0.7818609E-02  0.8003937E-01
       -2   -1    0    0    0  501  0.00000000000E+00  0.00000000000E+00  0.16173590762E+04  0.16173590762E+04  0.25500000920E-02 0. -1.
        2   -1    0    0  501    0  0.00000000000E+00  0.00000000000E+00 -0.24769081818E+04  0.24769081818E+04  0.25500000920E-02 0.  1.
    10030    2    1    2    0    0  0.00000000000E+00  0.00000000000E+00 -0.85954910563E+03  0.40942672581E+04  0.40030238215E+04 0.  0.
        1    1    3    3  502    0 -0.13051338268E+04  0.12420714579E+04 -0.13213867170E+04  0.22343183901E+04  0.50400001928E-02 0.  1.
       -1    1    3    3    0  502  0.13051338268E+04 -0.12420714579E+04  0.46183761133E+03  0.18599488680E+04  0.50400001928E-02 0. -1.
</event>
<event>
 5   0  0.1879500E-08  0.3984830E+04  0.7818609E-02  0.8007614E-01
       -1   -1    0    0    0  501  0.00000000000E+00  0.00000000000E+00  0.17776055886E+04  0.17776055886E+04  0.50400001928E-02 0. -1.
        1   -1    0    0  501    0  0.00000000000E+00  0.00000000000E+00 -0.22331821903E+04  0.22331821903E+04  0.50400001928E-02 0.  1.
    10030    2    1    2    0    0  0.00000000000E+00  0.00000000000E+00 -0.45557660173E+03  0.40107877789E+04  0.39848298041E+04 0.  0.
        1    1    3    3  502    0 -0.18370848862E+04 -0.55479401360E+03 -0.76703936987E+03  0.20666462376E+04  0.50400001928E-02 0.  1.
       -1    1    3    3    0  502  0.18370848862E+04  0.55479401360E+03  0.31146276814E+03  0.19441415413E+04  0.50400001928E-02 0. -1.
</event>
<event>
 5   0  0.5888700E-08  0.3998668E+04  0.7818609E-02  0.8004815E-01
        2   -1    0    0  501    0  0.00000000000E+00  0.00000000000E+00  0.26121186054E+04  0.26121186054E+04  0.25500000920E-02 0.  1.
       -2   -1    0    0    0  501  0.00000000000E+00  0.00000000000E+00 -0.15303042455E+04  0.15303042456E+04  0.25500000920E-02 0. -1.
    10030    2    1    2    0    0  0.00000000000E+00  0.00000000000E+00  0.10818143599E+04  0.41424228510E+04  0.39986678741E+04 0.  0.
        5    1    3    3  502    0  0.14983572927E+04  0.12992610604E+04  0.27850222950E+03  0.20026830657E+04  0.46999998093E+01 0.  1.
       -5    1    3    3    0  502 -0.14983572927E+04 -0.12992610604E+04  0.80331213037E+03  0.21397397853E+04  0.46999998093E+01 0. -1.
</event>
<event>
 5   0  0.5846812E-08  0.3941432E+04  0.7818609E-02  0.8016467E-01
        2   -1    0    0  501    0  0.00000000000E+00  0.00000000000E+00  0.21635101969E+04  0.21635101969E+04  0.25500000920E-02 0.  1.
       -2   -1    0    0    0  501  0.00000000000E+00  0.00000000000E+00 -0.17951018426E+04  0.17951018426E+04  0.25500000920E-02 0. -1.
    10030    2    1    2    0    0  0.00000000000E+00  0.00000000000E+00  0.36840835430E+03  0.39586120395E+04  0.39414317911E+04 0.  0.
        4    1    3    3  502    0  0.71478213474E+03  0.15094989337E+04  0.12348130182E+04  0.20770809647E+04  0.12699999809E+01 0.  1.
       -4    1    3    3    0  502 -0.71478213474E+03 -0.15094989337E+04 -0.86640466395E+03  0.18815310748E+04  0.12699999809E+01 0. -1.
</event>
<event>
 5   0  0.5846812E-08  0.4009349E+04  0.7818609E-02  0.8002663E-01
       -2   -1    0    0    0  501  0.00000000000E+00  0.00000000000E+00  0.17120429353E+04  0.17120429353E+04  0.25500000920E-02 0. -1.
        2   -1    0    0  501    0  0.00000000000E+00  0.00000000000E+00 -0.23473240934E+04  0.23473240934E+04  0.25500000920E-02 0.  1.
    10030    2    1    2    0    0  0.00000000000E+00  0.00000000000E+00 -0.63528115818E+03  0.40593670287E+04  0.40093488903E+04 0.  0.
        4    1    3    3  502    0  0.37581838478E+03 -0.16572966270E+04 -0.13943196958E+04  0.21981812017E+04  0.12699999809E+01 0.  1.
       -4    1    3    3    0  502 -0.37581838478E+03  0.16572966270E+04  0.75903853761E+03  0.18611858271E+04  0.12699999809E+01 0. -1.
</event>
<event>
 5   0  0.1879500E-08  0.4016161E+04  0.7818609E-02  0.8001294E-01
       -1   -1    0    0    0  501  0.00000000000E+00  0.00000000000E+00  0.30348188080E+04  0.30348188080E+04  0.50400001928E-02 0.  1.
        1   -1    0    0  501    0  0.00000000000E+00  0.00000000000E+00 -0.13287076046E+04  0.13287076046E+04  0.50400001928E-02 0. -1.
    10030    2    1    2    0    0  0.00000000000E+00  0.00000000000E+00  0.17061112034E+04  0.43635264127E+04  0.40161607681E+04 0.  0.
        2    1    3    3  502    0  0.48051090690E+03  0.58567022962E+03 -0.11674942072E+04  0.13917410224E+04  0.25500000920E-02 0. -1.
       -2    1    3    3    0  502 -0.48051090690E+03 -0.58567022962E+03  0.28736054106E+04  0.29717853902E+04  0.25500000920E-02 0.  1.
</event>
<event>
 5   0  0.1879500E-08  0.4010732E+04  0.7818609E-02  0.8002385E-01
       -1   -1    0    0    0  501  0.00000000000E+00  0.00000000000E+00  0.14480644975E+04  0.14480644975E+04  0.50400001928E-02 0.  1.
        1   -1    0    0  501    0  0.00000000000E+00  0.00000000000E+00 -0.27771503080E+04  0.27771503080E+04  0.50400001928E-02 0. -1.
    10030    2    1    2    0    0  0.00000000000E+00  0.00000000000E+00 -0.13290858105E+04  0.42252148056E+04  0.40107319858E+04 0.  0.
        3    1    3    3  502    0 -0.67672566748E+02 -0.57021769485E+03 -0.26886904828E+04  0.27493243385E+04  0.10100000352E+00 0. -1.
       -3    1    3    3    0  502  0.67672566748E+02  0.57021769485E+03  0.13596046723E+04  0.14758904671E+04  0.10100000352E+00 0.  1.
</event>
<event>
 5   0  0.1879500E-08  0.3993754E+04  0.7818609E-02  0.8005808E-01
        1   -1    0    0  501    0  0.00000000000E+00  0.00000000000E+00  0.18490457521E+04  0.18490457521E+04  0.50400001928E-02 0. -1.
       -1   -1    0    0    0  501  0.00000000000E+00  0.00000000000E+00 -0.21565271608E+04  0.21565271608E+04  0.50400001928E-02 0.  1.
    10030    2    1    2    0    0  0.00000000000E+00  0.00000000000E+00 -0.30748140877E+03  0.40055729129E+04  0.39937538161E+04 0.  0.
        5    1    3    3  502    0  0.86303968612E+03 -0.66603410063E+02  0.16510907281E+04  0.18642414534E+04  0.46999998093E+01 0. -1.
       -5    1    3    3    0  502 -0.86303968612E+03  0.66603410063E+02 -0.19585721369E+04  0.21413314595E+04  0.46999998093E+01 0.  1.
</event>
<event>
 5   0  0.5846812E-08  0.3982385E+04  0.7818609E-02  0.8008110E-01
       -2   -1    0    0    0  501  0.00000000000E+00  0.00000000000E+00  0.27395420768E+04  0.27395420768E+04  0.25500000920E-02 0.  1.
        2   -1    0    0  501    0  0.00000000000E+00  0.00000000000E+00 -0.14472661783E+04  0.14472661783E+04  0.25500000920E-02 0. -1.
    10030    2    1    2    0    0  0.00000000000E+00  0.00000000000E+00  0.12922758985E+04  0.41868082551E+04  0.39823845077E+04 0.  0.
        4    1    3    3  502    0 -0.57678378027E+03 -0.46695867363E+03  0.25887181493E+04  0.26929896401E+04  0.12699999809E+01 0.  1.
       -4    1    3    3    0  502  0.57678378027E+03  0.46695867363E+03 -0.12964422508E+04  0.14938186150E+04  0.12699999809E+01 0. -1.
</event>
<event>
 5   0  0.5888700E-08  0.3968614E+04  0.7818609E-02  0.8010908E-01
        2   -1    0    0  501    0  0.00000000000E+00  0.00000000000E+00  0.18662862268E+04  0.18662862268E+04  0.25500000920E-02 0.  1.
       -2   -1    0    0    0  501  0.00000000000E+00  0.00000000000E+00 -0.21097907980E+04  0.21097907980E+04  0.25500000920E-02 0. -1.
    10030    2    1    2    0    0  0.00000000000E+00  0.00000000000E+00 -0.24350457112E+03  0.39760770248E+04  0.39686136157E+04 0.  0.
        5    1    3    3  502    0  0.55235903000E+03  0.84807762439E+03  0.15882425755E+04  0.18833142924E+04  0.46999998093E+01 0.  1.
       -5    1    3    3    0  502 -0.55235903000E+03 -0.84807762439E+03 -0.18317471467E+04  0.20927627325E+04  0.46999998093E+01 0. -1.
</event>
<event>
 5   0  0.6161563E-08  0.4028785E+04  0.7818609E-02  0.7998765E-01
        2   -1    0    0  501    0  0.00000000000E+00  0.00000000000E+00  0.20760996645E+04  0.20760996645E+04  0.25500000920E-02 0.  1.
       -2   -1    0    0    0  501  0.00000000000E+00  0.00000000000E+00 -0.19545196260E+04  0.19545196260E+04  0.25500000920E-02 0. -1.
    10030    2    1    2    0    0  0.00000000000E+00  0.00000000000E+00  0.12158003850E+03  0.40306192904E+04  0.40287851964E+04 0.  0.
        1    1    3    3  502    0 -0.17569179996E+04 -0.66954115300E+03  0.78412077295E+03  0.20371282727E+04  0.50400001928E-02 0. -1.
       -1    1    3    3    0  502  0.17569179996E+04  0.66954115300E+03 -0.66254073445E+03  0.19934910177E+04  0.50400001928E-02 0.  1.
</event>
<event>
 5   0  0.6161563E-08  0.3991121E+04  0.7818609E-02  0.8006340E-01
       -2   -1    0    0    0  501  0.00000000000E+00  0.00000000000E+00  0.21176141611E+04  0.21176141611E+04  0.25500000920E-02 0. -1.
        2   -1    0    0  501    0  0.00000000000E+00  0.00000000000E+00 -0.18805413121E+04  0.18805413121E+04  0.25500000920E-02 0.  1.
    10030    2    1    2    0    0  0.00000000000E+00  0.00000000000E+00  0.23707284897E+03  0.39981554732E+04  0.39911206011E+04 0.  0.
        1    1    3    3  502    0 -0.13548244636E+04 -0.14006944647E+04 -0.31206609187E+03  0.19735449213E+04  0.50400001928E-02 0.  1.
       -1    1    3    3    0  502  0.13548244636E+04  0.14006944647E+04  0.54913894084E+03  0.20246105519E+04  0.50400001928E-02 0. -1.
</event>
<event>
 5   0  0.5846812E-08  0.3991969E+04  0.7818609E-02  0.8006169E-01
        2   -1    0    0  501    0  0.00000000000E+00  0.00000000000E+00  0.27235542066E+04  0.27235542066E+04  0.25500000920E-02 0. -1.
       -2   -1    0    0    0  501  0.00000000000E+00  0.00000000000E+00 -0.14627773277E+04  0.14627773277E+04  0.25500000920E-02 0.  1.
    10030    2    1    2    0    0  0.00000000000E+00  0.00000000000E+00  0.12607768789E+04  0.41863315343E+04  0.39919686092E+04 0.  0.
        4    1    3    3  502    0  0.18766533976E+04  0.56771349057E+03  0.10225266360E+04  0.22112640992E+04  0.12699999809E+01 0. -1.
       -4    1    3    3    0  502 -0.18766533976E+04 -0.56771349057E+03  0.23825024283E+03  0.19750674351E+04  0.12699999809E+01 0.  1.
</event>
<event>
 5   0  0.1879500E-08  0.3998752E+04  0.7818609E-02  0.8004798E-01
       -1   -1    0    0    0  501  0.00000000000E+00  0.00000000000E+00  0.17684914578E+04  0.17684914578E+04  0.50400001928E-02 0.  1.
        1   -1    0    0  501    0  0.00000000000E+00  0.00000000000E+00 -0.22604039448E+04  0.22604039448E+04  0.50400001928E-02 0. -1.
    10030    2    1    2    0    0  0.00000000000E+00  0.00000000000E+00 -0.49191248701E+03  0.40288954026E+04  0.39987523391E+04 0.  0.
        4    1    3    3  502    0  0.18457828845E+04  0.46154687151E+03  0.37313758867E+03  0.19388587479E+04  0.12699999809E+01 0.  1.
       -4    1    3    3    0  502 -0.18457828845E+04 -0.46154687151E+03 -0.86505007569E+03  0.20900366546E+04  0.12699999809E+01 0. -1.
</event>
<event>
 5   0  0.5846812E-08  0.3803403E+04  0.7818609E-02  0.8045425E-01
       -2   -1    0    0    0  501  0.00000000000E+00  0.00000000000E+00  0.34716831397E+04  0.34716831397E+04  0.25500000920E-02 0.  1.
        2   -1    0    0  501    0  0.00000000000E+00  0.00000000000E+00 -0.10417048189E+04  0.10417048189E+04  0.25500000920E-02 0. -1.
    10030    2    1    2    0    0  0.00000000000E+00  0.00000000000E+00  0.24299783207E+04  0.45133879586E+04  0.38034032425E+04 0.  0.
        4    1    3    3  502    0 -0.12534104745E+04 -0.14289612068E+03  0.29036557635E+04  0.31658609453E+04  0.12699999809E+01 0.  1.
       -4    1    3    3    0  502  0.12534104745E+04  0.14289612068E+03 -0.47367744280E+03  0.13475270133E+04  0.12699999809E+01 0. -1.
</event>
<event>
 5   0  0.1879500E-08  0.3975753E+04  0.7818609E-02  0.8009456E-01
        1   -1    0    0  501    0  0.00000000000E+00  0.00000000000E+00  0.21053171012E+04  0.21053171012E+04  0.50400001928E-02 0. -1.
       -1   -1    0    0    0  501  0.00000000000E+00  0.00000000000E+00 -0.18769867576E+04  0.18769867576E+04  0.50400001928E-02 0.  1.
    10030    2    1    2    0    0  0.00000000000E+00  0.00000000000E+00  0.22833034354E+03  0.39823038588E+04  0.39757526681E+04 0.  0.
        3    1    3    3  502    0 -0.12431071574E+04 -0.71607202470E+03  0.14925059585E+04  0.20701808123E+04  0.10100000352E+00 0. -1.
       -3    1    3    3    0  502  0.12431071574E+04  0.71607202470E+03 -0.12641756149E+04  0.19121230465E+04  0.10100000352E+00 0.  1.
</event>
<event>
 5   0  0.1879500E-08  0.4009980E+04  0.7818609E-02  0.8002536E-01
        1   -1    0    0  501    0  0.00000000000E+00  0.00000000000E+00  0.29963217890E+04  0.29963217890E+04  0.50400001928E-02 0. -1.
       -1   -1    0    0    0  501  0.00000000000E+00  0.00000000000E+00 -0.13416400599E+04  0.13416400599E+04  0.50400001928E-02 0.  1.
    10030    2    1    2    0    0  0.00000000000E+00  0.00000000000E+00  0.16546817292E+04  0.43379618489E+04  0.40099802216E+04 0.  0.
        4    1    3    3  502    0 -0.11450146582E+04  0.57841355874E+03  0.24942696575E+04  0.28048179174E+04  0.12699999809E+01 0. -1.
       -4    1    3    3    0  502  0.11450146582E+04 -0.57841355874E+03 -0.83958792837E+03  0.15331439315E+04  0.12699999809E+01 0.  1.
</event>
<event>
 5   0  0.1879500E-08  0.3994276E+04  0.7818609E-02  0.8005702E-01
       -1   -1    0    0    0  501  0.00000000000E+00  0.00000000000E+00  0.16459945783E+04  0.16459945783E+04  0.50400001928E-02 0.  1.
        1   -1    0    0  501    0  0.00000000000E+00  0.00000000000E+00 -0.24231921393E+04  0.24231921393E+04  0.50400001928E-02 0. -1.
    10030    2    1    2    0    0  0.00000000000E+00  0.00000000000E+00 -0.77719756097E+03  0.40691867176E+04  0.39942764669E+04 0.  0.
        2    1    3    3  502    0  0.77127883501E+03 -0.46306687099E+03  0.14278889214E+04  0.16876518421E+04  0.25500000920E-02 0.  1.
       -2    1    3    3    0  502 -0.77127883501E+03  0.46306687099E+03 -0.22050864824E+04  0.23815348755E+04  0.25500000920E-02 0. -1.
</event>
<event>
 5   0  0.6161563E-08  0.3984419E+04  0.7818609E-02  0.8007697E-01
        2   -1    0    0  501    0  0.00000000000E+00  0.00000000000E+00  0.19966998586E+04  0.19966998586E+04  0.25500000920E-02 0.  1.
       -2   -1    0    0    0  501  0.00000000000E+00  0.00000000000E+00 -0.19877289756E+04  0.19877289756E+04  0.25500000920E-02 0. -1.
    10030    2    1    2    0    0  0.00000000000E+00  0.00000000000E+00  0.89708830093E+01  0.39844288342E+04  0.39844187353E+04 0.  0.
        1    1    3    3  502    0  0.44234641429E+03 -0.15756925391E+02 -0.19379353830E+04  0.19878410852E+04  0.50400001928E-02 0. -1.
       -1    1    3    3    0  502 -0.44234641429E+03  0.15756925391E+02  0.19469062661E+04  0.19965877491E+04  0.50400001928E-02 0.  1.
</event>
<event>
 5   0  0.1879500E-08  0.4026506E+04  0.7818609E-02  0.7999221E-01
       -1   -1    0    0    0  501  0.00000000000E+00  0.00000000000E+00  0.15838653196E+04  0.15838653197E+04  0.50400001928E-02 0.  1.
        1   -1    0    0  501    0  0.00000000000E+00  0.00000000000E+00 -0.25590475671E+04  0.25590475671E+04  0.50400001928E-02 0. -1.
    10030    2    1    2    0    0  0.00000000000E+00  0.00000000000E+00 -0.97518224743E+03  0.41429128867E+04  0.40265055285E+04 0.  0.
        3    1    3    3  502    0 -0.68287687391E+01  0.10290956663E+04  0.12927810957E+04  0.16523823692E+04  0.10100000352E+00 0.  1.
       -3    1    3    3    0  502  0.68287687391E+01 -0.10290956663E+04 -0.22679633432E+04  0.24905305175E+04  0.10100000352E+00 0. -1.
</event>
<event>
 5   0  0.6161563E-08  0.3994706E+04  0.7818609E-02  0.8005615E-01
       -2   -1    0    0    0  501  0.00000000000E+00  0.00000000000E+00  0.18694548626E+04  0.18694548626E+04  0.25500000920E-02 0. -1.
        2   -1    0    0  501    0  0.00000000000E+00  0.00000000000E+00 -0.21340013137E+04  0.21340013137E+04  0.25500000920E-02 0.  1.
    10030    2    1    2    0    0  0.00000000000E+00  0.00000000000E+00 -0.26454645109E+03  0.40034561763E+04  0.39947060631E+04 0.  0.
        1    1    3    3  502    0  0.70977395588E+03  0.24161123903E+03 -0.19876154750E+04  0.21243282081E+04  0.50400001928E-02 0.  1.
       -1    1    3    3    0  502 -0.70977395588E+03 -0.24161123903E+03  0.17230690240E+04  0.18791279681E+04  0.50400001928E-02 0. -1.
</event>
<event>
 5   0  0.5951623E-08  0.3963989E+04  0.7818609E-02  0.8011851E-01
       -2   -1    0    0    0  501  0.00000000000E+00  0.00000000000E+00  0.14774729612E+04  0.14774729612E+04  0.25500000920E-02 0.  1.
        2   -1    0    0  501    0  0.00000000000E+00  0.00000000000E+00 -0.26587984927E+04  0.26587984927E+04  0.25500000920E-02 0. -1.
    10030    2    1    2    0    0  0.00000000000E+00  0.00000000000E+00 -0.11813255315E+04  0.41362714539E+04  0.39639893453E+04 0.  0.
        2    1    3    3  502    0 -0.89397496102E+03  0.34340001917E+02 -0.24361253082E+04  0.25952026864E+04  0.25500000920E-02 0. -1.
       -2    1    3    3    0  502  0.89397496102E+03 -0.34340001917E+02  0.12547997767E+04  0.15410687675E+04  0.25500000920E-02 0.  1.
</event>
<event>
 5   0  0.5846812E-08  0.3989517E+04  0.7818609E-02  0.8006665E-01
        2   -1    0    0  501    0  0.00000000000E+00  0.00000000000E+00  0.16451577065E+04  0.16451577065E+04  0.25500000920E-02 0.  1.
       -2   -1    0    0    0  501  0.00000000000E+00  0.00000000000E+00 -0.24186505342E+04  0.24186505342E+04  0.25500000920E-02 0. -1.
    10030    2    1    2    0    0  0.00000000000E+00  0.00000000000E+00 -0.77349282772E+03  0.40638082408E+04  0.39895170464E+04 0.  0.
        4    1    3    3  502    0 -0.11062819682E+04 -0.27002966422E+03  0.12815194851E+04  0.17143714931E+04  0.12699999809E+01 0.  1.
       -4    1    3    3    0  502  0.11062819682E+04  0.27002966422E+03 -0.20550123128E+04  0.23494367477E+04  0.12699999809E+01 0. -1.
</event>
<event>
 5   0  0.1879500E-08  0.4005067E+04  0.7818609E-02  0.8003525E-01
        1   -1    0    0  501    0  0.00000000000E+00  0.00000000000E+00  0.23404778134E+04  0.23404778134E+04  0.50400001928E-02 0. -1.
       -1   -1    0    0    0  501  0.00000000000E+00  0.00000000000E+00 -0.17133849971E+04  0.17133849971E+04  0.50400001928E-02 0.  1.
    10030    2    1    2    0    0  0.00000000000E+00  0.00000000000E+00  0.62709281633E+03  0.40538628106E+04  0.40050665770E+04 0.  0.
        4    1    3    3  502    0 -0.53536362286E+03  0.15033684068E+04  0.15379987856E+04  0.22163421786E+04  0.12699999809E+01 0. -1.
       -4    1    3    3    0  502  0.53536362286E+03 -0.15033684068E+04 -0.91090596925E+03  0.18375206320E+04  0.12699999809E+01 0.  1.
</event>
<event>
 5   0  0.1879500E-08  0.3990022E+04  0.7818609E-02  0.8006562E-01
       -1   -1    0    0    0  501  0.00000000000E+00  0.00000000000E+00  0.16886609325E+04  0.16886609325E+04  0.50400001928E-02 0. -1.
        1   -1    0    0  501    0  0.00000000000E+00  0.00000000000E+00 -0.23569380144E+04  0.23569380144E+04  0.50400001928E-02 0.  1.
    10030    2    1    2    0    0  0.00000000000E+00  0.00000000000E+00 -0.66827708197E+03  0.40455989469E+04  0.39900221278E+04 0.  0.
        1    1    3    3  502    0  0.11740941384E+04 -0.16129348621E+04 -0.33782652089E+03  0.20234086768E+04  0.50400001928E-02 0.  1.
       -1    1    3    3    0  502 -0.11740941384E+04  0.16129348621E+04 -0.33045056107E+03  0.20221902701E+04  0.50400001928E-02 0. -1.
</event>
<event>
 5   0  0.5846812E-08  0.4017025E+04  0.7818609E-02  0.8001121E-01
        2   -1    0    0  501    0  0.00000000000E+00  0.00000000000E+00  0.17628315018E+04  0.17628315018E+04  0.25500000920E-02 0.  1.
       -2   -1    0    0    0  501  0.00000000000E+00  0.00000000000E+00 -0.22884332140E+04  0.22884332140E+04  0.25500000920E-02 0. -1.
    10030    2    1    2    0    0  0.00000000000E+00  0.00000000000E+00 -0.52560171218E+03  0.40512647158E+04  0.40170248490E+04 0.  0.
        4    1    3    3  502    0 -0.50581808607E+03  0.20677293497E+03  0.16864209542E+04  0.17727448295E+04  0.12699999809E+01 0.  1.
       -4    1    3    3    0  502  0.50581808607E+03 -0.20677293497E+03 -0.22120226664E+04  0.22785198863E+04  0.12699999809E+01 0. -1.
</event>
<event>
 5   0  0.5945387E-08  0.3979505E+04  0.7818609E-02  0.8008694E-01
        2   -1    0    0  501    0  0.00000000000E+00  0.00000000000E+00  0.27015384753E+04  0.27015384753E+04  0.25500000920E-02 0. -1.
       -2   -1    0    0    0  501  0.00000000000E+00  0.00000000000E+00 -0.14655038875E+04  0.14655038875E+04  0.25500000920E-02 0.  1.
    10030    2    1    2    0    0  0.00000000000E+00  0.00000000000E+00  0.12360345878E+04  0.41670423628E+04  0.39795050635E+04 0.  0.
        3    1    3    3  502    0  0.19131248108E+04  0.52024316616E+03  0.44150395573E+03  0.20311635204E+04  0.10100000352E+00 0. -1.
       -3    1    3    3    0  502 -0.19131248108E+04 -0.52024316616E+03  0.79453063207E+03  0.21358788423E+04  0.10100000352E+00 0.  1.
</event>
<event>
 5   0  0.1879500E-08  0.4005852E+04  0.7818609E-02  0.8003367E-01
       -1   -1    0    0    0  501  0.00000000000E+00  0.00000000000E+00  0.19064223526E+04  0.19064223526E+04  0.50400001928E-02 0. -1.
        1   -1    0    0  501    0  0.00000000000E+00  0.00000000000E+00 -0.21043143963E+04  0.21043143963E+04  0.50400001928E-02 0.  1.
    10030    2    1    2    0    0  0.00000000000E+00  0.00000000000E+00 -0.19789204369E+03  0.40107367489E+04  0.40058517206E+04 0.  0.
        2    1    3    3  502    0  0.17803516365E+04  0.88818305384E+03  0.13196678418E+03  0.19939750046E+04  0.25500000920E-02 0.  1.
       -2    1    3    3    0  502 -0.17803516365E+04 -0.88818305384E+03 -0.32985882787E+03  0.20167617443E+04  0.25500000920E-02 0. -1.
</event>
<event>
 5   0  0.1879500E-08  0.3998331E+04  0.7818609E-02  0.8004883E-01
        1   -1    0    0  501    0  0.00000000000E+00  0.00000000000E+00  0.19393177116E+04  0.19393177116E+04  0.50400001928E-02 0. -1.
       -1   -1    0    0    0  501  0.00000000000E+00  0.00000000000E+00 -0.20608598812E+04  0.20608598812E+04  0.50400001928E-02 0.  1.
    10030    2    1    2    0    0  0.00000000000E+00  0.00000000000E+00 -0.12154216961E+03  0.40001775928E+04  0.39983306861E+04 0.  0.
        3    1    3    3  502    0 -0.52857545732E+03  0.19113016309E+04  0.19271548432E+03  0.19923868115E+04  0.10100000352E+00 0.  1.
       -3    1    3    3    0  502  0.52857545732E+03 -0.19113016309E+04 -0.31425765393E+03  0.20077907814E+04  0.10100000352E+00 0. -1.
</event>
<event>
 5   0  0.5951623E-08  0.3972709E+04  0.7818609E-02  0.8010075E-01
        2   -1    0    0  501    0  0.00000000000E+00  0.00000000000E+00  0.13391131624E+04  0.13391131624E+04  0.25500000920E-02 0.  1.
       -2   -1    0    0    0  501  0.00000000000E+00  0.00000000000E+00 -0.29464312957E+04  0.29464312957E+04  0.25500000920E-02 0. -1.
    10030    2    1    2    0    0  0.00000000000E+00  0.00000000000E+00 -0.16073181333E+04  0.42855444580E+04  0.39727093677E+04 0.  0.
        2    1    3    3  502    0  0.19400884132E+04 -0.10995346185E+03 -0.12478773497E+04  0.23093788547E+04  0.25500000920E-02 0. -1.
       -2    1    3    3    0  502 -0.19400884132E+04  0.10995346185E+03 -0.35944078360E+03  0.19761656033E+04  0.25500000920E-02 0.  1.
</event>
<event>
 5   0  0.5846812E-08  0.3991298E+04  0.7818609E-02  0.8006304E-01
       -2   -1    0    0    0  501  0.00000000000E+00  0.00000000000E+00  0.16213735223E+04  0.16213735223E+04  0.25500000920E-02 0. -1.
        2   -1    0    0  501    0  0.00000000000E+00  0.00000000000E+00 -0.24563213280E+04  0.24563213280E+04  0.25500000920E-02 0.  1.
    10030    2    1    2    0    0  0.00000000000E+00  0.00000000000E+00 -0.83494780563E+03  0.40776948503E+04  0.39912977156E+04 0.  0.
        4    1    3    3  502    0 -0.13502998896E+04 -0.10068491101E+04 -0.15109495314E+04  0.22627472289E+04  0.12699999809E+01 0.  1.
       -4    1    3    3    0  502  0.13502998896E+04  0.10068491101E+04  0.67600172579E+03  0.18149476214E+04  0.12699999809E+01 0. -1.
</event>
<event>
 5   0  0.1879500E-08  0.4006117E+04  0.7818609E-02  0.8003314E-01
       -1   -1    0    0    0  501  0.00000000000E+00  0.00000000000E+00  0.18245083864E+04  0.18245083864E+04  0.50400001928E-02 0. -1.
        1   -1    0    0  501    0  0.00000000000E+00  0.00000000000E+00 -0.21990823715E+04  0.21990823716E+04  0.50400001928E-02 0.  1.
    10030    2    1    2    0    0  0.00000000000E+00  0.00000000000E+00 -0.37457398519E+03  0.40235907579E+04  0.40061174367E+04 0.  0.
        1    1    3    3  502    0  0.12280711032E+03  0.43106464350E+02  0.18202569795E+04  0.18249041688E+04  0.50400001928E-02 0. -1.
       -1    1    3    3    0  502 -0.12280711032E+03 -0.43106464350E+02 -0.21948309647E+04  0.21986865892E+04  0.50400001928E-02 0.  1.
</event>
<event>
 5   0  0.1879500E-08  0.3870204E+04  0.7818609E-02  0.8031255E-01
        1   -1    0    0  501    0  0.00000000000E+00  0.00000000000E+00  0.25591434203E+04  0.25591434203E+04  0.50400001928E-02 0.  1.
       -1   -1    0    0    0  501  0.00000000000E+00  0.00000000000E+00 -0.14632314533E+04  0.14632314533E+04  0.50400001928E-02 0. -1.
    10030    2    1    2    0    0  0.00000000000E+00  0.00000000000E+00  0.10959119670E+04  0.40223748736E+04  0.38702036877E+04 0.  0.
        1    1    3    3  502    0  0.23696260618E+03 -0.14252029719E+04  0.18859205616E+04  0.23757211858E+04  0.50400001928E-02 0.  1.
       -1    1    3    3    0  502 -0.23696260618E+03  0.14252029719E+04 -0.79000859458E+03  0.16466536878E+04  0.50400001928E-02 0. -1.
</event>
<event>
 5   0  0.5945387E-08  0.3999986E+04  0.7818609E-02  0.8004549E-01
        2   -1    0    0  501    0  0.00000000000E+00  0.00000000000E+00  0.31490601242E+04  0.31490601242E+04  0.25500000920E-02 0. -1.
       -2   -1    0    0    0  501  0.00000000000E+00  0.00000000000E+00 -0.12702115125E+04  0.12702115125E+04  0.25500000920E-02 0.  1.
    10030    2    1    2    0    0  0.00000000000E+00  0.00000000000E+00  0.18788486117E+04  0.44192716368E+04  0.39999862117E+04 0.  0.
        3    1    3    3  502    0 -0.12374478942E+04 -0.13627248991E+04  0.75346375250E+02  0.18422740100E+04  0.10100000352E+00 0. -1.
       -3    1    3    3    0  502  0.12374478942E+04  0.13627248991E+04  0.18035022365E+04  0.25769976268E+04  0.10100000352E+00 0.  1.
</event>
<event>
 5   0  0.1879500E-08  0.4001431E+04  0.7818609E-02  0.8004258E-01
        1   -1    0    0  501    0  0.00000000000E+00  0.00000000000E+00  0.29072241534E+04  0.29072241534E+04  0.50400001928E-02 0. -1.
       -1   -1    0    0    0  501  0.00000000000E+00  0.00000000000E+00 -0.13768674471E+04  0.13768674471E+04  0.50400001928E-02 0.  1.
    10030    2    1    2    0    0  0.00000000000E+00  0.00000000000E+00  0.15303567063E+04  0.42840916005E+04  0.40014308932E+04 0.  0.
        4    1    3    3  502    0  0.90740426278E+02  0.83105022609E+03 -0.11809088137E+04  0.14468674930E+04  0.12699999809E+01 0.  1.
       -4    1    3    3    0  502 -0.90740426278E+02 -0.83105022609E+03  0.27112655200E+04  0.28372241075E+04  0.12699999809E+01 0. -1.
</event>
<event>
 5   0  0.1879500E-08  0.3777379E+04  0.7818609E-02  0.8051027E-01
       -1   -1    0    0    0  501  0.00000000000E+00  0.00000000000E+00  0.12892206423E+04  0.12892206423E+04  0.50400001928E-02 0. -1.
        1   -1    0    0  501    0  0.00000000000E+00  0.00000000000E+00 -0.27669030134E+04  0.27669030134E+04  0.50400001928E-02 0.  1.
    10030    2    1    2    0    0  0.00000000000E+00  0.00000000000E+00 -0.14776823711E+04  0.40561236557E+04  0.37773792397E+04 0.  0.
        3    1    3    3  502    0  0.14475955718E+04  0.43910116810E+03  0.47545009964E+03  0.15856845786E+04  0.10100000352E+00 0. -1.
       -3    1    3    3    0  502 -0.14475955718E+04 -0.43910116810E+03 -0.19531324708E+04  0.24704390771E+04  0.10100000352E+00 0.  1.
</event>
<event>
 5   0  0.1879500E-08  0.3975235E+04  0.7818609E-02  0.8009561E-01
        1   -1    0    0  501    0  0.00000000000E+00  0.00000000000E+00  0.12762647909E+04  0.12762647909E+04  0.50400001928E-02 0. -1.
       -1   -1    0    0    0  501  0.00000000000E+00  0.00000000000E+00 -0.30954572435E+04  0.30954572435E+04  0.50400001928E-02 0.  1.
    10030    2    1    2    0    0  0.00000000000E+00  0.00000000000E+00 -0.18191924525E+04  0.43717220344E+04  0.39752348820E+04 0.  0.
        1    1    3    3  502    0  0.11251517810E+04 -0.15064018132E+04 -0.20078874656E+03  0.18909069448E+04  0.50400001928E-02 0. -1.
       -1    1    3    3    0  502 -0.11251517810E+04  0.15064018132E+04 -0.16184037060E+04  0.24808150896E+04  0.50400001928E-02 0.  1.
</event>
<event>
 5   0  0.1879500E-08  0.3996862E+04  0.7818609E-02  0.8005180E-01
       -1   -1    0    0    0  501  0.00000000000E+00  0.00000000000E+00  0.25025392711E+04  0.25025392711E+04  0.50400001928E-02 0. -1.
        1   -1    0    0  501    0  0.00000000000E+00  0.00000000000E+00 -0.15958696382E+04  0.15958696382E+04  0.50400001928E-02 0.  1.
    10030    2    1    2    0    0  0.00000000000E+00  0.00000000000E+00  0.90666963289E+03  0.40984089094E+04  0.39968619898E+04 0.  0.
        3    1    3    3  502    0  0.19011081032E+03 -0.17665640053E+04  0.13913638760E+04  0.22567197324E+04  0.10100000352E+00 0. -1.
       -3    1    3    3    0  502 -0.19011081032E+03  0.17665640053E+04 -0.48469424307E+03  0.18416891770E+04  0.10100000352E+00 0.  1.
</event>
<event>
 5   0  0.5888700E-08  0.3995809E+04  0.7818609E-02  0.8005393E-01
        2   -1    0    0  501    0  0.00000000000E+00  0.00000000000E+00  0.18640204869E+04  0.18640204869E+04  0.25500000920E-02 0. -1.
       -2   -1    0    0    0  501  0.00000000000E+00  0.00000000000E+00 -0.21414046607E+04  0.21414046607E+04  0.25500000920E-02 0.  1.
    10030    2    1    2    0    0  0.00000000000E+00  0.00000000000E+00 -0.27738417376E+03  0.40054251475E+04  0.39958088834E+04 0.  0.
        5    1    3    3  502    0 -0.12472328893E+04 -0.14577953974E+04  0.42018241446E+03  0.19640093310E+04  0.46999998093E+01 0. -1.
       -5    1    3    3    0  502  0.12472328893E+04  0.14577953974E+04 -0.69756658822E+03  0.20414158165E+04  0.46999998093E+01 0.  1.
</event>
<event>
 5   0  0.1879500E-08  0.4008910E+04  0.7818609E-02  0.8002752E-01
       -1   -1    0    0    0  501  0.00000000000E+00  0.00000000000E+00  0.22498134902E+04  0.22498134902E+04  0.50400001928E-02 0.  1.
        1   -1    0    0  501    0  0.00000000000E+00  0.00000000000E+00 -0.17858543285E+04  0.17858543285E+04  0.50400001928E-02 0. -1.
    10030    2    1    2    0    0  0.00000000000E+00  0.00000000000E+00  0.46395916170E+03  0.40356678187E+04  0.40089096571E+04 0.  0.
        4    1    3    3  502    0 -0.22283453886E+03  0.30214946077E+03  0.22141033558E+04  0.22457080869E+04  0.12699999809E+01 0.  1.
       -4    1    3    3    0  502  0.22283453886E+03 -0.30214946077E+03 -0.17501441941E+04  0.17899597318E+04  0.12699999809E+01 0. -1.
</event>
<event>
 5   0  0.1879500E-08  0.4000241E+04  0.7818609E-02  0.8004498E-01
        1   -1    0    0  501    0  0.00000000000E+00  0.00000000000E+00  0.23005946064E+04  0.23005946064E+04  0.50400001928E-02 0. -1.
       -1   -1    0    0    0  501  0.00000000000E+00  0.00000000000E+00 -0.17388901520E+04  0.17388901520E+04  0.50400001928E-02 0.  1.
    10030    2    1    2    0    0  0.00000000000E+00  0.00000000000E+00  0.56170445440E+03  0.40394847584E+04  0.40002406452E+04 0.  0.
        1    1    3    3  502    0  0.14573381375E+04  0.13299128530E+04 -0.50972560344E+02  0.19736009843E+04  0.50400001928E-02 0.  1.
       -1    1    3    3    0  502 -0.14573381375E+04 -0.13299128530E+04  0.61267701475E+03  0.20658837740E+04  0.50400001928E-02 0. -1.
</event>
<event>
 5   0  0.1879500E-08  0.4014811E+04  0.7818609E-02  0.8001565E-01
       -1   -1    0    0    0  501  0.00000000000E+00  0.00000000000E+00  0.21296159621E+04  0.21296159621E+04  0.50400001928E-02 0. -1.
        1   -1    0    0  501    0  0.00000000000E+00  0.00000000000E+00 -0.18922085021E+04  0.18922085021E+04  0.50400001928E-02 0.  1.
    10030    2    1    2    0    0  0.00000000000E+00  0.00000000000E+00  0.23740745998E+03  0.40218244643E+04  0.40148112931E+04 0.  0.
        3    1    3    3  502    0  0.15532951761E+04 -0.82240664080E+03 -0.85283516535E+03  0.19535624936E+04  0.10100000352E+00 0.  1.
       -3    1    3    3    0  502 -0.15532951761E+04  0.82240664080E+03  0.10902426253E+04  0.20682619707E+04  0.10100000352E+00 0. -1.
</event>
<event>
 5   0  0.5888700E-08  0.4001485E+04  0.7818609E-02  0.8004247E-01
        2   -1    0    0  501    0  0.00000000000E+00  0.00000000000E+00  0.21235044073E+04  0.21235044073E+04  0.25500000920E-02 0. -1.
       -2   -1    0    0    0  501  0.00000000000E+00  0.00000000000E+00 -0.18850779333E+04  0.18850779333E+04  0.25500000920E-02 0.  1.
    10030    2    1    2    0    0  0.00000000000E+00  0.00000000000E+00  0.23842647395E+03  0.40085823406E+04  0.40014853740E+04 0.  0.
        5    1    3    3  502    0  0.16426257443E+04 -0.28658996493E+02  0.12631266154E+04  0.20723299955E+04  0.46999998093E+01 0. -1.
       -5    1    3    3    0  502 -0.16426257443E+04  0.28658996493E+02 -0.10247001415E+04  0.19362523451E+04  0.46999998093E+01 0.  1.
</event>
<event>
 5   0  0.5846812E-08  0.3976669E+04  0.7818609E-02  0.8009270E-01
        2   -1    0    0  501    0  0.00000000000E+00  0.00000000000E+00  0.35219645118E+04  0.35219645118E+04  0.25500000920E-02 0.  1.
       -2   -1    0    0    0  501  0.00000000000E+00  0.00000000000E+00 -0.11225195965E+04  0.11225195965E+04  0.25500000920E-02 0. -1.
    10030    2    1    2    0    0  0.00000000000E+00  0.00000000000E+00  0.23994449154E+04  0.46444841083E+04  0.39766690496E+04 0.  0.
        4    1    3    3  502    0  0.79859886331E+03 -0.64516682222E+03  0.31884601563E+04  0.33496686634E+04  0.12699999809E+01 0.  1.
       -4    1    3    3    0  502 -0.79859886331E+03  0.64516682222E+03 -0.78901524098E+03  0.12948154449E+04  0.12699999809E+01 0. -1.
</event>
<event>
 5   0  0.1879500E-08  0.3991592E+04  0.7818609E-02  0.8006245E-01
       -3   -1    0    0    0  501  0.00000000000E+00  0.00000000000E+00  0.18803204592E+04  0.18803204619E+04  0.10100000352E+00 0.  1.
        3   -1    0    0  501    0  0.00000000000E+00  0.00000000000E+00 -0.21183632026E+04  0.21183632050E+04  0.10100000352E+00 0. -1.
    10030    2    1    2    0    0  0.00000000000E+00  0.00000000000E+00 -0.23804274338E+03  0.39986836669E+04  0.39915920032E+04 0.  0.
        4    1    3    3  502    0 -0.24329801257E+03  0.10974299097E+04  0.15330458395E+04  0.19009938160E+04  0.12699999809E+01 0.  1.
       -4    1    3    3    0  502  0.24329801257E+03 -0.10974299097E+04 -0.17710885828E+04  0.20976898509E+04  0.12699999809E+01 0. -1.
</event>
<event>
 5   0  0.5846812E-08  0.4004332E+04  0.7818609E-02  0.8003673E-01
        2   -1    0    0  501    0  0.00000000000E+00  0.00000000000E+00  0.26033643126E+04  0.26033643126E+04  0.25500000920E-02 0.  1.
       -2   -1    0    0    0  501  0.00000000000E+00  0.00000000000E+00 -0.15398030831E+04  0.15398030831E+04  0.25500000920E-02 0. -1.
    10030    2    1    2    0    0  0.00000000000E+00  0.00000000000E+00  0.10635612295E+04  0.41431673957E+04  0.40043318518E+04 0.  0.
        4    1    3    3  502    0 -0.60654886630E+03 -0.24929468403E+03 -0.14255313652E+04  0.15691369133E+04  0.12699999809E+01 0. -1.
       -4    1    3    3    0  502  0.60654886630E+03  0.24929468403E+03  0.24890925946E+04  0.25740304824E+04  0.12699999809E+01 0.  1.
</event>
<event>
 5   0  0.1879500E-08  0.4051183E+04  0.7818609E-02  0.7994300E-01
        1   -1    0    0  501    0  0.00000000000E+00  0.00000000000E+00  0.21707641228E+04  0.21707641228E+04  0.50400001928E-02 0. -1.
       -1   -1    0    0    0  501  0.00000000000E+00  0.00000000000E+00 -0.18901278548E+04  0.18901278548E+04  0.50400001928E-02 0.  1.
    10030    2    1    2    0    0  0.00000000000E+00  0.00000000000E+00  0.28063626797E+03  0.40608919776E+04  0.40511833999E+04 0.  0.
        5    1    3    3  502    0 -0.80935869249E+03 -0.87336971491E+03 -0.15022556976E+04  0.19169325557E+04  0.46999998093E+01 0.  1.
       -5    1    3    3    0  502  0.80935869249E+03  0.87336971491E+03  0.17828919656E+04  0.21439594220E+04  0.46999998093E+01 0. -1.
</event>
<event>
 5   0  0.5951623E-08  0.4117760E+04  0.7818609E-02  0.7981203E-01
       -2   -1    0    0    0  501  0.00000000000E+00  0.00000000000E+00  0.14296556248E+04  0.14296556248E+04  0.25500000920E-02 0.  1.
        2   -1    0    0  501    0  0.00000000000E+00  0.00000000000E+00 -0.29650403881E+04  0.29650403881E+04  0.25500000920E-02 0. -1.
    10030    2    1    2    0    0  0.00000000000E+00  0.00000000000E+00 -0.15353847633E+04  0.43946960129E+04  0.41177599098E+04 0.  0.
        2    1    3    3  502    0 -0.10741274031E+04 -0.10541968779E+04 -0.22671391237E+04  0.27212130643E+04  0.25500000920E-02 0. -1.
       -2    1    3    3    0  502  0.10741274031E+04  0.10541968779E+04  0.73175436038E+03  0.16734829486E+04  0.25500000920E-02 0.  1.
</event>
<event>
 5   0  0.6161563E-08  0.4000096E+04  0.7818609E-02  0.8004527E-01
        2   -1    0    0  501    0  0.00000000000E+00  0.00000000000E+00  0.17157508133E+04  0.17157508133E+04  0.25500000920E-02 0. -1.
       -2   -1    0    0    0  501  0.00000000000E+00  0.00000000000E+00 -0.23314528897E+04  0.23314528897E+04  0.25500000920E-02 0.  1.
    10030    2    1    2    0    0  0.00000000000E+00  0.00000000000E+00 -0.61570207649E+03  0.40472037030E+04  0.40000960947E+04 0.  0.
        1    1    3    3  502    0 -0.13239123292E+04  0.75900552641E+03  0.10001843823E+04  0.18246101072E+04  0.50400001928E-02 0. -1.
       -1    1    3    3    0  502  0.13239123292E+04 -0.75900552641E+03 -0.16158864588E+04  0.22225935958E+04  0.50400001928E-02 0.  1.
</event>
<event>
 5   0  0.1879500E-08  0.4004209E+04  0.7818609E-02  0.8003698E-01
       -1   -1    0    0    0  501  0.00000000000E+00  0.00000000000E+00  0.19874638407E+04  0.19874638407E+04  0.50400001928E-02 0.  1.
        1   -1    0    0  501    0  0.00000000000E+00  0.00000000000E+00 -0.20168525087E+04  0.20168525087E+04  0.50400001928E-02 0. -1.
    10030    2    1    2    0    0  0.00000000000E+00  0.00000000000E+00 -0.29388668007E+02  0.40043163495E+04  0.40042085027E+04 0.  0.
        4    1    3    3  502    0  0.67386189854E+03  0.13132863751E+04  0.13379724451E+04  0.19922306187E+04  0.12699999809E+01 0.  1.
       -4    1    3    3    0  502 -0.67386189854E+03 -0.13132863751E+04 -0.13673611131E+04  0.20120857308E+04  0.12699999809E+01 0. -1.
</event>
<event>
 5   0  0.6161563E-08  0.3995871E+04  0.7818609E-02  0.8005380E-01
       -2   -1    0    0    0  501  0.00000000000E+00  0.00000000000E+00  0.27713327937E+04  0.27713327937E+04  0.25500000920E-02 0.  1.
        2   -1    0    0  501    0  0.00000000000E+00  0.00000000000E+00 -0.14403709317E+04  0.14403709317E+04  0.25500000920E-02 0. -1.
    10030    2    1    2    0    0  0.00000000000E+00  0.00000000000E+00  0.13309618621E+04  0.42117037254E+04  0.39958714684E+04 0.  0.
        1    1    3    3  502    0  0.12305440008E+03 -0.37466483924E+03  0.27299038976E+04  0.27582406381E+04  0.50400001928E-02 0.  1.
       -1    1    3    3    0  502 -0.12305440008E+03  0.37466483924E+03 -0.13989420356E+04  0.14534630873E+04  0.50400001928E-02 0. -1.
</event>
<event>
 5   0  0.1879500E-08  0.4008834E+04  0.7818609E-02  0.8002767E-01
       -1   -1    0    0    0  501  0.00000000000E+00  0.00000000000E+00  0.15304816948E+04  0.15304816948E+04  0.50400001928E-02 0.  1.
        1   -1    0    0  501    0  0.00000000000E+00  0.00000000000E+00 -0.26251131573E+04  0.26251131573E+04  0.50400001928E-02 0. -1.
    10030    2    1    2    0    0  0.00000000000E+00  0.00000000000E+00 -0.10946314625E+04  0.41555948521E+04  0.40088340620E+04 0.  0.
        2    1    3    3  502    0  0.16154473147E+04 -0.10322959914E+04 -0.11538718087E+04  0.22375712707E+04  0.25500000920E-02 0. -1.
       -2    1    3    3    0  502 -0.16154473147E+04  0.10322959914E+04  0.59240346228E+02  0.19180235815E+04  0.25500000920E-02 0.  1.
</event>
<event>
 5   0  0.5846812E-08  0.3990240E+04  0.7818609E-02  0.8006518E-01
        2   -1    0    0  501    0  0.00000000000E+00  0.00000000000E+00  0.26983605366E+04  0.26983605366E+04  0.25500000920E-02 0.  1.
       -2   -1    0    0    0  501  0.00000000000E+00  0.00000000000E+00 -0.14751562632E+04  0.14751562632E+04  0.25500000920E-02 0. -1.
    10030    2    1    2    0    0  0.00000000000E+00  0.00000000000E+00  0.12232042733E+04  0.41735167998E+04  0.39902398153E+04 0.  0.
        4    1    3    3  502    0  0.19198961272E+04  0.79865443878E+02  0.50177414471E+02  0.19222120108E+04  0.12699999809E+01 0.  1.
       -4    1    3    3    0  502 -0.19198961272E+04 -0.79865443878E+02  0.11730268589E+04  0.22513047890E+04  0.12699999809E+01 0. -1.
</event>
<event>
 5   0  0.5945387E-08  0.3992236E+04  0.7818609E-02  0.8006115E-01
        2   -1    0    0  501    0  0.00000000000E+00  0.00000000000E+00  0.22712530967E+04  0.22712530967E+04  0.25500000920E-02 0.  1.
       -2   -1    0    0    0  501  0.00000000000E+00  0.00000000000E+00 -0.17543120991E+04  0.17543120991E+04  0.25500000920E-02 0. -1.
    10030    2    1    2    0    0  0.00000000000E+00  0.00000000000E+00  0.51694099763E+03  0.40255651958E+04  0.39922358586E+04 0.  0.
        3    1    3    3  502    0  0.47436944091E+03 -0.16637106872E+04 -0.74559716548E+03  0.18838457369E+04  0.10100000352E+00 0. -1.
       -3    1    3    3    0  502 -0.47436944091E+03  0.16637106872E+04  0.12625381631E+04  0.21417194589E+04  0.10100000352E+00 0.  1.
</event>
<event>
 5   0  0.1879500E-08  0.3999242E+04  0.7818609E-02  0.8004699E-01
        1   -1    0    0  501    0  0.00000000000E+00  0.00000000000E+00  0.14914923061E+04  0.14914923061E+04  0.50400001928E-02 0. -1.
       -1   -1    0    0    0  501  0.00000000000E+00  0.00000000000E+00 -0.26808616471E+04  0.26808616471E+04  0.50400001928E-02 0.  1.
    10030    2    1    2    0    0  0.00000000000E+00  0.00000000000E+00 -0.11893693409E+04  0.41723539532E+04  0.39992421884E+04 0.  0.
        2    1    3    3  502    0 -0.27534751161E+03 -0.65662550007E+03 -0.25441259574E+04  0.26418838329E+04  0.25500000920E-02 0.  1.
       -2    1    3    3    0  502  0.27534751161E+03  0.65662550007E+03  0.13547566164E+04  0.15304701203E+04  0.25500000920E-02 0. -1.
</event>
<event>
 5   0  0.1879500E-08  0.4013089E+04  0.7818609E-02  0.8001911E-01
       -1   -1    0    0    0  501  0.00000000000E+00  0.00000000000E+00  0.18980372996E+04  0.18980372996E+04  0.50400001928E-02 0. -1.
        1   -1    0    0  501    0  0.00000000000E+00  0.00000000000E+00 -0.21212553479E+04  0.21212553479E+04  0.50400001928E-02 0.  1.
    10030    2    1    2    0    0  0.00000000000E+00  0.00000000000E+00 -0.22321804831E+03  0.40192926474E+04  0.40130894693E+04 0.  0.
        4    1    3    3  502    0  0.79422923641E+03  0.14522801650E+04  0.10242968011E+04  0.19465619197E+04  0.12699999809E+01 0.  1.
       -4    1    3    3    0  502 -0.79422923641E+03 -0.14522801650E+04 -0.12475148494E+04  0.20727307278E+04  0.12699999809E+01 0. -1.
</event>
<event>
 5   0  0.1879500E-08  0.3960727E+04  0.7818609E-02  0.8012516E-01
        1   -1    0    0  501    0  0.00000000000E+00  0.00000000000E+00  0.17914486491E+04  0.17914486491E+04  0.50400001928E-02 0.  1.
       -1   -1    0    0    0  501  0.00000000000E+00  0.00000000000E+00 -0.21892001436E+04  0.21892001436E+04  0.50400001928E-02 0. -1.
    10030    2    1    2    0    0  0.00000000000E+00  0.00000000000E+00 -0.39775149443E+03  0.39806487927E+04  0.39607270241E+04 0.  0.
        5    1    3    3  502    0 -0.62349573078E+03 -0.77264800690E+02  0.16886282699E+04  0.18017225923E+04  0.46999998093E+01 0.  1.
       -5    1    3    3    0  502  0.62349573078E+03  0.77264800690E+02 -0.20863797643E+04  0.21789262004E+04  0.46999998093E+01 0. -1.
</event>
<event>
 5   0  0.1879500E-08  0.3976456E+04  0.7818609E-02  0.8009313E-01
        1   -1    0    0  501    0  0.00000000000E+00  0.00000000000E+00  0.22758127629E+04  0.22758127629E+04  0.50400001928E-02 0. -1.
       -1   -1    0    0    0  501  0.00000000000E+00  0.00000000000E+00 -0.17369844976E+04  0.17369844976E+04  0.50400001928E-02 0.  1.
    10030    2    1    2    0    0  0.00000000000E+00  0.00000000000E+00  0.53882826532E+03  0.40127972605E+04  0.39764564570E+04 0.  0.
        3    1    3    3  502    0  0.95261796973E+03 -0.19478992935E+03 -0.14806864161E+04  0.17713995557E+04  0.10100000352E+00 0.  1.
       -3    1    3    3    0  502 -0.95261796973E+03  0.19478992935E+03  0.20195146814E+04  0.22413977049E+04  0.10100000352E+00 0. -1.
</event>
<event>
 5   0  0.6161563E-08  0.3989953E+04  0.7818609E-02  0.8006576E-01
        2   -1    0    0  501    0  0.00000000000E+00  0.00000000000E+00  0.21642339278E+04  0.21642339278E+04  0.25500000920E-02 0. -1.
       -2   -1    0    0    0  501  0.00000000000E+00  0.00000000000E+00 -0.18389562900E+04  0.18389562900E+04  0.25500000920E-02 0.  1.
    10030    2    1    2    0    0  0.00000000000E+00  0.00000000000E+00  0.32527763779E+03  0.40031902177E+04  0.39899531799E+04 0.  0.
        1    1    3    3  502    0  0.86793598803E+03  0.30528359727E+03  0.19386585126E+04  0.21459048866E+04  0.50400001928E-02 0. -1.
       -1    1    3    3    0  502 -0.86793598803E+03 -0.30528359727E+03 -0.16133808748E+04  0.18572853311E+04  0.50400001928E-02 0.  1.
</event>
<event>
 5   0  0.5888700E-08  0.4028585E+04  0.7818609E-02  0.7998805E-01
       -2   -1    0    0    0  501  0.00000000000E+00  0.00000000000E+00  0.16371803190E+04  0.16371803190E+04  0.25500000920E-02 0.  1.
        2   -1    0    0  501    0  0.00000000000E+00  0.00000000000E+00 -0.24782698949E+04  0.24782698949E+04  0.25500000920E-02 0. -1.
    10030    2    1    2    0    0  0.00000000000E+00  0.00000000000E+00 -0.84108957584E+03  0.41154502139E+04  0.40285852093E+04 0.  0.
        5    1    3    3  502    0 -0.13585335117E+04 -0.96125844172E+03  0.73870166025E+03  0.18208056807E+04  0.46999998093E+01 0. -1.
       -5    1    3    3    0  502  0.13585335117E+04  0.96125844172E+03 -0.15797912361E+04  0.22946445332E+04  0.46999998093E+01 0.  1.
</event>
<event>
 5   0  0.5951623E-08  0.4019964E+04  0.7818609E-02  0.8000531E-01
        2   -1    0    0  501    0  0.00000000000E+00  0.00000000000E+00  0.22113972828E+04  0.22113972828E+04  0.25500000920E-02 0. -1.
       -2   -1    0    0    0  501  0.00000000000E+00  0.00000000000E+00 -0.18269115857E+04  0.18269115857E+04  0.25500000920E-02 0.  1.
    10030    2    1    2    0    0  0.00000000000E+00  0.00000000000E+00  0.38448569704E+03  0.40383088685E+04  0.40199638389E+04 0.  0.
        2    1    3    3  502    0  0.56941518127E+03  0.18944014322E+04 -0.16580601389E+03  0.19850647519E+04  0.25500000920E-02 0. -1.
       -2    1    3    3    0  502 -0.56941518127E+03 -0.18944014322E+04  0.55029171092E+03  0.20532441166E+04  0.25500000920E-02 0.  1.
</event>
<event>
 5   0  0.1879500E-08  0.3996226E+04  0.7818609E-02  0.8005308E-01
        1   -1    0    0  501    0  0.00000000000E+00  0.00000000000E+00  0.27825530891E+04  0.27825530891E+04  0.50400001928E-02 0. -1.
       -1   -1    0    0    0  501  0.00000000000E+00  0.00000000000E+00 -0.14348172617E+04  0.14348172617E+04  0.50400001928E-02 0.  1.
    10030    2    1    2    0    0  0.00000000000E+00  0.00000000000E+00  0.13477358274E+04  0.42173703509E+04  0.39962258214E+04 0.  0.
        3    1    3    3  502    0  0.13217416694E+04 -0.75067895808E+03  0.20425303747E+04  0.25460656474E+04  0.10100000352E+00 0. -1.
       -3    1    3    3    0  502 -0.13217416694E+04  0.75067895808E+03 -0.69479454729E+03  0.16713047035E+04  0.10100000352E+00 0.  1.
</event>
<event>
 5   0  0.5951623E-08  0.4010989E+04  0.7818609E-02  0.8002333E-01
        2   -1    0    0  501    0  0.00000000000E+00  0.00000000000E+00  0.14485237429E+04  0.14485237429E+04  0.25500000920E-02 0.  1.
       -2   -1    0    0    0  501  0.00000000000E+00  0.00000000000E+00 -0.27766250454E+04  0.27766250454E+04  0.25500000920E-02 0. -1.
    10030    2    1    2    0    0  0.00000000000E+00  0.00000000000E+00 -0.13281013025E+04  0.42251487882E+04  0.40109885581E+04 0.  0.
        2    1    3    3  502    0 -0.92479416384E+03  0.11112233638E+03  0.12068468319E+04  0.15244906345E+04  0.25500000920E-02 0.  1.
       -2    1    3    3    0  502  0.92479416384E+03 -0.11112233638E+03 -0.25349481344E+04  0.27006581537E+04  0.25500000920E-02 0. -1.
</event>
<event>
 5   0  0.1879500E-08  0.3990876E+04  0.7818609E-02  0.8006390E-01
       -1   -1    0    0    0  501  0.00000000000E+00  0.00000000000E+00  0.13367835858E+04  0.13367835858E+04  0.50400001928E-02 0.  1.
        1   -1    0    0  501    0  0.00000000000E+00  0.00000000000E+00 -0.29786225916E+04  0.29786225916E+04  0.50400001928E-02 0. -1.
    10030    2    1    2    0    0  0.00000000000E+00  0.00000000000E+00 -0.16418390058E+04  0.43154061774E+04  0.39908764896E+04 0.  0.
        1    1    3    3  502    0  0.65708018511E+03 -0.10502305892E+04 -0.25124253116E+04  0.28012532207E+04  0.50400001928E-02 0. -1.
       -1    1    3    3    0  502 -0.65708018511E+03  0.10502305892E+04  0.87058630585E+03  0.15141529567E+04  0.50400001928E-02 0.  1.
</event>
<event>
 5   0  0.1879500E-08  0.3977505E+04  0.7818609E-02  0.8009100E-01
       -3   -1    0    0    0  501  0.00000000000E+00  0.00000000000E+00  0.24894885939E+04  0.24894885959E+04  0.10100000352E+00 0.  1.
        3   -1    0    0  501    0  0.00000000000E+00  0.00000000000E+00 -0.15887347874E+04  0.15887347907E+04  0.10100000352E+00 0. -1.
    10030    2    1    2    0    0  0.00000000000E+00  0.00000000000E+00  0.90075380643E+03  0.40782233866E+04  0.39775053201E+04 0.  0.
        1    1    3    3  502    0  0.87947016897E+03  0.19494549174E+03  0.22683121682E+04  0.24406375428E+04  0.50400001928E-02 0.  1.
       -1    1    3    3    0  502 -0.87947016897E+03 -0.19494549174E+03 -0.13675583618E+04  0.16375858438E+04  0.50400001928E-02 0. -1.
</event>
<event>
 5   0  0.5846812E-08  0.4013028E+04  0.7818609E-02  0.8001923E-01
        2   -1    0    0  501    0  0.00000000000E+00  0.00000000000E+00  0.15924510895E+04  0.15924510895E+04  0.25500000920E-02 0. -1.
       -2   -1    0    0    0  501  0.00000000000E+00  0.00000000000E+00 -0.25282403840E+04  0.25282403840E+04  0.25500000920E-02 0.  1.
    10030    2    1    2    0    0  0.00000000000E+00  0.00000000000E+00 -0.93578929452E+03  0.41206914735E+04  0.40130283598E+04 0.  0.
        4    1    3    3  502    0  0.60373881219E+03  0.72968092242E+02  0.14955431936E+04  0.16144584085E+04  0.12699999809E+01 0. -1.
       -4    1    3    3    0  502 -0.60373881219E+03 -0.72968092242E+02 -0.24313324881E+04  0.25062330651E+04  0.12699999809E+01 0.  1.
</event>
<event>
 5   0  0.1879500E-08  0.3994577E+04  0.7818609E-02  0.8005641E-01
       -1   -1    0    0    0  501  0.00000000000E+00  0.00000000000E+00  0.18959172848E+04  0.18959172848E+04  0.50400001928E-02 0.  1.
        1   -1    0    0  501    0  0.00000000000E+00  0.00000000000E+00 -0.21040801850E+04  0.21040801850E+04  0.50400001928E-02 0. -1.
    10030    2    1    2    0    0  0.00000000000E+00  0.00000000000E+00 -0.20816290017E+03  0.39999974697E+04  0.39945773199E+04 0.  0.
        3    1    3    3  502    0  0.19711759914E+04  0.21038877085E+03  0.13989593650E+03  0.19873019668E+04  0.10100000352E+00 0. -1.
       -3    1    3    3    0  502 -0.19711759914E+04 -0.21038877085E+03 -0.34805883668E+03  0.20126955030E+04  0.10100000352E+00 0.  1.
</event>
<event>
 5   0  0.1879500E-08  0.3992897E+04  0.7818609E-02  0.8005981E-01
       -1   -1    0    0    0  501  0.00000000000E+00  0.00000000000E+00  0.22095709944E+04  0.22095709944E+04  0.50400001928E-02 0. -1.
        1   -1    0    0  501    0  0.00000000000E+00  0.00000000000E+00 -0.18038822950E+04  0.18038822950E+04  0.50400001928E-02 0.  1.
    10030    2    1    2    0    0  0.00000000000E+00  0.00000000000E+00  0.40568869948E+03  0.40134532894E+04  0.39928966911E+04 0.  0.
        1    1    3    3  502    0 -0.31873293513E+03 -0.17167822287E+03 -0.17706132110E+04  0.18072452073E+04  0.50400001928E-02 0.  1.
       -1    1    3    3    0  502  0.31873293513E+03  0.17167822287E+03  0.21763019105E+04  0.22062080822E+04  0.50400001928E-02 0. -1.
</event>
<event>
 5   0  0.1879500E-08  0.4010778E+04  0.7818609E-02  0.8002376E-01
       -1   -1    0    0    0  501  0.00000000000E+00  0.00000000000E+00  0.26789099799E+04  0.26789099799E+04  0.50400001928E-02 0.  1.
        1   -1    0    0  501    0  0.00000000000E+00  0.00000000000E+00 -0.15012021022E+04  0.15012021022E+04  0.50400001928E-02 0. -1.
    10030    2    1    2    0    0  0.00000000000E+00  0.00000000000E+00  0.11777078777E+04  0.41801120821E+04  0.40107781257E+04 0.  0.
        2    1    3    3  502    0  0.15960287198E+04 -0.59526906523E+03 -0.51409443734E+03  0.17793105477E+04  0.25500000920E-02 0. -1.
       -2    1    3    3    0  502 -0.15960287198E+04  0.59526906523E+03  0.16918023151E+04  0.24008015345E+04  0.25500000920E-02 0.  1.
</event>
<event>
 5   0  0.1879500E-08  0.3997472E+04  0.7818609E-02  0.8005057E-01
        1   -1    0    0  501    0  0.00000000000E+00  0.00000000000E+00  0.24014850596E+04  0.24014850596E+04  0.50400001928E-02 0.  1.
       -1   -1    0    0    0  501  0.00000000000E+00  0.00000000000E+00 -0.16635312713E+04  0.16635312713E+04  0.50400001928E-02 0. -1.
    10030    2    1    2    0    0  0.00000000000E+00  0.00000000000E+00  0.73795378832E+03  0.40650163309E+04  0.39974719482E+04 0.  0.
        4    1    3    3  502    0 -0.17918407551E+04 -0.68752775837E+03  0.93658037312E+03  0.21355496057E+04  0.12699999809E+01 0. -1.
       -4    1    3    3    0  502  0.17918407551E+04  0.68752775837E+03 -0.19862658480E+03  0.19294667251E+04  0.12699999809E+01 0.  1.
</event>
<event>
 5   0  0.6161563E-08  0.4006522E+04  0.7818609E-02  0.8003232E-01
       -2   -1    0    0    0  501  0.00000000000E+00  0.00000000000E+00  0.14911662263E+04  0.14911662263E+04  0.25500000920E-02 0.  1.
        2   -1    0    0  501    0  0.00000000000E+00  0.00000000000E+00 -0.26912187221E+04  0.26912187221E+04  0.25500000920E-02 0. -1.
    10030    2    1    2    0    0  0.00000000000E+00  0.00000000000E+00 -0.12000524958E+04  0.41823849485E+04  0.40065219161E+04 0.  0.
        1    1    3    3  502    0 -0.11522613340E+04 -0.16380099386E+04 -0.64978097942E+03  0.21054686087E+04  0.50400001928E-02 0.  1.
       -1    1    3    3    0  502  0.11522613340E+04  0.16380099386E+04 -0.55027151637E+03  0.20769163398E+04  0.50400001928E-02 0. -1.
</event>
<event>
 5   0  0.1879500E-08  0.4004988E+04  0.7818609E-02  0.8003541E-01
        1   -1    0    0  501    0  0.00000000000E+00  0.00000000000E+00  0.27791547549E+04  0.27791547549E+04  0.50400001928E-02 0. -1.
       -1   -1    0    0    0  501  0.00000000000E+00  0.00000000000E+00 -0.14428784802E+04  0.14428784802E+04  0.50400001928E-02 0.  1.
    10030    2    1    2    0    0  0.00000000000E+00  0.00000000000E+00  0.13362762747E+04  0.42220332351E+04  0.40049881842E+04 0.  0.
        2    1    3    3  502    0  0.13921735433E+04  0.14237977976E+04  0.44541805720E+03  0.20405255668E+04  0.25500000920E-02 0. -1.
       -2    1    3    3    0  502 -0.13921735433E+04 -0.14237977976E+04  0.89085821746E+03  0.21815076683E+04  0.25500000920E-02 0.  1.
</event>
<event>
 5   0  0.5945387E-08  0.3999120E+04  0.7818609E-02  0.8004724E-01
        2   -1    0    0  501    0  0.00000000000E+00  0.00000000000E+00  0.14059162555E+04  0.14059162555E+04  0.25500000920E-02 0. -1.
       -2   -1    0    0    0  501  0.00000000000E+00  0.00000000000E+00 -0.28438678316E+04  0.28438678316E+04  0.25500000920E-02 0.  1.
    10030    2    1    2    0    0  0.00000000000E+00  0.00000000000E+00 -0.14379515761E+04  0.42497840870E+04  0.39991199096E+04 0.  0.
        3    1    3    3  502    0  0.75123962187E+02  0.45068214822E+03  0.13496996773E+04  0.14249376258E+04  0.10100000352E+00 0. -1.
       -3    1    3    3    0  502 -0.75123962187E+02 -0.45068214822E+03 -0.27876512534E+04  0.28248464612E+04  0.10100000352E+00 0.  1.
</event>
<event>
 5   0  0.1879500E-08  0.4010141E+04  0.7818609E-02  0.8002504E-01
       -1   -1    0    0    0  501  0.00000000000E+00  0.00000000000E+00  0.19459930060E+04  0.19459930060E+04  0.50400001928E-02 0. -1.
        1   -1    0    0  501    0  0.00000000000E+00  0.00000000000E+00 -0.20659416392E+04  0.20659416392E+04  0.50400001928E-02 0.  1.
    10030    2    1    2    0    0  0.00000000000E+00  0.00000000000E+00 -0.11994863321E+03  0.40119346452E+04  0.40101411350E+04 0.  0.
        4    1    3    3  502    0  0.22700443484E+03  0.19362142442E+04 -0.52906540759E+03  0.20199921859E+04  0.12699999809E+01 0. -1.
       -4    1    3    3    0  502 -0.22700443484E+03 -0.19362142442E+04  0.40911677438E+03  0.19919424592E+04  0.12699999809E+01 0.  1.
</event>
<event>
 5   0  0.6161563E-08  0.3994729E+04  0.7818609E-02  0.8005611E-01
        2   -1    0    0  501    0  0.00000000000E+00  0.00000000000E+00  0.30443335811E+04  0.30443335811E+04  0.25500000920E-02 0.  1.
       -2   -1    0    0    0  501  0.00000000000E+00  0.00000000000E+00 -0.13104561652E+04  0.13104561652E+04  0.25500000920E-02 0. -1.
    10030    2    1    2    0    0  0.00000000000E+00  0.00000000000E+00  0.17338774159E+04  0.43547897463E+04  0.39947293827E+04 0.  0.
        1    1    3    3  502    0 -0.60731984394E+03  0.71262194749E+03 -0.10563979822E+04  0.14116104738E+04  0.50400001928E-02 0. -1.
       -1    1    3    3    0  502  0.60731984394E+03 -0.71262194749E+03  0.27902753981E+04  0.29431792725E+04  0.50400001928E-02 0.  1.
</event>
<event>
 5   0  0.1879500E-08  0.3999071E+04  0.7818609E-02  0.8004734E-01
       -1   -1    0    0    0  501  0.00000000000E+00  0.00000000000E+00  0.25927645757E+04  0.25927645757E+04  0.50400001928E-02 0. -1.
        1   -1    0    0  501    0  0.00000000000E+00  0.00000000000E+00 -0.15420380806E+04  0.15420380806E+04  0.50400001928E-02 0.  1.
    10030    2    1    2    0    0  0.00000000000E+00  0.00000000000E+00  0.10507264951E+04  0.41348026563E+04  0.39990707470E+04 0.  0.
        3    1    3    3  502    0  0.80695497733E+03  0.27684108512E+02  0.24167118329E+04  0.25480264596E+04  0.10100000352E+00 0. -1.
       -3    1    3    3    0  502 -0.80695497733E+03 -0.27684108512E+02 -0.13659853378E+04  0.15867761968E+04  0.10100000352E+00 0.  1.
</event>
<event>
 5   0  0.5846812E-08  0.3962526E+04  0.7818609E-02  0.8012149E-01
        2   -1    0    0  501    0  0.00000000000E+00  0.00000000000E+00  0.23298597940E+04  0.23298597940E+04  0.25500000920E-02 0.  1.
       -2   -1    0    0    0  501  0.00000000000E+00  0.00000000000E+00 -0.16848239856E+04  0.16848239856E+04  0.25500000920E-02 0. -1.
    10030    2    1    2    0    0  0.00000000000E+00  0.00000000000E+00  0.64503580838E+03  0.40146837796E+04  0.39625262972E+04 0.  0.
        4    1    3    3  502    0 -0.67493780693E+03 -0.15316076828E+04 -0.75164428055E+03  0.18347571705E+04  0.12699999809E+01 0. -1.
       -4    1    3    3    0  502  0.67493780693E+03  0.15316076828E+04  0.13966800889E+04  0.21799266091E+04  0.12699999809E+01 0.  1.
</event>
<event>
 5   0  0.5951623E-08  0.3918756E+04  0.7818609E-02  0.8021140E-01
        2   -1    0    0  501    0  0.00000000000E+00  0.00000000000E+00  0.19409215265E+04  0.19409215265E+04  0.25500000920E-02 0.  1.
       -2   -1    0    0    0  501  0.00000000000E+00  0.00000000000E+00 -0.19780100980E+04  0.19780100980E+04  0.25500000920E-02 0. -1.
    10030    2    1    2    0    0  0.00000000000E+00  0.00000000000E+00 -0.37088571580E+02  0.39189316245E+04  0.39187561184E+04 0.  0.
        2    1    3    3  502    0 -0.54116638974E+03 -0.57332080592E+03  0.17753043103E+04  0.19424889195E+04  0.25500000920E-02 0.  1.
       -2    1    3    3    0  502  0.54116638974E+03  0.57332080592E+03 -0.18123928819E+04  0.19764427050E+04  0.25500000920E-02 0. -1.
</event>
<event>
 5   0  0.5888700E-08  0.4003086E+04  0.7818609E-02  0.8003924E-01
       -2   -1    0    0    0  501  0.00000000000E+00  0.00000000000E+00  0.16402493590E+04  0.16402493590E+04  0.25500000920E-02 0.  1.
        2   -1    0    0  501    0  0.00000000000E+00  0.00000000000E+00 -0.24424182930E+04  0.24424182930E+04  0.25500000920E-02 0. -1.
    10030    2    1    2    0    0  0.00000000000E+00  0.00000000000E+00 -0.80216893406E+03  0.40826676520E+04  0.40030863291E+04 0.  0.
        5    1    3    3  502    0 -0.10574028054E+04 -0.88014607601E+03  0.10815682032E+04  0.17500199074E+04  0.46999998093E+01 0.  1.
       -5    1    3    3    0  502  0.10574028054E+04  0.88014607601E+03 -0.18837371373E+04  0.23326477446E+04  0.46999998093E+01 0. -1.
</event>
<event>
 5   0  0.5951623E-08  0.4007416E+04  0.7818609E-02  0.8003052E-01
        2   -1    0    0  501    0  0.00000000000E+00  0.00000000000E+00  0.16595487381E+04  0.16595487381E+04  0.25500000920E-02 0.  1.
       -2   -1    0    0    0  501  0.00000000000E+00  0.00000000000E+00 -0.24192394902E+04  0.24192394902E+04  0.25500000920E-02 0. -1.
    10030    2    1    2    0    0  0.00000000000E+00  0.00000000000E+00 -0.75969075214E+03  0.40787882283E+04  0.40074160468E+04 0.  0.
        2    1    3    3  502    0 -0.25447331242E+03  0.47743054064E+03 -0.23434932710E+04  0.24051314515E+04  0.25500000920E-02 0. -1.
       -2    1    3    3    0  502  0.25447331242E+03 -0.47743054064E+03  0.15838025188E+04  0.16736567768E+04  0.25500000920E-02 0.  1.
</event>
<event>
 5   0  0.5945387E-08  0.3965529E+04  0.7818609E-02  0.8011537E-01
       -2   -1    0    0    0  501  0.00000000000E+00  0.00000000000E+00  0.17864328058E+04  0.17864328058E+04  0.25500000920E-02 0. -1.
        2   -1    0    0  501    0  0.00000000000E+00  0.00000000000E+00 -0.22006738596E+04  0.22006738596E+04  0.25500000920E-02 0.  1.
    10030    2    1    2    0    0  0.00000000000E+00  0.00000000000E+00 -0.41424105379E+03  0.39871066654E+04  0.39655294615E+04 0.  0.
        3    1    3    3  502    0  0.14792502886E+04 -0.13180399184E+04 -0.28464600502E+03  0.20016078540E+04  0.10100000352E+00 0.  1.
       -3    1    3    3    0  502 -0.14792502886E+04  0.13180399184E+04 -0.12959504878E+03  0.19854988113E+04  0.10100000352E+00 0. -1.
</event>
<event>
 5   0  0.5945387E-08  0.3985232E+04  0.7818609E-02  0.8007532E-01
       -2   -1    0    0    0  501  0.00000000000E+00  0.00000000000E+00  0.16847748951E+04  0.16847748951E+04  0.25500000920E-02 0. -1.
        2   -1    0    0  501    0  0.00000000000E+00  0.00000000000E+00 -0.23567057205E+04  0.23567057205E+04  0.25500000920E-02 0.  1.
    10030    2    1    2    0    0  0.00000000000E+00  0.00000000000E+00 -0.67193082538E+03  0.40414806156E+04  0.39852320550E+04 0.  0.
        3    1    3    3  502    0  0.17782653687E+04 -0.83433681692E+01 -0.12476655670E+04  0.21723182802E+04  0.10100000352E+00 0.  1.
       -3    1    3    3    0  502 -0.17782653687E+04  0.83433681692E+01  0.57573474160E+03  0.18691623354E+04  0.10100000352E+00 0. -1.
</event>
<event>
 5   0  0.5951623E-08  0.3945195E+04  0.7818609E-02  0.8015695E-01
       -2   -1    0    0    0  501  0.00000000000E+00  0.00000000000E+00  0.13894089733E+04  0.13894089733E+04  0.25500000920E-02 0.  1.
        2   -1    0    0  501    0  0.00000000000E+00  0.00000000000E+00 -0.28005732308E+04  0.28005732308E+04  0.25500000920E-02 0. -1.
    10030    2    1    2    0    0  0.00000000000E+00  0.00000000000E+00 -0.14111642575E+04  0.41899822040E+04  0.39451953448E+04 0.  0.
        2    1    3    3  502    0 -0.92524376643E+03 -0.52928755351E+03 -0.24683623985E+04  0.26886863468E+04  0.25500000920E-02 0. -1.
       -2    1    3    3    0  502  0.92524376643E+03  0.52928755351E+03  0.10571981410E+04  0.15012958572E+04  0.25500000920E-02 0.  1.
</event>
<event>
 5   0  0.5888700E-08  0.4033628E+04  0.7818609E-02  0.7997797E-01
       -2   -1    0    0    0  501  0.00000000000E+00  0.00000000000E+00  0.22270557582E+04  0.22270557582E+04  0.25500000920E-02 0.  1.
        2   -1    0    0  501    0  0.00000000000E+00  0.00000000000E+00 -0.18264196280E+04  0.18264196280E+04  0.25500000920E-02 0. -1.
    10030    2    1    2    0    0  0.00000000000E+00  0.00000000000E+00  0.40063613020E+03  0.40534753862E+04  0.40336278210E+04 0.  0.
        5    1    3    3  502    0 -0.89545241331E+03 -0.58048979400E+03  0.19200870468E+04  0.21967156809E+04  0.46999998093E+01 0.  1.
       -5    1    3    3    0  502  0.89545241331E+03  0.58048979400E+03 -0.15194509166E+04  0.18567597053E+04  0.46999998093E+01 0. -1.
</event>
<event>
 5   0  0.5945387E-08  0.4027671E+04  0.7818609E-02  0.7998988E-01
        2   -1    0    0  501    0  0.00000000000E+00  0.00000000000E+00  0.12747957277E+04  0.12747957277E+04  0.25500000920E-02 0.  1.
       -2   -1    0    0    0  501  0.00000000000E+00  0.00000000000E+00 -0.31813196999E+04  0.31813196999E+04  0.25500000920E-02 0. -1.
    10030    2    1    2    0    0  0.00000000000E+00  0.00000000000E+00 -0.19065239722E+04  0.44561154276E+04  0.40276706726E+04 0.  0.
        3    1    3    3  502    0  0.26955366385E+03  0.58158347397E+03 -0.30654348292E+04  0.31317390085E+04  0.10100000352E+00 0. -1.
       -3    1    3    3    0  502 -0.26955366385E+03 -0.58158347397E+03  0.11589108570E+04  0.13243764191E+04  0.10100000352E+00 0.  1.
</event>
<event>
 5   0  0.1879500E-08  0.3955181E+04  0.7818609E-02  0.8013649E-01
        1   -1    0    0  501    0  0.00000000000E+00  0.00000000000E+00  0.18057932964E+04  0.18057932964E+04  0.50400001928E-02 0.  1.
       -1   -1    0    0    0  501  0.00000000000E+00  0.00000000000E+00 -0.21657323269E+04  0.21657323269E+04  0.50400001928E-02 0. -1.
    10030    2    1    2    0    0  0.00000000000E+00  0.00000000000E+00 -0.35993903050E+03  0.39715256234E+04  0.39551813703E+04 0.  0.
        1    1    3    3  502    0  0.23919066383E+03 -0.15939943129E+04 -0.13304944037E+04  0.20900347848E+04  0.50400001928E-02 0. -1.
       -1    1    3    3    0  502 -0.23919066383E+03  0.15939943129E+04  0.97055537321E+03  0.18814908386E+04  0.50400001928E-02 0.  1.
</event>
<event>
 5   0  0.6161563E-08  0.4044702E+04  0.7818609E-02  0.7995589E-01
       -2   -1    0    0    0  501  0.00000000000E+00  0.00000000000E+00  0.17387222633E+04  0.17387222633E+04  0.25500000920E-02 0.  1.
        2   -1    0    0  501    0  0.00000000000E+00  0.00000000000E+00 -0.23522466025E+04  0.23522466025E+04  0.25500000920E-02 0. -1.
    10030    2    1    2    0    0  0.00000000000E+00  0.00000000000E+00 -0.61352433915E+03  0.40909688658E+04  0.40447019849E+04 0.  0.
        1    1    3    3  502    0 -0.18893336832E+04  0.35031202499E+03  0.33100860174E+03  0.19498376793E+04  0.50400001928E-02 0.  1.
       -1    1    3    3    0  502  0.18893336832E+04 -0.35031202499E+03 -0.94453294089E+03  0.21411311865E+04  0.50400001928E-02 0. -1.
</event>
<event>
 5   0  0.5951623E-08  0.3965030E+04  0.7818609E-02  0.8011638E-01
        2   -1    0    0  501    0  0.00000000000E+00  0.00000000000E+00  0.13562676582E+04  0.13562676582E+04  0.25500000920E-02 0. -1.
       -2   -1    0    0    0  501  0.00000000000E+00  0.00000000000E+00 -0.28979282889E+04  0.28979282889E+04  0.25500000920E-02 0.  1.
    10030    2    1    2    0    0  0.00000000000E+00  0.00000000000E+00 -0.15416606308E+04  0.42541959471E+04  0.39650303474E+04 0.  0.
        2    1    3    3  502    0 -0.80705906066E+02  0.25626401972E+02 -0.28959871740E+04  0.28972248563E+04  0.25500000920E-02 0.  1.
       -2    1    3    3    0  502  0.80705906066E+02 -0.25626401972E+02  0.13543265432E+04  0.13569710908E+04  0.25500000920E-02 0. -1.
</event>
<event>
 5   0  0.1879500E-08  0.3992236E+04  0.7818609E-02  0.8006115E-01
        1   -1    0    0  501    0  0.00000000000E+00  0.00000000000E+00  0.23061398761E+04  0.23061398761E+04  0.50400001928E-02 0. -1.
       -1   -1    0    0    0  501  0.00000000000E+00  0.00000000000E+00 -0.17277733444E+04  0.17277733444E+04  0.50400001928E-02 0.  1.
    10030    2    1    2    0    0  0.00000000000E+00  0.00000000000E+00  0.57836653177E+03  0.40339132205E+04  0.39922359682E+04 0.  0.
        2    1    3    3  502    0  0.63646759339E+03  0.18877333182E+04  0.41643018174E+03  0.20352007701E+04  0.25500000920E-02 0. -1.
       -2    1    3    3    0  502 -0.63646759339E+03 -0.18877333182E+04  0.16193635003E+03  0.19987124505E+04  0.25500000920E-02 0.  1.
</event>
<event>
 5   0  0.5888700E-08  0.3990285E+04  0.7818609E-02  0.8006509E-01
        2   -1    0    0  501    0  0.00000000000E+00  0.00000000000E+00  0.18007175326E+04  0.18007175326E+04  0.25500000920E-02 0.  1.
       -2   -1    0    0    0  501  0.00000000000E+00  0.00000000000E+00 -0.22105596763E+04  0.22105596763E+04  0.25500000920E-02 0. -1.
    10030    2    1    2    0    0  0.00000000000E+00  0.00000000000E+00 -0.40984214367E+03  0.40112772089E+04  0.39902849853E+04 0.  0.
        5    1    3    3  502    0 -0.19555310291E+04  0.17033942882E+03 -0.56380672061E+03  0.20423068415E+04  0.46999998093E+01 0. -1.
       -5    1    3    3    0  502  0.19555310291E+04 -0.17033942882E+03  0.15396457694E+03  0.19689703674E+04  0.46999998093E+01 0.  1.
</event>
<event>
 5   0  0.1879500E-08  0.4033530E+04  0.7818609E-02  0.7997817E-01
       -1   -1    0    0    0  501  0.00000000000E+00  0.00000000000E+00  0.22710772339E+04  0.22710772339E+04  0.50400001928E-02 0. -1.
        1   -1    0    0  501    0  0.00000000000E+00  0.00000000000E+00 -0.17909299950E+04  0.17909299950E+04  0.50400001928E-02 0.  1.
    10030    2    1    2    0    0  0.00000000000E+00  0.00000000000E+00  0.48014723890E+03  0.40620072288E+04  0.40335296399E+04 0.  0.
        3    1    3    3  502    0 -0.99068442176E+02 -0.18546455963E+04  0.10316354311E+04  0.21245697252E+04  0.10100000352E+00 0. -1.
       -3    1    3    3    0  502  0.99068442176E+02  0.18546455963E+04 -0.55148819217E+03  0.19374375037E+04  0.10100000352E+00 0.  1.
</event>
<event>
 5   0  0.1879500E-08  0.3995330E+04  0.7818609E-02  0.8005489E-01
        1   -1    0    0  501    0  0.00000000000E+00  0.00000000000E+00  0.17894941286E+04  0.17894941286E+04  0.50400001928E-02 0.  1.
       -1   -1    0    0    0  501  0.00000000000E+00  0.00000000000E+00 -0.22300527893E+04  0.22300527893E+04  0.50400001928E-02 0. -1.
    10030    2    1    2    0    0  0.00000000000E+00  0.00000000000E+00 -0.44055866065E+03  0.40195469179E+04  0.39953304609E+04 0.  0.
        5    1    3    3  502    0  0.16589144373E+04  0.27326969753E+03 -0.13056934006E+04  0.21287392476E+04  0.46999998093E+01 0. -1.
       -5    1    3    3    0  502 -0.16589144373E+04 -0.27326969753E+03  0.86513473999E+03  0.18908076703E+04  0.46999998093E+01 0.  1.
</event>
<event>
 5   0  0.1879500E-08  0.3999253E+04  0.7818609E-02  0.8004697E-01
        1   -1    0    0  501    0  0.00000000000E+00  0.00000000000E+00  0.25959304258E+04  0.25959304258E+04  0.50400001928E-02 0. -1.
       -1   -1    0    0    0  501  0.00000000000E+00  0.00000000000E+00 -0.15402976537E+04  0.15402976537E+04  0.50400001928E-02 0.  1.
    10030    2    1    2    0    0  0.00000000000E+00  0.00000000000E+00  0.10556327721E+04  0.41362280795E+04  0.39992527022E+04 0.  0.
        4    1    3    3  502    0 -0.11486863867E+04 -0.59855307101E+03 -0.10477638890E+04  0.16660002923E+04  0.12699999809E+01 0.  1.
       -4    1    3    3    0  502  0.11486863867E+04  0.59855307101E+03  0.21033966611E+04  0.24702277872E+04  0.12699999809E+01 0. -1.
</event>
<event>
 5   0  0.5846812E-08  0.3974940E+04  0.7818609E-02  0.8009621E-01
        2   -1    0    0  501    0  0.00000000000E+00  0.00000000000E+00  0.25801870363E+04  0.25801870363E+04  0.25500000920E-02 0.  1.
       -2   -1    0    0    0  501  0.00000000000E+00  0.00000000000E+00 -0.15309113657E+04  0.15309113657E+04  0.25500000920E-02 0. -1.
    10030    2    1    2    0    0  0.00000000000E+00  0.00000000000E+00  0.10492756706E+04  0.41110984020E+04  0.39749403314E+04 0.  0.
        4    1    3    3  502    0 -0.23557593213E+03 -0.12622600868E+04  0.20935844565E+04  0.24559914569E+04  0.12699999809E+01 0.  1.
       -4    1    3    3    0  502  0.23557593213E+03  0.12622600868E+04 -0.10443087859E+04  0.16551069452E+04  0.12699999809E+01 0. -1.
</event>
<event>
 5   0  0.5951623E-08  0.3988855E+04  0.7818609E-02  0.8006799E-01
        2   -1    0    0  501    0  0.00000000000E+00  0.00000000000E+00  0.28892046548E+04  0.28892046548E+04  0.25500000920E-02 0.  1.
       -2   -1    0    0    0  501  0.00000000000E+00  0.00000000000E+00 -0.13767598119E+04  0.13767598119E+04  0.25500000920E-02 0. -1.
    10030    2    1    2    0    0  0.00000000000E+00  0.00000000000E+00  0.15124448429E+04  0.42659644667E+04  0.39888549019E+04 0.  0.
        2    1    3    3  502    0  0.10004404896E+04  0.10031096271E+04 -0.74509188680E+03  0.16007098479E+04  0.25500000920E-02 0. -1.
       -2    1    3    3    0  502 -0.10004404896E+04 -0.10031096271E+04  0.22575367297E+04  0.26652546189E+04  0.25500000920E-02 0.  1.
</event>
<event>
 5   0  0.5846812E-08  0.4008686E+04  0.7818609E-02  0.8002797E-01
        2   -1    0    0  501    0  0.00000000000E+00  0.00000000000E+00  0.13096110658E+04  0.13096110658E+04  0.25500000920E-02 0.  1.
       -2   -1    0    0    0  501  0.00000000000E+00  0.00000000000E+00 -0.30676211829E+04  0.30676211829E+04  0.25500000920E-02 0. -1.
    10030    2    1    2    0    0  0.00000000000E+00  0.00000000000E+00 -0.17580101170E+04  0.43772322487E+04  0.40086858928E+04 0.  0.
        4    1    3    3  502    0 -0.19314023660E+04  0.39140171499E+02 -0.29551622821E+03  0.19542718610E+04  0.12699999809E+01 0. -1.
       -4    1    3    3    0  502  0.19314023660E+04 -0.39140171499E+02 -0.14624938888E+04  0.24229603877E+04  0.12699999809E+01 0.  1.
</event>
<event>
 5   0  0.6161563E-08  0.4010960E+04  0.7818609E-02  0.8002339E-01
       -2   -1    0    0    0  501  0.00000000000E+00  0.00000000000E+00  0.13246013575E+04  0.13246013575E+04  0.25500000920E-02 0.  1.
        2   -1    0    0  501    0  0.00000000000E+00  0.00000000000E+00 -0.30363475464E+04  0.30363475464E+04  0.25500000920E-02 0. -1.
    10030    2    1    2    0    0  0.00000000000E+00  0.00000000000E+00 -0.17117461890E+04  0.43609489039E+04  0.40109600256E+04 0.  0.
        1    1    3    3  502    0 -0.15137090280E+04 -0.11708531170E+04 -0.15079905807E+04  0.24364415927E+04  0.50400001928E-02 0.  1.
       -1    1    3    3    0  502  0.15137090280E+04  0.11708531170E+04 -0.20375560827E+03  0.19245073112E+04  0.50400001928E-02 0. -1.
</event>
<event>
 5   0  0.5945387E-08  0.3986865E+04  0.7818609E-02  0.8007202E-01
       -2   -1    0    0    0  501  0.00000000000E+00  0.00000000000E+00  0.15106285568E+04  0.15106285568E+04  0.25500000920E-02 0.  1.
        2   -1    0    0  501    0  0.00000000000E+00  0.00000000000E+00 -0.26305426401E+04  0.26305426401E+04  0.25500000920E-02 0. -1.
    10030    2    1    2    0    0  0.00000000000E+00  0.00000000000E+00 -0.11199140833E+04  0.41411711969E+04  0.39868648495E+04 0.  0.
        3    1    3    3  502    0 -0.81624277630E+03  0.65378621116E+03 -0.23227213920E+04  0.25472972647E+04  0.10100000352E+00 0. -1.
       -3    1    3    3    0  502  0.81624277630E+03 -0.65378621116E+03  0.12028073087E+04  0.15938739322E+04  0.10100000352E+00 0.  1.
</event>
<event>
 5   0  0.1879500E-08  0.3968881E+04  0.7818609E-02  0.8010854E-01
       -1   -1    0    0    0  501  0.00000000000E+00  0.00000000000E+00  0.24134248703E+04  0.24134248703E+04  0.50400001928E-02 0. -1.
        1   -1    0    0  501    0  0.00000000000E+00  0.00000000000E+00 -0.16317075016E+04  0.16317075016E+04  0.50400001928E-02 0.  1.
    10030    2    1    2    0    0  0.00000000000E+00  0.00000000000E+00  0.78171736863E+03  0.40451323719E+04  0.39688806812E+04 0.  0.
        1    1    3    3  502    0  0.35684573825E+03  0.14447607634E+04 -0.94711950975E+03  0.17640033759E+04  0.50400001928E-02 0.  1.
       -1    1    3    3    0  502 -0.35684573825E+03 -0.14447607634E+04  0.17288368784E+04  0.22811289960E+04  0.50400001928E-02 0. -1.
</event>
<event>
 5   0  0.5951623E-08  0.4013609E+04  0.7818609E-02  0.8001807E-01
       -2   -1    0    0    0  501  0.00000000000E+00  0.00000000000E+00  0.18910258696E+04  0.18910258696E+04  0.25500000920E-02 0.  1.
        2   -1    0    0  501    0  0.00000000000E+00  0.00000000000E+00 -0.21296717460E+04  0.21296717460E+04  0.25500000920E-02 0. -1.
    10030    2    1    2    0    0  0.00000000000E+00  0.00000000000E+00 -0.23864587639E+03  0.40206976156E+04  0.40136090320E+04 0.  0.
        2    1    3    3  502    0 -0.11809441704E+04 -0.48864743643E+03 -0.16692655654E+04  0.21023446384E+04  0.25500000920E-02 0. -1.
       -2    1    3    3    0  502  0.11809441704E+04  0.48864743643E+03  0.14306196890E+04  0.19183529772E+04  0.25500000920E-02 0.  1.
</event>
<event>
 5   0  0.1879500E-08  0.4089419E+04  0.7818609E-02  0.7986747E-01
        1   -1    0    0  501    0  0.00000000000E+00  0.00000000000E+00  0.16751375243E+04  0.16751375243E+04  0.50400001928E-02 0. -1.
       -1   -1    0    0    0  501  0.00000000000E+00  0.00000000000E+00 -0.24958174667E+04  0.24958174667E+04  0.50400001928E-02 0.  1.
    10030    2    1    2    0    0  0.00000000000E+00  0.00000000000E+00 -0.82067994239E+03  0.41709549910E+04  0.40894192704E+04 0.  0.
        4    1    3    3  502    0 -0.27291622016E+03  0.58285883226E+02  0.16556217037E+04  0.16789774704E+04  0.12699999809E+01 0. -1.
       -4    1    3    3    0  502  0.27291622016E+03 -0.58285883226E+02 -0.24763016461E+04  0.24919775205E+04  0.12699999809E+01 0.  1.
</event>
<event>
 5   0  0.5951623E-08  0.3994530E+04  0.7818609E-02  0.8005651E-01
        2   -1    0    0  501    0  0.00000000000E+00  0.00000000000E+00  0.28314538117E+04  0.28314538117E+04  0.25500000920E-02 0. -1.
       -2   -1    0    0    0  501  0.00000000000E+00  0.00000000000E+00 -0.14088409349E+04  0.14088409349E+04  0.25500000920E-02 0.  1.
    10030    2    1    2    0    0  0.00000000000E+00  0.00000000000E+00  0.14226128768E+04  0.42402947466E+04  0.39945302779E+04 0.  0.
        2    1    3    3  502    0  0.17736936874E+04 -0.76829112981E+03  0.17757192504E+03  0.19410802007E+04  0.25500000920E-02 0.  1.
       -2    1    3    3    0  502 -0.17736936874E+04  0.76829112981E+03  0.12450409517E+04  0.22992145459E+04  0.25500000920E-02 0. -1.
</event>
<event>
 5   0  0.5846812E-08  0.4029160E+04  0.7818609E-02  0.7998690E-01
       -2   -1    0    0    0  501  0.00000000000E+00  0.00000000000E+00  0.16773843439E+04  0.16773843439E+04  0.25500000920E-02 0.  1.
        2   -1    0    0  501    0  0.00000000000E+00  0.00000000000E+00 -0.24195605274E+04  0.24195605274E+04  0.25500000920E-02 0. -1.
    10030    2    1    2    0    0  0.00000000000E+00  0.00000000000E+00 -0.74217618348E+03  0.40969448714E+04  0.40291601844E+04 0.  0.
        4    1    3    3  502    0  0.81109106562E+03 -0.22631373435E+03 -0.22320264730E+04  0.23855880642E+04  0.12699999809E+01 0. -1.
       -4    1    3    3    0  502 -0.81109106562E+03  0.22631373435E+03  0.14898502895E+04  0.17113568071E+04  0.12699999809E+01 0.  1.
</event>
<event>
 5   0  0.1879500E-08  0.4007269E+04  0.7818609E-02  0.8003082E-01
       -1   -1    0    0    0  501  0.00000000000E+00  0.00000000000E+00  0.23026681545E+04  0.23026681545E+04  0.50400001928E-02 0. -1.
        1   -1    0    0  501    0  0.00000000000E+00  0.00000000000E+00 -0.17434347749E+04  0.17434347749E+04  0.50400001928E-02 0.  1.
    10030    2    1    2    0    0  0.00000000000E+00  0.00000000000E+00  0.55923337964E+03  0.40461029294E+04  0.40072692625E+04 0.  0.
        1    1    3    3  502    0 -0.72622235667E+03 -0.70269741177E+03  0.20265186907E+04  0.22645000702E+04  0.50400001928E-02 0. -1.
       -1    1    3    3    0  502  0.72622235667E+03  0.70269741177E+03 -0.14672853111E+04  0.17816028592E+04  0.50400001928E-02 0.  1.
</event>
<event>
 5   0  0.1879500E-08  0.3989315E+04  0.7818609E-02  0.8006705E-01
       -1   -1    0    0    0  501  0.00000000000E+00  0.00000000000E+00  0.15798811127E+04  0.15798811127E+04  0.50400001928E-02 0. -1.
        1   -1    0    0  501    0  0.00000000000E+00  0.00000000000E+00 -0.25183284402E+04  0.25183284402E+04  0.50400001928E-02 0.  1.
    10030    2    1    2    0    0  0.00000000000E+00  0.00000000000E+00 -0.93844732746E+03  0.40982095529E+04  0.39893154993E+04 0.  0.
        5    1    3    3  502    0 -0.28585414570E+03  0.71421724151E+03  0.14213419055E+04  0.16161849409E+04  0.46999998093E+01 0. -1.
       -5    1    3    3    0  502  0.28585414570E+03 -0.71421724151E+03 -0.23597892330E+04  0.24820246120E+04  0.46999998093E+01 0.  1.
</event>
<event>
 5   0  0.5945387E-08  0.3998403E+04  0.7818609E-02  0.8004869E-01
       -2   -1    0    0    0  501  0.00000000000E+00  0.00000000000E+00  0.23364859010E+04  0.23364859010E+04  0.25500000920E-02 0.  1.
        2   -1    0    0  501    0  0.00000000000E+00  0.00000000000E+00 -0.17106062186E+04  0.17106062186E+04  0.25500000920E-02 0. -1.
    10030    2    1    2    0    0  0.00000000000E+00  0.00000000000E+00  0.62587968245E+03  0.40470921196E+04  0.39984033373E+04 0.  0.
        3    1    3    3  502    0  0.10560154200E+04 -0.12347890270E+04  0.14920000361E+04  0.22058868118E+04  0.10100000352E+00 0.  1.
       -3    1    3    3    0  502 -0.10560154200E+04  0.12347890270E+04 -0.86612035364E+03  0.18412053079E+04  0.10100000352E+00 0. -1.
</event>
<event>
 5   0  0.1879500E-08  0.4002358E+04  0.7818609E-02  0.8004071E-01
       -3   -1    0    0    0  501  0.00000000000E+00  0.00000000000E+00  0.21834435251E+04  0.21834435274E+04  0.10100000352E+00 0. -1.
        3   -1    0    0  501    0  0.00000000000E+00  0.00000000000E+00 -0.18341291597E+04  0.18341291625E+04  0.10100000352E+00 0.  1.
    10030    2    1    2    0    0  0.00000000000E+00  0.00000000000E+00  0.34931436539E+03  0.40175726899E+04  0.40023580290E+04 0.  0.
        4    1    3    3  502    0  0.10779344828E+04  0.15115283084E+04  0.92452792674E+03  0.20739850715E+04  0.12699999809E+01 0. -1.
       -4    1    3    3    0  502 -0.10779344828E+04 -0.15115283084E+04 -0.57521356135E+03  0.19435876184E+04  0.12699999809E+01 0.  1.
</event>
<event>
 5   0  0.1879500E-08  0.4007499E+04  0.7818609E-02  0.8003035E-01
       -1   -1    0    0    0  501  0.00000000000E+00  0.00000000000E+00  0.12506462440E+04  0.12506462440E+04  0.50400001928E-02 0.  1.
        1   -1    0    0  501    0  0.00000000000E+00  0.00000000000E+00 -0.32103497604E+04  0.32103497604E+04  0.50400001928E-02 0. -1.
    10030    2    1    2    0    0  0.00000000000E+00  0.00000000000E+00 -0.19597035164E+04  0.44609960044E+04  0.40074989056E+04 0.  0.
        4    1    3    3  502    0  0.89551238749E+03  0.35767039479E+03  0.97536918120E+03  0.13715747154E+04  0.12699999809E+01 0.  1.
       -4    1    3    3    0  502 -0.89551238749E+03 -0.35767039479E+03 -0.29350726976E+04  0.30894212889E+04  0.12699999809E+01 0. -1.
</event>
<event>
 5   0  0.5846812E-08  0.4012734E+04  0.7818609E-02  0.8001983E-01
       -2   -1    0    0    0  501  0.00000000000E+00  0.00000000000E+00  0.19651677813E+04  0.19651677813E+04  0.25500000920E-02 0. -1.
        2   -1    0    0  501    0  0.00000000000E+00  0.00000000000E+00 -0.20484302014E+04  0.20484302014E+04  0.25500000920E-02 0.  1.
    10030    2    1    2    0    0  0.00000000000E+00  0.00000000000E+00 -0.83262420163E+02  0.40135979827E+04  0.40127342469E+04 0.  0.
        4    1    3    3  502    0 -0.10887322998E+04  0.16775676717E+04 -0.20271278495E+03  0.20101406419E+04  0.12699999809E+01 0. -1.
       -4    1    3    3    0  502  0.10887322998E+04 -0.16775676717E+04  0.11945036479E+03  0.20034573408E+04  0.12699999809E+01 0.  1.
</event>
<event>
 5   0  0.6161563E-08  0.3978237E+04  0.7818609E-02  0.8008951E-01
        2   -1    0    0  501    0  0.00000000000E+00  0.00000000000E+00  0.16985875796E+04  0.16985875796E+04  0.25500000920E-02 0.  1.
       -2   -1    0    0    0  501  0.00000000000E+00  0.00000000000E+00 -0.23293430398E+04  0.23293430398E+04  0.25500000920E-02 0. -1.
    10030    2    1    2    0    0  0.00000000000E+00  0.00000000000E+00 -0.63075546023E+03  0.40279306194E+04  0.39782373765E+04 0.  0.
        1    1    3    3  502    0 -0.13985745119E+04  0.89482641738E+03 -0.14244454238E+04  0.21876402236E+04  0.50400001928E-02 0. -1.
       -1    1    3    3    0  502  0.13985745119E+04 -0.89482641738E+03  0.79368996360E+03  0.18402903958E+04  0.50400001928E-02 0.  1.
</event>
<event>
 5   0  0.1879500E-08  0.3993443E+04  0.7818609E-02  0.8005871E-01
       -1   -1    0    0    0  501  0.00000000000E+00  0.00000000000E+00  0.23617121963E+04  0.23617121964E+04  0.50400001928E-02 0. -1.
        1   -1    0    0  501    0  0.00000000000E+00  0.00000000000E+00 -0.16881379694E+04  0.16881379694E+04  0.50400001928E-02 0.  1.
    10030    2    1    2    0    0  0.00000000000E+00  0.00000000000E+00  0.67357422691E+03  0.40498501658E+04  0.39934426409E+04 0.  0.
        2    1    3    3  502    0  0.16534697640E+04 -0.93241094825E+03  0.96484384097E+03  0.21293839659E+04  0.25500000920E-02 0. -1.
       -2    1    3    3    0  502 -0.16534697640E+04  0.93241094825E+03 -0.29126961406E+03  0.19204661999E+04  0.25500000920E-02 0.  1.
</event>
<event>
 5   0  0.5951623E-08  0.4001636E+04  0.7818609E-02  0.8004217E-01
        2   -1    0    0  501    0  0.00000000000E+00  0.00000000000E+00  0.15632980398E+04  0.15632980398E+04  0.25500000920E-02 0.  1.
       -2   -1    0    0    0  501  0.00000000000E+00  0.00000000000E+00 -0.25607871454E+04  0.25607871454E+04  0.25500000920E-02 0. -1.
    10030    2    1    2    0    0  0.00000000000E+00  0.00000000000E+00 -0.99748910559E+03  0.41240851853E+04  0.40016364277E+04 0.  0.
        2    1    3    3  502    0 -0.80309387449E+03 -0.40382198963E+03  0.13434769502E+04  0.16164659867E+04  0.25500000920E-02 0.  1.
       -2    1    3    3    0  502  0.80309387449E+03  0.40382198963E+03 -0.23409660558E+04  0.25076191985E+04  0.25500000920E-02 0. -1.
</event>
<event>
 5   0  0.6161563E-08  0.3878522E+04  0.7818609E-02  0.8029511E-01
       -2   -1    0    0    0  501  0.00000000000E+00  0.00000000000E+00  0.25704528224E+04  0.25704528224E+04  0.25500000920E-02 0.  1.
        2   -1    0    0  501    0  0.00000000000E+00  0.00000000000E+00 -0.14630622663E+04  0.14630622663E+04  0.25500000920E-02 0. -1.
    10030    2    1    2    0    0  0.00000000000E+00  0.00000000000E+00  0.11073905560E+04  0.40335150887E+04  0.38785216420E+04 0.  0.
        1    1    3    3  502    0  0.79751153999E+03  0.11518194723E+04  0.19481830140E+04  0.23996103453E+04  0.50400001928E-02 0.  1.
       -1    1    3    3    0  502 -0.79751153999E+03 -0.11518194723E+04 -0.84079245798E+03  0.16339047434E+04  0.50400001928E-02 0. -1.
</event>
<event>
 5   0  0.5945387E-08  0.4052673E+04  0.7818609E-02  0.7994004E-01
       -2   -1    0    0    0  501  0.00000000000E+00  0.00000000000E+00  0.20253539362E+04  0.20253539362E+04  0.25500000920E-02 0. -1.
        2   -1    0    0  501    0  0.00000000000E+00  0.00000000000E+00 -0.20273199448E+04  0.20273199448E+04  0.25500000920E-02 0.  1.
    10030    2    1    2    0    0  0.00000000000E+00  0.00000000000E+00 -0.19660086228E+01  0.40526738810E+04  0.40526734041E+04 0.  0.
        3    1    3    3  502    0 -0.83784454686E+03 -0.12169083306E+04  0.13858087979E+04  0.20256641885E+04  0.10100000352E+00 0. -1.
       -3    1    3    3    0  502  0.83784454686E+03  0.12169083306E+04 -0.13877748065E+04  0.20270096925E+04  0.10100000352E+00 0.  1.
</event>
<event>
 5   0  0.5951623E-08  0.3984247E+04  0.7818609E-02  0.8007732E-01
        2   -1    0    0  501    0  0.00000000000E+00  0.00000000000E+00  0.23116723119E+04  0.23116723119E+04  0.25500000920E-02 0. -1.
       -2   -1    0    0    0  501  0.00000000000E+00  0.00000000000E+00 -0.17167469867E+04  0.17167469867E+04  0.25500000920E-02 0.  1.
    10030    2    1    2    0    0  0.00000000000E+00  0.00000000000E+00  0.59492532519E+03  0.40284192986E+04  0.39842472191E+04 0.  0.
        2    1    3    3  502    0 -0.13814079387E+04 -0.24135058936E+03  0.17280765289E+04  0.22254856751E+04  0.25500000920E-02 0. -1.
       -2    1    3    3    0  502  0.13814079387E+04  0.24135058936E+03 -0.11331512038E+04  0.18029336235E+04  0.25500000920E-02 0.  1.
</event>
<event>
 5   0  0.1879500E-08  0.3861162E+04  0.7818609E-02  0.8033156E-01
        1   -1    0    0  501    0  0.00000000000E+00  0.00000000000E+00  0.22858284258E+04  0.22858284258E+04  0.50400001928E-02 0. -1.
       -1   -1    0    0    0  501  0.00000000000E+00  0.00000000000E+00 -0.16305436517E+04  0.16305436517E+04  0.50400001928E-02 0.  1.
    10030    2    1    2    0    0  0.00000000000E+00  0.00000000000E+00  0.65528477414E+03  0.39163720775E+04  0.38611620161E+04 0.  0.
        5    1    3    3  502    0  0.12240149387E+03  0.16923585621E+04  0.12617126488E+04  0.21144740544E+04  0.46999998093E+01 0. -1.
       -5    1    3    3    0  502 -0.12240149387E+03 -0.16923585621E+04 -0.60642787465E+03  0.18018980231E+04  0.46999998093E+01 0.  1.
</event>
<event>
 5   0  0.5846812E-08  0.3992008E+04  0.7818609E-02  0.8006161E-01
       -2   -1    0    0    0  501  0.00000000000E+00  0.00000000000E+00  0.23224307932E+04  0.23224307932E+04  0.25500000920E-02 0. -1.
        2   -1    0    0  501    0  0.00000000000E+00  0.00000000000E+00 -0.17154580862E+04  0.17154580862E+04  0.25500000920E-02 0.  1.
    10030    2    1    2    0    0  0.00000000000E+00  0.00000000000E+00  0.60697270703E+03  0.40378888795E+04  0.39920083587E+04 0.  0.
        4    1    3    3  502    0 -0.59694423339E+03  0.67886242910E+03 -0.14965264821E+04  0.17483677359E+04  0.12699999809E+01 0.  1.
       -4    1    3    3    0  502  0.59694423339E+03 -0.67886242910E+03  0.21034991891E+04  0.22895211436E+04  0.12699999809E+01 0. -1.
</event>
<event>
 5   0  0.1879500E-08  0.4043661E+04  0.7818609E-02  0.7995796E-01
        1   -1    0    0  501    0  0.00000000000E+00  0.00000000000E+00  0.19511125733E+04  0.19511125733E+04  0.50400001928E-02 0.  1.
       -1   -1    0    0    0  501  0.00000000000E+00  0.00000000000E+00 -0.20951117225E+04  0.20951117225E+04  0.50400001928E-02 0. -1.
    10030    2    1    2    0    0  0.00000000000E+00  0.00000000000E+00 -0.14399914923E+03  0.40462242958E+04  0.40436611254E+04 0.  0.
        3    1    3    3  502    0 -0.38635149969E+03  0.17640910449E+04 -0.98170406573E+03  0.20554871877E+04  0.10100000352E+00 0. -1.
       -3    1    3    3    0  502  0.38635149969E+03 -0.17640910449E+04  0.83770491650E+03  0.19907371081E+04  0.10100000352E+00 0.  1.
</event>
<event>
 5   0  0.1879500E-08  0.4015152E+04  0.7818609E-02  0.8001497E-01
       -1   -1    0    0    0  501  0.00000000000E+00  0.00000000000E+00  0.27059471110E+04  0.27059471110E+04  0.50400001928E-02 0. -1.
        1   -1    0    0  501    0  0.00000000000E+00  0.00000000000E+00 -0.14894458826E+04  0.14894458826E+04  0.50400001928E-02 0.  1.
    10030    2    1    2    0    0  0.00000000000E+00  0.00000000000E+00  0.12165012284E+04  0.41953929936E+04  0.40151521929E+04 0.  0.
        3    1    3    3  502    0  0.10176891659E+04 -0.14587344853E+04 -0.36454393508E+03  0.18156238123E+04  0.10100000352E+00 0.  1.
       -3    1    3    3    0  502 -0.10176891659E+04  0.14587344853E+04  0.15810451635E+04  0.23797691813E+04  0.10100000352E+00 0. -1.
</event>
<event>
 5   0  0.5945387E-08  0.3909633E+04  0.7818609E-02  0.8023029E-01
        2   -1    0    0  501    0  0.00000000000E+00  0.00000000000E+00  0.20255319701E+04  0.20255319701E+04  0.25500000920E-02 0.  1.
       -2   -1    0    0    0  501  0.00000000000E+00  0.00000000000E+00 -0.18865694848E+04  0.18865694848E+04  0.25500000920E-02 0. -1.
    10030    2    1    2    0    0  0.00000000000E+00  0.00000000000E+00  0.13896248533E+03  0.39121014549E+04  0.39096326197E+04 0.  0.
        3    1    3    3  502    0  0.62144690719E+03 -0.94277194203E+03  0.16661992692E+04  0.20127680462E+04  0.10100000352E+00 0.  1.
       -3    1    3    3    0  502 -0.62144690719E+03  0.94277194203E+03 -0.15272367839E+04  0.18993334087E+04  0.10100000352E+00 0. -1.
</event>
<event>
 5   0  0.1879500E-08  0.4003948E+04  0.7818609E-02  0.8003751E-01
        1   -1    0    0  501    0  0.00000000000E+00  0.00000000000E+00  0.24749061946E+04  0.24749061946E+04  0.50400001928E-02 0.  1.
       -1   -1    0    0    0  501  0.00000000000E+00  0.00000000000E+00 -0.16194145603E+04  0.16194145603E+04  0.50400001928E-02 0. -1.
    10030    2    1    2    0    0  0.00000000000E+00  0.00000000000E+00  0.85549163427E+03  0.40943207550E+04  0.40039476156E+04 0.  0.
        3    1    3    3  502    0  0.10142493789E+04 -0.57505926242E+03 -0.12364093035E+04  0.16994419477E+04  0.10100000352E+00 0. -1.
       -3    1    3    3    0  502 -0.10142493789E+04  0.57505926242E+03  0.20919009377E+04  0.23948788072E+04  0.10100000352E+00 0.  1.
</event>
<event>
 5   0  0.1879500E-08  0.4191554E+04  0.7818609E-02  0.7966981E-01
       -1   -1    0    0    0  501  0.00000000000E+00  0.00000000000E+00  0.25789304321E+04  0.25789304321E+04  0.50400001928E-02 0.  1.
        1   -1    0    0  501    0  0.00000000000E+00  0.00000000000E+00 -0.17031403068E+04  0.17031403068E+04  0.50400001928E-02 0. -1.
    10030    2    1    2    0    0  0.00000000000E+00  0.00000000000E+00  0.87579012532E+03  0.42820707388E+04  0.41915535865E+04 0.  0.
        4    1    3    3  502    0 -0.62387131123E+03  0.26178536213E+03  0.24642958369E+04  0.25554848020E+04  0.12699999809E+01 0.  1.
       -4    1    3    3    0  502  0.62387131123E+03 -0.26178536213E+03 -0.15885057115E+04  0.17265859368E+04  0.12699999809E+01 0. -1.
</event>
<event>
 5   0  0.1879500E-08  0.3995914E+04  0.7818609E-02  0.8005371E-01
       -3   -1    0    0    0  501  0.00000000000E+00  0.00000000000E+00  0.11096457798E+04  0.11096457844E+04  0.10100000352E+00 0. -1.
        3   -1    0    0  501    0  0.00000000000E+00  0.00000000000E+00 -0.35973924888E+04  0.35973924902E+04  0.10100000352E+00 0.  1.
    10030    2    1    2    0    0  0.00000000000E+00  0.00000000000E+00 -0.24877467090E+04  0.47070382746E+04  0.39959136165E+04 0.  0.
        4    1    3    3  502    0  0.10156915726E+04 -0.40088411172E+03  0.72705701464E+03  0.13118502038E+04  0.12699999809E+01 0. -1.
       -4    1    3    3    0  502 -0.10156915726E+04  0.40088411172E+03 -0.32148037237E+04  0.33951880708E+04  0.12699999809E+01 0.  1.
</event>
<event>
 5   0  0.1879500E-08  0.4002209E+04  0.7818609E-02  0.8004101E-01
        1   -1    0    0  501    0  0.00000000000E+00  0.00000000000E+00  0.23985682554E+04  0.23985682554E+04  0.50400001928E-02 0.  1.
       -1   -1    0    0    0  501  0.00000000000E+00  0.00000000000E+00 -0.16695037115E+04  0.16695037115E+04  0.50400001928E-02 0. -1.
    10030    2    1    2    0    0  0.00000000000E+00  0.00000000000E+00  0.72906454386E+03  0.40680719669E+04  0.40022086925E+04 0.  0.
        4    1    3    3  502    0  0.42187889285E+03  0.12294672839E+04 -0.11819676096E+04  0.17568780964E+04  0.12699999809E+01 0. -1.
       -4    1    3    3    0  502 -0.42187889285E+03 -0.12294672839E+04  0.19110321535E+04  0.23111938705E+04  0.12699999809E+01 0.  1.
</event>
<event>
 5   0  0.5945387E-08  0.4029572E+04  0.7818609E-02  0.7998607E-01
        2   -1    0    0  501    0  0.00000000000E+00  0.00000000000E+00  0.13963332762E+04  0.13963332762E+04  0.25500000920E-02 0. -1.
       -2   -1    0    0    0  501  0.00000000000E+00  0.00000000000E+00 -0.29071584992E+04  0.29071584992E+04  0.25500000920E-02 0.  1.
    10030    2    1    2    0    0  0.00000000000E+00  0.00000000000E+00 -0.15108252230E+04  0.43034917755E+04  0.40295717647E+04 0.  0.
        3    1    3    3  502    0 -0.93267499886E+03 -0.12760782368E+04 -0.20897878551E+04  0.26202044977E+04  0.10100000352E+00 0.  1.
       -3    1    3    3    0  502  0.93267499886E+03  0.12760782368E+04  0.57896263210E+03  0.16832872778E+04  0.10100000352E+00 0. -1.
</event>
<event>
 5   0  0.1879500E-08  0.3997597E+04  0.7818609E-02  0.8005031E-01
       -1   -1    0    0    0  501  0.00000000000E+00  0.00000000000E+00  0.20229896326E+04  0.20229896326E+04  0.50400001928E-02 0.  1.
        1   -1    0    0  501    0  0.00000000000E+00  0.00000000000E+00 -0.19748967823E+04  0.19748967824E+04  0.50400001928E-02 0. -1.
    10030    2    1    2    0    0  0.00000000000E+00  0.00000000000E+00  0.48092850269E+02  0.39978864150E+04  0.39975971364E+04 0.  0.
        1    1    3    3  502    0  0.68937478125E+03 -0.87179206092E+03  0.16854723727E+04  0.20189294455E+04  0.50400001928E-02 0.  1.
       -1    1    3    3    0  502 -0.68937478125E+03  0.87179206092E+03 -0.16373795225E+04  0.19789569695E+04  0.50400001928E-02 0. -1.
</event>
<event>
 5   0  0.5945387E-08  0.4018241E+04  0.7818609E-02  0.8000877E-01
       -2   -1    0    0    0  501  0.00000000000E+00  0.00000000000E+00  0.21187119094E+04  0.21187119094E+04  0.25500000920E-02 0.  1.
        2   -1    0    0  501    0  0.00000000000E+00  0.00000000000E+00 -0.19051977566E+04  0.19051977566E+04  0.25500000920E-02 0. -1.
    10030    2    1    2    0    0  0.00000000000E+00  0.00000000000E+00  0.21351415280E+03  0.40239096659E+04  0.40182409965E+04 0.  0.
        3    1    3    3  502    0  0.11195542773E+04  0.43052058036E+03 -0.15072907047E+04  0.19263112492E+04  0.10100000352E+00 0. -1.
       -3    1    3    3    0  502 -0.11195542773E+04 -0.43052058036E+03  0.17208048576E+04  0.20975984167E+04  0.10100000352E+00 0.  1.
</event>
<event>
 5   0  0.5846812E-08  0.3997189E+04  0.7818609E-02  0.8005114E-01
        2   -1    0    0  501    0  0.00000000000E+00  0.00000000000E+00  0.22018731153E+04  0.22018731153E+04  0.25500000920E-02 0. -1.
       -2   -1    0    0    0  501  0.00000000000E+00  0.00000000000E+00 -0.18140831070E+04  0.18140831070E+04  0.25500000920E-02 0.  1.
    10030    2    1    2    0    0  0.00000000000E+00  0.00000000000E+00  0.38779000830E+03  0.40159562224E+04  0.39971894238E+04 0.  0.
        4    1    3    3  502    0 -0.18576526938E+04  0.10507255288E+03 -0.53923324066E+03  0.19371855546E+04  0.12699999809E+01 0.  1.
       -4    1    3    3    0  502  0.18576526938E+04 -0.10507255288E+03  0.92702324896E+03  0.20787706678E+04  0.12699999809E+01 0. -1.
</event>
<event>
 5   0  0.1879500E-08  0.3982277E+04  0.7818609E-02  0.8008131E-01
       -1   -1    0    0    0  501  0.00000000000E+00  0.00000000000E+00  0.22809332292E+04  0.22809332292E+04  0.50400001928E-02 0. -1.
        1   -1    0    0  501    0  0.00000000000E+00  0.00000000000E+00 -0.17381622288E+04  0.17381622288E+04  0.50400001928E-02 0.  1.
    10030    2    1    2    0    0  0.00000000000E+00  0.00000000000E+00  0.54277100036E+03  0.40190954580E+04  0.39822767284E+04 0.  0.
        4    1    3    3  502    0  0.77668232278E+02 -0.96328080970E+03  0.20283682892E+04  0.22468248268E+04  0.12699999809E+01 0. -1.
       -4    1    3    3    0  502 -0.77668232278E+02  0.96328080970E+03 -0.14855972889E+04  0.17722706312E+04  0.12699999809E+01 0.  1.
</event>
<event>
 5   0  0.1879500E-08  0.3978624E+04  0.7818609E-02  0.8008873E-01
        1   -1    0    0  501    0  0.00000000000E+00  0.00000000000E+00  0.13868849141E+04  0.13868849142E+04  0.50400001928E-02 0.  1.
       -1   -1    0    0    0  501  0.00000000000E+00  0.00000000000E+00 -0.28534174483E+04  0.28534174483E+04  0.50400001928E-02 0. -1.
    10030    2    1    2    0    0  0.00000000000E+00  0.00000000000E+00 -0.14665325341E+04  0.42403023624E+04  0.39786236881E+04 0.  0.
        1    1    3    3  502    0  0.15918633340E+03 -0.19387440981E+04 -0.28960243263E+03  0.19667075369E+04  0.50400001928E-02 0.  1.
       -1    1    3    3    0  502 -0.15918633340E+03  0.19387440981E+04 -0.11769301015E+04  0.22735948255E+04  0.50400001928E-02 0. -1.
</event>
<event>
 5   0  0.5951623E-08  0.4020387E+04  0.7818609E-02  0.8000446E-01
       -2   -1    0    0    0  501  0.00000000000E+00  0.00000000000E+00  0.14653290651E+04  0.14653290651E+04  0.25500000920E-02 0. -1.
        2   -1    0    0  501    0  0.00000000000E+00  0.00000000000E+00 -0.27576596014E+04  0.27576596014E+04  0.25500000920E-02 0.  1.
    10030    2    1    2    0    0  0.00000000000E+00  0.00000000000E+00 -0.12923305363E+04  0.42229886665E+04  0.40203874269E+04 0.  0.
        2    1    3    3  502    0  0.10255395772E+04  0.11412162536E+04 -0.20103723661E+04  0.25289727188E+04  0.25500000920E-02 0.  1.
       -2    1    3    3    0  502 -0.10255395772E+04 -0.11412162536E+04  0.71804182974E+03  0.16940159477E+04  0.25500000920E-02 0. -1.
</event>
<event>
 5   0  0.5945387E-08  0.3954356E+04  0.7818609E-02  0.8013818E-01
       -2   -1    0    0    0  501  0.00000000000E+00  0.00000000000E+00  0.16332974250E+04  0.16332974250E+04  0.25500000920E-02 0.  1.
        2   -1    0    0  501    0  0.00000000000E+00  0.00000000000E+00 -0.23934598939E+04  0.23934598939E+04  0.25500000920E-02 0. -1.
    10030    2    1    2    0    0  0.00000000000E+00  0.00000000000E+00 -0.76016246893E+03  0.40267573189E+04  0.39543555133E+04 0.  0.
        3    1    3    3  502    0 -0.19421975486E+03 -0.17635753076E+04 -0.12685891070E+04  0.21811092388E+04  0.10100000352E+00 0. -1.
       -3    1    3    3    0  502  0.19421975486E+03  0.17635753076E+04  0.50842663810E+03  0.18456480801E+04  0.10100000352E+00 0.  1.
</event>
<event>
 5   0  0.1879500E-08  0.3954024E+04  0.7818609E-02  0.8013886E-01
       -1   -1    0    0    0  501  0.00000000000E+00  0.00000000000E+00  0.17127001380E+04  0.17127001380E+04  0.50400001928E-02 0. -1.
        1   -1    0    0  501    0  0.00000000000E+00  0.00000000000E+00 -0.22821136491E+04  0.22821136491E+04  0.50400001928E-02 0.  1.
    10030    2    1    2    0    0  0.00000000000E+00  0.00000000000E+00 -0.56941351109E+03  0.39948137871E+04  0.39540239563E+04 0.  0.
        4    1    3    3  502    0 -0.26154247430E+03 -0.17595679440E+04 -0.11562124923E+04  0.21216297404E+04  0.12699999809E+01 0.  1.
       -4    1    3    3    0  502  0.26154247430E+03  0.17595679440E+04  0.58679898116E+03  0.18731840466E+04  0.12699999809E+01 0. -1.
</event>
<event>
 5   0  0.1879500E-08  0.4078695E+04  0.7818609E-02  0.7988857E-01
       -1   -1    0    0    0  501  0.00000000000E+00  0.00000000000E+00  0.14912121949E+04  0.14912121949E+04  0.50400001928E-02 0. -1.
        1   -1    0    0  501    0  0.00000000000E+00  0.00000000000E+00 -0.27889647259E+04  0.27889647259E+04  0.50400001928E-02 0.  1.
    10030    2    1    2    0    0  0.00000000000E+00  0.00000000000E+00 -0.12977525310E+04  0.42801769208E+04  0.40786949924E+04 0.  0.
        2    1    3    3  502    0 -0.13621623802E+04 -0.15031957474E+04 -0.42911704598E+03  0.20734573167E+04  0.25500000920E-02 0.  1.
       -2    1    3    3    0  502  0.13621623802E+04  0.15031957474E+04 -0.86863548506E+03  0.22067196041E+04  0.25500000920E-02 0. -1.
</event>
<event>
 5   0  0.1879500E-08  0.4039037E+04  0.7818609E-02  0.7996718E-01
       -1   -1    0    0    0  501  0.00000000000E+00  0.00000000000E+00  0.15148029039E+04  0.15148029039E+04  0.50400001928E-02 0. -1.
        1   -1    0    0  501    0  0.00000000000E+00  0.00000000000E+00 -0.26923996117E+04  0.26923996117E+04  0.50400001928E-02 0.  1.
    10030    2    1    2    0    0  0.00000000000E+00  0.00000000000E+00 -0.11775967079E+04  0.42072025156E+04  0.40390368903E+04 0.  0.
        1    1    3    3  502    0  0.18513839750E+04  0.72438950973E+03 -0.95867703911E+03  0.22071303654E+04  0.50400001928E-02 0. -1.
       -1    1    3    3    0  502 -0.18513839750E+04 -0.72438950973E+03 -0.21891966875E+03  0.20000721502E+04  0.50400001928E-02 0.  1.
</event>
<event>
 5   0  0.5951623E-08  0.4001409E+04  0.7818609E-02  0.8004262E-01
        2   -1    0    0  501    0  0.00000000000E+00  0.00000000000E+00  0.27094152409E+04  0.27094152409E+04  0.25500000920E-02 0. -1.
       -2   -1    0    0    0  501  0.00000000000E+00  0.00000000000E+00 -0.14773735572E+04  0.14773735572E+04  0.25500000920E-02 0.  1.
    10030    2    1    2    0    0  0.00000000000E+00  0.00000000000E+00  0.12320416837E+04  0.41867887980E+04  0.40014089680E+04 0.  0.
        2    1    3    3  502    0 -0.42855225706E+02  0.19558595794E+04  0.17756648254E+03  0.19643709223E+04  0.25500000920E-02 0.  1.
       -2    1    3    3    0  502  0.42855225706E+02 -0.19558595794E+04  0.10544752012E+04  0.22224178758E+04  0.25500000920E-02 0. -1.
</event>
<event>
 5   0  0.1879500E-08  0.4016064E+04  0.7818609E-02  0.8001314E-01
        1   -1    0    0  501    0  0.00000000000E+00  0.00000000000E+00  0.30520680527E+04  0.30520680527E+04  0.50400001928E-02 0.  1.
       -1   -1    0    0    0  501  0.00000000000E+00  0.00000000000E+00 -0.13211343481E+04  0.13211343481E+04  0.50400001928E-02 0. -1.
    10030    2    1    2    0    0  0.00000000000E+00  0.00000000000E+00  0.17309337045E+04  0.43732024008E+04  0.40160637133E+04 0.  0.
        5    1    3    3  502    0  0.24491261962E+03 -0.56784454549E+03 -0.12148522693E+04  0.13632012857E+04  0.46999998093E+01 0. -1.
       -5    1    3    3    0  502 -0.24491261962E+03  0.56784454549E+03  0.29457859738E+04  0.30100011151E+04  0.46999998093E+01 0.  1.
</event>
<event>
 5   0  0.1879500E-08  0.3998671E+04  0.7818609E-02  0.8004815E-01
        1   -1    0    0  501    0  0.00000000000E+00  0.00000000000E+00  0.21990852327E+04  0.21990852327E+04  0.50400001928E-02 0.  1.
       -1   -1    0    0    0  501  0.00000000000E+00  0.00000000000E+00 -0.18177297685E+04  0.18177297685E+04  0.50400001928E-02 0. -1.
    10030    2    1    2    0    0  0.00000000000E+00  0.00000000000E+00  0.38135546423E+03  0.40168150012E+04  0.39986711247E+04 0.  0.
        3    1    3    3  502    0  0.12237364013E+04 -0.10246267900E+04 -0.10189254836E+04  0.18935680580E+04  0.10100000352E+00 0. -1.
       -3    1    3    3    0  502 -0.12237364013E+04  0.10246267900E+04  0.14002809479E+04  0.21232469432E+04  0.10100000352E+00 0.  1.
</event>
<event>
 5   0  0.5945387E-08  0.4001300E+04  0.7818609E-02  0.8004284E-01
       -2   -1    0    0    0  501  0.00000000000E+00  0.00000000000E+00  0.12908179470E+04  0.12908179470E+04  0.25500000920E-02 0. -1.
        2   -1    0    0  501    0  0.00000000000E+00  0.00000000000E+00 -0.31008256046E+04  0.31008256046E+04  0.25500000920E-02 0.  1.
    10030    2    1    2    0    0  0.00000000000E+00  0.00000000000E+00 -0.18100076576E+04  0.43916435516E+04  0.40013004591E+04 0.  0.
        3    1    3    3  502    0  0.15471738065E+04  0.11155521391E+03  0.48174604834E+03  0.16242754134E+04  0.10100000352E+00 0. -1.
       -3    1    3    3    0  502 -0.15471738065E+04 -0.11155521391E+03 -0.22917537059E+04  0.27673681382E+04  0.10100000352E+00 0.  1.
</event>
<event>
 5   0  0.5945387E-08  0.3964362E+04  0.7818609E-02  0.8011775E-01
       -2   -1    0    0    0  501  0.00000000000E+00  0.00000000000E+00  0.16545208898E+04  0.16545208898E+04  0.25500000920E-02 0. -1.
        2   -1    0    0  501    0  0.00000000000E+00  0.00000000000E+00 -0.23747311319E+04  0.23747311319E+04  0.25500000920E-02 0.  1.
    10030    2    1    2    0    0  0.00000000000E+00  0.00000000000E+00 -0.72021024205E+03  0.40292520217E+04  0.39643623776E+04 0.  0.
        3    1    3    3  502    0 -0.20723956695E+03  0.50096971007E+03 -0.22979127603E+04  0.23610002017E+04  0.10100000352E+00 0.  1.
       -3    1    3    3    0  502  0.20723956695E+03 -0.50096971007E+03  0.15777025182E+04  0.16682518199E+04  0.10100000352E+00 0. -1.
</event>
<event>
 5   0  0.1879500E-08  0.3992839E+04  0.7818609E-02  0.8005993E-01
        1   -1    0    0  501    0  0.00000000000E+00  0.00000000000E+00  0.20875381855E+04  0.20875381855E+04  0.50400001928E-02 0. -1.
       -1   -1    0    0    0  501  0.00000000000E+00  0.00000000000E+00 -0.19092780972E+04  0.19092780972E+04  0.50400001928E-02 0.  1.
    10030    2    1    2    0    0  0.00000000000E+00  0.00000000000E+00  0.17826008827E+03  0.39968162827E+04  0.39928390574E+04 0.  0.
        1    1    3    3  502    0  0.84202276512E+03 -0.18099337198E+04  0.11794287321E+03  0.19996932085E+04  0.50400001928E-02 0. -1.
       -1    1    3    3    0  502 -0.84202276512E+03  0.18099337198E+04  0.60317215053E+02  0.19971230742E+04  0.50400001928E-02 0.  1.
</event>
<event>
 5   0  0.6161563E-08  0.3949700E+04  0.7818609E-02  0.8014771E-01
       -2   -1    0    0    0  501  0.00000000000E+00  0.00000000000E+00  0.17504623393E+04  0.17504623393E+04  0.25500000920E-02 0. -1.
        2   -1    0    0  501    0  0.00000000000E+00  0.00000000000E+00 -0.22280017480E+04  0.22280017480E+04  0.25500000920E-02 0.  1.
    10030    2    1    2    0    0  0.00000000000E+00  0.00000000000E+00 -0.47753940872E+03  0.39784640873E+04  0.39497003186E+04 0.  0.
        1    1    3    3  502    0 -0.13343521326E+04 -0.31311696944E+03 -0.16709169274E+04  0.21611342459E+04  0.50400001928E-02 0.  1.
       -1    1    3    3    0  502  0.13343521326E+04  0.31311696944E+03  0.11933775187E+04  0.18173298414E+04  0.50400001928E-02 0. -1.
</event>
<event>
 5   0  0.1879500E-08  0.4010040E+04  0.7818609E-02  0.8002524E-01
       -1   -1    0    0    0  501  0.00000000000E+00  0.00000000000E+00  0.14742768825E+04  0.14742768825E+04  0.50400001928E-02 0.  1.
        1   -1    0    0  501    0  0.00000000000E+00  0.00000000000E+00 -0.27268319362E+04  0.27268319362E+04  0.50400001928E-02 0. -1.
    10030    2    1    2    0    0  0.00000000000E+00  0.00000000000E+00 -0.12525550537E+04  0.42011088187E+04  0.40100400427E+04 0.  0.
        2    1    3    3  502    0  0.46375178409E+03 -0.13649745775E+04  0.83363508421E+03  0.16652833898E+04  0.25500000920E-02 0.  1.
       -2    1    3    3    0  502 -0.46375178409E+03  0.13649745775E+04 -0.20861901379E+04  0.25358254289E+04  0.25500000920E-02 0. -1.
</event>
<event>
 5   0  0.1879500E-08  0.3971518E+04  0.7818609E-02  0.8010317E-01
       -1   -1    0    0    0  501  0.00000000000E+00  0.00000000000E+00  0.15456409895E+04  0.15456409895E+04  0.50400001928E-02 0. -1.
        1   -1    0    0  501    0  0.00000000000E+00  0.00000000000E+00 -0.25512003167E+04  0.25512003167E+04  0.50400001928E-02 0.  1.
    10030    2    1    2    0    0  0.00000000000E+00  0.00000000000E+00 -0.10055593272E+04  0.40968413062E+04  0.39715184915E+04 0.  0.
        1    1    3    3  502    0  0.37202761635E+03 -0.38293477539E+03  0.14702156302E+04  0.15641539530E+04  0.50400001928E-02 0. -1.
       -1    1    3    3    0  502 -0.37202761635E+03  0.38293477539E+03 -0.24757749574E+04  0.25326873532E+04  0.50400001928E-02 0.  1.
</event>
<event>
 5   0  0.5888700E-08  0.3992561E+04  0.7818609E-02  0.8006049E-01
       -2   -1    0    0    0  501  0.00000000000E+00  0.00000000000E+00  0.13285468360E+04  0.13285468360E+04  0.25500000920E-02 0.  1.
        2   -1    0    0  501    0  0.00000000000E+00  0.00000000000E+00 -0.29996203523E+04  0.29996203523E+04  0.25500000920E-02 0. -1.
    10030    2    1    2    0    0  0.00000000000E+00  0.00000000000E+00 -0.16710735163E+04  0.43281671883E+04  0.39925611470E+04 0.  0.
        5    1    3    3  502    0 -0.67299040550E+03  0.17264579695E+04 -0.30452588918E+02  0.18532465180E+04  0.46999998093E+01 0. -1.
       -5    1    3    3    0  502  0.67299040550E+03 -0.17264579695E+04 -0.16406209274E+04  0.24749206702E+04  0.46999998093E+01 0.  1.
</event>
<event>
 5   0  0.6161563E-08  0.3996896E+04  0.7818609E-02  0.8005173E-01
        2   -1    0    0  501    0  0.00000000000E+00  0.00000000000E+00  0.24824988861E+04  0.24824988861E+04  0.25500000920E-02 0. -1.
       -2   -1    0    0    0  501  0.00000000000E+00  0.00000000000E+00 -0.16087800167E+04  0.16087800167E+04  0.25500000920E-02 0.  1.
    10030    2    1    2    0    0  0.00000000000E+00  0.00000000000E+00  0.87371886935E+03  0.40912789028E+04  0.39968960954E+04 0.  0.
        1    1    3    3  502    0  0.29452307756E+03 -0.18985428540E+04 -0.12620810429E+03  0.19253927644E+04  0.50400001928E-02 0. -1.
       -1    1    3    3    0  502 -0.29452307756E+03  0.18985428540E+04  0.99992697364E+03  0.21658861384E+04  0.50400001928E-02 0.  1.
</event>
<event>
 5   0  0.1879500E-08  0.4002844E+04  0.7818609E-02  0.8003973E-01
       -1   -1    0    0    0  501  0.00000000000E+00  0.00000000000E+00  0.17836369378E+04  0.17836369378E+04  0.50400001928E-02 0. -1.
        1   -1    0    0  501    0  0.00000000000E+00  0.00000000000E+00 -0.22457993937E+04  0.22457993937E+04  0.50400001928E-02 0.  1.
    10030    2    1    2    0    0  0.00000000000E+00  0.00000000000E+00 -0.46216245590E+03  0.40294363314E+04  0.40028443654E+04 0.  0.
        4    1    3    3  502    0 -0.50929578113E+03  0.18258445207E+04 -0.87768694311E+03  0.20888816121E+04  0.12699999809E+01 0.  1.
       -4    1    3    3    0  502  0.50929578113E+03 -0.18258445207E+04  0.41552448721E+03  0.19405547193E+04  0.12699999809E+01 0. -1.
</event>
<event>
 5   0  0.1879500E-08  0.4016897E+04  0.7818609E-02  0.8001147E-01
       -1   -1    0    0    0  501  0.00000000000E+00  0.00000000000E+00  0.29091125277E+04  0.29091125277E+04  0.50400001928E-02 0.  1.
        1   -1    0    0  501    0  0.00000000000E+00  0.00000000000E+00 -0.13866310564E+04  0.13866310564E+04  0.50400001928E-02 0. -1.
    10030    2    1    2    0    0  0.00000000000E+00  0.00000000000E+00  0.15224814713E+04  0.42957435841E+04  0.40168971993E+04 0.  0.
        2    1    3    3  502    0 -0.96511639173E+03 -0.71254111129E+03 -0.96138652964E+03  0.15373446407E+04  0.25500000920E-02 0. -1.
       -2    1    3    3    0  502  0.96511639173E+03  0.71254111129E+03  0.24838680009E+04  0.27583989434E+04  0.25500000920E-02 0.  1.
</event>
<event>
 5   0  0.5951623E-08  0.3995563E+04  0.7818609E-02  0.8005442E-01
        2   -1    0    0  501    0  0.00000000000E+00  0.00000000000E+00  0.25001668186E+04  0.25001668186E+04  0.25500000920E-02 0.  1.
       -2   -1    0    0    0  501  0.00000000000E+00  0.00000000000E+00 -0.15963458364E+04  0.15963458364E+04  0.25500000920E-02 0. -1.
    10030    2    1    2    0    0  0.00000000000E+00  0.00000000000E+00  0.90382098219E+03  0.40965126551E+04  0.39955629848E+04 0.  0.
        2    1    3    3  502    0 -0.62973445523E+03  0.12331358387E+04  0.19284142650E+04  0.23740200206E+04  0.25500000920E-02 0.  1.
       -2    1    3    3    0  502  0.62973445523E+03 -0.12331358387E+04 -0.10245932828E+04  0.17224926345E+04  0.25500000920E-02 0. -1.
</event>
<event>
 5   0  0.1879500E-08  0.3894501E+04  0.7818609E-02  0.8026174E-01
       -1   -1    0    0    0  501  0.00000000000E+00  0.00000000000E+00  0.24840645674E+04  0.24840645674E+04  0.50400001928E-02 0.  1.
        1   -1    0    0  501    0  0.00000000000E+00  0.00000000000E+00 -0.15264434317E+04  0.15264434317E+04  0.50400001928E-02 0. -1.
    10030    2    1    2    0    0  0.00000000000E+00  0.00000000000E+00  0.95762113572E+03  0.40105079992E+04  0.38945007603E+04 0.  0.
        3    1    3    3  502    0  0.51994528533E+03  0.35788361589E+02  0.24109070224E+04  0.24665961541E+04  0.10100000352E+00 0.  1.
       -3    1    3    3    0  502 -0.51994528533E+03 -0.35788361589E+02 -0.14532858867E+04  0.15439118450E+04  0.10100000352E+00 0. -1.
</event>
<event>
 5   0  0.5888700E-08  0.3984046E+04  0.7818609E-02  0.8007773E-01
        2   -1    0    0  501    0  0.00000000000E+00  0.00000000000E+00  0.31152549776E+04  0.31152549776E+04  0.25500000920E-02 0.  1.
       -2   -1    0    0    0  501  0.00000000000E+00  0.00000000000E+00 -0.12737820494E+04  0.12737820494E+04  0.25500000920E-02 0. -1.
    10030    2    1    2    0    0  0.00000000000E+00  0.00000000000E+00  0.18414729282E+04  0.43890370270E+04  0.39840461191E+04 0.  0.
        5    1    3    3  502    0 -0.26617788116E+03 -0.69518492685E+03 -0.11147898057E+04  0.13404891450E+04  0.46999998093E+01 0. -1.
       -5    1    3    3    0  502  0.26617788116E+03  0.69518492685E+03  0.29562627339E+04  0.30485478820E+04  0.46999998093E+01 0.  1.
</event>
<event>
 5   0  0.1879500E-08  0.4009849E+04  0.7818609E-02  0.8002563E-01
        1   -1    0    0  501    0  0.00000000000E+00  0.00000000000E+00  0.20562132848E+04  0.20562132849E+04  0.50400001928E-02 0. -1.
       -1   -1    0    0    0  501  0.00000000000E+00  0.00000000000E+00 -0.19549153610E+04  0.19549153610E+04  0.50400001928E-02 0.  1.
    10030    2    1    2    0    0  0.00000000000E+00  0.00000000000E+00  0.10129792388E+03  0.40111286458E+04  0.40098493418E+04 0.  0.
        3    1    3    3  502    0  0.15455165175E+04 -0.30567524195E+03 -0.11897725700E+04  0.19742384451E+04  0.10100000352E+00 0.  1.
       -3    1    3    3    0  502 -0.15455165175E+04  0.30567524195E+03  0.12910704939E+04  0.20368902007E+04  0.10100000352E+00 0. -1.
</event>
<event>
 5   0  0.5951623E-08  0.3953101E+04  0.7818609E-02  0.8014075E-01
       -2   -1    0    0    0  501  0.00000000000E+00  0.00000000000E+00  0.26184634725E+04  0.26184634725E+04  0.25500000920E-02 0. -1.
        2   -1    0    0  501    0  0.00000000000E+00  0.00000000000E+00 -0.14920019191E+04  0.14920019191E+04  0.25500000920E-02 0.  1.
    10030    2    1    2    0    0  0.00000000000E+00  0.00000000000E+00  0.11264615533E+04  0.41104653916E+04  0.39531013274E+04 0.  0.
        2    1    3    3  502    0 -0.96560862704E+03  0.12453786256E+04 -0.67731895312E+03  0.17152635092E+04  0.25500000920E-02 0.  1.
       -2    1    3    3    0  502  0.96560862704E+03 -0.12453786256E+04  0.18037805064E+04  0.23952018824E+04  0.25500000920E-02 0. -1.
</event>
<event>
 5   0  0.5951623E-08  0.4001477E+04  0.7818609E-02  0.8004249E-01
        2   -1    0    0  501    0  0.00000000000E+00  0.00000000000E+00  0.22256884779E+04  0.22256884779E+04  0.25500000920E-02 0.  1.
       -2   -1    0    0    0  501  0.00000000000E+00  0.00000000000E+00 -0.17985245467E+04  0.17985245467E+04  0.25500000920E-02 0. -1.
    10030    2    1    2    0    0  0.00000000000E+00  0.00000000000E+00  0.42716393124E+03  0.40242130246E+04  0.40014774075E+04 0.  0.
        2    1    3    3  502    0  0.83545804824E+03 -0.19432762360E+03  0.20313923720E+04  0.22050642495E+04  0.25500000920E-02 0.  1.
       -2    1    3    3    0  502 -0.83545804824E+03  0.19432762360E+03 -0.16042284407E+04  0.18191487750E+04  0.25500000920E-02 0. -1.
</event>
<event>
 5   0  0.1879500E-08  0.3996211E+04  0.7818609E-02  0.8005311E-01
       -1   -1    0    0    0  501  0.00000000000E+00  0.00000000000E+00  0.33221348597E+04  0.33221348597E+04  0.50400001928E-02 0.  1.
        1   -1    0    0  501    0  0.00000000000E+00  0.00000000000E+00 -0.12017647676E+04  0.12017647676E+04  0.50400001928E-02 0. -1.
    10030    2    1    2    0    0  0.00000000000E+00  0.00000000000E+00  0.21203700921E+04  0.45238996274E+04  0.39962105188E+04 0.  0.
        1    1    3    3  502    0 -0.36394955571E+03 -0.90163044830E+03 -0.91588718933E+03  0.13357567473E+04  0.50400001928E-02 0. -1.
       -1    1    3    3    0  502  0.36394955571E+03  0.90163044830E+03  0.30362572814E+04  0.31881428800E+04  0.50400001928E-02 0.  1.
</event>
<event>
 5   0  0.5945387E-08  0.3993670E+04  0.7818609E-02  0.8005825E-01
       -2   -1    0    0    0  501  0.00000000000E+00  0.00000000000E+00  0.29542671694E+04  0.29542671694E+04  0.25500000920E-02 0.  1.
        2   -1    0    0  501    0  0.00000000000E+00  0.00000000000E+00 -0.13496917329E+04  0.13496917329E+04  0.25500000920E-02 0. -1.
    10030    2    1    2    0    0  0.00000000000E+00  0.00000000000E+00  0.16045754364E+04  0.43039589023E+04  0.39936699790E+04 0.  0.
        3    1    3    3  502    0  0.76973951934E+03  0.48772315487E+03 -0.11125486267E+04  0.14381019645E+04  0.10100000352E+00 0. -1.
       -3    1    3    3    0  502 -0.76973951934E+03 -0.48772315487E+03  0.27171240631E+04  0.28658569378E+04  0.10100000352E+00 0.  1.
</event>
<event>
 5   0  0.5951623E-08  0.3993211E+04  0.7818609E-02  0.8005917E-01
       -2   -1    0    0    0  501  0.00000000000E+00  0.00000000000E+00  0.25447042987E+04  0.25447042987E+04  0.25500000920E-02 0. -1.
        2   -1    0    0  501    0  0.00000000000E+00  0.00000000000E+00 -0.15665609446E+04  0.15665609446E+04  0.25500000920E-02 0.  1.
    10030    2    1    2    0    0  0.00000000000E+00  0.00000000000E+00  0.97814335405E+03  0.41112652433E+04  0.39932114244E+04 0.  0.
        2    1    3    3  502    0 -0.50000409835E+03  0.34988235741E+03  0.24463294362E+04  0.25212991637E+04  0.25500000920E-02 0. -1.
       -2    1    3    3    0  502  0.50000409835E+03 -0.34988235741E+03 -0.14681860822E+04  0.15899660796E+04  0.25500000920E-02 0.  1.
</event>
<event>
 5   0  0.1879500E-08  0.4001207E+04  0.7818609E-02  0.8004303E-01
       -1   -1    0    0    0  501  0.00000000000E+00  0.00000000000E+00  0.17018671197E+04  0.17018671197E+04  0.50400001928E-02 0. -1.
        1   -1    0    0  501    0  0.00000000000E+00  0.00000000000E+00 -0.23517786702E+04  0.23517786702E+04  0.50400001928E-02 0.  1.
    10030    2    1    2    0    0  0.00000000000E+00  0.00000000000E+00 -0.64991155049E+03  0.40536457898E+04  0.40012072136E+04 0.  0.
        3    1    3    3  502    0 -0.80466737166E+02 -0.30193232469E+03 -0.23269040800E+04  0.23477905853E+04  0.10100000352E+00 0.  1.
       -3    1    3    3    0  502  0.80466737166E+02  0.30193232469E+03  0.16769925296E+04  0.17058552045E+04  0.10100000352E+00 0. -1.
</event>
<event>
 5   0  0.1879500E-08  0.3990324E+04  0.7818609E-02  0.8006501E-01
        1   -1    0    0  501    0  0.00000000000E+00  0.00000000000E+00  0.13210379727E+04  0.13210379727E+04  0.50400001928E-02 0. -1.
       -1   -1    0    0    0  501  0.00000000000E+00  0.00000000000E+00 -0.30132901484E+04  0.30132901484E+04  0.50400001928E-02 0.  1.
    10030    2    1    2    0    0  0.00000000000E+00  0.00000000000E+00 -0.16922521757E+04  0.43343281210E+04  0.39903236504E+04 0.  0.
        5    1    3    3  502    0 -0.16313595774E+03 -0.99181789419E+03 -0.27181707256E+04  0.28980666417E+04  0.46999998093E+01 0.  1.
       -5    1    3    3    0  502  0.16313595774E+03  0.99181789419E+03  0.10259185499E+04  0.14362614794E+04  0.46999998093E+01 0. -1.
</event>
<event>
 5   0  0.1879500E-08  0.3981921E+04  0.7818609E-02  0.8008204E-01
        1   -1    0    0  501    0  0.00000000000E+00  0.00000000000E+00  0.21996019471E+04  0.21996019471E+04  0.50400001928E-02 0.  1.
       -1   -1    0    0    0  501  0.00000000000E+00  0.00000000000E+00 -0.18021099463E+04  0.18021099463E+04  0.50400001928E-02 0. -1.
    10030    2    1    2    0    0  0.00000000000E+00  0.00000000000E+00  0.39749200082E+03  0.40017118934E+04  0.39819214190E+04 0.  0.
        4    1    3    3  502    0 -0.98153878163E+03  0.33249993062E+03  0.19071798724E+04  0.21705555193E+04  0.12699999809E+01 0.  1.
       -4    1    3    3    0  502  0.98153878163E+03 -0.33249993062E+03 -0.15096878716E+04  0.18311563741E+04  0.12699999809E+01 0. -1.
</event>
<event>
 5   0  0.5945387E-08  0.4026605E+04  0.7818609E-02  0.7999201E-01
       -2   -1    0    0    0  501  0.00000000000E+00  0.00000000000E+00  0.21498267292E+04  0.21498267292E+04  0.25500000920E-02 0.  1.
        2   -1    0    0  501    0  0.00000000000E+00  0.00000000000E+00 -0.18854480349E+04  0.18854480349E+04  0.25500000920E-02 0. -1.
    10030    2    1    2    0    0  0.00000000000E+00  0.00000000000E+00  0.26437869430E+03  0.40352747642E+04  0.40266048140E+04 0.  0.
        3    1    3    3  502    0  0.95659334456E+03 -0.53449200550E+03 -0.15604215525E+04  0.19067427626E+04  0.10100000352E+00 0. -1.
       -3    1    3    3    0  502 -0.95659334456E+03  0.53449200550E+03  0.18248002468E+04  0.21285320016E+04  0.10100000352E+00 0.  1.
</event>
<event>
 5   0  0.5951623E-08  0.3972999E+04  0.7818609E-02  0.8010016E-01
       -2   -1    0    0    0  501  0.00000000000E+00  0.00000000000E+00  0.23212910705E+04  0.23212910705E+04  0.25500000920E-02 0.  1.
        2   -1    0    0  501    0  0.00000000000E+00  0.00000000000E+00 -0.16999940897E+04  0.16999940897E+04  0.25500000920E-02 0. -1.
    10030    2    1    2    0    0  0.00000000000E+00  0.00000000000E+00  0.62129698078E+03  0.40212851602E+04  0.39729994213E+04 0.  0.
        2    1    3    3  502    0  0.18829851455E+04  0.41299250785E+03 -0.17474767711E+03  0.19356478555E+04  0.25500000920E-02 0. -1.
       -2    1    3    3    0  502 -0.18829851455E+04 -0.41299250785E+03  0.79604465789E+03  0.20856373048E+04  0.25500000920E-02 0.  1.
</event>
<event>
 5   0  0.5846812E-08  0.3983739E+04  0.7818609E-02  0.8007835E-01
        2   -1    0    0  501    0  0.00000000000E+00  0.00000000000E+00  0.25835183879E+04  0.25835183879E+04  0.25500000920E-02 0. -1.
       -2   -1    0    0    0  501  0.00000000000E+00  0.00000000000E+00 -0.15357131363E+04  0.15357131363E+04  0.25500000920E-02 0.  1.
    10030    2    1    2    0    0  0.00000000000E+00  0.00000000000E+00  0.10478052515E+04  0.41192315242E+04  0.39837385086E+04 0.  0.
        4    1    3    3  502    0 -0.10006163013E+04  0.67800039244E+03 -0.11131776479E+04  0.16431931120E+04  0.12699999809E+01 0.  1.
       -4    1    3    3    0  502  0.10006163013E+04 -0.67800039244E+03  0.21609828994E+04  0.24760384123E+04  0.12699999809E+01 0. -1.
</event>
<event>
 5   0  0.1879500E-08  0.3998800E+04  0.7818609E-02  0.8004789E-01
       -1   -1    0    0    0  501  0.00000000000E+00  0.00000000000E+00  0.18298925127E+04  0.18298925127E+04  0.50400001928E-02 0. -1.
        1   -1    0    0  501    0  0.00000000000E+00  0.00000000000E+00 -0.21846091481E+04  0.21846091481E+04  0.50400001928E-02 0.  1.
    10030    2    1    2    0    0  0.00000000000E+00  0.00000000000E+00 -0.35471663540E+03  0.40145016608E+04  0.39987997815E+04 0.  0.
        2    1    3    3  502    0  0.17619792867E+04 -0.41406419867E+03 -0.10301523497E+04  0.20826027060E+04  0.25500000920E-02 0.  1.
       -2    1    3    3    0  502 -0.17619792867E+04  0.41406419867E+03  0.67543571425E+03  0.19318989548E+04  0.25500000920E-02 0. -1.
</event>
<event>
 5   0  0.6161563E-08  0.4001275E+04  0.7818609E-02  0.8004289E-01
        2   -1    0    0  501    0  0.00000000000E+00  0.00000000000E+00  0.24750271608E+04  0.24750271608E+04  0.25500000920E-02 0.  1.
       -2   -1    0    0    0  501  0.00000000000E+00  0.00000000000E+00 -0.16171744336E+04  0.16171744336E+04  0.25500000920E-02 0. -1.
    10030    2    1    2    0    0  0.00000000000E+00  0.00000000000E+00  0.85785272718E+03  0.40922015944E+04  0.40012751202E+04 0.  0.
        1    1    3    3  502    0 -0.16533037174E+04 -0.10205660409E+03  0.15763492374E+04  0.22866363180E+04  0.50400001928E-02 0. -1.
       -1    1    3    3    0  502  0.16533037174E+04  0.10205660409E+03 -0.71849651017E+03  0.18055652765E+04  0.50400001928E-02 0.  1.
</event>
<event>
 5   0  0.5951623E-08  0.4007590E+04  0.7818609E-02  0.8003017E-01
        2   -1    0    0  501    0  0.00000000000E+00  0.00000000000E+00  0.24769260810E+04  0.24769260810E+04  0.25500000920E-02 0. -1.
       -2   -1    0    0    0  501  0.00000000000E+00  0.00000000000E+00 -0.16210393630E+04  0.16210393630E+04  0.25500000920E-02 0.  1.
    10030    2    1    2    0    0  0.00000000000E+00  0.00000000000E+00  0.85588671807E+03  0.40979654440E+04  0.40075901370E+04 0.  0.
        2    1    3    3  502    0  0.10670723731E+04 -0.92736667588E+03 -0.10241303371E+04  0.17457076927E+04  0.25500000920E-02 0.  1.
       -2    1    3    3    0  502 -0.10670723731E+04  0.92736667588E+03  0.18800170552E+04  0.23522577513E+04  0.25500000920E-02 0. -1.
</event>
<event>
 5   0  0.1879500E-08  0.3996522E+04  0.7818609E-02  0.8005249E-01
        1   -1    0    0  501    0  0.00000000000E+00  0.00000000000E+00  0.24250924637E+04  0.24250924637E+04  0.50400001928E-02 0.  1.
       -1   -1    0    0    0  501  0.00000000000E+00  0.00000000000E+00 -0.16465545422E+04  0.16465545422E+04  0.50400001928E-02 0. -1.
    10030    2    1    2    0    0  0.00000000000E+00  0.00000000000E+00  0.77853792143E+03  0.40716470059E+04  0.39965219936E+04 0.  0.
        1    1    3    3  502    0  0.17658778618E+04 -0.50688843675E+03  0.11900377163E+04  0.21889381619E+04  0.50400001928E-02 0.  1.
       -1    1    3    3    0  502 -0.17658778618E+04  0.50688843675E+03 -0.41149979487E+03  0.18827088440E+04  0.50400001928E-02 0. -1.
</event>
<event>
 5   0  0.1879500E-08  0.4004498E+04  0.7818609E-02  0.8003640E-01
        1   -1    0    0  501    0  0.00000000000E+00  0.00000000000E+00  0.22394826582E+04  0.22394826582E+04  0.50400001928E-02 0. -1.
       -1   -1    0    0    0  501  0.00000000000E+00  0.00000000000E+00 -0.17901460853E+04  0.17901460853E+04  0.50400001928E-02 0.  1.
    10030    2    1    2    0    0  0.00000000000E+00  0.00000000000E+00  0.44933657285E+03  0.40296287435E+04  0.40044980278E+04 0.  0.
        5    1    3    3  502    0 -0.15601389473E+04 -0.66951050718E+02  0.14857139480E+04  0.21554312801E+04  0.46999998093E+01 0. -1.
       -5    1    3    3    0  502  0.15601389473E+04  0.66951050718E+02 -0.10363773751E+04  0.18741974634E+04  0.46999998093E+01 0.  1.
</event>
<event>
 5   0  0.1879500E-08  0.3993887E+04  0.7818609E-02  0.8005781E-01
       -1   -1    0    0    0  501  0.00000000000E+00  0.00000000000E+00  0.12594976681E+04  0.12594976681E+04  0.50400001928E-02 0.  1.
        1   -1    0    0  501    0  0.00000000000E+00  0.00000000000E+00 -0.31661691277E+04  0.31661691277E+04  0.50400001928E-02 0. -1.
    10030    2    1    2    0    0  0.00000000000E+00  0.00000000000E+00 -0.19066714596E+04  0.44256667959E+04  0.39938866450E+04 0.  0.
        4    1    3    3  502    0  0.45118936921E+03  0.18700042352E+04 -0.35939138265E+03  0.19569495306E+04  0.12699999809E+01 0. -1.
       -4    1    3    3    0  502 -0.45118936921E+03 -0.18700042352E+04 -0.15472800769E+04  0.24687172653E+04  0.12699999809E+01 0.  1.
</event>
<event>
 5   0  0.1879500E-08  0.3991697E+04  0.7818609E-02  0.8006224E-01
        1   -1    0    0  501    0  0.00000000000E+00  0.00000000000E+00  0.22811265604E+04  0.22811265604E+04  0.50400001928E-02 0.  1.
       -1   -1    0    0    0  501  0.00000000000E+00  0.00000000000E+00 -0.17462475774E+04  0.17462475774E+04  0.50400001928E-02 0. -1.
    10030    2    1    2    0    0  0.00000000000E+00  0.00000000000E+00  0.53487898304E+03  0.40273741378E+04  0.39916972480E+04 0.  0.
        3    1    3    3  502    0 -0.11119973931E+04  0.10202869848E+04  0.15852095561E+04  0.21887012315E+04  0.10100000352E+00 0.  1.
       -3    1    3    3    0  502  0.11119973931E+04 -0.10202869848E+04 -0.10503305730E+04  0.18386729064E+04  0.10100000352E+00 0. -1.
</event>
<event>
 5   0  0.5945387E-08  0.3995554E+04  0.7818609E-02  0.8005444E-01
        2   -1    0    0  501    0  0.00000000000E+00  0.00000000000E+00  0.16587939456E+04  0.16587939456E+04  0.25500000920E-02 0.  1.
       -2   -1    0    0    0  501  0.00000000000E+00  0.00000000000E+00 -0.24060327990E+04  0.24060327990E+04  0.25500000920E-02 0. -1.
    10030    2    1    2    0    0  0.00000000000E+00  0.00000000000E+00 -0.74723885335E+03  0.40648267446E+04  0.39955538490E+04 0.  0.
        3    1    3    3  502    0  0.18725001538E+04 -0.31125963701E+03  0.26005464645E+03  0.19159247942E+04  0.10100000352E+00 0.  1.
       -3    1    3    3    0  502 -0.18725001538E+04  0.31125963701E+03 -0.10072934998E+04  0.21489019504E+04  0.10100000352E+00 0. -1.
</event>
<event>
 5   0  0.1879500E-08  0.4000168E+04  0.7818609E-02  0.8004513E-01
        1   -1    0    0  501    0  0.00000000000E+00  0.00000000000E+00  0.13688594139E+04  0.13688594139E+04  0.50400001928E-02 0.  1.
       -1   -1    0    0    0  501  0.00000000000E+00  0.00000000000E+00 -0.29223863736E+04  0.29223863736E+04  0.50400001928E-02 0. -1.
    10030    2    1    2    0    0  0.00000000000E+00  0.00000000000E+00 -0.15535269597E+04  0.42912457875E+04  0.40001680457E+04 0.  0.
        2    1    3    3  502    0 -0.14532330137E+04  0.13002034002E+04 -0.12540191745E+04  0.23184001302E+04  0.25500000920E-02 0. -1.
       -2    1    3    3    0  502  0.14532330137E+04 -0.13002034002E+04 -0.29950778516E+03  0.19728456572E+04  0.25500000920E-02 0.  1.
</event>
<event>
 5   0  0.6161563E-08  0.4002447E+04  0.7818609E-02  0.8004053E-01
       -2   -1    0    0    0  501  0.00000000000E+00  0.00000000000E+00  0.12154888294E+04  0.12154888294E+04  0.25500000920E-02 0.  1.
        2   -1    0    0  501    0  0.00000000000E+00  0.00000000000E+00 -0.32948838429E+04  0.32948838429E+04  0.25500000920E-02 0. -1.
    10030    2    1    2    0    0  0.00000000000E+00  0.00000000000E+00 -0.20793950134E+04  0.45103726723E+04  0.40024465045E+04 0.  0.
        1    1    3    3  502    0 -0.20686725016E+03 -0.13878962410E+04 -0.26475980783E+04  0.29964688584E+04  0.50400001928E-02 0. -1.
       -1    1    3    3    0  502  0.20686725016E+03  0.13878962410E+04  0.56820306489E+03  0.15139038139E+04  0.50400001928E-02 0.  1.
</event>
<event>
 5   0  0.1879500E-08  0.4023648E+04  0.7818609E-02  0.7999793E-01
        1   -1    0    0  501    0  0.00000000000E+00  0.00000000000E+00  0.26109146978E+04  0.26109146978E+04  0.50400001928E-02 0.  1.
       -1   -1    0    0    0  501  0.00000000000E+00  0.00000000000E+00 -0.15501980821E+04  0.15501980821E+04  0.50400001928E-02 0. -1.
    10030    2    1    2    0    0  0.00000000000E+00  0.00000000000E+00  0.10607166157E+04  0.41611127799E+04  0.40236475775E+04 0.  0.
        2    1    3    3  502    0 -0.18339771375E+04  0.42499375023E+03  0.12640635534E+04  0.22675864913E+04  0.25500000920E-02 0.  1.
       -2    1    3    3    0  502  0.18339771375E+04 -0.42499375023E+03 -0.20334693770E+03  0.18935262886E+04  0.25500000920E-02 0. -1.
</event>
<event>
 5   0  0.1879500E-08  0.4013571E+04  0.7818609E-02  0.8001814E-01
       -1   -1    0    0    0  501  0.00000000000E+00  0.00000000000E+00  0.18266647559E+04  0.18266647559E+04  0.50400001928E-02 0. -1.
        1   -1    0    0  501    0  0.00000000000E+00  0.00000000000E+00 -0.22046669697E+04  0.22046669697E+04  0.50400001928E-02 0.  1.
    10030    2    1    2    0    0  0.00000000000E+00  0.00000000000E+00 -0.37800221381E+03  0.40313317257E+04  0.40135707056E+04 0.  0.
        5    1    3    3  502    0  0.14564558908E+04  0.13799556882E+04 -0.22947706382E+03  0.20194611351E+04  0.46999998093E+01 0. -1.
       -5    1    3    3    0  502 -0.14564558908E+04 -0.13799556882E+04 -0.14852514999E+03  0.20118705906E+04  0.46999998093E+01 0.  1.
</event>
<event>
 5   0  0.5846812E-08  0.4001812E+04  0.7818609E-02  0.8004181E-01
       -2   -1    0    0    0  501  0.00000000000E+00  0.00000000000E+00  0.20026880096E+04  0.20026880096E+04  0.25500000920E-02 0. -1.
        2   -1    0    0  501    0  0.00000000000E+00  0.00000000000E+00 -0.19991253484E+04  0.19991253484E+04  0.25500000920E-02 0.  1.
    10030    2    1    2    0    0  0.00000000000E+00  0.00000000000E+00  0.35626612284E+01  0.40018133581E+04  0.40018117722E+04 0.  0.
        4    1    3    3  502    0 -0.14423097050E+04  0.99865989974E+03  0.96409344502E+03  0.20017633887E+04  0.12699999809E+01 0. -1.
       -4    1    3    3    0  502  0.14423097050E+04 -0.99865989974E+03 -0.96053078380E+03  0.20000499694E+04  0.12699999809E+01 0.  1.
</event>
<event>
 5   0  0.1879500E-08  0.3970205E+04  0.7818609E-02  0.8010584E-01
        1   -1    0    0  501    0  0.00000000000E+00  0.00000000000E+00  0.18532223566E+04  0.18532223566E+04  0.50400001928E-02 0. -1.
       -1   -1    0    0    0  501  0.00000000000E+00  0.00000000000E+00 -0.21263678280E+04  0.21263678281E+04  0.50400001928E-02 0.  1.
    10030    2    1    2    0    0  0.00000000000E+00  0.00000000000E+00 -0.27314547141E+03  0.39795901847E+04  0.39702052327E+04 0.  0.
        4    1    3    3  502    0 -0.75976135114E+03  0.48682372705E+03  0.16357687205E+04  0.18681476312E+04  0.12699999809E+01 0. -1.
       -4    1    3    3    0  502  0.75976135114E+03 -0.48682372705E+03 -0.19089141919E+04  0.21114425535E+04  0.12699999809E+01 0.  1.
</event>
<event>
 5   0  0.5951623E-08  0.4007226E+04  0.7818609E-02  0.8003091E-01
       -2   -1    0    0    0  501  0.00000000000E+00  0.00000000000E+00  0.13382715620E+04  0.13382715620E+04  0.25500000920E-02 0.  1.
        2   -1    0    0  501    0  0.00000000000E+00  0.00000000000E+00 -0.29997380381E+04  0.29997380381E+04  0.25500000920E-02 0. -1.
    10030    2    1    2    0    0  0.00000000000E+00  0.00000000000E+00 -0.16614664761E+04  0.43380096000E+04  0.40072255288E+04 0.  0.
        2    1    3    3  502    0  0.41799201365E+03  0.31254321475E+03 -0.29248567901E+04  0.29710583682E+04  0.25500000920E-02 0. -1.
       -2    1    3    3    0  502 -0.41799201365E+03 -0.31254321475E+03  0.12633903140E+04  0.13669512318E+04  0.25500000920E-02 0.  1.
</event>
<event>
 5   0  0.1879500E-08  0.3998272E+04  0.7818609E-02  0.8004895E-01
        1   -1    0    0  501    0  0.00000000000E+00  0.00000000000E+00  0.28610311486E+04  0.28610311486E+04  0.50400001928E-02 0. -1.
       -1   -1    0    0    0  501  0.00000000000E+00  0.00000000000E+00 -0.13968894813E+04  0.13968894813E+04  0.50400001928E-02 0.  1.
    10030    2    1    2    0    0  0.00000000000E+00  0.00000000000E+00  0.14641416673E+04  0.42579206298E+04  0.39982717852E+04 0.  0.
        5    1    3    3  502    0  0.16918780633E+04 -0.49384767276E+02  0.18649350463E+04  0.25185104830E+04  0.46999998093E+01 0. -1.
       -5    1    3    3    0  502 -0.16918780633E+04  0.49384767276E+02 -0.40079337898E+03  0.17394101468E+04  0.46999998093E+01 0.  1.
</event>
<event>
 5   0  0.5945387E-08  0.3948424E+04  0.7818609E-02  0.8015033E-01
        2   -1    0    0  501    0  0.00000000000E+00  0.00000000000E+00  0.15913186744E+04  0.15913186744E+04  0.25500000920E-02 0. -1.
       -2   -1    0    0    0  501  0.00000000000E+00  0.00000000000E+00 -0.24492344251E+04  0.24492344251E+04  0.25500000920E-02 0.  1.
    10030    2    1    2    0    0  0.00000000000E+00  0.00000000000E+00 -0.85791575070E+03  0.40405530995E+04  0.39484237253E+04 0.  0.
        3    1    3    3  502    0 -0.62288101167E+03 -0.15201516591E+04  0.69142638977E+03  0.17823894872E+04  0.10100000352E+00 0. -1.
       -3    1    3    3    0  502  0.62288101167E+03  0.15201516591E+04 -0.15493421405E+04  0.22581636123E+04  0.10100000352E+00 0.  1.
</event>
<event>
 5   0  0.1879500E-08  0.3981351E+04  0.7818609E-02  0.8008319E-01
       -1   -1    0    0    0  501  0.00000000000E+00  0.00000000000E+00  0.25932746895E+04  0.25932746895E+04  0.50400001928E-02 0. -1.
        1   -1    0    0  501    0  0.00000000000E+00  0.00000000000E+00 -0.15281018927E+04  0.15281018927E+04  0.50400001928E-02 0.  1.
    10030    2    1    2    0    0  0.00000000000E+00  0.00000000000E+00  0.10651727967E+04  0.41213765822E+04  0.39813505052E+04 0.  0.
        2    1    3    3  502    0 -0.93138552538E+02 -0.14175999108E+04  0.19760920957E+04  0.24337633960E+04  0.25500000920E-02 0. -1.
       -2    1    3    3    0  502  0.93138552538E+02  0.14175999108E+04 -0.91091929894E+03  0.16876131862E+04  0.25500000920E-02 0.  1.
</event>
<event>
 5   0  0.5951623E-08  0.3977916E+04  0.7818609E-02  0.8009016E-01
       -2   -1    0    0    0  501  0.00000000000E+00  0.00000000000E+00  0.27458304007E+04  0.27458304007E+04  0.25500000920E-02 0. -1.
        2   -1    0    0  501    0  0.00000000000E+00  0.00000000000E+00 -0.14407133275E+04  0.14407133275E+04  0.25500000920E-02 0.  1.
    10030    2    1    2    0    0  0.00000000000E+00  0.00000000000E+00  0.13051170732E+04  0.41865437281E+04  0.39779162652E+04 0.  0.
        2    1    3    3  502    0  0.15333510260E+04 -0.51604805327E+03  0.18701637646E+04  0.24728492612E+04  0.25500000920E-02 0. -1.
       -2    1    3    3    0  502 -0.15333510260E+04  0.51604805327E+03 -0.56504669145E+03  0.17136944669E+04  0.25500000920E-02 0.  1.
</event>
<event>
 5   0  0.6161563E-08  0.3999098E+04  0.7818609E-02  0.8004728E-01
       -2   -1    0    0    0  501  0.00000000000E+00  0.00000000000E+00  0.12779738442E+04  0.12779738442E+04  0.25500000920E-02 0.  1.
        2   -1    0    0  501    0  0.00000000000E+00  0.00000000000E+00 -0.31285436635E+04  0.31285436635E+04  0.25500000920E-02 0. -1.
    10030    2    1    2    0    0  0.00000000000E+00  0.00000000000E+00 -0.18505698193E+04  0.44065175077E+04  0.39990983846E+04 0.  0.
        1    1    3    3  502    0  0.17010160329E+04 -0.44731556419E+03  0.12274519153E+03  0.17631259570E+04  0.50400001928E-02 0.  1.
       -1    1    3    3    0  502 -0.17010160329E+04  0.44731556419E+03 -0.19733150108E+04  0.26433915507E+04  0.50400001928E-02 0. -1.
</event>
<event>
 5   0  0.1879500E-08  0.3800606E+04  0.7818609E-02  0.8046025E-01
        1   -1    0    0  501    0  0.00000000000E+00  0.00000000000E+00  0.12465072972E+04  0.12465072972E+04  0.50400001928E-02 0.  1.
       -1   -1    0    0    0  501  0.00000000000E+00  0.00000000000E+00 -0.28970161142E+04  0.28970161142E+04  0.50400001928E-02 0. -1.
    10030    2    1    2    0    0  0.00000000000E+00  0.00000000000E+00 -0.16505088171E+04  0.41435234114E+04  0.38006061235E+04 0.  0.
        3    1    3    3  502    0 -0.21493290659E+03 -0.18878436601E+04 -0.85976275027E+03  0.20855075729E+04  0.10100000352E+00 0.  1.
       -3    1    3    3    0  502  0.21493290659E+03  0.18878436601E+04 -0.79074606680E+03  0.20580158386E+04  0.10100000352E+00 0. -1.
</event>
<event>
 5   0  0.1879500E-08  0.4011667E+04  0.7818609E-02  0.8002197E-01
        1   -1    0    0  501    0  0.00000000000E+00  0.00000000000E+00  0.21036835986E+04  0.21036835986E+04  0.50400001928E-02 0. -1.
       -1   -1    0    0    0  501  0.00000000000E+00  0.00000000000E+00 -0.19125343729E+04  0.19125343729E+04  0.50400001928E-02 0.  1.
    10030    2    1    2    0    0  0.00000000000E+00  0.00000000000E+00  0.19114922573E+03  0.40162179715E+04  0.40116665824E+04 0.  0.
        4    1    3    3  502    0  0.12386079285E+04 -0.11168073858E+04  0.12112703313E+04  0.20612097821E+04  0.12699999809E+01 0. -1.
       -4    1    3    3    0  502 -0.12386079285E+04  0.11168073858E+04 -0.10201211055E+04  0.19550081894E+04  0.12699999809E+01 0.  1.
</event>
<event>
 5   0  0.5951623E-08  0.4014605E+04  0.7818609E-02  0.8001607E-01
       -2   -1    0    0    0  501  0.00000000000E+00  0.00000000000E+00  0.22947678610E+04  0.22947678610E+04  0.25500000920E-02 0.  1.
        2   -1    0    0  501    0  0.00000000000E+00  0.00000000000E+00 -0.17558476836E+04  0.17558476836E+04  0.25500000920E-02 0. -1.
    10030    2    1    2    0    0  0.00000000000E+00  0.00000000000E+00  0.53892017739E+03  0.40506155446E+04  0.40146047542E+04 0.  0.
        2    1    3    3  502    0 -0.83730351808E+02  0.86796932986E+02  0.22911091672E+04  0.22942810846E+04  0.25500000920E-02 0.  1.
       -2    1    3    3    0  502  0.83730351808E+02 -0.86796932986E+02 -0.17521889898E+04  0.17563344600E+04  0.25500000920E-02 0. -1.
</event>
<event>
 5   0  0.5846812E-08  0.4000375E+04  0.7818609E-02  0.8004471E-01
       -2   -1    0    0    0  501  0.00000000000E+00  0.00000000000E+00  0.22560266525E+04  0.22560266525E+04  0.25500000920E-02 0. -1.
        2   -1    0    0  501    0  0.00000000000E+00  0.00000000000E+00 -0.17733615599E+04  0.17733615599E+04  0.25500000920E-02 0.  1.
    10030    2    1    2    0    0  0.00000000000E+00  0.00000000000E+00  0.48266509259E+03  0.40293882123E+04  0.40003754541E+04 0.  0.
        4    1    3    3  502    0 -0.15141279840E+03 -0.38297975799E+03 -0.17301953923E+04  0.17785322710E+04  0.12699999809E+01 0.  1.
       -4    1    3    3    0  502  0.15141279840E+03  0.38297975799E+03  0.22128604848E+04  0.22508559414E+04  0.12699999809E+01 0. -1.
</event>
<event>
 5   0  0.5945387E-08  0.3873925E+04  0.7818609E-02  0.8030474E-01
        2   -1    0    0  501    0  0.00000000000E+00  0.00000000000E+00  0.19567129214E+04  0.19567129214E+04  0.25500000920E-02 0. -1.
       -2   -1    0    0    0  501  0.00000000000E+00  0.00000000000E+00 -0.19174115246E+04  0.19174115246E+04  0.25500000920E-02 0.  1.
    10030    2    1    2    0    0  0.00000000000E+00  0.00000000000E+00  0.39301396756E+02  0.38741244460E+04  0.38739250926E+04 0.  0.
        3    1    3    3  502    0 -0.10445207769E+04  0.65458696086E+03 -0.14745199445E+04  0.19219044773E+04  0.10100000352E+00 0.  1.
       -3    1    3    3    0  502  0.10445207769E+04 -0.65458696086E+03  0.15138213413E+04  0.19522199687E+04  0.10100000352E+00 0. -1.
</event>
<event>
 5   0  0.5888700E-08  0.4019983E+04  0.7818609E-02  0.8000528E-01
        2   -1    0    0  501    0  0.00000000000E+00  0.00000000000E+00  0.13689283169E+04  0.13689283169E+04  0.25500000920E-02 0. -1.
       -2   -1    0    0    0  501  0.00000000000E+00  0.00000000000E+00 -0.29512613440E+04  0.29512613440E+04  0.25500000920E-02 0.  1.
    10030    2    1    2    0    0  0.00000000000E+00  0.00000000000E+00 -0.15823330271E+04  0.43201896608E+04  0.40199826986E+04 0.  0.
        5    1    3    3  502    0  0.11352317498E+04  0.10325956807E+04 -0.21861963641E+04  0.26710450385E+04  0.46999998093E+01 0.  1.
       -5    1    3    3    0  502 -0.11352317498E+04 -0.10325956807E+04  0.60386333698E+03  0.16491446223E+04  0.46999998093E+01 0. -1.
</event>
<event>
 5   0  0.1879500E-08  0.3987246E+04  0.7818609E-02  0.8007124E-01
        1   -1    0    0  501    0  0.00000000000E+00  0.00000000000E+00  0.22828151761E+04  0.22828151761E+04  0.50400001928E-02 0. -1.
       -1   -1    0    0    0  501  0.00000000000E+00  0.00000000000E+00 -0.17410659768E+04  0.17410659768E+04  0.50400001928E-02 0.  1.
    10030    2    1    2    0    0  0.00000000000E+00  0.00000000000E+00  0.54174919932E+03  0.40238811529E+04  0.39872455828E+04 0.  0.
        4    1    3    3  502    0  0.36376303878E+03  0.80769081993E+03  0.20732977633E+04  0.22546071137E+04  0.12699999809E+01 0. -1.
       -4    1    3    3    0  502 -0.36376303878E+03 -0.80769081993E+03 -0.15315485640E+04  0.17692740392E+04  0.12699999809E+01 0.  1.
</event>
<event>
 5   0  0.1879500E-08  0.4006898E+04  0.7818609E-02  0.8003156E-01
       -1   -1    0    0    0  501  0.00000000000E+00  0.00000000000E+00  0.23455575520E+04  0.23455575520E+04  0.50400001928E-02 0.  1.
        1   -1    0    0  501    0  0.00000000000E+00  0.00000000000E+00 -0.17112383162E+04  0.17112383162E+04  0.50400001928E-02 0. -1.
    10030    2    1    2    0    0  0.00000000000E+00  0.00000000000E+00  0.63431923578E+03  0.40567958682E+04  0.40068980301E+04 0.  0.
        5    1    3    3  502    0  0.15124525749E+04  0.14205275745E+03  0.16396007659E+04  0.22351743867E+04  0.46999998093E+01 0.  1.
       -5    1    3    3    0  502 -0.15124525749E+04 -0.14205275745E+03 -0.10052815301E+04  0.18216214816E+04  0.46999998093E+01 0. -1.
</event>
<event>
 5   0  0.1879500E-08  0.4001527E+04  0.7818609E-02  0.8004239E-01
       -1   -1    0    0    0  501  0.00000000000E+00  0.00000000000E+00  0.20229182175E+04  0.20229182175E+04  0.50400001928E-02 0. -1.
        1   -1    0    0  501    0  0.00000000000E+00  0.00000000000E+00 -0.19788517157E+04  0.19788517157E+04  0.50400001928E-02 0.  1.
    10030    2    1    2    0    0  0.00000000000E+00  0.00000000000E+00  0.44066501772E+02  0.40017699332E+04  0.40015273011E+04 0.  0.
        1    1    3    3  502    0 -0.14067751912E+04 -0.10118252161E+04  0.10222181251E+04  0.20118987553E+04  0.50400001928E-02 0. -1.
       -1    1    3    3    0  502  0.14067751912E+04  0.10118252161E+04 -0.97815162333E+03  0.19898711779E+04  0.50400001928E-02 0.  1.
</event>
<event>
 5   0  0.5846812E-08  0.3982809E+04  0.7818609E-02  0.8008023E-01
        2   -1    0    0  501    0  0.00000000000E+00  0.00000000000E+00  0.17657346647E+04  0.17657346648E+04  0.25500000920E-02 0. -1.
       -2   -1    0    0    0  501  0.00000000000E+00  0.00000000000E+00 -0.22459163231E+04  0.22459163231E+04  0.25500000920E-02 0.  1.
    10030    2    1    2    0    0  0.00000000000E+00  0.00000000000E+00 -0.48018165834E+03  0.40116509878E+04  0.39828092125E+04 0.  0.
        4    1    3    3  502    0 -0.18607549860E+04 -0.69422343345E+03 -0.92966658051E+02  0.19882152061E+04  0.12699999809E+01 0.  1.
       -4    1    3    3    0  502  0.18607549860E+04  0.69422343345E+03 -0.38721500029E+03  0.20234357817E+04  0.12699999809E+01 0. -1.
</event>
<event>
 5   0  0.5846812E-08  0.3992088E+04  0.7818609E-02  0.8006145E-01
        2   -1    0    0  501    0  0.00000000000E+00  0.00000000000E+00  0.20929612940E+04  0.20929612940E+04  0.25500000920E-02 0. -1.
       -2   -1    0    0    0  501  0.00000000000E+00  0.00000000000E+00 -0.19036146552E+04  0.19036146552E+04  0.25500000920E-02 0.  1.
    10030    2    1    2    0    0  0.00000000000E+00  0.00000000000E+00  0.18934663880E+03  0.39965759491E+04  0.39920880711E+04 0.  0.
        4    1    3    3  502    0  0.19795412458E+04 -0.16834008367E+03 -0.98593573462E+02  0.19891315274E+04  0.12699999809E+01 0.  1.
       -4    1    3    3    0  502 -0.19795412458E+04  0.16834008367E+03  0.28794021227E+03  0.20074444217E+04  0.12699999809E+01 0. -1.
</event>
<event>
 5   0  0.5951623E-08  0.3994983E+04  0.7818609E-02  0.8005559E-01
        2   -1    0    0  501    0  0.00000000000E+00  0.00000000000E+00  0.15908236675E+04  0.15908236675E+04  0.25500000920E-02 0. -1.
       -2   -1    0    0    0  501  0.00000000000E+00  0.00000000000E+00 -0.25081173800E+04  0.25081173800E+04  0.25500000920E-02 0.  1.
    10030    2    1    2    0    0  0.00000000000E+00  0.00000000000E+00 -0.91729371244E+03  0.40989410475E+04  0.39949830983E+04 0.  0.
        2    1    3    3  502    0  0.43433969042E+03  0.18599761878E+04 -0.10585058485E+04  0.21837117523E+04  0.25500000920E-02 0.  1.
       -2    1    3    3    0  502 -0.43433969042E+03 -0.18599761878E+04  0.14121213604E+03  0.19152292952E+04  0.25500000920E-02 0. -1.
</event>
<event>
 5   0  0.1879500E-08  0.3976411E+04  0.7818609E-02  0.8009322E-01
        1   -1    0    0  501    0  0.00000000000E+00  0.00000000000E+00  0.20109169179E+04  0.20109169179E+04  0.50400001928E-02 0.  1.
       -1   -1    0    0    0  501  0.00000000000E+00  0.00000000000E+00 -0.19657505067E+04  0.19657505068E+04  0.50400001928E-02 0. -1.
    10030    2    1    2    0    0  0.00000000000E+00  0.00000000000E+00  0.45166411188E+02  0.39766674247E+04  0.39764109196E+04 0.  0.
        2    1    3    3  502    0 -0.13602151172E+04 -0.11471143530E+04  0.90971677553E+03  0.19984096466E+04  0.25500000920E-02 0.  1.
       -2    1    3    3    0  502  0.13602151172E+04  0.11471143530E+04 -0.86455036434E+03  0.19782577781E+04  0.25500000920E-02 0. -1.
</event>
<event>
 5   0  0.1879500E-08  0.4026551E+04  0.7818609E-02  0.7999212E-01
        1   -1    0    0  501    0  0.00000000000E+00  0.00000000000E+00  0.27034827664E+04  0.27034827664E+04  0.50400001928E-02 0.  1.
       -1   -1    0    0    0  501  0.00000000000E+00  0.00000000000E+00 -0.14992798687E+04  0.14992798687E+04  0.50400001928E-02 0. -1.
    10030    2    1    2    0    0  0.00000000000E+00  0.00000000000E+00  0.12042028978E+04  0.42027626351E+04  0.40265505272E+04 0.  0.
        3    1    3    3  502    0  0.12804577849E+04  0.89823115001E+03 -0.72100331923E+03  0.17222767299E+04  0.10100000352E+00 0. -1.
       -3    1    3    3    0  502 -0.12804577849E+04 -0.89823115001E+03  0.19252062170E+04  0.24804859052E+04  0.10100000352E+00 0.  1.
</event>
<event>
 5   0  0.5888700E-08  0.4007555E+04  0.7818609E-02  0.8003024E-01
        2   -1    0    0  501    0  0.00000000000E+00  0.00000000000E+00  0.20676604492E+04  0.20676604492E+04  0.25500000920E-02 0. -1.
       -2   -1    0    0    0  501  0.00000000000E+00  0.00000000000E+00 -0.19418684873E+04  0.19418684873E+04  0.25500000920E-02 0.  1.
    10030    2    1    2    0    0  0.00000000000E+00  0.00000000000E+00  0.12579196187E+03  0.40095289365E+04  0.40075551993E+04 0.  0.
        5    1    3    3  502    0  0.16637706946E+04  0.59973082701E+03 -0.87953003491E+03  0.19751974993E+04  0.46999998093E+01 0.  1.
       -5    1    3    3    0  502 -0.16637706946E+04 -0.59973082701E+03  0.10053219968E+04  0.20343314372E+04  0.46999998093E+01 0. -1.
</event>
<event>
 5   0  0.6161563E-08  0.3996277E+04  0.7818609E-02  0.8005298E-01
        2   -1    0    0  501    0  0.00000000000E+00  0.00000000000E+00  0.12243523883E+04  0.12243523883E+04  0.25500000920E-02 0. -1.
       -2   -1    0    0    0  501  0.00000000000E+00  0.00000000000E+00 -0.32609545930E+04  0.32609545930E+04  0.25500000920E-02 0.  1.
    10030    2    1    2    0    0  0.00000000000E+00  0.00000000000E+00 -0.20366022047E+04  0.44853069813E+04  0.39962770395E+04 0.  0.
        1    1    3    3  502    0 -0.18573057158E+04 -0.20352171156E+03 -0.22343396970E+03  0.18817354617E+04  0.50400001928E-02 0. -1.
       -1    1    3    3    0  502  0.18573057158E+04  0.20352171156E+03 -0.18131682350E+04  0.26035715196E+04  0.50400001928E-02 0.  1.
</event>
<event>
 5   0  0.1879500E-08  0.4015553E+04  0.7818609E-02  0.8001416E-01
        1   -1    0    0  501    0  0.00000000000E+00  0.00000000000E+00  0.20197809758E+04  0.20197809758E+04  0.50400001928E-02 0. -1.
       -1   -1    0    0    0  501  0.00000000000E+00  0.00000000000E+00 -0.19958433258E+04  0.19958433258E+04  0.50400001928E-02 0.  1.
    10030    2    1    2    0    0  0.00000000000E+00  0.00000000000E+00  0.23937650025E+02  0.40156243017E+04  0.40155529533E+04 0.  0.
        4    1    3    3  502    0 -0.18621068547E+03 -0.17004104149E+04  0.10632223814E+04  0.20140788077E+04  0.12699999809E+01 0.  1.
       -4    1    3    3    0  502  0.18621068547E+03  0.17004104149E+04 -0.10392847314E+04  0.20015454939E+04  0.12699999809E+01 0. -1.
</event>
<event>
 5   0  0.1879500E-08  0.4008701E+04  0.7818609E-02  0.8002794E-01
       -1   -1    0    0    0  501  0.00000000000E+00  0.00000000000E+00  0.15729656346E+04  0.15729656346E+04  0.50400001928E-02 0. -1.
        1   -1    0    0  501    0  0.00000000000E+00  0.00000000000E+00 -0.25540418579E+04  0.25540418579E+04  0.50400001928E-02 0.  1.
    10030    2    1    2    0    0  0.00000000000E+00  0.00000000000E+00 -0.98107622336E+03  0.41270074925E+04  0.40087005734E+04 0.  0.
        4    1    3    3  502    0  0.58287899131E+03 -0.14827544246E+04 -0.17426174667E+04  0.23611492648E+04  0.12699999809E+01 0.  1.
       -4    1    3    3    0  502 -0.58287899131E+03  0.14827544246E+04  0.76154124338E+03  0.17658582278E+04  0.12699999809E+01 0. -1.
</event>
<event>
 5   0  0.1879500E-08  0.3941580E+04  0.7818609E-02  0.8016437E-01
       -1   -1    0    0    0  501  0.00000000000E+00  0.00000000000E+00  0.23128584198E+04  0.23128584198E+04  0.50400001928E-02 0.  1.
        1   -1    0    0  501    0  0.00000000000E+00  0.00000000000E+00 -0.16793129624E+04  0.16793129624E+04  0.50400001928E-02 0. -1.
    10030    2    1    2    0    0  0.00000000000E+00  0.00000000000E+00  0.63354545744E+03  0.39921713822E+04  0.39415799495E+04 0.  0.
        5    1    3    3  502    0  0.13835117702E+04  0.12429871034E+04  0.97695901834E+03  0.21008552475E+04  0.46999998093E+01 0.  1.
       -5    1    3    3    0  502 -0.13835117702E+04 -0.12429871034E+04 -0.34341356090E+03  0.18913161347E+04  0.46999998093E+01 0. -1.
</event>
<event>
 5   0  0.5846812E-08  0.3996786E+04  0.7818609E-02  0.8005195E-01
       -2   -1    0    0    0  501  0.00000000000E+00  0.00000000000E+00  0.15657936789E+04  0.15657936789E+04  0.25500000920E-02 0.  1.
        2   -1    0    0  501    0  0.00000000000E+00  0.00000000000E+00 -0.25505115595E+04  0.25505115595E+04  0.25500000920E-02 0. -1.
    10030    2    1    2    0    0  0.00000000000E+00  0.00000000000E+00 -0.98471788055E+03  0.41163052384E+04  0.39967861478E+04 0.  0.
        4    1    3    3  502    0 -0.34167278786E+03 -0.14729150709E+04 -0.18380905988E+04  0.23800835621E+04  0.12699999809E+01 0. -1.
       -4    1    3    3    0  502  0.34167278786E+03  0.14729150709E+04  0.85337271830E+03  0.17362216763E+04  0.12699999809E+01 0.  1.
</event>
<event>
 5   0  0.1879500E-08  0.4014862E+04  0.7818609E-02  0.8001555E-01
       -3   -1    0    0    0  501  0.00000000000E+00  0.00000000000E+00  0.17371767638E+04  0.17371767667E+04  0.10100000352E+00 0.  1.
        3   -1    0    0  501    0  0.00000000000E+00  0.00000000000E+00 -0.23197291586E+04  0.23197291608E+04  0.10100000352E+00 0. -1.
    10030    2    1    2    0    0  0.00000000000E+00  0.00000000000E+00 -0.58255239487E+03  0.40569059275E+04  0.40148621909E+04 0.  0.
        1    1    3    3  502    0  0.62042416968E+03  0.61367464801E+03  0.15354875589E+04  0.17661383772E+04  0.50400001928E-02 0.  1.
       -1    1    3    3    0  502 -0.62042416968E+03 -0.61367464801E+03 -0.21180399538E+04  0.22907675503E+04  0.50400001928E-02 0. -1.
</event>
<event>
 5   0  0.5945387E-08  0.3998351E+04  0.7818609E-02  0.8004879E-01
       -2   -1    0    0    0  501  0.00000000000E+00  0.00000000000E+00  0.15270290098E+04  0.15270290098E+04  0.25500000920E-02 0. -1.
        2   -1    0    0  501    0  0.00000000000E+00  0.00000000000E+00 -0.26173065198E+04  0.26173065198E+04  0.25500000920E-02 0.  1.
    10030    2    1    2    0    0  0.00000000000E+00  0.00000000000E+00 -0.10902775100E+04  0.41443355295E+04  0.39983511517E+04 0.  0.
        3    1    3    3  502    0 -0.17136877765E+04  0.31859506394E+03 -0.15599008270E+04  0.23391278739E+04  0.10100000352E+00 0.  1.
       -3    1    3    3    0  502  0.17136877765E+04 -0.31859506394E+03  0.46962331702E+03  0.18052076557E+04  0.10100000352E+00 0. -1.
</event>
<event>
 5   0  0.5945387E-08  0.3994991E+04  0.7818609E-02  0.8005558E-01
        2   -1    0    0  501    0  0.00000000000E+00  0.00000000000E+00  0.23260005929E+04  0.23260005929E+04  0.25500000920E-02 0. -1.
       -2   -1    0    0    0  501  0.00000000000E+00  0.00000000000E+00 -0.17153860760E+04  0.17153860760E+04  0.25500000920E-02 0.  1.
    10030    2    1    2    0    0  0.00000000000E+00  0.00000000000E+00  0.61061451696E+03  0.40413866689E+04  0.39949913791E+04 0.  0.
        3    1    3    3  502    0  0.14111527852E+04 -0.12381988557E+04 -0.38489217950E+03  0.19164108614E+04  0.10100000352E+00 0.  1.
       -3    1    3    3    0  502 -0.14111527852E+04  0.12381988557E+04  0.99550669646E+03  0.21249758075E+04  0.10100000352E+00 0. -1.
</event>
<event>
 5   0  0.1879500E-08  0.3976824E+04  0.7818609E-02  0.8009238E-01
       -3   -1    0    0    0  501  0.00000000000E+00  0.00000000000E+00  0.15138798739E+04  0.15138798773E+04  0.10100000352E+00 0. -1.
        3   -1    0    0  501    0  0.00000000000E+00  0.00000000000E+00 -0.26116888482E+04  0.26116888502E+04  0.10100000352E+00 0.  1.
    10030    2    1    2    0    0  0.00000000000E+00  0.00000000000E+00 -0.10978089743E+04  0.41255687275E+04  0.39768244595E+04 0.  0.
        2    1    3    3  502    0  0.60124030773E+03  0.18637876989E+04 -0.19165709979E+03  0.19677212552E+04  0.25500000920E-02 0.  1.
       -2    1    3    3    0  502 -0.60124030773E+03 -0.18637876989E+04 -0.90615187448E+03  0.21578474723E+04  0.25500000920E-02 0. -1.
</event>
<event>
 5   0  0.5945387E-08  0.3996631E+04  0.7818609E-02  0.8005227E-01
        2   -1    0    0  501    0  0.00000000000E+00  0.00000000000E+00  0.16761386397E+04  0.16761386398E+04  0.25500000920E-02 0.  1.
       -2   -1    0    0    0  501  0.00000000000E+00  0.00000000000E+00 -0.23824185840E+04  0.23824185840E+04  0.25500000920E-02 0. -1.
    10030    2    1    2    0    0  0.00000000000E+00  0.00000000000E+00 -0.70627994426E+03  0.40585572238E+04  0.39966305032E+04 0.  0.
        3    1    3    3  502    0 -0.12593496850E+04 -0.14805864598E+04 -0.82418718463E+03  0.21112513871E+04  0.10100000352E+00 0.  1.
       -3    1    3    3    0  502  0.12593496850E+04  0.14805864598E+04  0.11790724038E+03  0.19473058367E+04  0.10100000352E+00 0. -1.
</event>
<event>
 5   0  0.5951623E-08  0.4006534E+04  0.7818609E-02  0.8003230E-01
       -2   -1    0    0    0  501  0.00000000000E+00  0.00000000000E+00  0.17495581567E+04  0.17495581567E+04  0.25500000920E-02 0. -1.
        2   -1    0    0  501    0  0.00000000000E+00  0.00000000000E+00 -0.22937673594E+04  0.22937673594E+04  0.25500000920E-02 0.  1.
    10030    2    1    2    0    0  0.00000000000E+00  0.00000000000E+00 -0.54420920266E+03  0.40433255162E+04  0.40065343594E+04 0.  0.
        2    1    3    3  502    0 -0.14916187910E+04 -0.11242459838E+04 -0.10027862141E+04  0.21200084531E+04  0.25500000920E-02 0.  1.
       -2    1    3    3    0  502  0.14916187910E+04  0.11242459838E+04  0.45857701145E+03  0.19233170631E+04  0.25500000920E-02 0. -1.
</event>
<event>
 5   0  0.6161563E-08  0.3997087E+04  0.7818609E-02  0.8005134E-01
        2   -1    0    0  501    0  0.00000000000E+00  0.00000000000E+00  0.16914174310E+04  0.16914174310E+04  0.25500000920E-02 0.  1.
       -2   -1    0    0    0  501  0.00000000000E+00  0.00000000000E+00 -0.23614372406E+04  0.23614372406E+04  0.25500000920E-02 0. -1.
    10030    2    1    2    0    0  0.00000000000E+00  0.00000000000E+00 -0.67001980957E+03  0.40528546717E+04  0.39970869948E+04 0.  0.
        1    1    3    3  502    0  0.15580034604E+04  0.55709029246E+03 -0.14715645870E+04  0.22143230818E+04  0.50400001928E-02 0. -1.
       -1    1    3    3    0  502 -0.15580034604E+04 -0.55709029246E+03  0.80154477747E+03  0.18385315899E+04  0.50400001928E-02 0.  1.
</event>
<event>
 5   0  0.1879500E-08  0.4008359E+04  0.7818609E-02  0.8002862E-01
        1   -1    0    0  501    0  0.00000000000E+00  0.00000000000E+00  0.13628487664E+04  0.13628487664E+04  0.50400001928E-02 0.  1.
       -1   -1    0    0    0  501  0.00000000000E+00  0.00000000000E+00 -0.29473078659E+04  0.29473078659E+04  0.50400001928E-02 0. -1.
    10030    2    1    2    0    0  0.00000000000E+00  0.00000000000E+00 -0.15844590995E+04  0.43101566323E+04  0.40083587112E+04 0.  0.
        3    1    3    3  502    0  0.15649798366E+04 -0.29515666664E+03 -0.21005802057E+04  0.26360418354E+04  0.10100000352E+00 0. -1.
       -3    1    3    3    0  502 -0.15649798366E+04  0.29515666664E+03  0.51612110623E+03  0.16741147970E+04  0.10100000352E+00 0.  1.
</event>
<event>
 5   0  0.5846812E-08  0.3997914E+04  0.7818609E-02  0.8004968E-01
        2   -1    0    0  501    0  0.00000000000E+00  0.00000000000E+00  0.18804189602E+04  0.18804189602E+04  0.25500000920E-02 0.  1.
       -2   -1    0    0    0  501  0.00000000000E+00  0.00000000000E+00 -0.21249670395E+04  0.21249670395E+04  0.25500000920E-02 0. -1.
    10030    2    1    2    0    0  0.00000000000E+00  0.00000000000E+00 -0.24454807928E+03  0.40053859998E+04  0.39979136114E+04 0.  0.
        4    1    3    3  502    0  0.19601708770E+04  0.37400347643E+03 -0.51014752444E+01  0.19955390513E+04  0.12699999809E+01 0. -1.
       -4    1    3    3    0  502 -0.19601708770E+04 -0.37400347643E+03 -0.23944660403E+03  0.20098469485E+04  0.12699999809E+01 0.  1.
</event>
<event>
 5   0  0.5846812E-08  0.3998284E+04  0.7818609E-02  0.8004893E-01
       -2   -1    0    0    0  501  0.00000000000E+00  0.00000000000E+00  0.24537475685E+04  0.24537475685E+04  0.25500000920E-02 0. -1.
        2   -1    0    0  501    0  0.00000000000E+00  0.00000000000E+00 -0.16287612830E+04  0.16287612830E+04  0.25500000920E-02 0.  1.
    10030    2    1    2    0    0  0.00000000000E+00  0.00000000000E+00  0.82498628552E+03  0.40825088515E+04  0.39982841509E+04 0.  0.
        4    1    3    3  502    0  0.17327199308E+04  0.68137030015E+02 -0.60325194283E+03  0.18359944262E+04  0.12699999809E+01 0.  1.
       -4    1    3    3    0  502 -0.17327199308E+04 -0.68137030015E+02  0.14282382284E+04  0.22465144254E+04  0.12699999809E+01 0. -1.
</event>
<event>
 5   0  0.5945387E-08  0.3995326E+04  0.7818609E-02  0.8005490E-01
        2   -1    0    0  501    0  0.00000000000E+00  0.00000000000E+00  0.22131643183E+04  0.22131643183E+04  0.25500000920E-02 0. -1.
       -2   -1    0    0    0  501  0.00000000000E+00  0.00000000000E+00 -0.18031458111E+04  0.18031458111E+04  0.25500000920E-02 0.  1.
    10030    2    1    2    0    0  0.00000000000E+00  0.00000000000E+00  0.41001850715E+03  0.40163101294E+04  0.39953262545E+04 0.  0.
        3    1    3    3  502    0 -0.33004230142E+03 -0.45345840462E+03  0.21323964763E+04  0.22049188619E+04  0.10100000352E+00 0. -1.
       -3    1    3    3    0  502  0.33004230142E+03  0.45345840462E+03 -0.17223779691E+04  0.18113912675E+04  0.10100000352E+00 0.  1.
</event>
<event>
 5   0  0.1879500E-08  0.4010931E+04  0.7818609E-02  0.8002345E-01
       -1   -1    0    0    0  501  0.00000000000E+00  0.00000000000E+00  0.14567397836E+04  0.14567397836E+04  0.50400001928E-02 0. -1.
        1   -1    0    0  501    0  0.00000000000E+00  0.00000000000E+00 -0.27608849943E+04  0.27608849943E+04  0.50400001928E-02 0.  1.
    10030    2    1    2    0    0  0.00000000000E+00  0.00000000000E+00 -0.13041452107E+04  0.42176247779E+04  0.40109305699E+04 0.  0.
        4    1    3    3  502    0  0.16144576064E+03 -0.18940399656E+04  0.19952470699E+02  0.19010133716E+04  0.12699999809E+01 0.  1.
       -4    1    3    3    0  502 -0.16144576064E+03  0.18940399656E+04 -0.13240976814E+04  0.23166114063E+04  0.12699999809E+01 0. -1.
</event>
<event>
 5   0  0.1879500E-08  0.3998032E+04  0.7818609E-02  0.8004944E-01
       -1   -1    0    0    0  501  0.00000000000E+00  0.00000000000E+00  0.25781210971E+04  0.25781210971E+04  0.50400001928E-02 0.  1.
        1   -1    0    0  501    0  0.00000000000E+00  0.00000000000E+00 -0.15499911794E+04  0.15499911794E+04  0.50400001928E-02 0. -1.
    10030    2    1    2    0    0  0.00000000000E+00  0.00000000000E+00  0.10281299176E+04  0.41281122765E+04  0.39980319959E+04 0.  0.
        2    1    3    3  502    0  0.34995068192E+03 -0.14892939175E+04 -0.81450170738E+03  0.17331690292E+04  0.25500000920E-02 0. -1.
       -2    1    3    3    0  502 -0.34995068192E+03  0.14892939175E+04  0.18426316250E+04  0.23949432473E+04  0.25500000920E-02 0.  1.
</event>
<event>
 5   0  0.5945387E-08  0.4010473E+04  0.7818609E-02  0.8002437E-01
       -2   -1    0    0    0  501  0.00000000000E+00  0.00000000000E+00  0.26776259835E+04  0.26776259835E+04  0.25500000920E-02 0.  1.
        2   -1    0    0  501    0  0.00000000000E+00  0.00000000000E+00 -0.15016931847E+04  0.15016931847E+04  0.25500000920E-02 0. -1.
    10030    2    1    2    0    0  0.00000000000E+00  0.00000000000E+00  0.11759327988E+04  0.41793191682E+04  0.40104726358E+04 0.  0.
        3    1    3    3  502    0 -0.77205991096E+02  0.62477758471E+03 -0.13960438511E+04  0.15314196812E+04  0.10100000352E+00 0. -1.
       -3    1    3    3    0  502  0.77205991096E+02 -0.62477758471E+03  0.25719766499E+04  0.26478994870E+04  0.10100000352E+00 0.  1.
</event>
<event>
 5   0  0.5846812E-08  0.3991442E+04  0.7818609E-02  0.8006275E-01
       -2   -1    0    0    0  501  0.00000000000E+00  0.00000000000E+00  0.18821339638E+04  0.18821339638E+04  0.25500000920E-02 0.  1.
        2   -1    0    0  501    0  0.00000000000E+00  0.00000000000E+00 -0.21161629119E+04  0.21161629119E+04  0.25500000920E-02 0. -1.
    10030    2    1    2    0    0  0.00000000000E+00  0.00000000000E+00 -0.23402894813E+03  0.39982968757E+04  0.39914418896E+04 0.  0.
        4    1    3    3  502    0 -0.57621448893E+03 -0.18000833678E+04  0.52484897494E+03  0.19615787845E+04  0.12699999809E+01 0.  1.
       -4    1    3    3    0  502  0.57621448893E+03  0.18000833678E+04 -0.75887792307E+03  0.20367180913E+04  0.12699999809E+01 0. -1.
</event>
<event>
 5   0  0.5846812E-08  0.4002551E+04  0.7818609E-02  0.8004032E-01
       -2   -1    0    0    0  501  0.00000000000E+00  0.00000000000E+00  0.12906064619E+04  0.12906064619E+04  0.25500000920E-02 0. -1.
        2   -1    0    0  501    0  0.00000000000E+00  0.00000000000E+00 -0.31032723494E+04  0.31032723494E+04  0.25500000920E-02 0.  1.
    10030    2    1    2    0    0  0.00000000000E+00  0.00000000000E+00 -0.18126658875E+04  0.43938788113E+04  0.40025508603E+04 0.  0.
        4    1    3    3  502    0 -0.18679603194E+04 -0.60916656519E+03 -0.48868666802E+03  0.20246421736E+04  0.12699999809E+01 0. -1.
       -4    1    3    3    0  502  0.18679603194E+04  0.60916656519E+03 -0.13239792195E+04  0.23692366377E+04  0.12699999809E+01 0.  1.
</event>
<event>
 5   0  0.1879500E-08  0.3993391E+04  0.7818609E-02  0.8005881E-01
       -1   -1    0    0    0  501  0.00000000000E+00  0.00000000000E+00  0.19357261428E+04  0.19357261428E+04  0.50400001928E-02 0. -1.
        1   -1    0    0  501    0  0.00000000000E+00  0.00000000000E+00 -0.20595852203E+04  0.20595852203E+04  0.50400001928E-02 0.  1.
    10030    2    1    2    0    0  0.00000000000E+00  0.00000000000E+00 -0.12385907749E+03  0.39953113631E+04  0.39933910173E+04 0.  0.
        3    1    3    3  502    0 -0.82453200224E+03  0.12746442224E+04  0.12356991885E+04  0.19574277537E+04  0.10100000352E+00 0. -1.
       -3    1    3    3    0  502  0.82453200224E+03 -0.12746442224E+04 -0.13595582660E+04  0.20378836093E+04  0.10100000352E+00 0.  1.
</event>
<event>
 5   0  0.1879500E-08  0.3975527E+04  0.7818609E-02  0.8009502E-01
        1   -1    0    0  501    0  0.00000000000E+00  0.00000000000E+00  0.25272439277E+04  0.25272439277E+04  0.50400001928E-02 0.  1.
       -1   -1    0    0    0  501  0.00000000000E+00  0.00000000000E+00 -0.15634434806E+04  0.15634434806E+04  0.50400001928E-02 0. -1.
    10030    2    1    2    0    0  0.00000000000E+00  0.00000000000E+00  0.96380044714E+03  0.40906874084E+04  0.39755266533E+04 0.  0.
        1    1    3    3  502    0  0.12614981891E+04 -0.26916180944E+03 -0.10743181058E+04  0.16786855433E+04  0.50400001928E-02 0. -1.
       -1    1    3    3    0  502 -0.12614981891E+04  0.26916180944E+03  0.20381185530E+04  0.24120018650E+04  0.50400001928E-02 0.  1.
</event>
<event>
 5   0  0.1879500E-08  0.4010006E+04  0.7818609E-02  0.8002531E-01
       -1   -1    0    0    0  501  0.00000000000E+00  0.00000000000E+00  0.16471925878E+04  0.16471925878E+04  0.50400001928E-02 0.  1.
        1   -1    0    0  501    0  0.00000000000E+00  0.00000000000E+00 -0.24405385500E+04  0.24405385500E+04  0.50400001928E-02 0. -1.
    10030    2    1    2    0    0  0.00000000000E+00  0.00000000000E+00 -0.79334596221E+03  0.40877311379E+04  0.40100059900E+04 0.  0.
        4    1    3    3  502    0  0.11735535106E+04 -0.80747216630E+03  0.10416310892E+04  0.17647198306E+04  0.12699999809E+01 0.  1.
       -4    1    3    3    0  502 -0.11735535106E+04  0.80747216630E+03 -0.18349770514E+04  0.23230113073E+04  0.12699999809E+01 0. -1.
</event>
<event>
 5   0  0.6161563E-08  0.4008909E+04  0.7818609E-02  0.8002752E-01
        2   -1    0    0  501    0  0.00000000000E+00  0.00000000000E+00  0.21979864380E+04  0.21979864380E+04  0.25500000920E-02 0. -1.
       -2   -1    0    0    0  501  0.00000000000E+00  0.00000000000E+00 -0.18279626726E+04  0.18279626726E+04  0.25500000920E-02 0.  1.
    10030    2    1    2    0    0  0.00000000000E+00  0.00000000000E+00  0.37002376539E+03  0.40259491106E+04  0.40089086612E+04 0.  0.
        1    1    3    3  502    0 -0.14038036458E+04 -0.11558964014E+04  0.10318494753E+04  0.20908071423E+04  0.50400001928E-02 0. -1.
       -1    1    3    3    0  502  0.14038036458E+04  0.11558964014E+04 -0.66182570992E+03  0.19351419682E+04  0.50400001928E-02 0.  1.
</event>
<event>
 5   0  0.5846812E-08  0.3997192E+04  0.7818609E-02  0.8005113E-01
        2   -1    0    0  501    0  0.00000000000E+00  0.00000000000E+00  0.18456592248E+04  0.18456592248E+04  0.25500000920E-02 0.  1.
       -2   -1    0    0    0  501  0.00000000000E+00  0.00000000000E+00 -0.21642050375E+04  0.21642050375E+04  0.25500000920E-02 0. -1.
    10030    2    1    2    0    0  0.00000000000E+00  0.00000000000E+00 -0.31854581267E+03  0.40098642623E+04  0.39971915100E+04 0.  0.
        4    1    3    3  502    0 -0.15598962108E+04 -0.12042766269E+04  0.17468642120E+03  0.19784022193E+04  0.12699999809E+01 0.  1.
       -4    1    3    3    0  502  0.15598962108E+04  0.12042766269E+04 -0.49323223388E+03  0.20314620430E+04  0.12699999809E+01 0. -1.
</event>
<event>
 5   0  0.1879500E-08  0.4023635E+04  0.7818609E-02  0.7999796E-01
       -1   -1    0    0    0  501  0.00000000000E+00  0.00000000000E+00  0.20319526416E+04  0.20319526416E+04  0.50400001928E-02 0. -1.
        1   -1    0    0  501    0  0.00000000000E+00  0.00000000000E+00 -0.19918815097E+04  0.19918815097E+04  0.50400001928E-02 0.  1.
    10030    2    1    2    0    0  0.00000000000E+00  0.00000000000E+00  0.40071131905E+02  0.40238341514E+04  0.40236346233E+04 0.  0.
        5    1    3    3  502    0 -0.98408767244E+03  0.91079315394E+02 -0.17323820117E+04  0.19944657213E+04  0.46999998093E+01 0.  1.
       -5    1    3    3    0  502  0.98408767244E+03 -0.91079315394E+02  0.17724531436E+04  0.20293684301E+04  0.46999998093E+01 0. -1.
</event>
<event>
 5   0  0.6161563E-08  0.4004468E+04  0.7818609E-02  0.8003646E-01
       -2   -1    0    0    0  501  0.00000000000E+00  0.00000000000E+00  0.15905590269E+04  0.15905590269E+04  0.25500000920E-02 0. -1.
        2   -1    0    0  501    0  0.00000000000E+00  0.00000000000E+00 -0.25204597496E+04  0.25204597496E+04  0.25500000920E-02 0.  1.
    10030    2    1    2    0    0  0.00000000000E+00  0.00000000000E+00 -0.92990072269E+03  0.41110187765E+04  0.40044675085E+04 0.  0.
        1    1    3    3  502    0  0.19906203677E+04 -0.21533562627E+03 -0.46386071978E+03  0.20552629144E+04  0.50400001928E-02 0. -1.
       -1    1    3    3    0  502 -0.19906203677E+04  0.21533562627E+03 -0.46604000292E+03  0.20557558621E+04  0.50400001928E-02 0.  1.
</event>
<event>
 5   0  0.1879500E-08  0.3996790E+04  0.7818609E-02  0.8005194E-01
       -1   -1    0    0    0  501  0.00000000000E+00  0.00000000000E+00  0.27857517525E+04  0.27857517525E+04  0.50400001928E-02 0. -1.
        1   -1    0    0  501    0  0.00000000000E+00  0.00000000000E+00 -0.14335745232E+04  0.14335745232E+04  0.50400001928E-02 0.  1.
    10030    2    1    2    0    0  0.00000000000E+00  0.00000000000E+00  0.13521772293E+04  0.42193262758E+04  0.39967900823E+04 0.  0.
        3    1    3    3  502    0  0.87710443254E+03 -0.17936782392E+04  0.76434309692E+03  0.21379462555E+04  0.10100000352E+00 0.  1.
       -3    1    3    3    0  502 -0.87710443254E+03  0.17936782392E+04  0.58783413240E+03  0.20813800203E+04  0.10100000352E+00 0. -1.
</event>
<event>
 5   0  0.1879500E-08  0.4044156E+04  0.7818609E-02  0.7995698E-01
       -1   -1    0    0    0  501  0.00000000000E+00  0.00000000000E+00  0.22808609621E+04  0.22808609621E+04  0.50400001928E-02 0. -1.
        1   -1    0    0  501    0  0.00000000000E+00  0.00000000000E+00 -0.17926559713E+04  0.17926559713E+04  0.50400001928E-02 0.  1.
    10030    2    1    2    0    0  0.00000000000E+00  0.00000000000E+00  0.48820499080E+03  0.40735169335E+04  0.40441557950E+04 0.  0.
        5    1    3    3  502    0 -0.96246223944E+03 -0.85957703683E+03 -0.13239821200E+04  0.18488258405E+04  0.46999998093E+01 0.  1.
       -5    1    3    3    0  502  0.96246223944E+03  0.85957703683E+03  0.18121871108E+04  0.22246910929E+04  0.46999998093E+01 0. -1.
</event>
<event>
 5   0  0.5888700E-08  0.3893194E+04  0.7818609E-02  0.8026446E-01
       -2   -1    0    0    0  501  0.00000000000E+00  0.00000000000E+00  0.13147966165E+04  0.13147966165E+04  0.25500000920E-02 0. -1.
        2   -1    0    0  501    0  0.00000000000E+00  0.00000000000E+00 -0.28819966414E+04  0.28819966414E+04  0.25500000920E-02 0.  1.
    10030    2    1    2    0    0  0.00000000000E+00  0.00000000000E+00 -0.15672000249E+04  0.41967932579E+04  0.38931937701E+04 0.  0.
        5    1    3    3  502    0  0.12679773483E+04 -0.10868193823E+04  0.29453000176E+03  0.16957927166E+04  0.46999998093E+01 0. -1.
       -5    1    3    3    0  502 -0.12679773483E+04  0.10868193823E+04 -0.18617300266E+04  0.25010005413E+04  0.46999998093E+01 0.  1.
</event>
<event>
 5   0  0.5888700E-08  0.4010884E+04  0.7818609E-02  0.8002354E-01
       -2   -1    0    0    0  501  0.00000000000E+00  0.00000000000E+00  0.21088856291E+04  0.21088856291E+04  0.25500000920E-02 0. -1.
        2   -1    0    0  501    0  0.00000000000E+00  0.00000000000E+00 -0.19070728209E+04  0.19070728209E+04  0.25500000920E-02 0.  1.
    10030    2    1    2    0    0  0.00000000000E+00  0.00000000000E+00  0.20181280827E+03  0.40159584500E+04  0.40108844240E+04 0.  0.
        5    1    3    3  502    0 -0.49594130250E+03 -0.18047857269E+03  0.20381010170E+04  0.21053285103E+04  0.46999998093E+01 0. -1.
       -5    1    3    3    0  502  0.49594130250E+03  0.18047857269E+03 -0.18362882088E+04  0.19106299397E+04  0.46999998093E+01 0.  1.
</event>
<event>
 5   0  0.5951623E-08  0.3996802E+04  0.7818609E-02  0.8005192E-01
        2   -1    0    0  501    0  0.00000000000E+00  0.00000000000E+00  0.17365940337E+04  0.17365940337E+04  0.25500000920E-02 0. -1.
       -2   -1    0    0    0  501  0.00000000000E+00  0.00000000000E+00 -0.22996774346E+04  0.22996774346E+04  0.25500000920E-02 0.  1.
    10030    2    1    2    0    0  0.00000000000E+00  0.00000000000E+00 -0.56308340093E+03  0.40362714683E+04  0.39968017776E+04 0.  0.
        2    1    3    3  502    0 -0.15877726726E+04  0.77786406258E+03 -0.12221426040E+04  0.21493550438E+04  0.25500000920E-02 0.  1.
       -2    1    3    3    0  502  0.15877726726E+04 -0.77786406258E+03  0.65905920309E+03  0.18869164245E+04  0.25500000920E-02 0. -1.
</event>
<event>
 5   0  0.1879500E-08  0.3988862E+04  0.7818609E-02  0.8006797E-01
        1   -1    0    0  501    0  0.00000000000E+00  0.00000000000E+00  0.20034829099E+04  0.20034829099E+04  0.50400001928E-02 0. -1.
       -1   -1    0    0    0  501  0.00000000000E+00  0.00000000000E+00 -0.19854202324E+04  0.19854202325E+04  0.50400001928E-02 0.  1.
    10030    2    1    2    0    0  0.00000000000E+00  0.00000000000E+00  0.18062677462E+02  0.39889031424E+04  0.39888622462E+04 0.  0.
        1    1    3    3  502    0  0.19672369782E+04 -0.30777222038E+03  0.12309580957E+03  0.19949680815E+04  0.50400001928E-02 0. -1.
       -1    1    3    3    0  502 -0.19672369782E+04  0.30777222038E+03 -0.10503313211E+03  0.19939350608E+04  0.50400001928E-02 0.  1.
</event>
<event>
 5   0  0.5888700E-08  0.3965820E+04  0.7818609E-02  0.8011478E-01
       -2   -1    0    0    0  501  0.00000000000E+00  0.00000000000E+00  0.22078027056E+04  0.22078027056E+04  0.25500000920E-02 0. -1.
        2   -1    0    0  501    0  0.00000000000E+00  0.00000000000E+00 -0.17809250677E+04  0.17809250677E+04  0.25500000920E-02 0.  1.
    10030    2    1    2    0    0  0.00000000000E+00  0.00000000000E+00  0.42687763786E+03  0.39887277733E+04  0.39658195536E+04 0.  0.
        5    1    3    3  502    0 -0.13504245214E+04 -0.98677145198E+03  0.12847417015E+04  0.21090157932E+04  0.46999998093E+01 0. -1.
       -5    1    3    3    0  502  0.13504245214E+04  0.98677145198E+03 -0.85786406364E+03  0.18797119801E+04  0.46999998093E+01 0.  1.
</event>
<event>
 5   0  0.1879500E-08  0.3980499E+04  0.7818609E-02  0.8008492E-01
        1   -1    0    0  501    0  0.00000000000E+00  0.00000000000E+00  0.20472874602E+04  0.20472874602E+04  0.50400001928E-02 0. -1.
       -1   -1    0    0    0  501  0.00000000000E+00  0.00000000000E+00 -0.19348007427E+04  0.19348007427E+04  0.50400001928E-02 0.  1.
    10030    2    1    2    0    0  0.00000000000E+00  0.00000000000E+00  0.11248671754E+03  0.39820882029E+04  0.39804991137E+04 0.  0.
        5    1    3    3  502    0 -0.12383538179E+04  0.83203472446E+03 -0.12615787186E+04  0.19538180351E+04  0.46999998093E+01 0.  1.
       -5    1    3    3    0  502  0.12383538179E+04 -0.83203472446E+03  0.13740654362E+04  0.20282701678E+04  0.46999998093E+01 0. -1.
</event>
<event>
 5   0  0.5945387E-08  0.4025764E+04  0.7818609E-02  0.7999369E-01
        2   -1    0    0  501    0  0.00000000000E+00  0.00000000000E+00  0.22420911591E+04  0.22420911591E+04  0.25500000920E-02 0. -1.
       -2   -1    0    0    0  501  0.00000000000E+00  0.00000000000E+00 -0.18071047797E+04  0.18071047797E+04  0.25500000920E-02 0.  1.
    10030    2    1    2    0    0  0.00000000000E+00  0.00000000000E+00  0.43498637937E+03  0.40491959388E+04  0.40257638530E+04 0.  0.
        3    1    3    3  502    0  0.79549635925E+03  0.17827976557E+04  0.71076761760E+03  0.20775881582E+04  0.10100000352E+00 0. -1.
       -3    1    3    3    0  502 -0.79549635925E+03 -0.17827976557E+04 -0.27578123823E+03  0.19716077805E+04  0.10100000352E+00 0.  1.
</event>
<event>
 5   0  0.5888700E-08  0.4053208E+04  0.7818609E-02  0.7993898E-01
       -2   -1    0    0    0  501  0.00000000000E+00  0.00000000000E+00  0.17276335204E+04  0.17276335204E+04  0.25500000920E-02 0.  1.
        2   -1    0    0  501    0  0.00000000000E+00  0.00000000000E+00 -0.23773123144E+04  0.23773123144E+04  0.25500000920E-02 0. -1.
    10030    2    1    2    0    0  0.00000000000E+00  0.00000000000E+00 -0.64967879400E+03  0.41049458349E+04  0.40532083307E+04 0.  0.
        5    1    3    3  502    0 -0.64393500401E+03 -0.16974084108E+04 -0.12370332280E+04  0.21968433944E+04  0.46999998093E+01 0. -1.
       -5    1    3    3    0  502  0.64393500401E+03  0.16974084108E+04  0.58735443399E+03  0.19081024405E+04  0.46999998093E+01 0.  1.
</event>
<event>
 5   0  0.1879500E-08  0.4000886E+04  0.7818609E-02  0.8004368E-01
        1   -1    0    0  501    0  0.00000000000E+00  0.00000000000E+00  0.12826335006E+04  0.12826335006E+04  0.50400001928E-02 0. -1.
       -1   -1    0    0    0  501  0.00000000000E+00  0.00000000000E+00 -0.31199654823E+04  0.31199654823E+04  0.50400001928E-02 0.  1.
    10030    2    1    2    0    0  0.00000000000E+00  0.00000000000E+00 -0.18373319817E+04  0.44025989829E+04  0.40008860260E+04 0.  0.
        4    1    3    3  502    0  0.99028217548E+03  0.11639677786E+04 -0.23391238535E+04  0.27940976704E+04  0.12699999809E+01 0. -1.
       -4    1    3    3    0  502 -0.99028217548E+03 -0.11639677786E+04  0.50179187183E+03  0.16085013125E+04  0.12699999809E+01 0.  1.
</event>
<event>
 5   0  0.5945387E-08  0.4008282E+04  0.7818609E-02  0.8002878E-01
       -2   -1    0    0    0  501  0.00000000000E+00  0.00000000000E+00  0.16318799542E+04  0.16318799542E+04  0.25500000920E-02 0.  1.
        2   -1    0    0  501    0  0.00000000000E+00  0.00000000000E+00 -0.24613211637E+04  0.24613211637E+04  0.25500000920E-02 0. -1.
    10030    2    1    2    0    0  0.00000000000E+00  0.00000000000E+00 -0.82944120955E+03  0.40932011179E+04  0.40082817605E+04 0.  0.
        3    1    3    3  502    0 -0.13296501046E+04 -0.11919578157E+03  0.11117401919E+04  0.17372804320E+04  0.10100000352E+00 0.  1.
       -3    1    3    3    0  502  0.13296501046E+04  0.11919578157E+03 -0.19411814014E+04  0.23559206859E+04  0.10100000352E+00 0. -1.
</event>
<event>
 5   0  0.5951623E-08  0.4023418E+04  0.7818609E-02  0.7999839E-01
       -2   -1    0    0    0  501  0.00000000000E+00  0.00000000000E+00  0.21236346087E+04  0.21236346087E+04  0.25500000920E-02 0.  1.
        2   -1    0    0  501    0  0.00000000000E+00  0.00000000000E+00 -0.19056826820E+04  0.19056826820E+04  0.25500000920E-02 0. -1.
    10030    2    1    2    0    0  0.00000000000E+00  0.00000000000E+00  0.21795192674E+03  0.40293172907E+04  0.40234182962E+04 0.  0.
        2    1    3    3  502    0 -0.87712813238E+03  0.72938454632E+03  0.17683960667E+04  0.21044192134E+04  0.25500000920E-02 0.  1.
       -2    1    3    3    0  502  0.87712813238E+03 -0.72938454632E+03 -0.15504441399E+04  0.19248980773E+04  0.25500000920E-02 0. -1.
</event>
<event>
 5   0  0.5846812E-08  0.3992990E+04  0.7818609E-02  0.8005962E-01
        2   -1    0    0  501    0  0.00000000000E+00  0.00000000000E+00  0.18475789434E+04  0.18475789434E+04  0.25500000920E-02 0.  1.
       -2   -1    0    0    0  501  0.00000000000E+00  0.00000000000E+00 -0.21574137579E+04  0.21574137579E+04  0.25500000920E-02 0. -1.
    10030    2    1    2    0    0  0.00000000000E+00  0.00000000000E+00 -0.30983481449E+03  0.40049927014E+04  0.39929899732E+04 0.  0.
        4    1    3    3  502    0 -0.16435279933E+04 -0.66260322892E+03 -0.10773357512E+04  0.20738566097E+04  0.12699999809E+01 0. -1.
       -4    1    3    3    0  502  0.16435279933E+04  0.66260322892E+03  0.76750093673E+03  0.19311360917E+04  0.12699999809E+01 0.  1.
</event>
<event>
 5   0  0.5945387E-08  0.3966371E+04  0.7818609E-02  0.8011365E-01
        2   -1    0    0  501    0  0.00000000000E+00  0.00000000000E+00  0.28452683688E+04  0.28452683688E+04  0.25500000920E-02 0.  1.
       -2   -1    0    0    0  501  0.00000000000E+00  0.00000000000E+00 -0.13823033608E+04  0.13823033608E+04  0.25500000920E-02 0. -1.
    10030    2    1    2    0    0  0.00000000000E+00  0.00000000000E+00  0.14629650080E+04  0.42275717296E+04  0.39663706476E+04 0.  0.
        3    1    3    3  502    0  0.61861628280E+03  0.18644707800E+04  0.10215957714E+04  0.22141805087E+04  0.10100000352E+00 0. -1.
       -3    1    3    3    0  502 -0.61861628280E+03 -0.18644707800E+04  0.44136923657E+03  0.20133912208E+04  0.10100000352E+00 0.  1.
</event>
<event>
 5   0  0.6161563E-08  0.3752509E+04  0.7818609E-02  0.8056424E-01
        2   -1    0    0  501    0  0.00000000000E+00  0.00000000000E+00  0.29401447583E+04  0.29401447583E+04  0.25500000920E-02 0.  1.
       -2   -1    0    0    0  501  0.00000000000E+00  0.00000000000E+00 -0.11973323766E+04  0.11973323766E+04  0.25500000920E-02 0. -1.
    10030    2    1    2    0    0  0.00000000000E+00  0.00000000000E+00  0.17428123817E+04  0.41374771348E+04  0.37525087666E+04 0.  0.
        1    1    3    3  502    0 -0.47534379066E+03 -0.29681751954E+03 -0.11028999168E+04  0.12371097711E+04  0.50400001928E-02 0. -1.
       -1    1    3    3    0  502  0.47534379066E+03  0.29681751954E+03  0.28457122985E+04  0.29003673638E+04  0.50400001928E-02 0.  1.
</event>
<event>
 5   0  0.6161563E-08  0.3993316E+04  0.7818609E-02  0.8005896E-01
        2   -1    0    0  501    0  0.00000000000E+00  0.00000000000E+00  0.21937655209E+04  0.21937655209E+04  0.25500000920E-02 0.  1.
       -2   -1    0    0    0  501  0.00000000000E+00  0.00000000000E+00 -0.18172602927E+04  0.18172602927E+04  0.25500000920E-02 0. -1.
    10030    2    1    2    0    0  0.00000000000E+00  0.00000000000E+00  0.37650522824E+03  0.40110258136E+04  0.39933159017E+04 0.  0.
        1    1    3    3  502    0  0.10391132895E+04  0.41627028660E+03 -0.14724417682E+04  0.18496275681E+04  0.50400001928E-02 0. -1.
       -1    1    3    3    0  502 -0.10391132895E+04 -0.41627028660E+03  0.18489469964E+04  0.21613982455E+04  0.50400001928E-02 0.  1.
</event>
<event>
 5   0  0.1879500E-08  0.4015383E+04  0.7818609E-02  0.8001451E-01
        1   -1    0    0  501    0  0.00000000000E+00  0.00000000000E+00  0.12789899137E+04  0.12789899137E+04  0.50400001928E-02 0. -1.
       -1   -1    0    0    0  501  0.00000000000E+00  0.00000000000E+00 -0.31515684201E+04  0.31515684201E+04  0.50400001928E-02 0.  1.
    10030    2    1    2    0    0  0.00000000000E+00  0.00000000000E+00 -0.18725785064E+04  0.44305583338E+04  0.40153825330E+04 0.  0.
        1    1    3    3  502    0 -0.12621105775E+04  0.53929813995E+03 -0.25530787725E+04  0.28986163617E+04  0.50400001928E-02 0.  1.
       -1    1    3    3    0  502  0.12621105775E+04 -0.53929813995E+03  0.68050026617E+03  0.15319419721E+04  0.50400001928E-02 0. -1.
</event>
<event>
 5   0  0.1879500E-08  0.4011773E+04  0.7818609E-02  0.8002176E-01
        1   -1    0    0  501    0  0.00000000000E+00  0.00000000000E+00  0.16773893864E+04  0.16773893864E+04  0.50400001928E-02 0. -1.
       -1   -1    0    0    0  501  0.00000000000E+00  0.00000000000E+00 -0.23987160525E+04  0.23987160525E+04  0.50400001928E-02 0.  1.
    10030    2    1    2    0    0  0.00000000000E+00  0.00000000000E+00 -0.72132666609E+03  0.40761054390E+04  0.40117730981E+04 0.  0.
        2    1    3    3  502    0 -0.41639964374E+02 -0.96758881744E+03 -0.21454248237E+04  0.23538924530E+04  0.25500000920E-02 0.  1.
       -2    1    3    3    0  502  0.41639964374E+02  0.96758881744E+03  0.14240981576E+04  0.17222129859E+04  0.25500000920E-02 0. -1.
</event>
<event>
 5   0  0.6161563E-08  0.3997544E+04  0.7818609E-02  0.8005042E-01
        2   -1    0    0  501    0  0.00000000000E+00  0.00000000000E+00  0.22989730406E+04  0.22989730406E+04  0.25500000920E-02 0. -1.
       -2   -1    0    0    0  501  0.00000000000E+00  0.00000000000E+00 -0.17377713938E+04  0.17377713938E+04  0.25500000920E-02 0.  1.
    10030    2    1    2    0    0  0.00000000000E+00  0.00000000000E+00  0.56120164678E+03  0.40367444344E+04  0.39975440386E+04 0.  0.
        1    1    3    3  502    0  0.10439569182E+04  0.28856721518E+03 -0.14157449734E+04  0.17825405786E+04  0.50400001928E-02 0.  1.
       -1    1    3    3    0  502 -0.10439569182E+04 -0.28856721518E+03  0.19769466201E+04  0.22542038558E+04  0.50400001928E-02 0. -1.
</event>
<event>
 5   0  0.1879500E-08  0.3979500E+04  0.7818609E-02  0.8008695E-01
       -1   -1    0    0    0  501  0.00000000000E+00  0.00000000000E+00  0.14713810917E+04  0.14713810917E+04  0.50400001928E-02 0.  1.
        1   -1    0    0  501    0  0.00000000000E+00  0.00000000000E+00 -0.26907410607E+04  0.26907410607E+04  0.50400001928E-02 0. -1.
    10030    2    1    2    0    0  0.00000000000E+00  0.00000000000E+00 -0.12193599690E+04  0.41621221524E+04  0.39795002296E+04 0.  0.
        5    1    3    3  502    0  0.18369405501E+04  0.75708245253E+03 -0.49723333659E+03  0.20481180399E+04  0.46999998093E+01 0. -1.
       -5    1    3    3    0  502 -0.18369405501E+04 -0.75708245253E+03 -0.72212663240E+03  0.21140041125E+04  0.46999998093E+01 0.  1.
</event>
<event>
 5   0  0.5888700E-08  0.3965461E+04  0.7818609E-02  0.8011551E-01
       -2   -1    0    0    0  501  0.00000000000E+00  0.00000000000E+00  0.18266049933E+04  0.18266049933E+04  0.25500000920E-02 0. -1.
        2   -1    0    0  501    0  0.00000000000E+00  0.00000000000E+00 -0.21522009728E+04  0.21522009728E+04  0.25500000920E-02 0.  1.
    10030    2    1    2    0    0  0.00000000000E+00  0.00000000000E+00 -0.32559597945E+03  0.39788059661E+04  0.39654614075E+04 0.  0.
        5    1    3    3  502    0  0.55717965480E+03  0.18920379217E+04 -0.36582091963E+03  0.20060168743E+04  0.46999998093E+01 0.  1.
       -5    1    3    3    0  502 -0.55717965480E+03 -0.18920379217E+04  0.40224940181E+02  0.19727890918E+04  0.46999998093E+01 0. -1.
</event>
<event>
 5   0  0.1879500E-08  0.4000661E+04  0.7818609E-02  0.8004413E-01
       -1   -1    0    0    0  501  0.00000000000E+00  0.00000000000E+00  0.24782912580E+04  0.24782912580E+04  0.50400001928E-02 0.  1.
        1   -1    0    0  501    0  0.00000000000E+00  0.00000000000E+00 -0.16145484289E+04  0.16145484289E+04  0.50400001928E-02 0. -1.
    10030    2    1    2    0    0  0.00000000000E+00  0.00000000000E+00  0.86374282906E+03  0.40928396869E+04  0.40006605740E+04 0.  0.
        3    1    3    3  502    0  0.11091627684E+04 -0.46186472530E+03  0.20680207424E+04  0.23917087766E+04  0.10100000352E+00 0.  1.
       -3    1    3    3    0  502 -0.11091627684E+04  0.46186472530E+03 -0.12042779133E+04  0.17011309103E+04  0.10100000352E+00 0. -1.
</event>
<event>
 5   0  0.5951623E-08  0.4002756E+04  0.7818609E-02  0.8003991E-01
        2   -1    0    0  501    0  0.00000000000E+00  0.00000000000E+00  0.17544193042E+04  0.17544193042E+04  0.25500000920E-02 0.  1.
       -2   -1    0    0    0  501  0.00000000000E+00  0.00000000000E+00 -0.22830994335E+04  0.22830994335E+04  0.25500000920E-02 0. -1.
    10030    2    1    2    0    0  0.00000000000E+00  0.00000000000E+00 -0.52868012934E+03  0.40375187376E+04  0.40027559103E+04 0.  0.
        2    1    3    3  502    0  0.54899526082E+03 -0.22755692551E+03 -0.21920460315E+04  0.22711767336E+04  0.25500000920E-02 0. -1.
       -2    1    3    3    0  502 -0.54899526082E+03  0.22755692551E+03  0.16633659022E+04  0.17663420041E+04  0.25500000920E-02 0.  1.
</event>
<event>
 5   0  0.1879500E-08  0.4001651E+04  0.7818609E-02  0.8004214E-01
       -1   -1    0    0    0  501  0.00000000000E+00  0.00000000000E+00  0.25809376944E+04  0.25809376944E+04  0.50400001928E-02 0.  1.
        1   -1    0    0  501    0  0.00000000000E+00  0.00000000000E+00 -0.15511040091E+04  0.15511040091E+04  0.50400001928E-02 0. -1.
    10030    2    1    2    0    0  0.00000000000E+00  0.00000000000E+00  0.10298336853E+04  0.41320417035E+04  0.40016510618E+04 0.  0.
        4    1    3    3  502    0  0.11068465596E+04 -0.89356410055E+03  0.19677944150E+04  0.24281232631E+04  0.12699999809E+01 0.  1.
       -4    1    3    3    0  502 -0.11068465596E+04  0.89356410055E+03 -0.93796072968E+03  0.17039184404E+04  0.12699999809E+01 0. -1.
</event>
<event>
 5   0  0.1879500E-08  0.4010515E+04  0.7818609E-02  0.8002429E-01
       -1   -1    0    0    0  501  0.00000000000E+00  0.00000000000E+00  0.20490487349E+04  0.20490487349E+04  0.50400001928E-02 0. -1.
        1   -1    0    0  501    0  0.00000000000E+00  0.00000000000E+00 -0.19624018470E+04  0.19624018470E+04  0.50400001928E-02 0.  1.
    10030    2    1    2    0    0  0.00000000000E+00  0.00000000000E+00  0.86646887851E+02  0.40114505819E+04  0.40105146912E+04 0.  0.
        5    1    3    3  502    0  0.57219793398E+03 -0.19197350846E+04 -0.47481338506E+02  0.20037639177E+04  0.46999998093E+01 0.  1.
       -5    1    3    3    0  502 -0.57219793398E+03  0.19197350846E+04  0.13412822636E+03  0.20076866642E+04  0.46999998093E+01 0. -1.
</event>
<event>
 5   0  0.1879500E-08  0.3999937E+04  0.7818609E-02  0.8004559E-01
       -1   -1    0    0    0  501  0.00000000000E+00  0.00000000000E+00  0.13661361960E+04  0.13661361960E+04  0.50400001928E-02 0.  1.
        1   -1    0    0  501    0  0.00000000000E+00  0.00000000000E+00 -0.29278733068E+04  0.29278733068E+04  0.50400001928E-02 0. -1.
    10030    2    1    2    0    0  0.00000000000E+00  0.00000000000E+00 -0.15617371109E+04  0.42940095028E+04  0.39999368504E+04 0.  0.
        3    1    3    3  502    0  0.53464223022E+02  0.17586246064E+04 -0.18017028900E+04  0.25182835907E+04  0.10100000352E+00 0. -1.
       -3    1    3    3    0  502 -0.53464223022E+02 -0.17586246064E+04  0.23996577909E+03  0.17757259121E+04  0.10100000352E+00 0.  1.
</event>
<event>
 5   0  0.1879500E-08  0.3993200E+04  0.7818609E-02  0.8005920E-01
       -1   -1    0    0    0  501  0.00000000000E+00  0.00000000000E+00  0.22419365480E+04  0.22419365480E+04  0.50400001928E-02 0.  1.
        1   -1    0    0  501    0  0.00000000000E+00  0.00000000000E+00 -0.17781108169E+04  0.17781108169E+04  0.50400001928E-02 0. -1.
    10030    2    1    2    0    0  0.00000000000E+00  0.00000000000E+00  0.46382573108E+03  0.40200473648E+04  0.39932000334E+04 0.  0.
        2    1    3    3  502    0 -0.12646255534E+03  0.15485958826E+04 -0.10304192120E+04  0.18643781102E+04  0.25500000920E-02 0. -1.
       -2    1    3    3    0  502  0.12646255534E+03 -0.15485958826E+04  0.14942449431E+04  0.21556692546E+04  0.25500000920E-02 0.  1.
</event>
<event>
 5   0  0.5945387E-08  0.4002983E+04  0.7818609E-02  0.8003945E-01
        2   -1    0    0  501    0  0.00000000000E+00  0.00000000000E+00  0.27151454458E+04  0.27151454458E+04  0.25500000920E-02 0. -1.
       -2   -1    0    0    0  501  0.00000000000E+00  0.00000000000E+00 -0.14754155159E+04  0.14754155159E+04  0.25500000920E-02 0.  1.
    10030    2    1    2    0    0  0.00000000000E+00  0.00000000000E+00  0.12397299299E+04  0.41905609617E+04  0.40029827473E+04 0.  0.
        3    1    3    3  502    0  0.50730670336E+03 -0.84210403135E+03  0.24449674740E+04  0.26352163573E+04  0.10100000352E+00 0. -1.
       -3    1    3    3    0  502 -0.50730670336E+03  0.84210403135E+03 -0.12052375440E+04  0.15553446044E+04  0.10100000352E+00 0.  1.
</event>
<event>
 5   0  0.6161563E-08  0.4006409E+04  0.7818609E-02  0.8003255E-01
       -2   -1    0    0    0  501  0.00000000000E+00  0.00000000000E+00  0.13482326445E+04  0.13482326445E+04  0.25500000920E-02 0.  1.
        2   -1    0    0  501    0  0.00000000000E+00  0.00000000000E+00 -0.29763614731E+04  0.29763614731E+04  0.25500000920E-02 0. -1.
    10030    2    1    2    0    0  0.00000000000E+00  0.00000000000E+00 -0.16281288286E+04  0.43245941176E+04  0.40064087160E+04 0.  0.
        1    1    3    3  502    0  0.81858658381E+03 -0.52818131039E+03 -0.27034389330E+04  0.28736112396E+04  0.50400001928E-02 0. -1.
       -1    1    3    3    0  502 -0.81858658381E+03  0.52818131039E+03  0.10753101044E+04  0.14509828781E+04  0.50400001928E-02 0.  1.
</event>
<event>
 5   0  0.1879500E-08  0.3997189E+04  0.7818609E-02  0.8005114E-01
       -1   -1    0    0    0  501  0.00000000000E+00  0.00000000000E+00  0.19394612161E+04  0.19394612161E+04  0.50400001928E-02 0. -1.
        1   -1    0    0  501    0  0.00000000000E+00  0.00000000000E+00 -0.20595312124E+04  0.20595312125E+04  0.50400001928E-02 0.  1.
    10030    2    1    2    0    0  0.00000000000E+00  0.00000000000E+00 -0.12006999635E+03  0.39989924286E+04  0.39971894676E+04 0.  0.
        2    1    3    3  502    0  0.19322247194E+04 -0.14782879249E+03  0.42909778288E+03  0.19848099721E+04  0.25500000920E-02 0. -1.
       -2    1    3    3    0  502 -0.19322247194E+04  0.14782879249E+03 -0.54916777922E+03  0.20141824564E+04  0.25500000920E-02 0.  1.
</event>
<event>
 5   0  0.1879500E-08  0.3996245E+04  0.7818609E-02  0.8005305E-01
        1   -1    0    0  501    0  0.00000000000E+00  0.00000000000E+00  0.14679787002E+04  0.14679787002E+04  0.50400001928E-02 0. -1.
       -1   -1    0    0    0  501  0.00000000000E+00  0.00000000000E+00 -0.27197214708E+04  0.27197214708E+04  0.50400001928E-02 0.  1.
    10030    2    1    2    0    0  0.00000000000E+00  0.00000000000E+00 -0.12517427706E+04  0.41877001711E+04  0.39962448322E+04 0.  0.
        4    1    3    3  502    0  0.18776183274E+04  0.50808218940E+02  0.88291745798E+02  0.18803800423E+04  0.12699999809E+01 0. -1.
       -4    1    3    3    0  502 -0.18776183274E+04 -0.50808218940E+02 -0.13400345164E+04  0.23073201287E+04  0.12699999809E+01 0.  1.
</event>
<event>
 5   0  0.1879500E-08  0.4068769E+04  0.7818609E-02  0.7990815E-01
       -1   -1    0    0    0  501  0.00000000000E+00  0.00000000000E+00  0.26568873479E+04  0.26568873479E+04  0.50400001928E-02 0. -1.
        1   -1    0    0  501    0  0.00000000000E+00  0.00000000000E+00 -0.15577330584E+04  0.15577330584E+04  0.50400001928E-02 0.  1.
    10030    2    1    2    0    0  0.00000000000E+00  0.00000000000E+00  0.10991542894E+04  0.42146204063E+04  0.40687694721E+04 0.  0.
        3    1    3    3  502    0 -0.69984384309E+02 -0.18360427504E+04 -0.35509727587E+03  0.18713751309E+04  0.10100000352E+00 0.  1.
       -3    1    3    3    0  502  0.69984384309E+02  0.18360427504E+04  0.14542515653E+04  0.23432452754E+04  0.10100000352E+00 0. -1.
</event>
<event>
 5   0  0.1879500E-08  0.4014202E+04  0.7818609E-02  0.8001688E-01
       -1   -1    0    0    0  501  0.00000000000E+00  0.00000000000E+00  0.24679237208E+04  0.24679237208E+04  0.50400001928E-02 0.  1.
        1   -1    0    0  501    0  0.00000000000E+00  0.00000000000E+00 -0.16323253323E+04  0.16323253323E+04  0.50400001928E-02 0. -1.
    10030    2    1    2    0    0  0.00000000000E+00  0.00000000000E+00  0.83559838858E+03  0.41002490531E+04  0.40142019917E+04 0.  0.
        4    1    3    3  502    0 -0.10624103345E+04  0.15020321807E+04  0.12372659030E+04  0.22171253727E+04  0.12699999809E+01 0.  1.
       -4    1    3    3    0  502  0.10624103345E+04 -0.15020321807E+04 -0.40166751446E+03  0.18831236804E+04  0.12699999809E+01 0. -1.
</event>
<event>
 5   0  0.5951623E-08  0.4048639E+04  0.7818609E-02  0.7994806E-01
       -2   -1    0    0    0  501  0.00000000000E+00  0.00000000000E+00  0.22817055488E+04  0.22817055488E+04  0.25500000920E-02 0. -1.
        2   -1    0    0  501    0  0.00000000000E+00  0.00000000000E+00 -0.17959676595E+04  0.17959676595E+04  0.25500000920E-02 0.  1.
    10030    2    1    2    0    0  0.00000000000E+00  0.00000000000E+00  0.48573788933E+03  0.40776732083E+04  0.40486389684E+04 0.  0.
        2    1    3    3  502    0  0.12346848923E+04 -0.43614449666E+02 -0.13722270917E+04  0.18464442030E+04  0.25500000920E-02 0.  1.
       -2    1    3    3    0  502 -0.12346848923E+04  0.43614449666E+02  0.18579649810E+04  0.22312290053E+04  0.25500000920E-02 0. -1.
</event>
<event>
 5   0  0.6161563E-08  0.3983184E+04  0.7818609E-02  0.8007947E-01
        2   -1    0    0  501    0  0.00000000000E+00  0.00000000000E+00  0.26723404260E+04  0.26723404260E+04  0.25500000920E-02 0. -1.
       -2   -1    0    0    0  501  0.00000000000E+00  0.00000000000E+00 -0.14842567338E+04  0.14842567338E+04  0.25500000920E-02 0.  1.
    10030    2    1    2    0    0  0.00000000000E+00  0.00000000000E+00  0.11880836922E+04  0.41565971598E+04  0.39831842901E+04 0.  0.
        1    1    3    3  502    0  0.16717659918E+03  0.16557582265E+04 -0.54764400924E+03  0.17519695434E+04  0.50400001928E-02 0.  1.
       -1    1    3    3    0  502 -0.16717659918E+03 -0.16557582265E+04  0.17357277014E+04  0.24046276164E+04  0.50400001928E-02 0. -1.
</event>
<event>
 5   0  0.1879500E-08  0.3955107E+04  0.7818609E-02  0.8013665E-01
        1   -1    0    0  501    0  0.00000000000E+00  0.00000000000E+00  0.21165923172E+04  0.21165923172E+04  0.50400001928E-02 0.  1.
       -1   -1    0    0    0  501  0.00000000000E+00  0.00000000000E+00 -0.18476480358E+04  0.18476480358E+04  0.50400001928E-02 0. -1.
    10030    2    1    2    0    0  0.00000000000E+00  0.00000000000E+00  0.26894428137E+03  0.39642403530E+04  0.39551068949E+04 0.  0.
        1    1    3    3  502    0  0.86358344583E+02  0.18260881737E+04 -0.62136599658E+03  0.19308421695E+04  0.50400001928E-02 0. -1.
       -1    1    3    3    0  502 -0.86358344583E+02 -0.18260881737E+04  0.89031027795E+03  0.20333981835E+04  0.50400001928E-02 0.  1.
</event>
<event>
 5   0  0.5951623E-08  0.4005647E+04  0.7818609E-02  0.8003408E-01
        2   -1    0    0  501    0  0.00000000000E+00  0.00000000000E+00  0.22290206720E+04  0.22290206720E+04  0.25500000920E-02 0.  1.
       -2   -1    0    0    0  501  0.00000000000E+00  0.00000000000E+00 -0.17995800994E+04  0.17995800994E+04  0.25500000920E-02 0. -1.
    10030    2    1    2    0    0  0.00000000000E+00  0.00000000000E+00  0.42944057260E+03  0.40286007713E+04  0.40056466356E+04 0.  0.
        2    1    3    3  502    0 -0.92004179476E+03 -0.17764174861E+04  0.11843635147E+03  0.20040367159E+04  0.25500000920E-02 0.  1.
       -2    1    3    3    0  502  0.92004179476E+03  0.17764174861E+04  0.31100422113E+03  0.20245640555E+04  0.25500000920E-02 0. -1.
</event>
<event>
 5   0  0.1879500E-08  0.4025056E+04  0.7818609E-02  0.7999511E-01
        1   -1    0    0  501    0  0.00000000000E+00  0.00000000000E+00  0.12820533333E+04  0.12820533333E+04  0.50400001928E-02 0.  1.
       -1   -1    0    0    0  501  0.00000000000E+00  0.00000000000E+00 -0.31592042685E+04  0.31592042685E+04  0.50400001928E-02 0. -1.
    10030    2    1    2    0    0  0.00000000000E+00  0.00000000000E+00 -0.18771509352E+04  0.44412576017E+04  0.40250557079E+04 0.  0.
        3    1    3    3  502    0  0.21867123304E+03  0.12749443243E+04  0.76258685539E+03  0.15016120872E+04  0.10100000352E+00 0.  1.
       -3    1    3    3    0  502 -0.21867123304E+03 -0.12749443243E+04 -0.26397377906E+04  0.29396455146E+04  0.10100000352E+00 0. -1.
</event>
<event>
 5   0  0.6161563E-08  0.3989971E+04  0.7818609E-02  0.8006573E-01
        2   -1    0    0  501    0  0.00000000000E+00  0.00000000000E+00  0.23102243096E+04  0.23102243096E+04  0.25500000920E-02 0. -1.
       -2   -1    0    0    0  501  0.00000000000E+00  0.00000000000E+00 -0.17227621464E+04  0.17227621464E+04  0.25500000920E-02 0.  1.
    10030    2    1    2    0    0  0.00000000000E+00  0.00000000000E+00  0.58746216328E+03  0.40329864560E+04  0.39899709223E+04 0.  0.
        1    1    3    3  502    0 -0.55293489777E+03 -0.15963289015E+04  0.13662853873E+04  0.21727261039E+04  0.50400001928E-02 0. -1.
       -1    1    3    3    0  502  0.55293489777E+03  0.15963289015E+04 -0.77882322407E+03  0.18602603521E+04  0.50400001928E-02 0.  1.
</event>
<event>
 5   0  0.1879500E-08  0.3997415E+04  0.7818609E-02  0.8005068E-01
        1   -1    0    0  501    0  0.00000000000E+00  0.00000000000E+00  0.12963048380E+04  0.12963048380E+04  0.50400001928E-02 0.  1.
       -1   -1    0    0    0  501  0.00000000000E+00  0.00000000000E+00 -0.30817065778E+04  0.30817065778E+04  0.50400001928E-02 0. -1.
    10030    2    1    2    0    0  0.00000000000E+00  0.00000000000E+00 -0.17854017398E+04  0.43780114159E+04  0.39974147377E+04 0.  0.
        3    1    3    3  502    0  0.15169310811E+04  0.96161567542E+03  0.67747418932E+02  0.17973242153E+04  0.10100000352E+00 0.  1.
       -3    1    3    3    0  502 -0.15169310811E+04 -0.96161567542E+03 -0.18531491588E+04  0.25806872005E+04  0.10100000352E+00 0. -1.
</event>
<event>
 5   0  0.5888700E-08  0.3997656E+04  0.7818609E-02  0.8005020E-01
       -2   -1    0    0    0  501  0.00000000000E+00  0.00000000000E+00  0.20616831884E+04  0.20616831884E+04  0.25500000920E-02 0. -1.
        2   -1    0    0  501    0  0.00000000000E+00  0.00000000000E+00 -0.19378894642E+04  0.19378894642E+04  0.25500000920E-02 0.  1.
    10030    2    1    2    0    0  0.00000000000E+00  0.00000000000E+00  0.12379372424E+03  0.39995726526E+04  0.39976563781E+04 0.  0.
        5    1    3    3  502    0  0.17692735948E+04 -0.17852216834E+03  0.97507356909E+03  0.20280507324E+04  0.46999998093E+01 0. -1.
       -5    1    3    3    0  502 -0.17692735948E+04  0.17852216834E+03 -0.85127984485E+03  0.19715219203E+04  0.46999998093E+01 0.  1.
</event>
<event>
 5   0  0.6161563E-08  0.3983917E+04  0.7818609E-02  0.8007799E-01
       -2   -1    0    0    0  501  0.00000000000E+00  0.00000000000E+00  0.18286730631E+04  0.18286730631E+04  0.25500000920E-02 0.  1.
        2   -1    0    0  501    0  0.00000000000E+00  0.00000000000E+00 -0.21698243459E+04  0.21698243459E+04  0.25500000920E-02 0. -1.
    10030    2    1    2    0    0  0.00000000000E+00  0.00000000000E+00 -0.34115128287E+03  0.39984974090E+04  0.39839173350E+04 0.  0.
        1    1    3    3  502    0 -0.12165791616E+04 -0.57274566895E+03 -0.16455788153E+04  0.21250957849E+04  0.50400001928E-02 0. -1.
       -1    1    3    3    0  502  0.12165791616E+04  0.57274566895E+03  0.13044275324E+04  0.18734016241E+04  0.50400001928E-02 0.  1.
</event>
<event>
 5   0  0.1879500E-08  0.4006393E+04  0.7818609E-02  0.8003258E-01
        1   -1    0    0  501    0  0.00000000000E+00  0.00000000000E+00  0.24325187512E+04  0.24325187512E+04  0.50400001928E-02 0. -1.
       -1   -1    0    0    0  501  0.00000000000E+00  0.00000000000E+00 -0.16496468630E+04  0.16496468630E+04  0.50400001928E-02 0.  1.
    10030    2    1    2    0    0  0.00000000000E+00  0.00000000000E+00  0.78287188821E+03  0.40821656142E+04  0.40063933542E+04 0.  0.
        2    1    3    3  502    0 -0.34560762154E+03  0.23816516709E+03 -0.16043408698E+04  0.16583355816E+04  0.25500000920E-02 0.  1.
       -2    1    3    3    0  502  0.34560762154E+03 -0.23816516709E+03  0.23872127580E+04  0.24238300326E+04  0.25500000920E-02 0. -1.
</event>
<event>
 5   0  0.5951623E-08  0.4003304E+04  0.7818609E-02  0.8003880E-01
       -2   -1    0    0    0  501  0.00000000000E+00  0.00000000000E+00  0.17544010423E+04  0.17544010423E+04  0.25500000920E-02 0. -1.
        2   -1    0    0  501    0  0.00000000000E+00  0.00000000000E+00 -0.22837482167E+04  0.22837482167E+04  0.25500000920E-02 0.  1.
    10030    2    1    2    0    0  0.00000000000E+00  0.00000000000E+00 -0.52934717443E+03  0.40381492591E+04  0.40033037616E+04 0.  0.
        2    1    3    3  502    0 -0.47145332908E+03 -0.87335975228E+03 -0.20180744382E+04  0.22489219498E+04  0.25500000920E-02 0.  1.
       -2    1    3    3    0  502  0.47145332908E+03  0.87335975228E+03  0.14887272637E+04  0.17892273093E+04  0.25500000920E-02 0. -1.
</event>
<event>
 5   0  0.6161563E-08  0.3994924E+04  0.7818609E-02  0.8005571E-01
       -2   -1    0    0    0  501  0.00000000000E+00  0.00000000000E+00  0.22401170087E+04  0.22401170087E+04  0.25500000920E-02 0. -1.
        2   -1    0    0  501    0  0.00000000000E+00  0.00000000000E+00 -0.17810923188E+04  0.17810923188E+04  0.25500000920E-02 0.  1.
    10030    2    1    2    0    0  0.00000000000E+00  0.00000000000E+00  0.45902468987E+03  0.40212093275E+04  0.39949243785E+04 0.  0.
        1    1    3    3  502    0  0.39422572464E+03  0.22613923669E+03 -0.17283567086E+04  0.17871121365E+04  0.50400001928E-02 0.  1.
       -1    1    3    3    0  502 -0.39422572464E+03 -0.22613923669E+03  0.21873813985E+04  0.22340971910E+04  0.50400001928E-02 0. -1.
</event>
<event>
 5   0  0.1879500E-08  0.4008658E+04  0.7818609E-02  0.8002802E-01
       -1   -1    0    0    0  501  0.00000000000E+00  0.00000000000E+00  0.17093777251E+04  0.17093777251E+04  0.50400001928E-02 0.  1.
        1   -1    0    0  501    0  0.00000000000E+00  0.00000000000E+00 -0.23501742345E+04  0.23501742345E+04  0.50400001928E-02 0. -1.
    10030    2    1    2    0    0  0.00000000000E+00  0.00000000000E+00 -0.64079650936E+03  0.40595519596E+04  0.40086583724E+04 0.  0.
        2    1    3    3  502    0  0.20485417645E+03  0.14309978638E+03 -0.23343377136E+04  0.23476744544E+04  0.25500000920E-02 0. -1.
       -2    1    3    3    0  502 -0.20485417645E+03 -0.14309978638E+03  0.16935412043E+04  0.17118775053E+04  0.25500000920E-02 0.  1.
</event>
<event>
 5   0  0.1879500E-08  0.3997790E+04  0.7818609E-02  0.8004992E-01
        1   -1    0    0  501    0  0.00000000000E+00  0.00000000000E+00  0.20469565089E+04  0.20469565089E+04  0.50400001928E-02 0.  1.
       -1   -1    0    0    0  501  0.00000000000E+00  0.00000000000E+00 -0.19519623539E+04  0.19519623539E+04  0.50400001928E-02 0. -1.
    10030    2    1    2    0    0  0.00000000000E+00  0.00000000000E+00  0.94994155047E+02  0.39989188628E+04  0.39977904124E+04 0.  0.
        4    1    3    3  502    0  0.84110334591E+03 -0.24977530798E+03 -0.17490438196E+04  0.19567826754E+04  0.12699999809E+01 0. -1.
       -4    1    3    3    0  502 -0.84110334591E+03  0.24977530798E+03  0.18440379746E+04  0.20421361874E+04  0.12699999809E+01 0.  1.
</event>
<event>
 5   0  0.5888700E-08  0.3994282E+04  0.7818609E-02  0.8005701E-01
       -2   -1    0    0    0  501  0.00000000000E+00  0.00000000000E+00  0.17087656865E+04  0.17087656865E+04  0.25500000920E-02 0.  1.
        2   -1    0    0  501    0  0.00000000000E+00  0.00000000000E+00 -0.23341835145E+04  0.23341835145E+04  0.25500000920E-02 0. -1.
    10030    2    1    2    0    0  0.00000000000E+00  0.00000000000E+00 -0.62541782799E+03  0.40429492011E+04  0.39942822613E+04 0.  0.
        5    1    3    3  502    0  0.14719571496E+04 -0.11749664383E+04 -0.98514256286E+03  0.21254956929E+04  0.46999998093E+01 0. -1.
       -5    1    3    3    0  502 -0.14719571496E+04  0.11749664383E+04  0.35972473487E+03  0.19174535082E+04  0.46999998093E+01 0.  1.
</event>
<event>
 5   0  0.1879500E-08  0.3998779E+04  0.7818609E-02  0.8004793E-01
        1   -1    0    0  501    0  0.00000000000E+00  0.00000000000E+00  0.17654215717E+04  0.17654215717E+04  0.50400001928E-02 0. -1.
       -1   -1    0    0    0  501  0.00000000000E+00  0.00000000000E+00 -0.22643650664E+04  0.22643650664E+04  0.50400001928E-02 0.  1.
    10030    2    1    2    0    0  0.00000000000E+00  0.00000000000E+00 -0.49894349468E+03  0.40297866381E+04  0.39987792810E+04 0.  0.
        5    1    3    3  502    0 -0.15749817776E+04  0.97606082253E+03 -0.10064786464E+04  0.21086212758E+04  0.46999998093E+01 0.  1.
       -5    1    3    3    0  502  0.15749817776E+04 -0.97606082253E+03  0.50753515169E+03  0.19211653623E+04  0.46999998093E+01 0. -1.
</event>
<event>
 5   0  0.1879500E-08  0.4006533E+04  0.7818609E-02  0.8003230E-01
       -1   -1    0    0    0  501  0.00000000000E+00  0.00000000000E+00  0.17669042021E+04  0.17669042021E+04  0.50400001928E-02 0. -1.
        1   -1    0    0  501    0  0.00000000000E+00  0.00000000000E+00 -0.22712470728E+04  0.22712470728E+04  0.50400001928E-02 0.  1.
    10030    2    1    2    0    0  0.00000000000E+00  0.00000000000E+00 -0.50434287064E+03  0.40381512749E+04  0.40065326640E+04 0.  0.
        3    1    3    3  502    0 -0.65736836071E+03  0.19256265712E+03 -0.21495427256E+04  0.22560468696E+04  0.10100000352E+00 0.  1.
       -3    1    3    3    0  502  0.65736836071E+03 -0.19256265712E+03  0.16451998549E+04  0.17821044053E+04  0.10100000352E+00 0. -1.
</event>
<event>
 5   0  0.5945387E-08  0.3983401E+04  0.7818609E-02  0.8007903E-01
        2   -1    0    0  501    0  0.00000000000E+00  0.00000000000E+00  0.15462941390E+04  0.15462941390E+04  0.25500000920E-02 0. -1.
       -2   -1    0    0    0  501  0.00000000000E+00  0.00000000000E+00 -0.25654050981E+04  0.25654050981E+04  0.25500000920E-02 0.  1.
    10030    2    1    2    0    0  0.00000000000E+00  0.00000000000E+00 -0.10191109591E+04  0.41116992372E+04  0.39834009928E+04 0.  0.
        3    1    3    3  502    0  0.47409499683E+03  0.67182334215E+03  0.13629163703E+04  0.15917454921E+04  0.10100000352E+00 0. -1.
       -3    1    3    3    0  502 -0.47409499683E+03 -0.67182334215E+03 -0.23820273294E+04  0.25199537451E+04  0.10100000352E+00 0.  1.
</event>
<event>
 5   0  0.5888700E-08  0.4004748E+04  0.7818609E-02  0.8003589E-01
       -2   -1    0    0    0  501  0.00000000000E+00  0.00000000000E+00  0.32175633849E+04  0.32175633849E+04  0.25500000920E-02 0. -1.
        2   -1    0    0  501    0  0.00000000000E+00  0.00000000000E+00 -0.12461297762E+04  0.12461297763E+04  0.25500000920E-02 0.  1.
    10030    2    1    2    0    0  0.00000000000E+00  0.00000000000E+00  0.19714336086E+04  0.44636931611E+04  0.40047479525E+04 0.  0.
        5    1    3    3  502    0  0.12080352862E+04  0.16712157780E+03 -0.78442865498E+03  0.14500445784E+04  0.46999998093E+01 0.  1.
       -5    1    3    3    0  502 -0.12080352862E+04 -0.16712157780E+03  0.27558622636E+04  0.30136485828E+04  0.46999998093E+01 0. -1.
</event>
<event>
 5   0  0.1879500E-08  0.4003173E+04  0.7818609E-02  0.8003907E-01
        1   -1    0    0  501    0  0.00000000000E+00  0.00000000000E+00  0.15407563590E+04  0.15407563590E+04  0.50400001928E-02 0.  1.
       -1   -1    0    0    0  501  0.00000000000E+00  0.00000000000E+00 -0.26002485224E+04  0.26002485224E+04  0.50400001928E-02 0. -1.
    10030    2    1    2    0    0  0.00000000000E+00  0.00000000000E+00 -0.10594921634E+04  0.41410048815E+04  0.40031734641E+04 0.  0.
        5    1    3    3  502    0  0.12215881979E+04 -0.15664434048E+04 -0.27572083656E+03  0.20055090963E+04  0.46999998093E+01 0. -1.
       -5    1    3    3    0  502 -0.12215881979E+04  0.15664434048E+04 -0.78377132683E+03  0.21354957852E+04  0.46999998093E+01 0.  1.
</event>
<event>
 5   0  0.1879500E-08  0.4007158E+04  0.7818609E-02  0.8003104E-01
        1   -1    0    0  501    0  0.00000000000E+00  0.00000000000E+00  0.26291074020E+04  0.26291074020E+04  0.50400001928E-02 0. -1.
       -1   -1    0    0    0  501  0.00000000000E+00  0.00000000000E+00 -0.15268786387E+04  0.15268786388E+04  0.50400001928E-02 0.  1.
    10030    2    1    2    0    0  0.00000000000E+00  0.00000000000E+00  0.11022287633E+04  0.41559860408E+04  0.40071575617E+04 0.  0.
        2    1    3    3  502    0  0.14407882990E+03 -0.19937404301E+04  0.40978776621E+03  0.20405111186E+04  0.25500000920E-02 0. -1.
       -2    1    3    3    0  502 -0.14407882990E+03  0.19937404301E+04  0.69244099705E+03  0.21154749221E+04  0.25500000920E-02 0.  1.
</event>
<event>
 5   0  0.5846812E-08  0.4003042E+04  0.7818609E-02  0.8003933E-01
       -2   -1    0    0    0  501  0.00000000000E+00  0.00000000000E+00  0.21186064811E+04  0.21186064811E+04  0.25500000920E-02 0. -1.
        2   -1    0    0  501    0  0.00000000000E+00  0.00000000000E+00 -0.18909062254E+04  0.18909062254E+04  0.25500000920E-02 0.  1.
    10030    2    1    2    0    0  0.00000000000E+00  0.00000000000E+00  0.22770025565E+03  0.40095127065E+04  0.40030419355E+04 0.  0.
        4    1    3    3  502    0 -0.16559476583E+04  0.16859361147E+03 -0.99947624939E+03  0.19415305402E+04  0.12699999809E+01 0.  1.
       -4    1    3    3    0  502  0.16559476583E+04 -0.16859361147E+03  0.12271765050E+04  0.20679821663E+04  0.12699999809E+01 0. -1.
</event>
<event>
 5   0  0.5888700E-08  0.3988618E+04  0.7818609E-02  0.8006847E-01
        2   -1    0    0  501    0  0.00000000000E+00  0.00000000000E+00  0.22145243535E+04  0.22145243535E+04  0.25500000920E-02 0.  1.
       -2   -1    0    0    0  501  0.00000000000E+00  0.00000000000E+00 -0.17959923421E+04  0.17959923421E+04  0.25500000920E-02 0. -1.
    10030    2    1    2    0    0  0.00000000000E+00  0.00000000000E+00  0.41853201144E+03  0.40105166956E+04  0.39886181970E+04 0.  0.
        5    1    3    3  502    0 -0.26926112152E+03 -0.13860822921E+04 -0.12068416341E+04  0.18574753004E+04  0.46999998093E+01 0. -1.
       -5    1    3    3    0  502  0.26926112152E+03  0.13860822921E+04  0.16253736455E+04  0.21530413952E+04  0.46999998093E+01 0.  1.
</event>
<event>
 5   0  0.1879500E-08  0.3995527E+04  0.7818609E-02  0.8005450E-01
        1   -1    0    0  501    0  0.00000000000E+00  0.00000000000E+00  0.18233818782E+04  0.18233818782E+04  0.50400001928E-02 0.  1.
       -1   -1    0    0    0  501  0.00000000000E+00  0.00000000000E+00 -0.21888220398E+04  0.21888220399E+04  0.50400001928E-02 0. -1.
    10030    2    1    2    0    0  0.00000000000E+00  0.00000000000E+00 -0.36544016168E+03  0.40122039180E+04  0.39955267197E+04 0.  0.
        1    1    3    3  502    0  0.10608090680E+04 -0.18898562826E+03 -0.18720102221E+04  0.21599661381E+04  0.50400001928E-02 0. -1.
       -1    1    3    3    0  502 -0.10608090680E+04  0.18898562826E+03  0.15065700604E+04  0.18522377799E+04  0.50400001928E-02 0.  1.
</event>
<event>
 5   0  0.5951623E-08  0.3980450E+04  0.7818609E-02  0.8008502E-01
       -2   -1    0    0    0  501  0.00000000000E+00  0.00000000000E+00  0.16305250891E+04  0.16305250891E+04  0.25500000920E-02 0. -1.
        2   -1    0    0  501    0  0.00000000000E+00  0.00000000000E+00 -0.24292762401E+04  0.24292762401E+04  0.25500000920E-02 0.  1.
    10030    2    1    2    0    0  0.00000000000E+00  0.00000000000E+00 -0.79875115106E+03  0.40598013292E+04  0.39804501544E+04 0.  0.
        2    1    3    3  502    0  0.15382803199E+04 -0.68100437144E+03  0.68527293877E+03  0.18165000129E+04  0.25500000920E-02 0. -1.
       -2    1    3    3    0  502 -0.15382803199E+04  0.68100437144E+03 -0.14840240898E+04  0.22433013163E+04  0.25500000920E-02 0.  1.
</event>
<event>
 5   0  0.1879500E-08  0.3995198E+04  0.7818609E-02  0.8005516E-01
        1   -1    0    0  501    0  0.00000000000E+00  0.00000000000E+00  0.31172823217E+04  0.31172823217E+04  0.50400001928E-02 0.  1.
       -1   -1    0    0    0  501  0.00000000000E+00  0.00000000000E+00 -0.12800902582E+04  0.12800902582E+04  0.50400001928E-02 0. -1.
    10030    2    1    2    0    0  0.00000000000E+00  0.00000000000E+00  0.18371920635E+04  0.43973725799E+04  0.39951984842E+04 0.  0.
        2    1    3    3  502    0  0.16736819480E+03 -0.11276694406E+04 -0.88688013551E+03  0.14443707470E+04  0.25500000920E-02 0. -1.
       -2    1    3    3    0  502 -0.16736819480E+03  0.11276694406E+04  0.27240721990E+04  0.29530018330E+04  0.25500000920E-02 0.  1.
</event>
<event>
 5   0  0.6161563E-08  0.3744037E+04  0.7818609E-02  0.8058272E-01
       -2   -1    0    0    0  501  0.00000000000E+00  0.00000000000E+00  0.17187955484E+04  0.17187955484E+04  0.25500000920E-02 0.  1.
        2   -1    0    0  501    0  0.00000000000E+00  0.00000000000E+00 -0.20389006867E+04  0.20389006867E+04  0.25500000920E-02 0. -1.
    10030    2    1    2    0    0  0.00000000000E+00  0.00000000000E+00 -0.32010513834E+03  0.37576962351E+04  0.37440370852E+04 0.  0.
        1    1    3    3  502    0  0.61379520731E+03  0.14434689606E+04  0.86549042172E+03  0.17914856591E+04  0.50400001928E-02 0.  1.
       -1    1    3    3    0  502 -0.61379520731E+03 -0.14434689606E+04 -0.11855955601E+04  0.19662105759E+04  0.50400001928E-02 0. -1.
</event>
<event>
 5   0  0.1879500E-08  0.3992897E+04  0.7818609E-02  0.8005981E-01
        1   -1    0    0  501    0  0.00000000000E+00  0.00000000000E+00  0.12953647539E+04  0.12953647539E+04  0.50400001928E-02 0. -1.
       -1   -1    0    0    0  501  0.00000000000E+00  0.00000000000E+00 -0.30769769998E+04  0.30769769998E+04  0.50400001928E-02 0.  1.
    10030    2    1    2    0    0  0.00000000000E+00  0.00000000000E+00 -0.17816122459E+04  0.43723417537E+04  0.39928974713E+04 0.  0.
        3    1    3    3  502    0  0.82704952788E+03  0.16740249507E+03 -0.28721060551E+04  0.29934975729E+04  0.10100000352E+00 0.  1.
       -3    1    3    3    0  502 -0.82704952788E+03 -0.16740249507E+03  0.10904938092E+04  0.13788441808E+04  0.10100000352E+00 0. -1.
</event>
<event>
 5   0  0.1879500E-08  0.3973462E+04  0.7818609E-02  0.8009922E-01
        1   -1    0    0  501    0  0.00000000000E+00  0.00000000000E+00  0.18814496002E+04  0.18814496002E+04  0.50400001928E-02 0.  1.
       -1   -1    0    0    0  501  0.00000000000E+00  0.00000000000E+00 -0.20979032121E+04  0.20979032121E+04  0.50400001928E-02 0. -1.
    10030    2    1    2    0    0  0.00000000000E+00  0.00000000000E+00 -0.21645361193E+03  0.39793528123E+04  0.39734615436E+04 0.  0.
        3    1    3    3  502    0 -0.29497879963E+03  0.14671309854E+04  0.12004674601E+04  0.19184910616E+04  0.10100000352E+00 0.  1.
       -3    1    3    3    0  502  0.29497879963E+03 -0.14671309854E+04 -0.14169210720E+04  0.20608617506E+04  0.10100000352E+00 0. -1.
</event>
<event>
 5   0  0.5846812E-08  0.4020399E+04  0.7818609E-02  0.8000444E-01
       -2   -1    0    0    0  501  0.00000000000E+00  0.00000000000E+00  0.17432792669E+04  0.17432792669E+04  0.25500000920E-02 0. -1.
        2   -1    0    0  501    0  0.00000000000E+00  0.00000000000E+00 -0.23179893823E+04  0.23179893823E+04  0.25500000920E-02 0.  1.
    10030    2    1    2    0    0  0.00000000000E+00  0.00000000000E+00 -0.57471011545E+03  0.40612686492E+04  0.40203993986E+04 0.  0.
        4    1    3    3  502    0 -0.12532181964E+04 -0.39224171366E+02  0.12998610959E+04  0.18060273710E+04  0.12699999809E+01 0. -1.
       -4    1    3    3    0  502  0.12532181964E+04  0.39224171366E+02 -0.18745712113E+04  0.22552412782E+04  0.12699999809E+01 0.  1.
</event>
<event>
 5   0  0.6161563E-08  0.3995407E+04  0.7818609E-02  0.8005474E-01
        2   -1    0    0  501    0  0.00000000000E+00  0.00000000000E+00  0.19282566663E+04  0.19282566663E+04  0.25500000920E-02 0.  1.
       -2   -1    0    0    0  501  0.00000000000E+00  0.00000000000E+00 -0.20696511829E+04  0.20696511829E+04  0.25500000920E-02 0. -1.
    10030    2    1    2    0    0  0.00000000000E+00  0.00000000000E+00 -0.14139451657E+03  0.39979078492E+04  0.39954067078E+04 0.  0.
        1    1    3    3  502    0 -0.27049039712E+03 -0.16303798634E+04  0.10522865143E+04  0.19592372143E+04  0.50400001928E-02 0.  1.
       -1    1    3    3    0  502  0.27049039712E+03  0.16303798634E+04 -0.11936810309E+04  0.20386706348E+04  0.50400001928E-02 0. -1.
</event>
<event>
 5   0  0.5888700E-08  0.3994590E+04  0.7818609E-02  0.8005639E-01
        2   -1    0    0  501    0  0.00000000000E+00  0.00000000000E+00  0.23629597677E+04  0.23629597677E+04  0.25500000920E-02 0. -1.
       -2   -1    0    0    0  501  0.00000000000E+00  0.00000000000E+00 -0.16882164252E+04  0.16882164252E+04  0.25500000920E-02 0.  1.
    10030    2    1    2    0    0  0.00000000000E+00  0.00000000000E+00  0.67474334256E+03  0.40511761929E+04  0.39945900875E+04 0.  0.
        5    1    3    3  502    0 -0.14491241648E+04 -0.97614994417E+02  0.17278057225E+04  0.22571717341E+04  0.46999998093E+01 0. -1.
       -5    1    3    3    0  502  0.14491241648E+04  0.97614994417E+02 -0.10530623800E+04  0.17940044588E+04  0.46999998093E+01 0.  1.
</event>
<event>
 5   0  0.1879500E-08  0.3992771E+04  0.7818609E-02  0.8006006E-01
       -1   -1    0    0    0  501  0.00000000000E+00  0.00000000000E+00  0.32733302886E+04  0.32733302886E+04  0.50400001928E-02 0.  1.
        1   -1    0    0  501    0  0.00000000000E+00  0.00000000000E+00 -0.12175840424E+04  0.12175840424E+04  0.50400001928E-02 0. -1.
    10030    2    1    2    0    0  0.00000000000E+00  0.00000000000E+00  0.20557462462E+04  0.44909143310E+04  0.39927708298E+04 0.  0.
        4    1    3    3  502    0  0.11005301574E+04 -0.15521708835E+04  0.34820445797E+03  0.19343342618E+04  0.12699999809E+01 0. -1.
       -4    1    3    3    0  502 -0.11005301574E+04  0.15521708835E+04  0.17075417882E+04  0.25565800692E+04  0.12699999809E+01 0.  1.
</event>
<event>
 5   0  0.1879500E-08  0.3913949E+04  0.7818609E-02  0.8022134E-01
        1   -1    0    0  501    0  0.00000000000E+00  0.00000000000E+00  0.24323134785E+04  0.24323134785E+04  0.50400001928E-02 0.  1.
       -1   -1    0    0    0  501  0.00000000000E+00  0.00000000000E+00 -0.15745290551E+04  0.15745290551E+04  0.50400001928E-02 0. -1.
    10030    2    1    2    0    0  0.00000000000E+00  0.00000000000E+00  0.85778442340E+03  0.40068425336E+04  0.39139485143E+04 0.  0.
        5    1    3    3  502    0  0.19337444533E+04  0.76185812587E+02  0.72657582238E+03  0.20671493425E+04  0.46999998093E+01 0.  1.
       -5    1    3    3    0  502 -0.19337444533E+04 -0.76185812587E+02  0.13120860102E+03  0.19396931911E+04  0.46999998093E+01 0. -1.
</event>
<event>
 5   0  0.5951623E-08  0.3990216E+04  0.7818609E-02  0.8006523E-01
        2   -1    0    0  501    0  0.00000000000E+00  0.00000000000E+00  0.22622758456E+04  0.22622758456E+04  0.25500000920E-02 0. -1.
       -2   -1    0    0    0  501  0.00000000000E+00  0.00000000000E+00 -0.17594922290E+04  0.17594922290E+04  0.25500000920E-02 0.  1.
    10030    2    1    2    0    0  0.00000000000E+00  0.00000000000E+00  0.50278361659E+03  0.40217680747E+04  0.39902164204E+04 0.  0.
        2    1    3    3  502    0  0.46453525648E+03  0.91251290258E+03  0.19772351306E+04  0.22266413190E+04  0.25500000920E-02 0. -1.
       -2    1    3    3    0  502 -0.46453525648E+03 -0.91251290258E+03 -0.14744515140E+04  0.17951267557E+04  0.25500000920E-02 0.  1.
</event>
<event>
 5   0  0.1879500E-08  0.3852273E+04  0.7818609E-02  0.8035029E-01
        1   -1    0    0  501    0  0.00000000000E+00  0.00000000000E+00  0.19879662761E+04  0.19879662761E+04  0.50400001928E-02 0.  1.
       -1   -1    0    0    0  501  0.00000000000E+00  0.00000000000E+00 -0.18662294879E+04  0.18662294879E+04  0.50400001928E-02 0. -1.
    10030    2    1    2    0    0  0.00000000000E+00  0.00000000000E+00  0.12173678826E+03  0.38541957640E+04  0.38522727242E+04 0.  0.
        4    1    3    3  502    0  0.11919935730E+03  0.16464716545E+04 -0.93205952923E+03  0.18957357344E+04  0.12699999809E+01 0. -1.
       -4    1    3    3    0  502 -0.11919935730E+03 -0.16464716545E+04  0.10537963175E+04  0.19584600296E+04  0.12699999809E+01 0.  1.
</event>
<event>
 5   0  0.5888700E-08  0.3973230E+04  0.7818609E-02  0.8009969E-01
        2   -1    0    0  501    0  0.00000000000E+00  0.00000000000E+00  0.25573112950E+04  0.25573112950E+04  0.25500000920E-02 0.  1.
       -2   -1    0    0    0  501  0.00000000000E+00  0.00000000000E+00 -0.15432766466E+04  0.15432766466E+04  0.25500000920E-02 0. -1.
    10030    2    1    2    0    0  0.00000000000E+00  0.00000000000E+00  0.10140346484E+04  0.41005879417E+04  0.39732298196E+04 0.  0.
        5    1    3    3  502    0  0.18925095163E+04 -0.15078515069E+03 -0.96790112877E+02  0.19009783920E+04  0.46999998093E+01 0. -1.
       -5    1    3    3    0  502 -0.18925095163E+04  0.15078515069E+03  0.11108247612E+04  0.21996095497E+04  0.46999998093E+01 0.  1.
</event>
<event>
 5   0  0.1879500E-08  0.4021897E+04  0.7818609E-02  0.8000144E-01
        1   -1    0    0  501    0  0.00000000000E+00  0.00000000000E+00  0.16144774943E+04  0.16144774944E+04  0.50400001928E-02 0.  1.
       -1   -1    0    0    0  501  0.00000000000E+00  0.00000000000E+00 -0.25047821124E+04  0.25047821124E+04  0.50400001928E-02 0. -1.
    10030    2    1    2    0    0  0.00000000000E+00  0.00000000000E+00 -0.89030461803E+03  0.41192596067E+04  0.40218972382E+04 0.  0.
        5    1    3    3  502    0  0.74843184271E+03 -0.35368275827E+03  0.14318750501E+04  0.16539437613E+04  0.46999998093E+01 0.  1.
       -5    1    3    3    0  502 -0.74843184271E+03  0.35368275827E+03 -0.23221796681E+04  0.24653158454E+04  0.46999998093E+01 0. -1.
</event>
<event>
 5   0  0.1879500E-08  0.4012977E+04  0.7818609E-02  0.8001934E-01
        1   -1    0    0  501    0  0.00000000000E+00  0.00000000000E+00  0.22725767911E+04  0.22725767912E+04  0.50400001928E-02 0. -1.
       -1   -1    0    0    0  501  0.00000000000E+00  0.00000000000E+00 -0.17715556936E+04  0.17715556936E+04  0.50400001928E-02 0.  1.
    10030    2    1    2    0    0  0.00000000000E+00  0.00000000000E+00  0.50102109753E+03  0.40441324848E+04  0.40129771261E+04 0.  0.
        1    1    3    3  502    0 -0.66440095646E+03 -0.13820831049E+04  0.15545481533E+04  0.21836213730E+04  0.50400001928E-02 0. -1.
       -1    1    3    3    0  502  0.66440095646E+03  0.13820831049E+04 -0.10535270557E+04  0.18605111118E+04  0.50400001928E-02 0.  1.
</event>
<event>
 5   0  0.5951623E-08  0.3999170E+04  0.7818609E-02  0.8004714E-01
       -2   -1    0    0    0  501  0.00000000000E+00  0.00000000000E+00  0.31640731782E+04  0.31640731782E+04  0.25500000920E-02 0.  1.
        2   -1    0    0  501    0  0.00000000000E+00  0.00000000000E+00 -0.12636686994E+04  0.12636686994E+04  0.25500000920E-02 0. -1.
    10030    2    1    2    0    0  0.00000000000E+00  0.00000000000E+00  0.19004044789E+04  0.44277418776E+04  0.39991700328E+04 0.  0.
        2    1    3    3  502    0 -0.17892525916E+03 -0.69048454683E+03  0.30184262656E+04  0.31015609422E+04  0.25500000920E-02 0.  1.
       -2    1    3    3    0  502  0.17892525916E+03  0.69048454683E+03 -0.11180217867E+04  0.13261809354E+04  0.25500000920E-02 0. -1.
</event>
<event>
 5   0  0.1879500E-08  0.3992631E+04  0.7818609E-02  0.8006035E-01
        1   -1    0    0  501    0  0.00000000000E+00  0.00000000000E+00  0.20483033767E+04  0.20483033767E+04  0.50400001928E-02 0. -1.
       -1   -1    0    0    0  501  0.00000000000E+00  0.00000000000E+00 -0.19456466894E+04  0.19456466894E+04  0.50400001928E-02 0.  1.
    10030    2    1    2    0    0  0.00000000000E+00  0.00000000000E+00  0.10265668730E+03  0.39939500662E+04  0.39926305534E+04 0.  0.
        5    1    3    3  502    0  0.11723709096E+04 -0.11314531812E+04 -0.11025747671E+04  0.19673162069E+04  0.46999998093E+01 0.  1.
       -5    1    3    3    0  502 -0.11723709096E+04  0.11314531812E+04  0.12052314544E+04  0.20266338593E+04  0.46999998093E+01 0. -1.
</event>
<event>
 5   0  0.6161563E-08  0.3996079E+04  0.7818609E-02  0.8005338E-01
        2   -1    0    0  501    0  0.00000000000E+00  0.00000000000E+00  0.23232687282E+04  0.23232687282E+04  0.25500000920E-02 0. -1.
       -2   -1    0    0    0  501  0.00000000000E+00  0.00000000000E+00 -0.17183380432E+04  0.17183380432E+04  0.25500000920E-02 0.  1.
    10030    2    1    2    0    0  0.00000000000E+00  0.00000000000E+00  0.60493068502E+03  0.40416067714E+04  0.39960785980E+04 0.  0.
        1    1    3    3  502    0  0.12659926910E+04  0.15165880761E+04  0.60484342027E+03  0.20660620633E+04  0.50400001928E-02 0. -1.
       -1    1    3    3    0  502 -0.12659926910E+04 -0.15165880761E+04  0.87264745487E-01  0.19755447081E+04  0.50400001928E-02 0.  1.
</event>
<event>
 5   0  0.1879500E-08  0.4017521E+04  0.7818609E-02  0.8001021E-01
        1   -1    0    0  501    0  0.00000000000E+00  0.00000000000E+00  0.21407143937E+04  0.21407143937E+04  0.50400001928E-02 0.  1.
       -1   -1    0    0    0  501  0.00000000000E+00  0.00000000000E+00 -0.18849399502E+04  0.18849399502E+04  0.50400001928E-02 0. -1.
    10030    2    1    2    0    0  0.00000000000E+00  0.00000000000E+00  0.25577444356E+03  0.40256543439E+04  0.40175206696E+04 0.  0.
        1    1    3    3  502    0  0.66070152963E+03 -0.61414220812E+03 -0.16705782306E+04  0.18985596614E+04  0.50400001928E-02 0. -1.
       -1    1    3    3    0  502 -0.66070152963E+03  0.61414220812E+03  0.19263526742E+04  0.21270946825E+04  0.50400001928E-02 0.  1.
</event>
<event>
 5   0  0.1879500E-08  0.3984920E+04  0.7818609E-02  0.8007596E-01
        1   -1    0    0  501    0  0.00000000000E+00  0.00000000000E+00  0.19129580246E+04  0.19129580246E+04  0.50400001928E-02 0. -1.
       -1   -1    0    0    0  501  0.00000000000E+00  0.00000000000E+00 -0.20752659945E+04  0.20752659945E+04  0.50400001928E-02 0.  1.
    10030    2    1    2    0    0  0.00000000000E+00  0.00000000000E+00 -0.16230796993E+03  0.39882240191E+04  0.39849199426E+04 0.  0.
        2    1    3    3  502    0  0.30783901880E+03 -0.18611757851E+04  0.56059259466E+03  0.19679949750E+04  0.25500000920E-02 0. -1.
       -2    1    3    3    0  502 -0.30783901880E+03  0.18611757851E+04 -0.72290056458E+03  0.20202290441E+04  0.25500000920E-02 0.  1.
</event>
<event>
 5   0  0.5846812E-08  0.3998585E+04  0.7818609E-02  0.8004832E-01
       -2   -1    0    0    0  501  0.00000000000E+00  0.00000000000E+00  0.19893409870E+04  0.19893409870E+04  0.25500000920E-02 0.  1.
        2   -1    0    0  501    0  0.00000000000E+00  0.00000000000E+00 -0.20092938542E+04  0.20092938542E+04  0.25500000920E-02 0. -1.
    10030    2    1    2    0    0  0.00000000000E+00  0.00000000000E+00 -0.19952867174E+02  0.39986348411E+04  0.39985850592E+04 0.  0.
        4    1    3    3  502    0 -0.18489397677E+04 -0.75972574180E+03 -0.47494079687E+02  0.19995046306E+04  0.12699999809E+01 0.  1.
       -4    1    3    3    0  502  0.18489397677E+04  0.75972574180E+03  0.27541212513E+02  0.19991302105E+04  0.12699999809E+01 0. -1.
</event>
<event>
 5   0  0.5951623E-08  0.3993552E+04  0.7818609E-02  0.8005849E-01
        2   -1    0    0  501    0  0.00000000000E+00  0.00000000000E+00  0.26920028360E+04  0.26920028360E+04  0.25500000920E-02 0. -1.
       -2   -1    0    0    0  501  0.00000000000E+00  0.00000000000E+00 -0.14810960159E+04  0.14810960159E+04  0.25500000920E-02 0.  1.
    10030    2    1    2    0    0  0.00000000000E+00  0.00000000000E+00  0.12109068201E+04  0.41730988519E+04  0.39935521407E+04 0.  0.
        2    1    3    3  502    0 -0.19394448044E+04 -0.46617363577E+03  0.70094385163E+03  0.21142578582E+04  0.25500000920E-02 0. -1.
       -2    1    3    3    0  502  0.19394448044E+04  0.46617363577E+03  0.50996296850E+03  0.20588409937E+04  0.25500000920E-02 0.  1.
</event>
<event>
 5   0  0.5846812E-08  0.4002089E+04  0.7818609E-02  0.8004125E-01
        2   -1    0    0  501    0  0.00000000000E+00  0.00000000000E+00  0.30391721775E+04  0.30391721775E+04  0.25500000920E-02 0. -1.
       -2   -1    0    0    0  501  0.00000000000E+00  0.00000000000E+00 -0.13175227923E+04  0.13175227923E+04  0.25500000920E-02 0.  1.
    10030    2    1    2    0    0  0.00000000000E+00  0.00000000000E+00  0.17216493852E+04  0.43566949698E+04  0.40020887614E+04 0.  0.
        4    1    3    3  502    0 -0.15374985255E+04 -0.40779418493E+03  0.21824736370E+04  0.27006278163E+04  0.12699999809E+01 0. -1.
       -4    1    3    3    0  502  0.15374985255E+04  0.40779418493E+03 -0.46082425175E+03  0.16560671535E+04  0.12699999809E+01 0.  1.
</event>
<event>
 5   0  0.1879500E-08  0.4001504E+04  0.7818609E-02  0.8004243E-01
       -1   -1    0    0    0  501  0.00000000000E+00  0.00000000000E+00  0.19396485558E+04  0.19396485558E+04  0.50400001928E-02 0.  1.
        1   -1    0    0  501    0  0.00000000000E+00  0.00000000000E+00 -0.20637803756E+04  0.20637803756E+04  0.50400001928E-02 0. -1.
    10030    2    1    2    0    0  0.00000000000E+00  0.00000000000E+00 -0.12413181981E+03  0.40034289314E+04  0.40015040297E+04 0.  0.
        2    1    3    3  502    0  0.19019180990E+04 -0.48579466945E+03 -0.44918835430E+03  0.20137177295E+04  0.25500000920E-02 0. -1.
       -2    1    3    3    0  502 -0.19019180990E+04  0.48579466945E+03  0.32505653449E+03  0.19897112019E+04  0.25500000920E-02 0.  1.
</event>
<event>
 5   0  0.6161563E-08  0.4012153E+04  0.7818609E-02  0.8002099E-01
       -2   -1    0    0    0  501  0.00000000000E+00  0.00000000000E+00  0.26060976533E+04  0.26060976533E+04  0.25500000920E-02 0. -1.
        2   -1    0    0  501    0  0.00000000000E+00  0.00000000000E+00 -0.15442026519E+04  0.15442026520E+04  0.25500000920E-02 0.  1.
    10030    2    1    2    0    0  0.00000000000E+00  0.00000000000E+00  0.10618950014E+04  0.41503003053E+04  0.40121529918E+04 0.  0.
        1    1    3    3  502    0  0.15484977495E+04  0.12752507250E+04  0.51515027903E+03  0.20711082787E+04  0.50400001928E-02 0.  1.
       -1    1    3    3    0  502 -0.15484977495E+04 -0.12752507250E+04  0.54674472233E+03  0.20791920266E+04  0.50400001928E-02 0. -1.
</event>
<event>
 5   0  0.1879500E-08  0.4003444E+04  0.7818609E-02  0.8003852E-01
       -1   -1    0    0    0  501  0.00000000000E+00  0.00000000000E+00  0.29263506039E+04  0.29263506039E+04  0.50400001928E-02 0.  1.
        1   -1    0    0  501    0  0.00000000000E+00  0.00000000000E+00 -0.13692452727E+04  0.13692452727E+04  0.50400001928E-02 0. -1.
    10030    2    1    2    0    0  0.00000000000E+00  0.00000000000E+00  0.15571053312E+04  0.42955958767E+04  0.40034443824E+04 0.  0.
        4    1    3    3  502    0  0.58907680129E+03 -0.22091718933E+03  0.28175085328E+04  0.28868965738E+04  0.12699999809E+01 0.  1.
       -4    1    3    3    0  502 -0.58907680129E+03  0.22091718933E+03 -0.12604032016E+04  0.14086993029E+04  0.12699999809E+01 0. -1.
</event>
<event>
 5   0  0.1879500E-08  0.3986999E+04  0.7818609E-02  0.8007174E-01
       -1   -1    0    0    0  501  0.00000000000E+00  0.00000000000E+00  0.31676522711E+04  0.31676522711E+04  0.50400001928E-02 0. -1.
        1   -1    0    0  501    0  0.00000000000E+00  0.00000000000E+00 -0.12545695166E+04  0.12545695166E+04  0.50400001928E-02 0.  1.
    10030    2    1    2    0    0  0.00000000000E+00  0.00000000000E+00  0.19130827545E+04  0.44222217877E+04  0.39869988605E+04 0.  0.
        2    1    3    3  502    0  0.18343024817E+04  0.45017904304E+03  0.24918455040E+03  0.19051035944E+04  0.25500000920E-02 0.  1.
       -2    1    3    3    0  502 -0.18343024817E+04 -0.45017904304E+03  0.16638982041E+04  0.25171181933E+04  0.25500000920E-02 0. -1.
</event>
<event>
 5   0  0.1879500E-08  0.3991608E+04  0.7818609E-02  0.8006242E-01
        1   -1    0    0  501    0  0.00000000000E+00  0.00000000000E+00  0.21499174670E+04  0.21499174670E+04  0.50400001928E-02 0. -1.
       -1   -1    0    0    0  501  0.00000000000E+00  0.00000000000E+00 -0.18527375173E+04  0.18527375173E+04  0.50400001928E-02 0.  1.
    10030    2    1    2    0    0  0.00000000000E+00  0.00000000000E+00  0.29717994972E+03  0.40026549843E+04  0.39916075710E+04 0.  0.
        1    1    3    3  502    0  0.70736830891E+03 -0.47164314694E+03  0.19592495196E+04  0.21357611904E+04  0.50400001928E-02 0. -1.
       -1    1    3    3    0  502 -0.70736830891E+03  0.47164314694E+03 -0.16620695699E+04  0.18668937939E+04  0.50400001928E-02 0.  1.
</event>
<event>
 5   0  0.5846812E-08  0.3998042E+04  0.7818609E-02  0.8004942E-01
       -2   -1    0    0    0  501  0.00000000000E+00  0.00000000000E+00  0.13703489516E+04  0.13703489516E+04  0.25500000920E-02 0. -1.
        2   -1    0    0  501    0  0.00000000000E+00  0.00000000000E+00 -0.29161077979E+04  0.29161077979E+04  0.25500000920E-02 0.  1.
    10030    2    1    2    0    0  0.00000000000E+00  0.00000000000E+00 -0.15457588463E+04  0.42864567494E+04  0.39980421526E+04 0.  0.
        4    1    3    3  502    0  0.13239191961E+04 -0.12701082298E+04  0.78203564730E+02  0.18363154314E+04  0.12699999809E+01 0. -1.
       -4    1    3    3    0  502 -0.13239191961E+04  0.12701082298E+04 -0.16239624110E+04  0.24501413181E+04  0.12699999809E+01 0.  1.
</event>
<event>
 5   0  0.1879500E-08  0.3994358E+04  0.7818609E-02  0.8005686E-01
       -1   -1    0    0    0  501  0.00000000000E+00  0.00000000000E+00  0.19964539667E+04  0.19964539667E+04  0.50400001928E-02 0. -1.
        1   -1    0    0  501    0  0.00000000000E+00  0.00000000000E+00 -0.19979047672E+04  0.19979047673E+04  0.50400001928E-02 0.  1.
    10030    2    1    2    0    0  0.00000000000E+00  0.00000000000E+00 -0.14508005660E+01  0.39943587339E+04  0.39943584705E+04 0.  0.
        3    1    3    3  502    0  0.10549186017E+04 -0.13955148629E+04  0.96281495743E+03  0.19968293972E+04  0.10100000352E+00 0.  1.
       -3    1    3    3    0  502 -0.10549186017E+04  0.13955148629E+04 -0.96426575800E+03  0.19975293368E+04  0.10100000352E+00 0. -1.
</event>
<event>
 5   0  0.1879500E-08  0.3962764E+04  0.7818609E-02  0.8012101E-01
        1   -1    0    0  501    0  0.00000000000E+00  0.00000000000E+00  0.23049700756E+04  0.23049700756E+04  0.50400001928E-02 0.  1.
       -1   -1    0    0    0  501  0.00000000000E+00  0.00000000000E+00 -0.17032213859E+04  0.17032213859E+04  0.50400001928E-02 0. -1.
    10030    2    1    2    0    0  0.00000000000E+00  0.00000000000E+00  0.60174868972E+03  0.40081914616E+04  0.39627638470E+04 0.  0.
        5    1    3    3  502    0  0.26567948840E+03  0.59163557908E+03  0.21945638547E+04  0.22883948198E+04  0.46999998093E+01 0.  1.
       -5    1    3    3    0  502 -0.26567948840E+03 -0.59163557908E+03 -0.15928151650E+04  0.17197966417E+04  0.46999998093E+01 0. -1.
</event>
<event>
 5   0  0.1879500E-08  0.3993117E+04  0.7818609E-02  0.8005936E-01
       -1   -1    0    0    0  501  0.00000000000E+00  0.00000000000E+00  0.22103428883E+04  0.22103428883E+04  0.50400001928E-02 0. -1.
        1   -1    0    0  501    0  0.00000000000E+00  0.00000000000E+00 -0.18034515664E+04  0.18034515664E+04  0.50400001928E-02 0.  1.
    10030    2    1    2    0    0  0.00000000000E+00  0.00000000000E+00  0.40689132191E+03  0.40137944548E+04  0.39931172506E+04 0.  0.
        3    1    3    3  502    0 -0.26603965205E+02  0.59423189522E+03  0.21192074847E+04  0.22011041978E+04  0.10100000352E+00 0. -1.
       -3    1    3    3    0  502  0.26603965205E+02 -0.59423189522E+03 -0.17123161628E+04  0.18126902570E+04  0.10100000352E+00 0.  1.
</event>
<event>
 5   0  0.5951623E-08  0.4007590E+04  0.7818609E-02  0.8003017E-01
       -2   -1    0    0    0  501  0.00000000000E+00  0.00000000000E+00  0.15164226168E+04  0.15164226168E+04  0.25500000920E-02 0. -1.
        2   -1    0    0  501    0  0.00000000000E+00  0.00000000000E+00 -0.26478075440E+04  0.26478075440E+04  0.25500000920E-02 0.  1.
    10030    2    1    2    0    0  0.00000000000E+00  0.00000000000E+00 -0.11313849272E+04  0.41642301608E+04  0.40075904205E+04 0.  0.
        2    1    3    3  502    0  0.66344829430E+03  0.12414070179E+04 -0.20475978883E+04  0.24847358281E+04  0.25500000920E-02 0.  1.
       -2    1    3    3    0  502 -0.66344829430E+03 -0.12414070179E+04  0.91621296111E+03  0.16794943327E+04  0.25500000920E-02 0. -1.
</event>
<event>
 5   0  0.5951623E-08  0.4004074E+04  0.7818609E-02  0.8003725E-01
       -2   -1    0    0    0  501  0.00000000000E+00  0.00000000000E+00  0.16555886218E+04  0.16555886218E+04  0.25500000920E-02 0.  1.
        2   -1    0    0  501    0  0.00000000000E+00  0.00000000000E+00 -0.24209832106E+04  0.24209832106E+04  0.25500000920E-02 0. -1.
    10030    2    1    2    0    0  0.00000000000E+00  0.00000000000E+00 -0.76539458877E+03  0.40765718325E+04  0.40040740538E+04 0.  0.
        2    1    3    3  502    0  0.18087191881E+04  0.35780573194E+03  0.41159649904E+03  0.18891537051E+04  0.25500000920E-02 0.  1.
       -2    1    3    3    0  502 -0.18087191881E+04 -0.35780573194E+03 -0.11769910878E+04  0.21874181274E+04  0.25500000920E-02 0. -1.
</event>
<event>
 5   0  0.5846812E-08  0.3988128E+04  0.7818609E-02  0.8006946E-01
       -2   -1    0    0    0  501  0.00000000000E+00  0.00000000000E+00  0.13550036771E+04  0.13550036771E+04  0.25500000920E-02 0.  1.
        2   -1    0    0  501    0  0.00000000000E+00  0.00000000000E+00 -0.29345239970E+04  0.29345239970E+04  0.25500000920E-02 0. -1.
    10030    2    1    2    0    0  0.00000000000E+00  0.00000000000E+00 -0.15795203199E+04  0.42895276741E+04  0.39881277845E+04 0.  0.
        4    1    3    3  502    0 -0.60422596653E+03 -0.11502364587E+04 -0.24167440359E+04  0.27438633854E+04  0.12699999809E+01 0. -1.
       -4    1    3    3    0  502  0.60422596653E+03  0.11502364587E+04  0.83722371607E+03  0.15456642887E+04  0.12699999809E+01 0.  1.
</event>
<event>
 5   0  0.1879500E-08  0.3952534E+04  0.7818609E-02  0.8014191E-01
        1   -1    0    0  501    0  0.00000000000E+00  0.00000000000E+00  0.18180026291E+04  0.18180026291E+04  0.50400001928E-02 0.  1.
       -1   -1    0    0    0  501  0.00000000000E+00  0.00000000000E+00 -0.21483088853E+04  0.21483088853E+04  0.50400001928E-02 0. -1.
    10030    2    1    2    0    0  0.00000000000E+00  0.00000000000E+00 -0.33030625616E+03  0.39663115144E+04  0.39525339728E+04 0.  0.
        3    1    3    3  502    0 -0.86268271036E+03 -0.15817204523E+04 -0.98012328060E+03  0.20510247934E+04  0.10100000352E+00 0.  1.
       -3    1    3    3    0  502  0.86268271036E+03  0.15817204523E+04  0.64981702444E+03  0.19152867209E+04  0.10100000352E+00 0. -1.
</event>
<event>
 5   0  0.1879500E-08  0.4218804E+04  0.7818609E-02  0.7961805E-01
       -1   -1    0    0    0  501  0.00000000000E+00  0.00000000000E+00  0.19181904251E+04  0.19181904251E+04  0.50400001928E-02 0.  1.
        1   -1    0    0  501    0  0.00000000000E+00  0.00000000000E+00 -0.23196737891E+04  0.23196737891E+04  0.50400001928E-02 0. -1.
    10030    2    1    2    0    0  0.00000000000E+00  0.00000000000E+00 -0.40148336402E+03  0.42378642142E+04  0.42188036464E+04 0.  0.
        4    1    3    3  502    0 -0.15228714687E+04 -0.14446440712E+04  0.86236706259E+01  0.20990974211E+04  0.12699999809E+01 0.  1.
       -4    1    3    3    0  502  0.15228714687E+04  0.14446440712E+04 -0.41010703465E+03  0.21387667931E+04  0.12699999809E+01 0. -1.
</event>
<event>
 5   0  0.5888700E-08  0.3998536E+04  0.7818609E-02  0.8004842E-01
        2   -1    0    0  501    0  0.00000000000E+00  0.00000000000E+00  0.22547270765E+04  0.22547270765E+04  0.25500000920E-02 0.  1.
       -2   -1    0    0    0  501  0.00000000000E+00  0.00000000000E+00 -0.17727520337E+04  0.17727520337E+04  0.25500000920E-02 0. -1.
    10030    2    1    2    0    0  0.00000000000E+00  0.00000000000E+00  0.48197504279E+03  0.40274791102E+04  0.39985357372E+04 0.  0.
        5    1    3    3  502    0 -0.79805373910E+03 -0.50224312061E+03  0.20166755677E+04  0.22262390613E+04  0.46999998093E+01 0.  1.
       -5    1    3    3    0  502  0.79805373910E+03  0.50224312061E+03 -0.15347005249E+04  0.18012400489E+04  0.46999998093E+01 0. -1.
</event>
<event>
 5   0  0.1879500E-08  0.4065955E+04  0.7818609E-02  0.7991372E-01
        1   -1    0    0  501    0  0.00000000000E+00  0.00000000000E+00  0.24312424970E+04  0.24312424970E+04  0.50400001928E-02 0. -1.
       -1   -1    0    0    0  501  0.00000000000E+00  0.00000000000E+00 -0.16999528189E+04  0.16999528189E+04  0.50400001928E-02 0.  1.
    10030    2    1    2    0    0  0.00000000000E+00  0.00000000000E+00  0.73128967811E+03  0.41311953159E+04  0.40659550101E+04 0.  0.
        5    1    3    3  502    0  0.10284659765E+04  0.14214508068E+04 -0.67782488544E+03  0.18808863140E+04  0.46999998093E+01 0.  1.
       -5    1    3    3    0  502 -0.10284659765E+04 -0.14214508068E+04  0.14091145636E+04  0.22503090019E+04  0.46999998093E+01 0. -1.
</event>
<event>
 5   0  0.1879500E-08  0.3974035E+04  0.7818609E-02  0.8009805E-01
       -1   -1    0    0    0  501  0.00000000000E+00  0.00000000000E+00  0.19783194584E+04  0.19783194584E+04  0.50400001928E-02 0. -1.
        1   -1    0    0  501    0  0.00000000000E+00  0.00000000000E+00 -0.19957533487E+04  0.19957533487E+04  0.50400001928E-02 0.  1.
    10030    2    1    2    0    0  0.00000000000E+00  0.00000000000E+00 -0.17433890301E+02  0.39740728070E+04  0.39740345664E+04 0.  0.
        2    1    3    3  502    0 -0.19463392534E+04  0.25911646519E+03  0.29601513216E+03  0.19856995720E+04  0.25500000920E-02 0. -1.
       -2    1    3    3    0  502  0.19463392534E+04 -0.25911646519E+03 -0.31344902246E+03  0.19883732350E+04  0.25500000920E-02 0.  1.
</event>
<event>
 5   0  0.5945387E-08  0.3973576E+04  0.7818609E-02  0.8009898E-01
        2   -1    0    0  501    0  0.00000000000E+00  0.00000000000E+00  0.23385540652E+04  0.23385540652E+04  0.25500000920E-02 0.  1.
       -2   -1    0    0    0  501  0.00000000000E+00  0.00000000000E+00 -0.16879347963E+04  0.16879347963E+04  0.25500000920E-02 0. -1.
    10030    2    1    2    0    0  0.00000000000E+00  0.00000000000E+00  0.65061926887E+03  0.40264888615E+04  0.39735761121E+04 0.  0.
        3    1    3    3  502    0 -0.77008123799E+03 -0.55736490103E+03  0.20931458932E+04  0.22988998426E+04  0.10100000352E+00 0.  1.
       -3    1    3    3    0  502  0.77008123799E+03  0.55736490103E+03 -0.14425266243E+04  0.17275890189E+04  0.10100000352E+00 0. -1.
</event>
<event>
 5   0  0.1879500E-08  0.4026234E+04  0.7818609E-02  0.7999275E-01
        1   -1    0    0  501    0  0.00000000000E+00  0.00000000000E+00  0.21842755285E+04  0.21842755285E+04  0.50400001928E-02 0.  1.
       -1   -1    0    0    0  501  0.00000000000E+00  0.00000000000E+00 -0.18553699435E+04  0.18553699435E+04  0.50400001928E-02 0. -1.
    10030    2    1    2    0    0  0.00000000000E+00  0.00000000000E+00  0.32890558507E+03  0.40396454720E+04  0.40262335570E+04 0.  0.
        3    1    3    3  502    0  0.25071573267E+03  0.46956645326E+03 -0.17834799420E+04  0.18612231856E+04  0.10100000352E+00 0. -1.
       -3    1    3    3    0  502 -0.25071573267E+03 -0.46956645326E+03  0.21123855271E+04  0.21784222864E+04  0.10100000352E+00 0.  1.
</event>
<event>
 5   0  0.1879500E-08  0.3804959E+04  0.7818609E-02  0.8045091E-01
        1   -1    0    0  501    0  0.00000000000E+00  0.00000000000E+00  0.21464954742E+04  0.21464954742E+04  0.50400001928E-02 0. -1.
       -1   -1    0    0    0  501  0.00000000000E+00  0.00000000000E+00 -0.16862038136E+04  0.16862038136E+04  0.50400001928E-02 0.  1.
    10030    2    1    2    0    0  0.00000000000E+00  0.00000000000E+00  0.46029166066E+03  0.38326992878E+04  0.38049593188E+04 0.  0.
        3    1    3    3  502    0  0.43502522361E+02 -0.50438699096E+03 -0.16171079527E+04  0.16945019466E+04  0.10100000352E+00 0.  1.
       -3    1    3    3    0  502 -0.43502522361E+02  0.50438699096E+03  0.20773996134E+04  0.21381973412E+04  0.10100000352E+00 0. -1.
</event>
<event>
 5   0  0.1879500E-08  0.4008674E+04  0.7818609E-02  0.8002799E-01
        1   -1    0    0  501    0  0.00000000000E+00  0.00000000000E+00  0.19488821577E+04  0.19488821577E+04  0.50400001928E-02 0. -1.
       -1   -1    0    0    0  501  0.00000000000E+00  0.00000000000E+00 -0.20613699886E+04  0.20613699886E+04  0.50400001928E-02 0.  1.
    10030    2    1    2    0    0  0.00000000000E+00  0.00000000000E+00 -0.11248783084E+03  0.40102521463E+04  0.40086741904E+04 0.  0.
        3    1    3    3  502    0  0.66187876487E+03  0.98025262937E+03  0.15625365671E+04  0.19597191764E+04  0.10100000352E+00 0. -1.
       -3    1    3    3    0  502 -0.66187876487E+03 -0.98025262937E+03 -0.16750243979E+04  0.20505329699E+04  0.10100000352E+00 0.  1.
</event>
<event>
 5   0  0.1879500E-08  0.4040001E+04  0.7818609E-02  0.7996525E-01
        4   -1    0    0  501    0  0.00000000000E+00  0.00000000000E+00  0.19543361047E+04  0.19543365173E+04  0.12699999809E+01 0.  1.
       -4   -1    0    0    0  501  0.00000000000E+00  0.00000000000E+00 -0.20878701224E+04  0.20878705087E+04  0.12699999809E+01 0. -1.
    10030    2    1    2    0    0  0.00000000000E+00  0.00000000000E+00 -0.13353401774E+03  0.40422070260E+04  0.40400007806E+04 0.  0.
        2    1    3    3  502    0  0.18838067064E+04 -0.12016154581E+03 -0.78635032675E+03  0.20448748961E+04  0.25500000920E-02 0. -1.
       -2    1    3    3    0  502 -0.18838067064E+04  0.12016154581E+03  0.65281630901E+03  0.19973321300E+04  0.25500000920E-02 0.  1.
</event>
<event>
 5   0  0.1879500E-08  0.3911364E+04  0.7818609E-02  0.8022670E-01
       -1   -1    0    0    0  501  0.00000000000E+00  0.00000000000E+00  0.13887634280E+04  0.13887634280E+04  0.50400001928E-02 0. -1.
        1   -1    0    0  501    0  0.00000000000E+00  0.00000000000E+00 -0.27540268129E+04  0.27540268129E+04  0.50400001928E-02 0.  1.
    10030    2    1    2    0    0  0.00000000000E+00  0.00000000000E+00 -0.13652633849E+04  0.41427902409E+04  0.39113638120E+04 0.  0.
        4    1    3    3  502    0  0.34560970141E+03  0.11362914356E+04 -0.23282953676E+04  0.26137263100E+04  0.12699999809E+01 0. -1.
       -4    1    3    3    0  502 -0.34560970141E+03 -0.11362914356E+04  0.96303198264E+03  0.15290639309E+04  0.12699999809E+01 0.  1.
</event>
<event>
 5   0  0.1879500E-08  0.3788524E+04  0.7818609E-02  0.8048622E-01
        1   -1    0    0  501    0  0.00000000000E+00  0.00000000000E+00  0.19323704742E+04  0.19323704742E+04  0.50400001928E-02 0.  1.
       -1   -1    0    0    0  501  0.00000000000E+00  0.00000000000E+00 -0.18569052796E+04  0.18569052796E+04  0.50400001928E-02 0. -1.
    10030    2    1    2    0    0  0.00000000000E+00  0.00000000000E+00  0.75465194628E+02  0.37892757538E+04  0.37885242170E+04 0.  0.
        4    1    3    3  502    0  0.36130116815E+03  0.47180980581E+03 -0.17612582094E+04  0.18588101356E+04  0.12699999809E+01 0. -1.
       -4    1    3    3    0  502 -0.36130116815E+03 -0.47180980581E+03  0.18367234041E+04  0.19304656182E+04  0.12699999809E+01 0.  1.
</event>
<event>
 5   0  0.5945387E-08  0.4015868E+04  0.7818609E-02  0.8001353E-01
       -2   -1    0    0    0  501  0.00000000000E+00  0.00000000000E+00  0.25865145013E+04  0.25865145013E+04  0.25500000920E-02 0.  1.
        2   -1    0    0  501    0  0.00000000000E+00  0.00000000000E+00 -0.15587767003E+04  0.15587767003E+04  0.25500000920E-02 0. -1.
    10030    2    1    2    0    0  0.00000000000E+00  0.00000000000E+00  0.10277378010E+04  0.41452912016E+04  0.40158677964E+04 0.  0.
        3    1    3    3  502    0 -0.19503756738E+04 -0.14860075497E+03  0.45652421226E+02  0.19565611688E+04  0.10100000352E+00 0. -1.
       -3    1    3    3    0  502  0.19503756738E+04  0.14860075497E+03  0.98208537976E+03  0.21887300328E+04  0.10100000352E+00 0.  1.
</event>
<event>
 5   0  0.5846812E-08  0.3980080E+04  0.7818609E-02  0.8008577E-01
        2   -1    0    0  501    0  0.00000000000E+00  0.00000000000E+00  0.27933206233E+04  0.27933206233E+04  0.25500000920E-02 0. -1.
       -2   -1    0    0    0  501  0.00000000000E+00  0.00000000000E+00 -0.14177600427E+04  0.14177600427E+04  0.25500000920E-02 0.  1.
    10030    2    1    2    0    0  0.00000000000E+00  0.00000000000E+00  0.13755605805E+04  0.42110806660E+04  0.39800795802E+04 0.  0.
        4    1    3    3  502    0  0.11740962704E+04  0.14979349360E+04  0.72709331724E+02  0.19046257859E+04  0.12699999809E+01 0.  1.
       -4    1    3    3    0  502 -0.11740962704E+04 -0.14979349360E+04  0.13028512488E+04  0.23064548801E+04  0.12699999809E+01 0. -1.
</event>
<event>
 5   0  0.5846812E-08  0.3993090E+04  0.7818609E-02  0.8005942E-01
        2   -1    0    0  501    0  0.00000000000E+00  0.00000000000E+00  0.19128124355E+04  0.19128124356E+04  0.25500000920E-02 0. -1.
       -2   -1    0    0    0  501  0.00000000000E+00  0.00000000000E+00 -0.20839425841E+04  0.20839425841E+04  0.25500000920E-02 0.  1.
    10030    2    1    2    0    0  0.00000000000E+00  0.00000000000E+00 -0.17113014859E+03  0.39967550197E+04  0.39930896759E+04 0.  0.
        4    1    3    3  502    0  0.23774224848E+03  0.16809869436E+04 -0.11372203445E+04  0.20434065201E+04  0.12699999809E+01 0.  1.
       -4    1    3    3    0  502 -0.23774224848E+03 -0.16809869436E+04  0.96609019593E+03  0.19533484996E+04  0.12699999809E+01 0. -1.
</event>
<event>
 5   0  0.1879500E-08  0.3989284E+04  0.7818609E-02  0.8006712E-01
        1   -1    0    0  501    0  0.00000000000E+00  0.00000000000E+00  0.18419871948E+04  0.18419871948E+04  0.50400001928E-02 0.  1.
       -1   -1    0    0    0  501  0.00000000000E+00  0.00000000000E+00 -0.21599482089E+04  0.21599482089E+04  0.50400001928E-02 0. -1.
    10030    2    1    2    0    0  0.00000000000E+00  0.00000000000E+00 -0.31796101412E+03  0.40019354037E+04  0.39892841174E+04 0.  0.
        5    1    3    3  502    0  0.10667283149E+04 -0.10291335974E+04  0.11799994141E+04  0.18945833226E+04  0.46999998093E+01 0. -1.
       -5    1    3    3    0  502 -0.10667283149E+04  0.10291335974E+04 -0.14979604282E+04  0.21073520811E+04  0.46999998093E+01 0.  1.
</event>
<event>
 5   0  0.1879500E-08  0.4187415E+04  0.7818609E-02  0.7967771E-01
        1   -1    0    0  501    0  0.00000000000E+00  0.00000000000E+00  0.17274516733E+04  0.17274516733E+04  0.50400001928E-02 0. -1.
       -1   -1    0    0    0  501  0.00000000000E+00  0.00000000000E+00 -0.25376167552E+04  0.25376167552E+04  0.50400001928E-02 0.  1.
    10030    2    1    2    0    0  0.00000000000E+00  0.00000000000E+00 -0.81016508193E+03  0.42650684285E+04  0.41874146248E+04 0.  0.
        3    1    3    3  502    0  0.80302240026E+03  0.19055966550E+04 -0.73898300361E+03  0.21959598076E+04  0.10100000352E+00 0.  1.
       -3    1    3    3    0  502 -0.80302240026E+03 -0.19055966550E+04 -0.71182078323E+02  0.20691086209E+04  0.10100000352E+00 0. -1.
</event>
<event>
 5   0  0.5846812E-08  0.3984109E+04  0.7818609E-02  0.8007760E-01
       -2   -1    0    0    0  501  0.00000000000E+00  0.00000000000E+00  0.12129964499E+04  0.12129964499E+04  0.25500000920E-02 0. -1.
        2   -1    0    0  501    0  0.00000000000E+00  0.00000000000E+00 -0.32714702341E+04  0.32714702341E+04  0.25500000920E-02 0.  1.
    10030    2    1    2    0    0  0.00000000000E+00  0.00000000000E+00 -0.20584737842E+04  0.44844666840E+04  0.39841093257E+04 0.  0.
        4    1    3    3  502    0 -0.41148389913E+03  0.59970232411E+03  0.10582114622E+04  0.12840463342E+04  0.12699999809E+01 0. -1.
       -4    1    3    3    0  502  0.41148389913E+03 -0.59970232411E+03 -0.31166852464E+04  0.32004203497E+04  0.12699999809E+01 0.  1.
</event>
<event>
 5   0  0.5888700E-08  0.3987189E+04  0.7818609E-02  0.8007136E-01
       -2   -1    0    0    0  501  0.00000000000E+00  0.00000000000E+00  0.29614089873E+04  0.29614089873E+04  0.25500000920E-02 0.  1.
        2   -1    0    0  501    0  0.00000000000E+00  0.00000000000E+00 -0.13420706186E+04  0.13420706187E+04  0.25500000920E-02 0. -1.
    10030    2    1    2    0    0  0.00000000000E+00  0.00000000000E+00  0.16193383687E+04  0.43034796060E+04  0.39871894822E+04 0.  0.
        5    1    3    3  502    0 -0.18607622479E+04  0.45411108404E+03  0.14064742106E+04  0.23763090739E+04  0.46999998093E+01 0. -1.
       -5    1    3    3    0  502  0.18607622479E+04 -0.45411108404E+03  0.21286415811E+03  0.19271705321E+04  0.46999998093E+01 0.  1.
</event>
<event>
 5   0  0.1879500E-08  0.4010781E+04  0.7818609E-02  0.8002375E-01
        1   -1    0    0  501    0  0.00000000000E+00  0.00000000000E+00  0.15478365369E+04  0.15478365369E+04  0.50400001928E-02 0. -1.
       -1   -1    0    0    0  501  0.00000000000E+00  0.00000000000E+00 -0.25982014244E+04  0.25982014244E+04  0.50400001928E-02 0.  1.
    10030    2    1    2    0    0  0.00000000000E+00  0.00000000000E+00 -0.10503648875E+04  0.41460379612E+04  0.40107810186E+04 0.  0.
        5    1    3    3  502    0  0.82230291584E+03 -0.93914044583E+03  0.10972700177E+04  0.16619838881E+04  0.46999998093E+01 0. -1.
       -5    1    3    3    0  502 -0.82230291584E+03  0.93914044583E+03 -0.21476349052E+04  0.24840540732E+04  0.46999998093E+01 0.  1.
</event>
<event>
 5   0  0.1879500E-08  0.4029653E+04  0.7818609E-02  0.7998591E-01
       -1   -1    0    0    0  501  0.00000000000E+00  0.00000000000E+00  0.21650317048E+04  0.21650317048E+04  0.50400001928E-02 0.  1.
        1   -1    0    0  501    0  0.00000000000E+00  0.00000000000E+00 -0.18750426040E+04  0.18750426040E+04  0.50400001928E-02 0. -1.
    10030    2    1    2    0    0  0.00000000000E+00  0.00000000000E+00  0.28998910078E+03  0.40400743088E+04  0.40296534270E+04 0.  0.
        3    1    3    3  502    0 -0.14021978076E+03 -0.19079200350E+03  0.21510345750E+04  0.21640270166E+04  0.10100000352E+00 0.  1.
       -3    1    3    3    0  502  0.14021978076E+03  0.19079200350E+03 -0.18610454742E+04  0.18760472922E+04  0.10100000352E+00 0. -1.
</event>
<event>
 5   0  0.5951623E-08  0.4134150E+04  0.7818609E-02  0.7978018E-01
       -2   -1    0    0    0  501  0.00000000000E+00  0.00000000000E+00  0.23995218868E+04  0.23995218868E+04  0.25500000920E-02 0.  1.
        2   -1    0    0  501    0  0.00000000000E+00  0.00000000000E+00 -0.17806875500E+04  0.17806875500E+04  0.25500000920E-02 0. -1.
    10030    2    1    2    0    0  0.00000000000E+00  0.00000000000E+00  0.61883433675E+03  0.41802094368E+04  0.41341498521E+04 0.  0.
        2    1    3    3  502    0  0.44839175863E+03 -0.84176926913E+03  0.21637432757E+04  0.23646174394E+04  0.25500000920E-02 0.  1.
       -2    1    3    3    0  502 -0.44839175863E+03  0.84176926913E+03 -0.15449089389E+04  0.18155919974E+04  0.25500000920E-02 0. -1.
</event>
<event>
 5   0  0.5888700E-08  0.4009474E+04  0.7818609E-02  0.8002638E-01
       -2   -1    0    0    0  501  0.00000000000E+00  0.00000000000E+00  0.14793213406E+04  0.14793213406E+04  0.25500000920E-02 0.  1.
        2   -1    0    0  501    0  0.00000000000E+00  0.00000000000E+00 -0.27167666035E+04  0.27167666035E+04  0.25500000920E-02 0. -1.
    10030    2    1    2    0    0  0.00000000000E+00  0.00000000000E+00 -0.12374452630E+04  0.41960879441E+04  0.40094741869E+04 0.  0.
        5    1    3    3  502    0  0.12986483068E+04  0.12787551898E+04 -0.14925996538E+04  0.23557542479E+04  0.46999998093E+01 0.  1.
       -5    1    3    3    0  502 -0.12986483068E+04 -0.12787551898E+04  0.25515439083E+03  0.18403336962E+04  0.46999998093E+01 0. -1.
</event>
<event>
 5   0  0.6161563E-08  0.4008018E+04  0.7818609E-02  0.8002931E-01
       -2   -1    0    0    0  501  0.00000000000E+00  0.00000000000E+00  0.29172096769E+04  0.29172096769E+04  0.25500000920E-02 0. -1.
        2   -1    0    0  501    0  0.00000000000E+00  0.00000000000E+00 -0.13766760658E+04  0.13766760658E+04  0.25500000920E-02 0.  1.
    10030    2    1    2    0    0  0.00000000000E+00  0.00000000000E+00  0.15405336111E+04  0.42938857428E+04  0.40080183339E+04 0.  0.
        1    1    3    3  502    0  0.91377662709E+03 -0.99913816895E+03 -0.81253507278E+03  0.15790750614E+04  0.50400001928E-02 0.  1.
       -1    1    3    3    0  502 -0.91377662709E+03  0.99913816895E+03  0.23530686839E+04  0.27148106814E+04  0.50400001928E-02 0. -1.
</event>
<event>
 5   0  0.5846812E-08  0.4004445E+04  0.7818609E-02  0.8003651E-01
       -2   -1    0    0    0  501  0.00000000000E+00  0.00000000000E+00  0.16301205653E+04  0.16301205654E+04  0.25500000920E-02 0.  1.
        2   -1    0    0  501    0  0.00000000000E+00  0.00000000000E+00 -0.24592623923E+04  0.24592623923E+04  0.25500000920E-02 0. -1.
    10030    2    1    2    0    0  0.00000000000E+00  0.00000000000E+00 -0.82914182690E+03  0.40893829576E+04  0.40044446313E+04 0.  0.
        4    1    3    3  502    0  0.45680491396E+03 -0.14124792877E+04 -0.17866180265E+04  0.23228805508E+04  0.12699999809E+01 0. -1.
       -4    1    3    3    0  502 -0.45680491396E+03  0.14124792877E+04  0.95747619963E+03  0.17665024068E+04  0.12699999809E+01 0.  1.
</event>
<event>
 5   0  0.5888700E-08  0.3922869E+04  0.7818609E-02  0.8020290E-01
       -2   -1    0    0    0  501  0.00000000000E+00  0.00000000000E+00  0.20456896982E+04  0.20456896982E+04  0.25500000920E-02 0. -1.
        2   -1    0    0  501    0  0.00000000000E+00  0.00000000000E+00 -0.18806496661E+04  0.18806496661E+04  0.25500000920E-02 0.  1.
    10030    2    1    2    0    0  0.00000000000E+00  0.00000000000E+00  0.16504003213E+03  0.39263393643E+04  0.39228691785E+04 0.  0.
        5    1    3    3  502    0 -0.19516134383E+04 -0.17555247944E+03  0.16971695534E+03  0.19668349246E+04  0.46999998093E+01 0. -1.
       -5    1    3    3    0  502  0.19516134383E+04  0.17555247944E+03 -0.46769232084E+01  0.19595044397E+04  0.46999998093E+01 0.  1.
</event>
<event>
 5   0  0.5945387E-08  0.4035923E+04  0.7818609E-02  0.7997339E-01
        2   -1    0    0  501    0  0.00000000000E+00  0.00000000000E+00  0.21153328484E+04  0.21153328484E+04  0.25500000920E-02 0.  1.
       -2   -1    0    0    0  501  0.00000000000E+00  0.00000000000E+00 -0.19250724347E+04  0.19250724347E+04  0.25500000920E-02 0. -1.
    10030    2    1    2    0    0  0.00000000000E+00  0.00000000000E+00  0.19026041365E+03  0.40404052831E+04  0.40359231691E+04 0.  0.
        3    1    3    3  502    0 -0.79342836420E+03  0.92842150521E+02  0.19502992785E+04  0.21075615103E+04  0.10100000352E+00 0.  1.
       -3    1    3    3    0  502  0.79342836420E+03 -0.92842150521E+02 -0.17600388648E+04  0.19328437728E+04  0.10100000352E+00 0. -1.
</event>
<event>
 5   0  0.1879500E-08  0.3985924E+04  0.7818609E-02  0.8007392E-01
        1   -1    0    0  501    0  0.00000000000E+00  0.00000000000E+00  0.19296538356E+04  0.19296538356E+04  0.50400001928E-02 0. -1.
       -1   -1    0    0    0  501  0.00000000000E+00  0.00000000000E+00 -0.20583471187E+04  0.20583471187E+04  0.50400001928E-02 0.  1.
    10030    2    1    2    0    0  0.00000000000E+00  0.00000000000E+00 -0.12869328308E+03  0.39880009543E+04  0.39859239394E+04 0.  0.
        4    1    3    3  502    0 -0.36066997357E+03  0.19598376824E+04 -0.93503351943E+02  0.19949413678E+04  0.12699999809E+01 0.  1.
       -4    1    3    3    0  502  0.36066997357E+03 -0.19598376824E+04 -0.35189931135E+02  0.19930595865E+04  0.12699999809E+01 0. -1.
</event>
<event>
 5   0  0.5888700E-08  0.3989345E+04  0.7818609E-02  0.8006699E-01
       -2   -1    0    0    0  501  0.00000000000E+00  0.00000000000E+00  0.14929834465E+04  0.14929834465E+04  0.25500000920E-02 0.  1.
        2   -1    0    0  501    0  0.00000000000E+00  0.00000000000E+00 -0.26649444832E+04  0.26649444832E+04  0.25500000920E-02 0. -1.
    10030    2    1    2    0    0  0.00000000000E+00  0.00000000000E+00 -0.11719610367E+04  0.41579279297E+04  0.39893448080E+04 0.  0.
        5    1    3    3  502    0  0.91106655043E+03 -0.13621727812E+02 -0.24353557247E+04  0.26002321832E+04  0.46999998093E+01 0. -1.
       -5    1    3    3    0  502 -0.91106655043E+03  0.13621727812E+02  0.12633946880E+04  0.15576957464E+04  0.46999998093E+01 0.  1.
</event>
<event>
 5   0  0.1879500E-08  0.3993705E+04  0.7818609E-02  0.8005818E-01
        1   -1    0    0  501    0  0.00000000000E+00  0.00000000000E+00  0.20513918475E+04  0.20513918475E+04  0.50400001928E-02 0.  1.
       -1   -1    0    0    0  501  0.00000000000E+00  0.00000000000E+00 -0.19437627271E+04  0.19437627271E+04  0.50400001928E-02 0. -1.
    10030    2    1    2    0    0  0.00000000000E+00  0.00000000000E+00  0.10762912034E+03  0.39951545746E+04  0.39937045518E+04 0.  0.
        5    1    3    3  502    0  0.17596951196E+04  0.94342297811E+03  0.82514564208E+02  0.19983504629E+04  0.46999998093E+01 0. -1.
       -5    1    3    3    0  502 -0.17596951196E+04 -0.94342297811E+03  0.25114556129E+02  0.19968041117E+04  0.46999998093E+01 0.  1.
</event>
<event>
 5   0  0.1879500E-08  0.4030648E+04  0.7818609E-02  0.7998392E-01
        1   -1    0    0  501    0  0.00000000000E+00  0.00000000000E+00  0.29826286402E+04  0.29826286402E+04  0.50400001928E-02 0. -1.
       -1   -1    0    0    0  501  0.00000000000E+00  0.00000000000E+00 -0.13617286514E+04  0.13617286514E+04  0.50400001928E-02 0.  1.
    10030    2    1    2    0    0  0.00000000000E+00  0.00000000000E+00  0.16208999888E+04  0.43443572916E+04  0.40306480252E+04 0.  0.
        5    1    3    3  502    0  0.92366151608E+03  0.17567489823E+04  0.43368492605E+03  0.20316058397E+04  0.46999998093E+01 0.  1.
       -5    1    3    3    0  502 -0.92366151608E+03 -0.17567489823E+04  0.11872150628E+04  0.23127514519E+04  0.46999998093E+01 0. -1.
</event>
<event>
 5   0  0.1879500E-08  0.3989693E+04  0.7818609E-02  0.8006629E-01
        1   -1    0    0  501    0  0.00000000000E+00  0.00000000000E+00  0.22722996147E+04  0.22722996147E+04  0.50400001928E-02 0.  1.
       -1   -1    0    0    0  501  0.00000000000E+00  0.00000000000E+00 -0.17512713261E+04  0.17512713261E+04  0.50400001928E-02 0. -1.
    10030    2    1    2    0    0  0.00000000000E+00  0.00000000000E+00  0.52102828864E+03  0.40235709408E+04  0.39896933013E+04 0.  0.
        5    1    3    3  502    0 -0.50726306657E+03 -0.15169127737E+04  0.14627148166E+04  0.21674632422E+04  0.46999998093E+01 0. -1.
       -5    1    3    3    0  502  0.50726306657E+03  0.15169127737E+04 -0.94168652799E+03  0.18561076986E+04  0.46999998093E+01 0.  1.
</event>
<event>
 5   0  0.1879500E-08  0.4014346E+04  0.7818609E-02  0.8001659E-01
       -1   -1    0    0    0  501  0.00000000000E+00  0.00000000000E+00  0.21136768322E+04  0.21136768322E+04  0.50400001928E-02 0. -1.
        1   -1    0    0  501    0  0.00000000000E+00  0.00000000000E+00 -0.19060359163E+04  0.19060359163E+04  0.50400001928E-02 0.  1.
    10030    2    1    2    0    0  0.00000000000E+00  0.00000000000E+00  0.20764091597E+03  0.40197127485E+04  0.40143462520E+04 0.  0.
        1    1    3    3  502    0  0.77742412533E+03 -0.18383343204E+04 -0.10831792730E+03  0.19988982259E+04  0.50400001928E-02 0.  1.
       -1    1    3    3    0  502 -0.77742412533E+03  0.18383343204E+04  0.31595884326E+03  0.20208145226E+04  0.50400001928E-02 0. -1.
</event>
<event>
 5   0  0.5945387E-08  0.3997419E+04  0.7818609E-02  0.8005067E-01
       -2   -1    0    0    0  501  0.00000000000E+00  0.00000000000E+00  0.29181970918E+04  0.29181970918E+04  0.25500000920E-02 0.  1.
        2   -1    0    0  501    0  0.00000000000E+00  0.00000000000E+00 -0.13689409398E+04  0.13689409398E+04  0.25500000920E-02 0. -1.
    10030    2    1    2    0    0  0.00000000000E+00  0.00000000000E+00  0.15492561519E+04  0.42871380316E+04  0.39974189019E+04 0.  0.
        3    1    3    3  502    0 -0.10552401475E+04 -0.10167263525E+04 -0.68314145455E+03  0.16167703924E+04  0.10100000352E+00 0. -1.
       -3    1    3    3    0  502  0.10552401475E+04  0.10167263525E+04  0.22323976065E+04  0.26703676392E+04  0.10100000352E+00 0.  1.
</event>
<event>
 5   0  0.5888700E-08  0.3996302E+04  0.7818609E-02  0.8005293E-01
       -2   -1    0    0    0  501  0.00000000000E+00  0.00000000000E+00  0.19982082037E+04  0.19982082037E+04  0.25500000920E-02 0. -1.
        2   -1    0    0  501    0  0.00000000000E+00  0.00000000000E+00 -0.19980942372E+04  0.19980942372E+04  0.25500000920E-02 0.  1.
    10030    2    1    2    0    0  0.00000000000E+00  0.00000000000E+00  0.11396648969E+00  0.39963024409E+04  0.39963024393E+04 0.  0.
        5    1    3    3  502    0 -0.39548677530E+03 -0.14008896173E+04  0.13688830126E+04  0.19981902566E+04  0.46999998093E+01 0. -1.
       -5    1    3    3    0  502  0.39548677530E+03  0.14008896173E+04 -0.13687690461E+04  0.19981121843E+04  0.46999998093E+01 0.  1.
</event>
<event>
 5   0  0.1879500E-08  0.3969770E+04  0.7818609E-02  0.8010673E-01
       -1   -1    0    0    0  501  0.00000000000E+00  0.00000000000E+00  0.12474543053E+04  0.12474543053E+04  0.50400001928E-02 0.  1.
        1   -1    0    0  501    0  0.00000000000E+00  0.00000000000E+00 -0.31582469228E+04  0.31582469228E+04  0.50400001928E-02 0. -1.
    10030    2    1    2    0    0  0.00000000000E+00  0.00000000000E+00 -0.19107926175E+04  0.44057012281E+04  0.39697701299E+04 0.  0.
        4    1    3    3  502    0  0.16330846075E+04 -0.43405044213E+03  0.20030295025E+03  0.17016133540E+04  0.12699999809E+01 0.  1.
       -4    1    3    3    0  502 -0.16330846075E+04  0.43405044213E+03 -0.21110955677E+04  0.27040878741E+04  0.12699999809E+01 0. -1.
</event>
<event>
 5   0  0.5951623E-08  0.4046286E+04  0.7818609E-02  0.7995274E-01
        2   -1    0    0  501    0  0.00000000000E+00  0.00000000000E+00  0.13868619654E+04  0.13868619654E+04  0.25500000920E-02 0.  1.
       -2   -1    0    0    0  501  0.00000000000E+00  0.00000000000E+00 -0.29513441698E+04  0.29513441698E+04  0.25500000920E-02 0. -1.
    10030    2    1    2    0    0  0.00000000000E+00  0.00000000000E+00 -0.15644822044E+04  0.43382061351E+04  0.40462856922E+04 0.  0.
        2    1    3    3  502    0 -0.13382858250E+04  0.13982705743E+04 -0.14137496276E+04  0.23968432484E+04  0.25500000920E-02 0. -1.
       -2    1    3    3    0  502  0.13382858250E+04 -0.13982705743E+04 -0.15073257681E+03  0.19413628867E+04  0.25500000920E-02 0.  1.
</event>
<event>
 5   0  0.5951623E-08  0.4018602E+04  0.7818609E-02  0.8000805E-01
       -2   -1    0    0    0  501  0.00000000000E+00  0.00000000000E+00  0.11157105461E+04  0.11157105461E+04  0.25500000920E-02 0.  1.
        2   -1    0    0  501    0  0.00000000000E+00  0.00000000000E+00 -0.36185816030E+04  0.36185816030E+04  0.25500000920E-02 0. -1.
    10030    2    1    2    0    0  0.00000000000E+00  0.00000000000E+00 -0.25028710568E+04  0.47342921491E+04  0.40186015759E+04 0.  0.
        2    1    3    3  502    0 -0.38213714392E+03 -0.10067689413E+04 -0.32499216605E+04  0.34236827098E+04  0.25500000920E-02 0. -1.
       -2    1    3    3    0  502  0.38213714392E+03  0.10067689413E+04  0.74705060366E+03  0.13106094393E+04  0.25500000920E-02 0.  1.
</event>
<event>
 5   0  0.1879500E-08  0.4015417E+04  0.7818609E-02  0.8001444E-01
        1   -1    0    0  501    0  0.00000000000E+00  0.00000000000E+00  0.20037915194E+04  0.20037915194E+04  0.50400001928E-02 0.  1.
       -1   -1    0    0    0  501  0.00000000000E+00  0.00000000000E+00 -0.20116329646E+04  0.20116329646E+04  0.50400001928E-02 0. -1.
    10030    2    1    2    0    0  0.00000000000E+00  0.00000000000E+00 -0.78414451706E+01  0.40154244841E+04  0.40154168275E+04 0.  0.
        1    1    3    3  502    0 -0.97691681790E+03 -0.69808832100E+03 -0.16130227006E+04  0.20108545462E+04  0.50400001928E-02 0. -1.
       -1    1    3    3    0  502  0.97691681790E+03  0.69808832100E+03  0.16051812555E+04  0.20045699379E+04  0.50400001928E-02 0.  1.
</event>
<event>
 5   0  0.5888700E-08  0.3993066E+04  0.7818609E-02  0.8005947E-01
        2   -1    0    0  501    0  0.00000000000E+00  0.00000000000E+00  0.18135833110E+04  0.18135833110E+04  0.25500000920E-02 0.  1.
       -2   -1    0    0    0  501  0.00000000000E+00  0.00000000000E+00 -0.21979376486E+04  0.21979376486E+04  0.25500000920E-02 0. -1.
    10030    2    1    2    0    0  0.00000000000E+00  0.00000000000E+00 -0.38435433756E+03  0.40115209596E+04  0.39930655081E+04 0.  0.
        5    1    3    3  502    0 -0.27628363337E+03  0.17035411570E+04  0.81632301184E+03  0.19091334341E+04  0.46999998093E+01 0.  1.
       -5    1    3    3    0  502  0.27628363337E+03 -0.17035411570E+04 -0.12006773494E+04  0.21023875254E+04  0.46999998093E+01 0. -1.
</event>
<event>
 5   0  0.1879500E-08  0.3967272E+04  0.7818609E-02  0.8011181E-01
       -1   -1    0    0    0  501  0.00000000000E+00  0.00000000000E+00  0.31139118572E+04  0.31139118572E+04  0.50400001928E-02 0.  1.
        1   -1    0    0  501    0  0.00000000000E+00  0.00000000000E+00 -0.12636236786E+04  0.12636236786E+04  0.50400001928E-02 0. -1.
    10030    2    1    2    0    0  0.00000000000E+00  0.00000000000E+00  0.18502881785E+04  0.43775355358E+04  0.39672724917E+04 0.  0.
        3    1    3    3  502    0  0.90485177169E+03  0.16340537340E+04  0.16619757406E+04  0.25002103325E+04  0.10100000352E+00 0.  1.
       -3    1    3    3    0  502 -0.90485177169E+03 -0.16340537340E+04  0.18831243791E+03  0.18773252033E+04  0.10100000352E+00 0. -1.
</event>
<event>
 5   0  0.5846812E-08  0.4006838E+04  0.7818609E-02  0.8003169E-01
       -2   -1    0    0    0  501  0.00000000000E+00  0.00000000000E+00  0.11801071606E+04  0.11801071606E+04  0.25500000920E-02 0.  1.
        2   -1    0    0  501    0  0.00000000000E+00  0.00000000000E+00 -0.34011215572E+04  0.34011215572E+04  0.25500000920E-02 0. -1.
    10030    2    1    2    0    0  0.00000000000E+00  0.00000000000E+00 -0.22210143966E+04  0.45812287179E+04  0.40068381070E+04 0.  0.
        4    1    3    3  502    0 -0.46008871275E+03 -0.18351144584E+04 -0.35696966836E+03  0.19252936545E+04  0.12699999809E+01 0. -1.
       -4    1    3    3    0  502  0.46008871275E+03  0.18351144584E+04 -0.18640447282E+04  0.26559350634E+04  0.12699999809E+01 0.  1.
</event>
<event>
 5   0  0.5888700E-08  0.4026338E+04  0.7818609E-02  0.7999254E-01
       -2   -1    0    0    0  501  0.00000000000E+00  0.00000000000E+00  0.20713256902E+04  0.20713256902E+04  0.25500000920E-02 0.  1.
        2   -1    0    0  501    0  0.00000000000E+00  0.00000000000E+00 -0.19566452257E+04  0.19566452257E+04  0.25500000920E-02 0. -1.
    10030    2    1    2    0    0  0.00000000000E+00  0.00000000000E+00  0.11468046456E+03  0.40279709159E+04  0.40263380497E+04 0.  0.
        5    1    3    3  502    0  0.17315358911E+04 -0.10134026067E+04 -0.10893802523E+03  0.20092513453E+04  0.46999998093E+01 0. -1.
       -5    1    3    3    0  502 -0.17315358911E+04  0.10134026067E+04  0.22361848979E+03  0.20187195705E+04  0.46999998093E+01 0.  1.
</event>
<event>
 5   0  0.1879500E-08  0.4017758E+04  0.7818609E-02  0.8000974E-01
        1   -1    0    0  501    0  0.00000000000E+00  0.00000000000E+00  0.18110932252E+04  0.18110932253E+04  0.50400001928E-02 0.  1.
       -1   -1    0    0    0  501  0.00000000000E+00  0.00000000000E+00 -0.22282647197E+04  0.22282647198E+04  0.50400001928E-02 0. -1.
    10030    2    1    2    0    0  0.00000000000E+00  0.00000000000E+00 -0.41717149450E+03  0.40393579450E+04  0.40177581500E+04 0.  0.
        3    1    3    3  502    0  0.11921970696E+04  0.50058182670E+03  0.13371057123E+04  0.18600450839E+04  0.10100000352E+00 0.  1.
       -3    1    3    3    0  502 -0.11921970696E+04 -0.50058182670E+03 -0.17542772068E+04  0.21793128611E+04  0.10100000352E+00 0. -1.
</event>
<event>
 5   0  0.1879500E-08  0.3964141E+04  0.7818609E-02  0.8011820E-01
        1   -1    0    0  501    0  0.00000000000E+00  0.00000000000E+00  0.12392445541E+04  0.12392445542E+04  0.50400001928E-02 0. -1.
       -1   -1    0    0    0  501  0.00000000000E+00  0.00000000000E+00 -0.31701598471E+04  0.31701598471E+04  0.50400001928E-02 0.  1.
    10030    2    1    2    0    0  0.00000000000E+00  0.00000000000E+00 -0.19309152929E+04  0.44094044012E+04  0.39641409290E+04 0.  0.
        1    1    3    3  502    0  0.16279081222E+04 -0.59188766931E+02  0.29053911666E+03  0.16546906487E+04  0.50400001928E-02 0. -1.
       -1    1    3    3    0  502 -0.16279081222E+04  0.59188766931E+02 -0.22214544096E+04  0.27547137525E+04  0.50400001928E-02 0.  1.
</event>
<event>
 5   0  0.1879500E-08  0.3997509E+04  0.7818609E-02  0.8005049E-01
        1   -1    0    0  501    0  0.00000000000E+00  0.00000000000E+00  0.18223865464E+04  0.18223865464E+04  0.50400001928E-02 0. -1.
       -1   -1    0    0    0  501  0.00000000000E+00  0.00000000000E+00 -0.21921906905E+04  0.21921906905E+04  0.50400001928E-02 0.  1.
    10030    2    1    2    0    0  0.00000000000E+00  0.00000000000E+00 -0.36980414406E+03  0.40145772369E+04  0.39975086349E+04 0.  0.
        3    1    3    3  502    0  0.19665136237E+04 -0.79340477444E+02 -0.53502813262E+03  0.20395405993E+04  0.10100000352E+00 0. -1.
       -3    1    3    3    0  502 -0.19665136237E+04  0.79340477444E+02  0.16522398856E+03  0.19750366376E+04  0.10100000352E+00 0.  1.
</event>
<event>
 5   0  0.5846812E-08  0.4008069E+04  0.7818609E-02  0.8002921E-01
       -2   -1    0    0    0  501  0.00000000000E+00  0.00000000000E+00  0.20868208958E+04  0.20868208958E+04  0.25500000920E-02 0. -1.
        2   -1    0    0  501    0  0.00000000000E+00  0.00000000000E+00 -0.19245319500E+04  0.19245319500E+04  0.25500000920E-02 0.  1.
    10030    2    1    2    0    0  0.00000000000E+00  0.00000000000E+00  0.16228894572E+03  0.40113528458E+04  0.40080686062E+04 0.  0.
        4    1    3    3  502    0 -0.17031684311E+04 -0.82554066923E+03  0.74035844992E+03  0.20323465129E+04  0.12699999809E+01 0. -1.
       -4    1    3    3    0  502  0.17031684311E+04  0.82554066923E+03 -0.57806950420E+03  0.19790063329E+04  0.12699999809E+01 0.  1.
</event>
<event>
 5   0  0.6161563E-08  0.3908081E+04  0.7818609E-02  0.8023351E-01
       -2   -1    0    0    0  501  0.00000000000E+00  0.00000000000E+00  0.16393352947E+04  0.16393352947E+04  0.25500000920E-02 0.  1.
        2   -1    0    0  501    0  0.00000000000E+00  0.00000000000E+00 -0.23291595542E+04  0.23291595542E+04  0.25500000920E-02 0. -1.
    10030    2    1    2    0    0  0.00000000000E+00  0.00000000000E+00 -0.68982425951E+03  0.39684948489E+04  0.39080805847E+04 0.  0.
        1    1    3    3  502    0  0.18478717839E+04 -0.54320885712E+03 -0.67950152605E+03  0.20424074804E+04  0.50400001928E-02 0. -1.
       -1    1    3    3    0  502 -0.18478717839E+04  0.54320885712E+03 -0.10322733465E+02  0.19260873685E+04  0.50400001928E-02 0.  1.
</event>
<event>
 5   0  0.5888700E-08  0.4069053E+04  0.7818609E-02  0.7990759E-01
        2   -1    0    0  501    0  0.00000000000E+00  0.00000000000E+00  0.18416687202E+04  0.18416687202E+04  0.25500000920E-02 0. -1.
       -2   -1    0    0    0  501  0.00000000000E+00  0.00000000000E+00 -0.22475798699E+04  0.22475798699E+04  0.25500000920E-02 0.  1.
    10030    2    1    2    0    0  0.00000000000E+00  0.00000000000E+00 -0.40591114966E+03  0.40892485901E+04  0.40690527363E+04 0.  0.
        5    1    3    3  502    0  0.90367456455E+03  0.16739319540E+04  0.52215140766E+03  0.19726479888E+04  0.46999998093E+01 0. -1.
       -5    1    3    3    0  502 -0.90367456455E+03 -0.16739319540E+04 -0.92806255733E+03  0.21166006013E+04  0.46999998093E+01 0.  1.
</event>
<event>
 5   0  0.1879500E-08  0.4002415E+04  0.7818609E-02  0.8004059E-01
       -1   -1    0    0    0  501  0.00000000000E+00  0.00000000000E+00  0.28611177975E+04  0.28611177975E+04  0.50400001928E-02 0.  1.
        1   -1    0    0  501    0  0.00000000000E+00  0.00000000000E+00 -0.13997439069E+04  0.13997439069E+04  0.50400001928E-02 0. -1.
    10030    2    1    2    0    0  0.00000000000E+00  0.00000000000E+00  0.14613738905E+04  0.42608617044E+04  0.40024153728E+04 0.  0.
        2    1    3    3  502    0 -0.17134247777E+04 -0.85473753360E+03  0.11137328492E+03  0.19180210450E+04  0.25500000920E-02 0. -1.
       -2    1    3    3    0  502  0.17134247777E+04  0.85473753360E+03  0.13500006056E+04  0.23428406594E+04  0.25500000920E-02 0.  1.
</event>
<event>
 5   0  0.5846812E-08  0.4003308E+04  0.7818609E-02  0.8003880E-01
        2   -1    0    0  501    0  0.00000000000E+00  0.00000000000E+00  0.12799775695E+04  0.12799775695E+04  0.25500000920E-02 0. -1.
       -2   -1    0    0    0  501  0.00000000000E+00  0.00000000000E+00 -0.31302253762E+04  0.31302253762E+04  0.25500000920E-02 0.  1.
    10030    2    1    2    0    0  0.00000000000E+00  0.00000000000E+00 -0.18502478067E+04  0.44102029457E+04  0.40033077668E+04 0.  0.
        4    1    3    3  502    0 -0.13555951327E+04  0.14666959880E+04 -0.77822376098E+03  0.21434712781E+04  0.12699999809E+01 0. -1.
       -4    1    3    3    0  502  0.13555951327E+04 -0.14666959880E+04 -0.10720240457E+04  0.22667316675E+04  0.12699999809E+01 0.  1.
</event>
<event>
 5   0  0.1879500E-08  0.3985750E+04  0.7818609E-02  0.8007427E-01
       -1   -1    0    0    0  501  0.00000000000E+00  0.00000000000E+00  0.15059432724E+04  0.15059432724E+04  0.50400001928E-02 0. -1.
        1   -1    0    0  501    0  0.00000000000E+00  0.00000000000E+00 -0.26372513984E+04  0.26372513984E+04  0.50400001928E-02 0.  1.
    10030    2    1    2    0    0  0.00000000000E+00  0.00000000000E+00 -0.11313081260E+04  0.41431946708E+04  0.39857501182E+04 0.  0.
        3    1    3    3  502    0 -0.19438374316E+04 -0.30835924313E+03 -0.89100587025E+03  0.21604353391E+04  0.10100000352E+00 0.  1.
       -3    1    3    3    0  502  0.19438374316E+04  0.30835924313E+03 -0.24030225571E+03  0.19827593318E+04  0.10100000352E+00 0. -1.
</event>
<event>
 5   0  0.5846812E-08  0.4024532E+04  0.7818609E-02  0.7999616E-01
       -2   -1    0    0    0  501  0.00000000000E+00  0.00000000000E+00  0.20671828263E+04  0.20671828263E+04  0.25500000920E-02 0. -1.
        2   -1    0    0  501    0  0.00000000000E+00  0.00000000000E+00 -0.19588084069E+04  0.19588084069E+04  0.25500000920E-02 0.  1.
    10030    2    1    2    0    0  0.00000000000E+00  0.00000000000E+00  0.10837441945E+03  0.40259912332E+04  0.40245323200E+04 0.  0.
        4    1    3    3  502    0  0.20594297767E+02  0.79597567879E+03  0.19028863716E+04  0.20627601806E+04  0.12699999809E+01 0. -1.
       -4    1    3    3    0  502 -0.20594297767E+02 -0.79597567879E+03 -0.17945119522E+04  0.19632310526E+04  0.12699999809E+01 0.  1.
</event>
<event>
 5   0  0.1879500E-08  0.3999525E+04  0.7818609E-02  0.8004642E-01
       -1   -1    0    0    0  501  0.00000000000E+00  0.00000000000E+00  0.23965630703E+04  0.23965630703E+04  0.50400001928E-02 0. -1.
        1   -1    0    0  501    0  0.00000000000E+00  0.00000000000E+00 -0.16686604446E+04  0.16686604446E+04  0.50400001928E-02 0.  1.
    10030    2    1    2    0    0  0.00000000000E+00  0.00000000000E+00  0.72790262568E+03  0.40652235149E+04  0.39995249710E+04 0.  0.
        3    1    3    3  502    0 -0.65269422948E+03 -0.18237593957E+04  0.86904670538E+03  0.21230521136E+04  0.10100000352E+00 0. -1.
       -3    1    3    3    0  502  0.65269422948E+03  0.18237593957E+04 -0.14114407970E+03  0.19421714013E+04  0.10100000352E+00 0.  1.
</event>
<event>
 5   0  0.1879500E-08  0.3967934E+04  0.7818609E-02  0.8011047E-01
       -1   -1    0    0    0  501  0.00000000000E+00  0.00000000000E+00  0.15282788087E+04  0.15282788087E+04  0.50400001928E-02 0. -1.
        1   -1    0    0  501    0  0.00000000000E+00  0.00000000000E+00 -0.25755281140E+04  0.25755281141E+04  0.50400001928E-02 0.  1.
    10030    2    1    2    0    0  0.00000000000E+00  0.00000000000E+00 -0.10472493053E+04  0.41038069228E+04  0.39679339904E+04 0.  0.
        3    1    3    3  502    0 -0.27349016822E+03  0.12907858271E+04  0.10087308717E+04  0.16608620970E+04  0.10100000352E+00 0. -1.
       -3    1    3    3    0  502  0.27349016822E+03 -0.12907858271E+04 -0.20559801770E+04  0.24429448258E+04  0.10100000352E+00 0.  1.
</event>
<event>
 5   0  0.5846812E-08  0.3972691E+04  0.7818609E-02  0.8010078E-01
        2   -1    0    0  501    0  0.00000000000E+00  0.00000000000E+00  0.13793755845E+04  0.13793755845E+04  0.25500000920E-02 0.  1.
       -2   -1    0    0    0  501  0.00000000000E+00  0.00000000000E+00 -0.28604015296E+04  0.28604015296E+04  0.25500000920E-02 0. -1.
    10030    2    1    2    0    0  0.00000000000E+00  0.00000000000E+00 -0.14810259451E+04  0.42397771141E+04  0.39726907918E+04 0.  0.
        4    1    3    3  502    0  0.55168638892E+03  0.16849725150E+04 -0.16963108670E+04  0.24537649477E+04  0.12699999809E+01 0. -1.
       -4    1    3    3    0  502 -0.55168638892E+03 -0.16849725150E+04  0.21528492189E+03  0.17860121664E+04  0.12699999809E+01 0.  1.
</event>
<event>
 5   0  0.6161563E-08  0.4004492E+04  0.7818609E-02  0.8003641E-01
       -2   -1    0    0    0  501  0.00000000000E+00  0.00000000000E+00  0.15970807029E+04  0.15970807029E+04  0.25500000920E-02 0. -1.
        2   -1    0    0  501    0  0.00000000000E+00  0.00000000000E+00 -0.25101983442E+04  0.25101983442E+04  0.25500000920E-02 0.  1.
    10030    2    1    2    0    0  0.00000000000E+00  0.00000000000E+00 -0.91311764125E+03  0.41072790471E+04  0.40044921455E+04 0.  0.
        1    1    3    3  502    0  0.66599577645E+03 -0.12716839294E+04  0.97506891299E+03  0.17353644504E+04  0.50400001928E-02 0. -1.
       -1    1    3    3    0  502 -0.66599577645E+03  0.12716839294E+04 -0.18881865542E+04  0.23719145967E+04  0.50400001928E-02 0.  1.
</event>
<event>
 5   0  0.5951623E-08  0.4000200E+04  0.7818609E-02  0.8004506E-01
       -2   -1    0    0    0  501  0.00000000000E+00  0.00000000000E+00  0.21956537496E+04  0.21956537496E+04  0.25500000920E-02 0.  1.
        2   -1    0    0  501    0  0.00000000000E+00  0.00000000000E+00 -0.18219633393E+04  0.18219633393E+04  0.25500000920E-02 0. -1.
    10030    2    1    2    0    0  0.00000000000E+00  0.00000000000E+00  0.37369041034E+03  0.40176170889E+04  0.40002003137E+04 0.  0.
        2    1    3    3  502    0 -0.40446393354E+03 -0.17410460376E+04  0.10882875935E+04  0.20926543586E+04  0.25500000920E-02 0.  1.
       -2    1    3    3    0  502  0.40446393354E+03  0.17410460376E+04 -0.71459718317E+03  0.19249627302E+04  0.25500000920E-02 0. -1.
</event>
<event>
 5   0  0.5846812E-08  0.4017966E+04  0.7818609E-02  0.8000932E-01
       -2   -1    0    0    0  501  0.00000000000E+00  0.00000000000E+00  0.30385904940E+04  0.30385904940E+04  0.25500000920E-02 0.  1.
        2   -1    0    0  501    0  0.00000000000E+00  0.00000000000E+00 -0.13282516480E+04  0.13282516480E+04  0.25500000920E-02 0. -1.
    10030    2    1    2    0    0  0.00000000000E+00  0.00000000000E+00  0.17103388460E+04  0.43668421419E+04  0.40179660681E+04 0.  0.
        4    1    3    3  502    0  0.57745334629E+03  0.16777469916E+04 -0.16883110399E+03  0.17823559940E+04  0.12699999809E+01 0. -1.
       -4    1    3    3    0  502 -0.57745334629E+03 -0.16777469916E+04  0.18791699500E+04  0.25844861479E+04  0.12699999809E+01 0.  1.
</event>
<event>
 5   0  0.1879500E-08  0.4006195E+04  0.7818609E-02  0.8003298E-01
        1   -1    0    0  501    0  0.00000000000E+00  0.00000000000E+00  0.19218802089E+04  0.19218802089E+04  0.50400001928E-02 0. -1.
       -1   -1    0    0    0  501  0.00000000000E+00  0.00000000000E+00 -0.20877474792E+04  0.20877474792E+04  0.50400001928E-02 0.  1.
    10030    2    1    2    0    0  0.00000000000E+00  0.00000000000E+00 -0.16586727034E+03  0.40096276881E+04  0.40061954827E+04 0.  0.
        1    1    3    3  502    0 -0.13843960664E+04 -0.12560641835E+04  0.63751002317E+03  0.19750110712E+04  0.50400001928E-02 0. -1.
       -1    1    3    3    0  502  0.13843960664E+04  0.12560641835E+04 -0.80337729351E+03  0.20346166169E+04  0.50400001928E-02 0.  1.
</event>
<event>
 5   0  0.1879500E-08  0.3997037E+04  0.7818609E-02  0.8005145E-01
       -1   -1    0    0    0  501  0.00000000000E+00  0.00000000000E+00  0.14384583286E+04  0.14384583286E+04  0.50400001928E-02 0. -1.
        1   -1    0    0  501    0  0.00000000000E+00  0.00000000000E+00 -0.27766370391E+04  0.27766370392E+04  0.50400001928E-02 0.  1.
    10030    2    1    2    0    0  0.00000000000E+00  0.00000000000E+00 -0.13381787106E+04  0.42150953677E+04  0.39970372400E+04 0.  0.
        3    1    3    3  502    0 -0.37099086425E+03  0.12713820952E+04  0.90923453033E+03  0.16064725627E+04  0.10100000352E+00 0. -1.
       -3    1    3    3    0  502  0.37099086425E+03 -0.12713820952E+04 -0.22474132409E+04  0.26086228050E+04  0.10100000352E+00 0.  1.
</event>
<event>
 5   0  0.5951623E-08  0.3943447E+04  0.7818609E-02  0.8016053E-01
        2   -1    0    0  501    0  0.00000000000E+00  0.00000000000E+00  0.23708135157E+04  0.23708135157E+04  0.25500000920E-02 0.  1.
       -2   -1    0    0    0  501  0.00000000000E+00  0.00000000000E+00 -0.16398145561E+04  0.16398145561E+04  0.25500000920E-02 0. -1.
    10030    2    1    2    0    0  0.00000000000E+00  0.00000000000E+00  0.73099895958E+03  0.40106280719E+04  0.39434474831E+04 0.  0.
        2    1    3    3  502    0  0.16516058143E+04  0.87035544987E+03  0.10106355991E+04  0.21229000657E+04  0.25500000920E-02 0. -1.
       -2    1    3    3    0  502 -0.16516058143E+04 -0.87035544987E+03 -0.27963663952E+03  0.18877280061E+04  0.25500000920E-02 0.  1.
</event>
<event>
 5   0  0.1879500E-08  0.4003275E+04  0.7818609E-02  0.8003886E-01
       -1   -1    0    0    0  501  0.00000000000E+00  0.00000000000E+00  0.16064836729E+04  0.16064836730E+04  0.50400001928E-02 0.  1.
        1   -1    0    0  501    0  0.00000000000E+00  0.00000000000E+00 -0.24939889122E+04  0.24939889122E+04  0.50400001928E-02 0. -1.
    10030    2    1    2    0    0  0.00000000000E+00  0.00000000000E+00 -0.88750523929E+03  0.41004725852E+04  0.40032748934E+04 0.  0.
        2    1    3    3  502    0 -0.65227341215E+02  0.18003334804E+03  0.15970805756E+04  0.16085188769E+04  0.25500000920E-02 0.  1.
       -2    1    3    3    0  502  0.65227341215E+02 -0.18003334804E+03 -0.24845858149E+04  0.24919537083E+04  0.25500000920E-02 0. -1.
</event>
<event>
 5   0  0.1879500E-08  0.4021017E+04  0.7818609E-02  0.8000320E-01
       -1   -1    0    0    0  501  0.00000000000E+00  0.00000000000E+00  0.18316805627E+04  0.18316805627E+04  0.50400001928E-02 0. -1.
        1   -1    0    0  501    0  0.00000000000E+00  0.00000000000E+00 -0.22067958052E+04  0.22067958052E+04  0.50400001928E-02 0.  1.
    10030    2    1    2    0    0  0.00000000000E+00  0.00000000000E+00 -0.37511524247E+03  0.40384763679E+04  0.40210172754E+04 0.  0.
        4    1    3    3  502    0 -0.11585746622E+04  0.43907006175E+03 -0.17778041492E+04  0.21669487702E+04  0.12699999809E+01 0.  1.
       -4    1    3    3    0  502  0.11585746622E+04 -0.43907006175E+03  0.14026889067E+04  0.18715275977E+04  0.12699999809E+01 0. -1.
</event>
<event>
 5   0  0.1879500E-08  0.3994609E+04  0.7818609E-02  0.8005635E-01
        1   -1    0    0  501    0  0.00000000000E+00  0.00000000000E+00  0.24908332657E+04  0.24908332658E+04  0.50400001928E-02 0.  1.
       -1   -1    0    0    0  501  0.00000000000E+00  0.00000000000E+00 -0.16015624251E+04  0.16015624251E+04  0.50400001928E-02 0. -1.
    10030    2    1    2    0    0  0.00000000000E+00  0.00000000000E+00  0.88927084061E+03  0.40923956909E+04  0.39946088498E+04 0.  0.
        4    1    3    3  502    0  0.30846802722E+03 -0.16817275058E+04  0.15023150466E+04  0.22760298855E+04  0.12699999809E+01 0.  1.
       -4    1    3    3    0  502 -0.30846802722E+03  0.16817275058E+04 -0.61304420596E+03  0.18163658054E+04  0.12699999809E+01 0. -1.
</event>
<event>
 5   0  0.5951623E-08  0.3906237E+04  0.7818609E-02  0.8023733E-01
       -2   -1    0    0    0  501  0.00000000000E+00  0.00000000000E+00  0.12412244748E+04  0.12412244748E+04  0.25500000920E-02 0.  1.
        2   -1    0    0  501    0  0.00000000000E+00  0.00000000000E+00 -0.30733137976E+04  0.30733137976E+04  0.25500000920E-02 0. -1.
    10030    2    1    2    0    0  0.00000000000E+00  0.00000000000E+00 -0.18320893228E+04  0.43145382724E+04  0.39062372198E+04 0.  0.
        2    1    3    3  502    0  0.17998989107E+04 -0.38995406969E+02 -0.17525107134E+04  0.25124590606E+04  0.25500000920E-02 0. -1.
       -2    1    3    3    0  502 -0.17998989107E+04  0.38995406969E+02 -0.79578609447E+02  0.18020792118E+04  0.25500000920E-02 0.  1.
</event>
<event>
 5   0  0.1879500E-08  0.3988469E+04  0.7818609E-02  0.8006877E-01
       -1   -1    0    0    0  501  0.00000000000E+00  0.00000000000E+00  0.17710073348E+04  0.17710073348E+04  0.50400001928E-02 0.  1.
        1   -1    0    0  501    0  0.00000000000E+00  0.00000000000E+00 -0.22455984776E+04  0.22455984776E+04  0.50400001928E-02 0. -1.
    10030    2    1    2    0    0  0.00000000000E+00  0.00000000000E+00 -0.47459114279E+03  0.40166058124E+04  0.39884690671E+04 0.  0.
        1    1    3    3  502    0 -0.19163001815E+04  0.22375165638E+03  0.27094299199E+03  0.19482508294E+04  0.50400001928E-02 0.  1.
       -1    1    3    3    0  502  0.19163001815E+04 -0.22375165638E+03 -0.74553413478E+03  0.20683549830E+04  0.50400001928E-02 0. -1.
</event>
<event>
 5   0  0.5951623E-08  0.4020060E+04  0.7818609E-02  0.8000512E-01
        2   -1    0    0  501    0  0.00000000000E+00  0.00000000000E+00  0.26643559236E+04  0.26643559236E+04  0.25500000920E-02 0. -1.
       -2   -1    0    0    0  501  0.00000000000E+00  0.00000000000E+00 -0.15163970645E+04  0.15163970646E+04  0.25500000920E-02 0.  1.
    10030    2    1    2    0    0  0.00000000000E+00  0.00000000000E+00  0.11479588591E+04  0.41807529882E+04  0.40200604481E+04 0.  0.
        2    1    3    3  502    0  0.72069418081E+03 -0.10803143167E+04  0.21694962558E+04  0.25284764442E+04  0.25500000920E-02 0. -1.
       -2    1    3    3    0  502 -0.72069418081E+03  0.10803143167E+04 -0.10215373967E+04  0.16522765440E+04  0.25500000920E-02 0.  1.
</event>
<event>
 5   0  0.5951623E-08  0.3955554E+04  0.7818609E-02  0.8013573E-01
        2   -1    0    0  501    0  0.00000000000E+00  0.00000000000E+00  0.21522717114E+04  0.21522717114E+04  0.25500000920E-02 0.  1.
       -2   -1    0    0    0  501  0.00000000000E+00  0.00000000000E+00 -0.18174291701E+04  0.18174291701E+04  0.25500000920E-02 0. -1.
    10030    2    1    2    0    0  0.00000000000E+00  0.00000000000E+00  0.33484254134E+03  0.39697008815E+04  0.39555537616E+04 0.  0.
        2    1    3    3  502    0  0.92248528309E+03  0.16977464725E+04  0.59116261485E+03  0.20205928387E+04  0.25500000920E-02 0.  1.
       -2    1    3    3    0  502 -0.92248528309E+03 -0.16977464725E+04 -0.25632007352E+03  0.19491080428E+04  0.25500000920E-02 0. -1.
</event>
<event>
 5   0  0.5951623E-08  0.4061089E+04  0.7818609E-02  0.7992335E-01
       -2   -1    0    0    0  501  0.00000000000E+00  0.00000000000E+00  0.20083982856E+04  0.20083982856E+04  0.25500000920E-02 0. -1.
        2   -1    0    0  501    0  0.00000000000E+00  0.00000000000E+00 -0.20529344497E+04  0.20529344497E+04  0.25500000920E-02 0.  1.
    10030    2    1    2    0    0  0.00000000000E+00  0.00000000000E+00 -0.44536164135E+02  0.40613327353E+04  0.40610885384E+04 0.  0.
        2    1    3    3  502    0 -0.52089603724E+03  0.11090984452E+04  0.15969889339E+04  0.20129097589E+04  0.25500000920E-02 0. -1.
       -2    1    3    3    0  502  0.52089603724E+03 -0.11090984452E+04 -0.16415250980E+04  0.20484229764E+04  0.25500000920E-02 0.  1.
</event>
<event>
 5   0  0.6161563E-08  0.4036610E+04  0.7818609E-02  0.7997202E-01
        2   -1    0    0  501    0  0.00000000000E+00  0.00000000000E+00  0.27798226868E+04  0.27798226868E+04  0.25500000920E-02 0. -1.
       -2   -1    0    0    0  501  0.00000000000E+00  0.00000000000E+00 -0.14654009307E+04  0.14654009308E+04  0.25500000920E-02 0.  1.
    10030    2    1    2    0    0  0.00000000000E+00  0.00000000000E+00  0.13144217561E+04  0.42452236176E+04  0.40366098412E+04 0.  0.
        1    1    3    3  502    0 -0.36641048565E+03  0.18856783513E+02 -0.14300350344E+04  0.14763510497E+04  0.50400001928E-02 0.  1.
       -1    1    3    3    0  502  0.36641048565E+03 -0.18856783513E+02  0.27444567905E+04  0.27688725679E+04  0.50400001928E-02 0. -1.
</event>
<event>
 5   0  0.1879500E-08  0.3987606E+04  0.7818609E-02  0.8007052E-01
        1   -1    0    0  501    0  0.00000000000E+00  0.00000000000E+00  0.14641393064E+04  0.14641393064E+04  0.50400001928E-02 0. -1.
       -1   -1    0    0    0  501  0.00000000000E+00  0.00000000000E+00 -0.27150761361E+04  0.27150761361E+04  0.50400001928E-02 0.  1.
    10030    2    1    2    0    0  0.00000000000E+00  0.00000000000E+00 -0.12509368297E+04  0.41792154424E+04  0.39876056428E+04 0.  0.
        2    1    3    3  502    0  0.96735198833E+03 -0.13211495515E+04  0.56675329740E+03  0.17327479064E+04  0.25500000920E-02 0. -1.
       -2    1    3    3    0  502 -0.96735198833E+03  0.13211495515E+04 -0.18176901271E+04  0.24464675361E+04  0.25500000920E-02 0.  1.
</event>
<event>
 5   0  0.5846812E-08  0.3857237E+04  0.7818609E-02  0.8033982E-01
       -2   -1    0    0    0  501  0.00000000000E+00  0.00000000000E+00  0.23159948905E+04  0.23159948905E+04  0.25500000920E-02 0. -1.
        2   -1    0    0  501    0  0.00000000000E+00  0.00000000000E+00 -0.16060349678E+04  0.16060349678E+04  0.25500000920E-02 0.  1.
    10030    2    1    2    0    0  0.00000000000E+00  0.00000000000E+00  0.70995992272E+03  0.39220298584E+04  0.38572367205E+04 0.  0.
        4    1    3    3  502    0 -0.32977535461E+03 -0.63097187358E+03  0.21774861239E+04  0.22909222427E+04  0.12699999809E+01 0. -1.
       -4    1    3    3    0  502  0.32977535461E+03  0.63097187358E+03 -0.14675262011E+04  0.16311076156E+04  0.12699999809E+01 0.  1.
</event>
<event>
 5   0  0.5888700E-08  0.3980760E+04  0.7818609E-02  0.8008439E-01
       -2   -1    0    0    0  501  0.00000000000E+00  0.00000000000E+00  0.13015918912E+04  0.13015918912E+04  0.25500000920E-02 0. -1.
        2   -1    0    0  501    0  0.00000000000E+00  0.00000000000E+00 -0.30436667149E+04  0.30436667149E+04  0.25500000920E-02 0.  1.
    10030    2    1    2    0    0  0.00000000000E+00  0.00000000000E+00 -0.17420748237E+04  0.43452586061E+04  0.39807596841E+04 0.  0.
        5    1    3    3  502    0 -0.17308915910E+04  0.35680663619E+03 -0.18704564700E+04  0.25733103528E+04  0.46999998093E+01 0.  1.
       -5    1    3    3    0  502  0.17308915910E+04 -0.35680663619E+03  0.12838164628E+03  0.17719482533E+04  0.46999998093E+01 0. -1.
</event>
<event>
 5   0  0.1879500E-08  0.4023861E+04  0.7818609E-02  0.7999750E-01
        1   -1    0    0  501    0  0.00000000000E+00  0.00000000000E+00  0.16078318677E+04  0.16078318677E+04  0.50400001928E-02 0. -1.
       -1   -1    0    0    0  501  0.00000000000E+00  0.00000000000E+00 -0.25175918624E+04  0.25175918624E+04  0.50400001928E-02 0.  1.
    10030    2    1    2    0    0  0.00000000000E+00  0.00000000000E+00 -0.90975999469E+03  0.41254237300E+04  0.40238610444E+04 0.  0.
        5    1    3    3  502    0  0.54673812097E+03 -0.62636722878E+03  0.14234605705E+04  0.16484903894E+04  0.46999998093E+01 0. -1.
       -5    1    3    3    0  502 -0.54673812097E+03  0.62636722878E+03 -0.23332205652E+04  0.24769333406E+04  0.46999998093E+01 0.  1.
</event>
<event>
 5   0  0.5888700E-08  0.3980039E+04  0.7818609E-02  0.8008585E-01
       -2   -1    0    0    0  501  0.00000000000E+00  0.00000000000E+00  0.13396542736E+04  0.13396542736E+04  0.25500000920E-02 0. -1.
        2   -1    0    0  501    0  0.00000000000E+00  0.00000000000E+00 -0.29561196819E+04  0.29561196819E+04  0.25500000920E-02 0.  1.
    10030    2    1    2    0    0  0.00000000000E+00  0.00000000000E+00 -0.16164654084E+04  0.42957739555E+04  0.39800393792E+04 0.  0.
        5    1    3    3  502    0 -0.19110919357E+04 -0.34271370102E+03 -0.33723031258E+03  0.19706525420E+04  0.46999998093E+01 0. -1.
       -5    1    3    3    0  502  0.19110919357E+04  0.34271370102E+03 -0.12792350958E+04  0.23251214136E+04  0.46999998093E+01 0.  1.
</event>
<event>
 5   0  0.1879500E-08  0.3996864E+04  0.7818609E-02  0.8005180E-01
       -1   -1    0    0    0  501  0.00000000000E+00  0.00000000000E+00  0.13288464864E+04  0.13288464864E+04  0.50400001928E-02 0. -1.
        1   -1    0    0  501    0  0.00000000000E+00  0.00000000000E+00 -0.30054112296E+04  0.30054112297E+04  0.50400001928E-02 0.  1.
    10030    2    1    2    0    0  0.00000000000E+00  0.00000000000E+00 -0.16765647432E+04  0.43342577161E+04  0.39968638470E+04 0.  0.
        5    1    3    3  502    0  0.87422734672E+03 -0.43033446315E+03  0.10537793956E+04  0.14352471245E+04  0.46999998093E+01 0. -1.
       -5    1    3    3    0  502 -0.87422734672E+03  0.43033446315E+03 -0.27303441388E+04  0.28990105916E+04  0.46999998093E+01 0.  1.
</event>
<event>
 5   0  0.5888700E-08  0.4030514E+04  0.7818609E-02  0.7998419E-01
       -2   -1    0    0    0  501  0.00000000000E+00  0.00000000000E+00  0.21613092187E+04  0.21613092187E+04  0.25500000920E-02 0.  1.
        2   -1    0    0  501    0  0.00000000000E+00  0.00000000000E+00 -0.18790746882E+04  0.18790746882E+04  0.25500000920E-02 0. -1.
    10030    2    1    2    0    0  0.00000000000E+00  0.00000000000E+00  0.28223453055E+03  0.40403839069E+04  0.40305143325E+04 0.  0.
        5    1    3    3  502    0  0.81641686852E+03 -0.11400916729E+04  0.15920362778E+04  0.21215435715E+04  0.46999998093E+01 0.  1.
       -5    1    3    3    0  502 -0.81641686852E+03  0.11400916729E+04 -0.13098017472E+04  0.19188403354E+04  0.46999998093E+01 0. -1.
</event>
<event>
 5   0  0.5951623E-08  0.3999678E+04  0.7818609E-02  0.8004612E-01
        2   -1    0    0  501    0  0.00000000000E+00  0.00000000000E+00  0.20979501341E+04  0.20979501341E+04  0.25500000920E-02 0.  1.
       -2   -1    0    0    0  501  0.00000000000E+00  0.00000000000E+00 -0.19063155970E+04  0.19063155970E+04  0.25500000920E-02 0. -1.
    10030    2    1    2    0    0  0.00000000000E+00  0.00000000000E+00  0.19163453714E+03  0.40042657311E+04  0.39996775182E+04 0.  0.
        2    1    3    3  502    0  0.42212182756E+03 -0.18194489834E+04 -0.61968685962E+03  0.19678905571E+04  0.25500000920E-02 0. -1.
       -2    1    3    3    0  502 -0.42212182756E+03  0.18194489834E+04  0.81132139676E+03  0.20363751740E+04  0.25500000920E-02 0.  1.
</event>
<event>
 5   0  0.1879500E-08  0.3997113E+04  0.7818609E-02  0.8005129E-01
       -1   -1    0    0    0  501  0.00000000000E+00  0.00000000000E+00  0.15631992126E+04  0.15631992126E+04  0.50400001928E-02 0.  1.
        1   -1    0    0  501    0  0.00000000000E+00  0.00000000000E+00 -0.25551622579E+04  0.25551622580E+04  0.50400001928E-02 0. -1.
    10030    2    1    2    0    0  0.00000000000E+00  0.00000000000E+00 -0.99196304536E+03  0.41183614706E+04  0.39971127728E+04 0.  0.
        1    1    3    3  502    0  0.37482365670E+03  0.64168943731E+02 -0.25175424453E+04  0.25461010174E+04  0.50400001928E-02 0. -1.
       -1    1    3    3    0  502 -0.37482365670E+03 -0.64168943731E+02  0.15255793999E+04  0.15722604531E+04  0.50400001928E-02 0.  1.
</event>
<event>
 5   0  0.1879500E-08  0.4007966E+04  0.7818609E-02  0.8002942E-01
       -1   -1    0    0    0  501  0.00000000000E+00  0.00000000000E+00  0.17158037851E+04  0.17158037851E+04  0.50400001928E-02 0.  1.
        1   -1    0    0  501    0  0.00000000000E+00  0.00000000000E+00 -0.23405634144E+04  0.23405634144E+04  0.50400001928E-02 0. -1.
    10030    2    1    2    0    0  0.00000000000E+00  0.00000000000E+00 -0.62475962924E+03  0.40563671995E+04  0.40079658510E+04 0.  0.
        3    1    3    3  502    0  0.93525536748E+03 -0.36936460445E+02 -0.21057494822E+04  0.23043974910E+04  0.10100000352E+00 0. -1.
       -3    1    3    3    0  502 -0.93525536748E+03  0.36936460445E+02  0.14809898530E+04  0.17519697085E+04  0.10100000352E+00 0.  1.
</event>
<event>
 5   0  0.5846812E-08  0.3976630E+04  0.7818609E-02  0.8009278E-01
       -2   -1    0    0    0  501  0.00000000000E+00  0.00000000000E+00  0.29889547122E+04  0.29889547122E+04  0.25500000920E-02 0. -1.
        2   -1    0    0  501    0  0.00000000000E+00  0.00000000000E+00 -0.13226688981E+04  0.13226688981E+04  0.25500000920E-02 0.  1.
    10030    2    1    2    0    0  0.00000000000E+00  0.00000000000E+00  0.16662858141E+04  0.43116236104E+04  0.39766304509E+04 0.  0.
        4    1    3    3  502    0 -0.10496341652E+04  0.14773930057E+04  0.17199520830E+04  0.24985313195E+04  0.12699999809E+01 0. -1.
       -4    1    3    3    0  502  0.10496341652E+04 -0.14773930057E+04 -0.53666268856E+02  0.18130922909E+04  0.12699999809E+01 0.  1.
</event>
<event>
 5   0  0.5846812E-08  0.3999532E+04  0.7818609E-02  0.8004641E-01
       -2   -1    0    0    0  501  0.00000000000E+00  0.00000000000E+00  0.17476403765E+04  0.17476403765E+04  0.25500000920E-02 0. -1.
        2   -1    0    0  501    0  0.00000000000E+00  0.00000000000E+00 -0.22882653443E+04  0.22882653443E+04  0.25500000920E-02 0.  1.
    10030    2    1    2    0    0  0.00000000000E+00  0.00000000000E+00 -0.54062496779E+03  0.40359057209E+04  0.39995324267E+04 0.  0.
        4    1    3    3  502    0  0.11367381823E+04 -0.58914787231E+03  0.12798201953E+04  0.18103066745E+04  0.12699999809E+01 0. -1.
       -4    1    3    3    0  502 -0.11367381823E+04  0.58914787231E+03 -0.18204451631E+04  0.22255990464E+04  0.12699999809E+01 0.  1.
</event>
<event>
 5   0  0.6161563E-08  0.3989606E+04  0.7818609E-02  0.8006647E-01
        2   -1    0    0  501    0  0.00000000000E+00  0.00000000000E+00  0.20203587163E+04  0.20203587163E+04  0.25500000920E-02 0. -1.
       -2   -1    0    0    0  501  0.00000000000E+00  0.00000000000E+00 -0.19695708562E+04  0.19695708562E+04  0.25500000920E-02 0.  1.
    10030    2    1    2    0    0  0.00000000000E+00  0.00000000000E+00  0.50787860161E+02  0.39899295725E+04  0.39896063197E+04 0.  0.
        1    1    3    3  502    0  0.17523042036E+04 -0.25417656893E+03  0.94419787017E+03  0.20066602523E+04  0.50400001928E-02 0. -1.
       -1    1    3    3    0  502 -0.17523042036E+04  0.25417656893E+03 -0.89341001001E+03  0.19832693201E+04  0.50400001928E-02 0.  1.
</event>
<event>
 5   0  0.5888700E-08  0.3997839E+04  0.7818609E-02  0.8004983E-01
       -2   -1    0    0    0  501  0.00000000000E+00  0.00000000000E+00  0.18002567900E+04  0.18002567900E+04  0.25500000920E-02 0. -1.
        2   -1    0    0  501    0  0.00000000000E+00  0.00000000000E+00 -0.22195055552E+04  0.22195055552E+04  0.25500000920E-02 0.  1.
    10030    2    1    2    0    0  0.00000000000E+00  0.00000000000E+00 -0.41924876518E+03  0.40197623453E+04  0.39978393896E+04 0.  0.
        5    1    3    3  502    0  0.16390052843E+04  0.24548690348E+02 -0.13598893410E+04  0.21298502459E+04  0.46999998093E+01 0.  1.
       -5    1    3    3    0  502 -0.16390052843E+04 -0.24548690348E+02  0.94064057586E+03  0.18899120993E+04  0.46999998093E+01 0. -1.
</event>
<event>
 5   0  0.1879500E-08  0.3988388E+04  0.7818609E-02  0.8006893E-01
        1   -1    0    0  501    0  0.00000000000E+00  0.00000000000E+00  0.19048009263E+04  0.19048009263E+04  0.50400001928E-02 0.  1.
       -1   -1    0    0    0  501  0.00000000000E+00  0.00000000000E+00 -0.20877825144E+04  0.20877825144E+04  0.50400001928E-02 0. -1.
    10030    2    1    2    0    0  0.00000000000E+00  0.00000000000E+00 -0.18298158814E+03  0.39925834407E+04  0.39883881793E+04 0.  0.
        3    1    3    3  502    0  0.10397167265E+04 -0.42033942918E+03  0.15592173149E+04  0.19206391521E+04  0.10100000352E+00 0.  1.
       -3    1    3    3    0  502 -0.10397167265E+04  0.42033942918E+03 -0.17421989030E+04  0.20719442886E+04  0.10100000352E+00 0. -1.
</event>
<event>
 5   0  0.1879500E-08  0.4005433E+04  0.7818609E-02  0.8003451E-01
       -1   -1    0    0    0  501  0.00000000000E+00  0.00000000000E+00  0.22930527231E+04  0.22930527231E+04  0.50400001928E-02 0. -1.
        1   -1    0    0  501    0  0.00000000000E+00  0.00000000000E+00 -0.17491415657E+04  0.17491415657E+04  0.50400001928E-02 0.  1.
    10030    2    1    2    0    0  0.00000000000E+00  0.00000000000E+00  0.54391115739E+03  0.40421942889E+04  0.40054332253E+04 0.  0.
        1    1    3    3  502    0 -0.71704263957E+03  0.10463330754E+04 -0.12920781832E+04  0.18106432788E+04  0.50400001928E-02 0.  1.
       -1    1    3    3    0  502  0.71704263957E+03 -0.10463330754E+04  0.18359893406E+04  0.22315510100E+04  0.50400001928E-02 0. -1.
</event>
<event>
 5   0  0.5951623E-08  0.3995149E+04  0.7818609E-02  0.8005526E-01
       -2   -1    0    0    0  501  0.00000000000E+00  0.00000000000E+00  0.17219653136E+04  0.17219653136E+04  0.25500000920E-02 0.  1.
        2   -1    0    0  501    0  0.00000000000E+00  0.00000000000E+00 -0.23172967692E+04  0.23172967692E+04  0.25500000920E-02 0. -1.
    10030    2    1    2    0    0  0.00000000000E+00  0.00000000000E+00 -0.59533145557E+03  0.40392620828E+04  0.39951493879E+04 0.  0.
        2    1    3    3  502    0 -0.19166497928E+04  0.45420683371E+03  0.38350679433E+02  0.19701068628E+04  0.25500000920E-02 0.  1.
       -2    1    3    3    0  502  0.19166497928E+04 -0.45420683371E+03 -0.63368213500E+03  0.20691552200E+04  0.25500000920E-02 0. -1.
</event>
<event>
 5   0  0.1879500E-08  0.3998911E+04  0.7818609E-02  0.8004766E-01
       -1   -1    0    0    0  501  0.00000000000E+00  0.00000000000E+00  0.13971925419E+04  0.13971925419E+04  0.50400001928E-02 0.  1.
        1   -1    0    0  501    0  0.00000000000E+00  0.00000000000E+00 -0.28613251665E+04  0.28613251665E+04  0.50400001928E-02 0. -1.
    10030    2    1    2    0    0  0.00000000000E+00  0.00000000000E+00 -0.14641326246E+04  0.42585177084E+04  0.39989109431E+04 0.  0.
        5    1    3    3  502    0 -0.38390517481E+03  0.14215979231E+04 -0.21724563656E+04  0.26244832993E+04  0.46999998093E+01 0. -1.
       -5    1    3    3    0  502  0.38390517481E+03 -0.14215979231E+04  0.70832374095E+03  0.16340344091E+04  0.46999998093E+01 0.  1.
</event>
<event>
 5   0  0.1879500E-08  0.4014928E+04  0.7818609E-02  0.8001542E-01
       -1   -1    0    0    0  501  0.00000000000E+00  0.00000000000E+00  0.26973578898E+04  0.26973578898E+04  0.50400001928E-02 0.  1.
        1   -1    0    0  501    0  0.00000000000E+00  0.00000000000E+00 -0.14940218067E+04  0.14940218067E+04  0.50400001928E-02 0. -1.
    10030    2    1    2    0    0  0.00000000000E+00  0.00000000000E+00  0.12033360831E+04  0.41913796965E+04  0.40149278987E+04 0.  0.
        3    1    3    3  502    0  0.19135981531E+04  0.44089444781E+03  0.10367151339E+04  0.22205909314E+04  0.10100000352E+00 0.  1.
       -3    1    3    3    0  502 -0.19135981531E+04 -0.44089444781E+03  0.16662094923E+03  0.19707887651E+04  0.10100000352E+00 0. -1.
</event>
<event>
 5   0  0.1879500E-08  0.4002964E+04  0.7818609E-02  0.8003949E-01
       -1   -1    0    0    0  501  0.00000000000E+00  0.00000000000E+00  0.24431944620E+04  0.24431944620E+04  0.50400001928E-02 0. -1.
        1   -1    0    0  501    0  0.00000000000E+00  0.00000000000E+00 -0.16396276995E+04  0.16396276995E+04  0.50400001928E-02 0.  1.
    10030    2    1    2    0    0  0.00000000000E+00  0.00000000000E+00  0.80356676248E+03  0.40828221615E+04  0.40029635597E+04 0.  0.
        2    1    3    3  502    0 -0.89949398579E+03 -0.84432111631E+03 -0.12057177148E+04  0.17250283434E+04  0.25500000920E-02 0.  1.
       -2    1    3    3    0  502  0.89949398579E+03  0.84432111631E+03  0.20092844772E+04  0.23577938180E+04  0.25500000920E-02 0. -1.
</event>
<event>
 5   0  0.5951623E-08  0.4015787E+04  0.7818609E-02  0.8001369E-01
        2   -1    0    0  501    0  0.00000000000E+00  0.00000000000E+00  0.21564171277E+04  0.21564171277E+04  0.25500000920E-02 0.  1.
       -2   -1    0    0    0  501  0.00000000000E+00  0.00000000000E+00 -0.18695990203E+04  0.18695990203E+04  0.25500000920E-02 0. -1.
    10030    2    1    2    0    0  0.00000000000E+00  0.00000000000E+00  0.28681810735E+03  0.40260161480E+04  0.40157865229E+04 0.  0.
        2    1    3    3  502    0  0.71160049802E+03 -0.10330004643E+04  0.17152581958E+04  0.21249884485E+04  0.25500000920E-02 0.  1.
       -2    1    3    3    0  502 -0.71160049802E+03  0.10330004643E+04 -0.14284400884E+04  0.19010276995E+04  0.25500000920E-02 0. -1.
</event>
<event>
 5   0  0.5945387E-08  0.4023748E+04  0.7818609E-02  0.7999773E-01
       -2   -1    0    0    0  501  0.00000000000E+00  0.00000000000E+00  0.29408418261E+04  0.29408418261E+04  0.25500000920E-02 0. -1.
        2   -1    0    0  501    0  0.00000000000E+00  0.00000000000E+00 -0.13763535084E+04  0.13763535084E+04  0.25500000920E-02 0.  1.
    10030    2    1    2    0    0  0.00000000000E+00  0.00000000000E+00  0.15644883177E+04  0.43171953345E+04  0.40237484837E+04 0.  0.
        3    1    3    3  502    0 -0.13086314211E+04 -0.80332717012E+03  0.21769636916E+04  0.26640235853E+04  0.10100000352E+00 0. -1.
       -3    1    3    3    0  502  0.13086314211E+04  0.80332717012E+03 -0.61247537389E+03  0.16531717492E+04  0.10100000352E+00 0.  1.
</event>
<event>
 5   0  0.1879500E-08  0.3999059E+04  0.7818609E-02  0.8004736E-01
       -1   -1    0    0    0  501  0.00000000000E+00  0.00000000000E+00  0.20677700847E+04  0.20677700847E+04  0.50400001928E-02 0. -1.
        1   -1    0    0  501    0  0.00000000000E+00  0.00000000000E+00 -0.19335407343E+04  0.19335407344E+04  0.50400001928E-02 0.  1.
    10030    2    1    2    0    0  0.00000000000E+00  0.00000000000E+00  0.13422935039E+03  0.40013108191E+04  0.39990587333E+04 0.  0.
        5    1    3    3  502    0 -0.66768960060E+03 -0.18791922851E+04 -0.77613078754E+02  0.19958003225E+04  0.46999998093E+01 0.  1.
       -5    1    3    3    0  502  0.66768960060E+03  0.18791922851E+04  0.21184242914E+03  0.20055104966E+04  0.46999998093E+01 0. -1.
</event>
<event>
 5   0  0.1879500E-08  0.3995044E+04  0.7818609E-02  0.8005547E-01
        1   -1    0    0  501    0  0.00000000000E+00  0.00000000000E+00  0.23957910282E+04  0.23957910282E+04  0.50400001928E-02 0.  1.
       -1   -1    0    0    0  501  0.00000000000E+00  0.00000000000E+00 -0.16654596463E+04  0.16654596463E+04  0.50400001928E-02 0. -1.
    10030    2    1    2    0    0  0.00000000000E+00  0.00000000000E+00  0.73033138193E+03  0.40612506745E+04  0.39950435685E+04 0.  0.
        1    1    3    3  502    0 -0.19362711923E+04  0.46269560438E+03  0.19855967378E+03  0.20006647137E+04  0.50400001928E-02 0. -1.
       -1    1    3    3    0  502  0.19362711923E+04 -0.46269560438E+03  0.53177170814E+03  0.20605859609E+04  0.50400001928E-02 0.  1.
</event>
<event>
 5   0  0.1879500E-08  0.3989184E+04  0.7818609E-02  0.8006732E-01
        1   -1    0    0  501    0  0.00000000000E+00  0.00000000000E+00  0.15503068702E+04  0.15503068702E+04  0.50400001928E-02 0. -1.
       -1   -1    0    0    0  501  0.00000000000E+00  0.00000000000E+00 -0.25661996189E+04  0.25661996189E+04  0.50400001928E-02 0.  1.
    10030    2    1    2    0    0  0.00000000000E+00  0.00000000000E+00 -0.10158927486E+04  0.41165064891E+04  0.39891838260E+04 0.  0.
        5    1    3    3  502    0  0.12256509649E+04 -0.57440310905E+03  0.10038086736E+04  0.16851745199E+04  0.46999998093E+01 0. -1.
       -5    1    3    3    0  502 -0.12256509649E+04  0.57440310905E+03 -0.20197014222E+04  0.24313319692E+04  0.46999998093E+01 0.  1.
</event>
<event>
 5   0  0.5888700E-08  0.4004017E+04  0.7818609E-02  0.8003737E-01
        2   -1    0    0  501    0  0.00000000000E+00  0.00000000000E+00  0.12884307287E+04  0.12884307287E+04  0.25500000920E-02 0. -1.
       -2   -1    0    0    0  501  0.00000000000E+00  0.00000000000E+00 -0.31107903943E+04  0.31107903944E+04  0.25500000920E-02 0.  1.
    10030    2    1    2    0    0  0.00000000000E+00  0.00000000000E+00 -0.18223596657E+04  0.43992211230E+04  0.40040169503E+04 0.  0.
        5    1    3    3  502    0  0.83762292407E+03  0.15852215671E+04 -0.18898736728E+04  0.26050305505E+04  0.46999998093E+01 0.  1.
       -5    1    3    3    0  502 -0.83762292407E+03 -0.15852215671E+04  0.67514007181E+02  0.17941905726E+04  0.46999998093E+01 0. -1.
</event>
<event>
 5   0  0.5951623E-08  0.3993300E+04  0.7818609E-02  0.8005900E-01
       -2   -1    0    0    0  501  0.00000000000E+00  0.00000000000E+00  0.19960394501E+04  0.19960394501E+04  0.25500000920E-02 0.  1.
        2   -1    0    0  501    0  0.00000000000E+00  0.00000000000E+00 -0.19972604091E+04  0.19972604091E+04  0.25500000920E-02 0. -1.
    10030    2    1    2    0    0  0.00000000000E+00  0.00000000000E+00 -0.12209590031E+01  0.39932998591E+04  0.39932996725E+04 0.  0.
        2    1    3    3  502    0  0.48031692715E+02  0.14690177544E+04 -0.13520136514E+04  0.19970631237E+04  0.25500000920E-02 0. -1.
       -2    1    3    3    0  502 -0.48031692715E+02 -0.14690177544E+04  0.13507926924E+04  0.19962367355E+04  0.25500000920E-02 0.  1.
</event>
<event>
 5   0  0.5951623E-08  0.4013249E+04  0.7818609E-02  0.8001879E-01
        2   -1    0    0  501    0  0.00000000000E+00  0.00000000000E+00  0.23681906928E+04  0.23681906928E+04  0.25500000920E-02 0.  1.
       -2   -1    0    0    0  501  0.00000000000E+00  0.00000000000E+00 -0.17002609194E+04  0.17002609194E+04  0.25500000920E-02 0. -1.
    10030    2    1    2    0    0  0.00000000000E+00  0.00000000000E+00  0.66792977347E+03  0.40684516122E+04  0.40132491000E+04 0.  0.
        2    1    3    3  502    0 -0.17527376584E+04 -0.28713217044E+02 -0.65600643062E+03  0.18716992774E+04  0.25500000920E-02 0. -1.
       -2    1    3    3    0  502  0.17527376584E+04  0.28713217044E+02  0.13239362041E+04  0.21967523348E+04  0.25500000920E-02 0.  1.
</event>
<event>
 5   0  0.5888700E-08  0.4011495E+04  0.7818609E-02  0.8002232E-01
        2   -1    0    0  501    0  0.00000000000E+00  0.00000000000E+00  0.24649636254E+04  0.24649636254E+04  0.25500000920E-02 0. -1.
       -2   -1    0    0    0  501  0.00000000000E+00  0.00000000000E+00 -0.16320819577E+04  0.16320819577E+04  0.25500000920E-02 0.  1.
    10030    2    1    2    0    0  0.00000000000E+00  0.00000000000E+00  0.83288166769E+03  0.40970455830E+04  0.40114948133E+04 0.  0.
        5    1    3    3  502    0 -0.15353792121E+03  0.45271095900E+02 -0.16255421870E+04  0.16334114169E+04  0.46999998093E+01 0.  1.
       -5    1    3    3    0  502  0.15353792121E+03 -0.45271095900E+02  0.24584238546E+04  0.24636341661E+04  0.46999998093E+01 0. -1.
</event>
<event>
 5   0  0.6161563E-08  0.4007349E+04  0.7818609E-02  0.8003066E-01
       -2   -1    0    0    0  501  0.00000000000E+00  0.00000000000E+00  0.17917317418E+04  0.17917317418E+04  0.25500000920E-02 0.  1.
        2   -1    0    0  501    0  0.00000000000E+00  0.00000000000E+00 -0.22406874875E+04  0.22406874875E+04  0.25500000920E-02 0. -1.
    10030    2    1    2    0    0  0.00000000000E+00  0.00000000000E+00 -0.44895574562E+03  0.40324192293E+04  0.40073486970E+04 0.  0.
        1    1    3    3  502    0 -0.19247201122E+04  0.49997257288E+02  0.33366661933E+03  0.19540677186E+04  0.50400001928E-02 0.  1.
       -1    1    3    3    0  502  0.19247201122E+04 -0.49997257288E+02 -0.78262236495E+03  0.20783515107E+04  0.50400001928E-02 0. -1.
</event>
<event>
 5   0  0.5951623E-08  0.4000154E+04  0.7818609E-02  0.8004515E-01
        2   -1    0    0  501    0  0.00000000000E+00  0.00000000000E+00  0.23727940432E+04  0.23727940432E+04  0.25500000920E-02 0. -1.
       -2   -1    0    0    0  501  0.00000000000E+00  0.00000000000E+00 -0.16859064785E+04  0.16859064785E+04  0.25500000920E-02 0.  1.
    10030    2    1    2    0    0  0.00000000000E+00  0.00000000000E+00  0.68688756473E+03  0.40587005217E+04  0.40001544218E+04 0.  0.
        2    1    3    3  502    0  0.62075056179E+03 -0.38761967461E+03 -0.15451774128E+04  0.17097232259E+04  0.25500000920E-02 0.  1.
       -2    1    3    3    0  502 -0.62075056179E+03  0.38761967461E+03  0.22320649776E+04  0.23489772958E+04  0.25500000920E-02 0. -1.
</event>
<event>
 5   0  0.6161563E-08  0.4022098E+04  0.7818609E-02  0.8000103E-01
       -2   -1    0    0    0  501  0.00000000000E+00  0.00000000000E+00  0.24046378886E+04  0.24046378886E+04  0.25500000920E-02 0. -1.
        2   -1    0    0  501    0  0.00000000000E+00  0.00000000000E+00 -0.16818824493E+04  0.16818824493E+04  0.25500000920E-02 0.  1.
    10030    2    1    2    0    0  0.00000000000E+00  0.00000000000E+00  0.72275543930E+03  0.40865203379E+04  0.40220980902E+04 0.  0.
        1    1    3    3  502    0  0.12618113976E+04  0.87687517378E+02 -0.12271418782E+04  0.17623093637E+04  0.50400001928E-02 0.  1.
       -1    1    3    3    0  502 -0.12618113976E+04 -0.87687517378E+02  0.19498973175E+04  0.23242109743E+04  0.50400001928E-02 0. -1.
</event>
<event>
 5   0  0.1879500E-08  0.3999417E+04  0.7818609E-02  0.8004664E-01
       -1   -1    0    0    0  501  0.00000000000E+00  0.00000000000E+00  0.19005790271E+04  0.19005790271E+04  0.50400001928E-02 0. -1.
        1   -1    0    0  501    0  0.00000000000E+00  0.00000000000E+00 -0.21040084987E+04  0.21040084987E+04  0.50400001928E-02 0.  1.
    10030    2    1    2    0    0  0.00000000000E+00  0.00000000000E+00 -0.20342947161E+03  0.40045875258E+04  0.39994171703E+04 0.  0.
        4    1    3    3  502    0 -0.10442613924E+04  0.84212938313E+03 -0.15865914330E+04  0.20777241737E+04  0.12699999809E+01 0.  1.
       -4    1    3    3    0  502  0.10442613924E+04 -0.84212938313E+03  0.13831619614E+04  0.19268633522E+04  0.12699999809E+01 0. -1.
</event>
<event>
 5   0  0.1879500E-08  0.4003951E+04  0.7818609E-02  0.8003750E-01
        1   -1    0    0  501    0  0.00000000000E+00  0.00000000000E+00  0.22665752038E+04  0.22665752038E+04  0.50400001928E-02 0. -1.
       -1   -1    0    0    0  501  0.00000000000E+00  0.00000000000E+00 -0.17682646939E+04  0.17682646939E+04  0.50400001928E-02 0.  1.
    10030    2    1    2    0    0  0.00000000000E+00  0.00000000000E+00  0.49831050985E+03  0.40348398977E+04  0.40039505037E+04 0.  0.
        1    1    3    3  502    0 -0.10245796975E+04  0.15074393926E+04 -0.58534439832E+03  0.19143576321E+04  0.50400001928E-02 0. -1.
       -1    1    3    3    0  502  0.10245796975E+04 -0.15074393926E+04  0.10836549082E+04  0.21204822656E+04  0.50400001928E-02 0.  1.
</event>
<event>
 5   0  0.1879500E-08  0.3994449E+04  0.7818609E-02  0.8005667E-01
       -1   -1    0    0    0  501  0.00000000000E+00  0.00000000000E+00  0.23814075687E+04  0.23814075687E+04  0.50400001928E-02 0.  1.
        1   -1    0    0  501    0  0.00000000000E+00  0.00000000000E+00 -0.16750200403E+04  0.16750200403E+04  0.50400001928E-02 0. -1.
    10030    2    1    2    0    0  0.00000000000E+00  0.00000000000E+00  0.70638752838E+03  0.40564276091E+04  0.39944488490E+04 0.  0.
        4    1    3    3  502    0  0.41288448802E+03 -0.18117378039E+04  0.10966989015E+04  0.21576880136E+04  0.12699999809E+01 0.  1.
       -4    1    3    3    0  502 -0.41288448802E+03  0.18117378039E+04 -0.39031137308E+03  0.18987395955E+04  0.12699999809E+01 0. -1.
</event>
<event>
 5   0  0.5846812E-08  0.3992661E+04  0.7818609E-02  0.8006029E-01
        2   -1    0    0  501    0  0.00000000000E+00  0.00000000000E+00  0.24503442029E+04  0.24503442029E+04  0.25500000920E-02 0. -1.
       -2   -1    0    0    0  501  0.00000000000E+00  0.00000000000E+00 -0.16264394367E+04  0.16264394367E+04  0.25500000920E-02 0.  1.
    10030    2    1    2    0    0  0.00000000000E+00  0.00000000000E+00  0.82390476619E+03  0.40767836395E+04  0.39926614908E+04 0.  0.
        4    1    3    3  502    0 -0.11925068487E+04  0.12612108553E+04 -0.59503588212E+03  0.18348827537E+04  0.12699999809E+01 0.  1.
       -4    1    3    3    0  502  0.11925068487E+04 -0.12612108553E+04  0.14189406483E+04  0.22419008859E+04  0.12699999809E+01 0. -1.
</event>
<event>
 5   0  0.1879500E-08  0.4004562E+04  0.7818609E-02  0.8003627E-01
       -3   -1    0    0    0  501  0.00000000000E+00  0.00000000000E+00  0.17252523727E+04  0.17252523756E+04  0.10100000352E+00 0. -1.
        3   -1    0    0  501    0  0.00000000000E+00  0.00000000000E+00 -0.23237927876E+04  0.23237927898E+04  0.10100000352E+00 0.  1.
    10030    2    1    2    0    0  0.00000000000E+00  0.00000000000E+00 -0.59854041490E+03  0.40490451654E+04  0.40045619140E+04 0.  0.
        2    1    3    3  502    0 -0.11974881280E+04  0.22086150871E+03  0.13078420273E+04  0.17869550614E+04  0.25500000920E-02 0. -1.
       -2    1    3    3    0  502  0.11974881280E+04 -0.22086150871E+03 -0.19063824422E+04  0.22620901041E+04  0.25500000920E-02 0.  1.
</event>
<event>
 5   0  0.1879500E-08  0.4013234E+04  0.7818609E-02  0.8001882E-01
       -1   -1    0    0    0  501  0.00000000000E+00  0.00000000000E+00  0.34622255998E+04  0.34622255998E+04  0.50400001928E-02 0.  1.
        1   -1    0    0  501    0  0.00000000000E+00  0.00000000000E+00 -0.11629838243E+04  0.11629838243E+04  0.50400001928E-02 0. -1.
    10030    2    1    2    0    0  0.00000000000E+00  0.00000000000E+00  0.22992417755E+04  0.46252094242E+04  0.40132342911E+04 0.  0.
        2    1    3    3  502    0  0.13115132391E+04 -0.14012024035E+04  0.47457572945E+03  0.19770324415E+04  0.25500000920E-02 0. -1.
       -2    1    3    3    0  502 -0.13115132391E+04  0.14012024035E+04  0.18246660460E+04  0.26481769826E+04  0.25500000920E-02 0.  1.
</event>
<event>
 5   0  0.1879500E-08  0.3821953E+04  0.7818609E-02  0.8041460E-01
       -1   -1    0    0    0  501  0.00000000000E+00  0.00000000000E+00  0.15419817758E+04  0.15419817758E+04  0.50400001928E-02 0.  1.
        1   -1    0    0  501    0  0.00000000000E+00  0.00000000000E+00 -0.23682716613E+04  0.23682716613E+04  0.50400001928E-02 0. -1.
    10030    2    1    2    0    0  0.00000000000E+00  0.00000000000E+00 -0.82628988549E+03  0.39102534371E+04  0.38219532922E+04 0.  0.
        4    1    3    3  502    0 -0.18698210017E+04 -0.38684182680E+03 -0.49208286823E+03  0.19718073789E+04  0.12699999809E+01 0. -1.
       -4    1    3    3    0  502  0.18698210017E+04  0.38684182680E+03 -0.33420701726E+03  0.19384460582E+04  0.12699999809E+01 0.  1.
</event>
<event>
 5   0  0.1879500E-08  0.3957924E+04  0.7818609E-02  0.8013089E-01
       -1   -1    0    0    0  501  0.00000000000E+00  0.00000000000E+00  0.25943866365E+04  0.25943866365E+04  0.50400001928E-02 0.  1.
        1   -1    0    0  501    0  0.00000000000E+00  0.00000000000E+00 -0.15095248389E+04  0.15095248389E+04  0.50400001928E-02 0. -1.
    10030    2    1    2    0    0  0.00000000000E+00  0.00000000000E+00  0.10848617976E+04  0.41039114753E+04  0.39579242385E+04 0.  0.
        1    1    3    3  502    0 -0.13210078869E+04 -0.50026835386E+03 -0.89467826701E+03  0.16720584513E+04  0.50400001928E-02 0. -1.
       -1    1    3    3    0  502  0.13210078869E+04  0.50026835386E+03  0.19795400646E+04  0.24318530240E+04  0.50400001928E-02 0.  1.
</event>
<event>
 5   0  0.5945387E-08  0.4023436E+04  0.7818609E-02  0.7999835E-01
        2   -1    0    0  501    0  0.00000000000E+00  0.00000000000E+00  0.13009297093E+04  0.13009297093E+04  0.25500000920E-02 0.  1.
       -2   -1    0    0    0  501  0.00000000000E+00  0.00000000000E+00 -0.31108594573E+04  0.31108594573E+04  0.25500000920E-02 0. -1.
    10030    2    1    2    0    0  0.00000000000E+00  0.00000000000E+00 -0.18099297480E+04  0.44117891667E+04  0.40234360885E+04 0.  0.
        3    1    3    3  502    0 -0.18597960270E+04  0.65845555072E+03 -0.13361151963E+04  0.23827733426E+04  0.10100000352E+00 0. -1.
       -3    1    3    3    0  502  0.18597960270E+04 -0.65845555072E+03 -0.47381455174E+03  0.20290158240E+04  0.10100000352E+00 0.  1.
</event>
<event>
 5   0  0.1879500E-08  0.3976597E+04  0.7818609E-02  0.8009284E-01
       -1   -1    0    0    0  501  0.00000000000E+00  0.00000000000E+00  0.32869694580E+04  0.32869694580E+04  0.50400001928E-02 0. -1.
        1   -1    0    0  501    0  0.00000000000E+00  0.00000000000E+00 -0.12027280837E+04  0.12027280838E+04  0.50400001928E-02 0.  1.
    10030    2    1    2    0    0  0.00000000000E+00  0.00000000000E+00  0.20842413742E+04  0.44896975417E+04  0.39765967749E+04 0.  0.
        2    1    3    3  502    0 -0.56715615876E+03  0.16805107465E+04  0.27532732966E+02  0.17738490716E+04  0.25500000920E-02 0.  1.
       -2    1    3    3    0  502  0.56715615876E+03 -0.16805107465E+04  0.20567086413E+04  0.27158484701E+04  0.25500000920E-02 0. -1.
</event>
<event>
 5   0  0.5945387E-08  0.3994040E+04  0.7818609E-02  0.8005750E-01
        2   -1    0    0  501    0  0.00000000000E+00  0.00000000000E+00  0.31779106685E+04  0.31779106685E+04  0.25500000920E-02 0.  1.
       -2   -1    0    0    0  501  0.00000000000E+00  0.00000000000E+00 -0.12549402896E+04  0.12549402896E+04  0.25500000920E-02 0. -1.
    10030    2    1    2    0    0  0.00000000000E+00  0.00000000000E+00  0.19229703789E+04  0.44328509581E+04  0.39940396266E+04 0.  0.
        3    1    3    3  502    0  0.70724348740E+03 -0.11822451569E+04 -0.64310363783E+03  0.15203549785E+04  0.10100000352E+00 0. -1.
       -3    1    3    3    0  502 -0.70724348740E+03  0.11822451569E+04  0.25660740167E+04  0.29124959796E+04  0.10100000352E+00 0.  1.
</event>
<event>
 5   0  0.1879500E-08  0.3987122E+04  0.7818609E-02  0.8007149E-01
       -3   -1    0    0    0  501  0.00000000000E+00  0.00000000000E+00  0.19044518286E+04  0.19044518313E+04  0.10100000352E+00 0.  1.
        3   -1    0    0  501    0  0.00000000000E+00  0.00000000000E+00 -0.20868397963E+04  0.20868397987E+04  0.10100000352E+00 0. -1.
    10030    2    1    2    0    0  0.00000000000E+00  0.00000000000E+00 -0.18238796766E+03  0.39912916300E+04  0.39871222084E+04 0.  0.
        3    1    3    3  502    0 -0.12028462229E+04 -0.61341114143E+03  0.13770277342E+04  0.19285532545E+04  0.10100000352E+00 0.  1.
       -3    1    3    3    0  502  0.12028462229E+04  0.61341114143E+03 -0.15594157019E+04  0.20627383755E+04  0.10100000352E+00 0. -1.
</event>
<event>
 5   0  0.5945387E-08  0.3981184E+04  0.7818609E-02  0.8008353E-01
        2   -1    0    0  501    0  0.00000000000E+00  0.00000000000E+00  0.14340424497E+04  0.14340424497E+04  0.25500000920E-02 0. -1.
       -2   -1    0    0    0  501  0.00000000000E+00  0.00000000000E+00 -0.27631381389E+04  0.27631381389E+04  0.25500000920E-02 0.  1.
    10030    2    1    2    0    0  0.00000000000E+00  0.00000000000E+00 -0.13290956891E+04  0.41971805886E+04  0.39811844396E+04 0.  0.
        3    1    3    3  502    0 -0.65421943291E+03  0.15226553019E+04  0.49799162294E+03  0.17304559808E+04  0.10100000352E+00 0.  1.
       -3    1    3    3    0  502  0.65421943291E+03 -0.15226553019E+04 -0.18270873121E+04  0.24667246078E+04  0.10100000352E+00 0. -1.
</event>
<event>
 5   0  0.1879500E-08  0.3994040E+04  0.7818609E-02  0.8005750E-01
        1   -1    0    0  501    0  0.00000000000E+00  0.00000000000E+00  0.19119235794E+04  0.19119235794E+04  0.50400001928E-02 0. -1.
       -1   -1    0    0    0  501  0.00000000000E+00  0.00000000000E+00 -0.20859035175E+04  0.20859035175E+04  0.50400001928E-02 0.  1.
    10030    2    1    2    0    0  0.00000000000E+00  0.00000000000E+00 -0.17397993814E+03  0.39978270969E+04  0.39940396190E+04 0.  0.
        3    1    3    3  502    0 -0.11784926737E+04 -0.62182256798E+03 -0.15758748244E+04  0.20637077701E+04  0.10100000352E+00 0.  1.
       -3    1    3    3    0  502  0.11784926737E+04  0.62182256798E+03  0.14018948863E+04  0.19341193268E+04  0.10100000352E+00 0. -1.
</event>
<event>
 5   0  0.1879500E-08  0.3985151E+04  0.7818609E-02  0.8007549E-01
       -1   -1    0    0    0  501  0.00000000000E+00  0.00000000000E+00  0.26225605980E+04  0.26225605980E+04  0.50400001928E-02 0. -1.
        1   -1    0    0  501    0  0.00000000000E+00  0.00000000000E+00 -0.15139241964E+04  0.15139241964E+04  0.50400001928E-02 0.  1.
    10030    2    1    2    0    0  0.00000000000E+00  0.00000000000E+00  0.11086364016E+04  0.41364847945E+04  0.39851514129E+04 0.  0.
        5    1    3    3  502    0 -0.45745931144E+03 -0.18455331295E+03 -0.14495386994E+04  0.15311804198E+04  0.46999998093E+01 0.  1.
       -5    1    3    3    0  502  0.45745931144E+03  0.18455331295E+03  0.25581751010E+04  0.26053043746E+04  0.46999998093E+01 0. -1.
</event>
<event>
 5   0  0.5888700E-08  0.3993138E+04  0.7818609E-02  0.8005932E-01
       -2   -1    0    0    0  501  0.00000000000E+00  0.00000000000E+00  0.13923606391E+04  0.13923606391E+04  0.25500000920E-02 0. -1.
        2   -1    0    0  501    0  0.00000000000E+00  0.00000000000E+00 -0.28629703573E+04  0.28629703573E+04  0.25500000920E-02 0.  1.
    10030    2    1    2    0    0  0.00000000000E+00  0.00000000000E+00 -0.14706097182E+04  0.42553309964E+04  0.39931377318E+04 0.  0.
        5    1    3    3  502    0  0.57028944740E+03 -0.87483397586E+02 -0.27721902064E+04  0.28315974342E+04  0.46999998093E+01 0.  1.
       -5    1    3    3    0  502 -0.57028944740E+03  0.87483397586E+02  0.13015804882E+04  0.14237335622E+04  0.46999998093E+01 0. -1.
</event>
<event>
 5   0  0.1879500E-08  0.4006570E+04  0.7818609E-02  0.8003222E-01
        1   -1    0    0  501    0  0.00000000000E+00  0.00000000000E+00  0.27914276922E+04  0.27914276922E+04  0.50400001928E-02 0.  1.
       -1   -1    0    0    0  501  0.00000000000E+00  0.00000000000E+00 -0.14376698154E+04  0.14376698154E+04  0.50400001928E-02 0. -1.
    10030    2    1    2    0    0  0.00000000000E+00  0.00000000000E+00  0.13537578768E+04  0.42290975076E+04  0.40065702714E+04 0.  0.
        3    1    3    3  502    0 -0.18534583317E+04  0.40643946764E+03 -0.11779311245E+01  0.18974989396E+04  0.10100000352E+00 0. -1.
       -3    1    3    3    0  502  0.18534583317E+04 -0.40643946764E+03  0.13549358079E+04  0.23315985679E+04  0.10100000352E+00 0.  1.
</event>
<event>
 5   0  0.1879500E-08  0.4022399E+04  0.7818609E-02  0.8000043E-01
       -1   -1    0    0    0  501  0.00000000000E+00  0.00000000000E+00  0.19497690281E+04  0.19497690281E+04  0.50400001928E-02 0.  1.
        1   -1    0    0  501    0  0.00000000000E+00  0.00000000000E+00 -0.20745652272E+04  0.20745652272E+04  0.50400001928E-02 0. -1.
    10030    2    1    2    0    0  0.00000000000E+00  0.00000000000E+00 -0.12479619905E+03  0.40243342553E+04  0.40223988001E+04 0.  0.
        2    1    3    3  502    0  0.90199666067E+03 -0.14121887832E+04  0.10503636167E+04  0.19776599461E+04  0.25500000920E-02 0.  1.
       -2    1    3    3    0  502 -0.90199666067E+03  0.14121887832E+04 -0.11751598157E+04  0.20466743092E+04  0.25500000920E-02 0. -1.
</event>
<event>
 5   0  0.5951623E-08  0.3998167E+04  0.7818609E-02  0.8004916E-01
        2   -1    0    0  501    0  0.00000000000E+00  0.00000000000E+00  0.20691426974E+04  0.20691426974E+04  0.25500000920E-02 0.  1.
       -2   -1    0    0    0  501  0.00000000000E+00  0.00000000000E+00 -0.19313964561E+04  0.19313964561E+04  0.25500000920E-02 0. -1.
    10030    2    1    2    0    0  0.00000000000E+00  0.00000000000E+00  0.13774624135E+03  0.40005391535E+04  0.39981670165E+04 0.  0.
        2    1    3    3  502    0  0.14306251448E+04 -0.13913702807E+04 -0.48394152660E+02  0.19962318395E+04  0.25500000920E-02 0.  1.
       -2    1    3    3    0  502 -0.14306251448E+04  0.13913702807E+04  0.18614039401E+03  0.20043073140E+04  0.25500000920E-02 0. -1.
</event>
<event>
 5   0  0.5951623E-08  0.4015924E+04  0.7818609E-02  0.8001342E-01
       -2   -1    0    0    0  501  0.00000000000E+00  0.00000000000E+00  0.14393914377E+04  0.14393914377E+04  0.25500000920E-02 0. -1.
        2   -1    0    0  501    0  0.00000000000E+00  0.00000000000E+00 -0.28011226629E+04  0.28011226629E+04  0.25500000920E-02 0.  1.
    10030    2    1    2    0    0  0.00000000000E+00  0.00000000000E+00 -0.13617312253E+04  0.42405141006E+04  0.40159242906E+04 0.  0.
        2    1    3    3  502    0  0.18137133978E+04 -0.65833501957E+03 -0.12677838158E+04  0.23087306233E+04  0.25500000920E-02 0. -1.
       -2    1    3    3    0  502 -0.18137133978E+04  0.65833501957E+03 -0.93947409510E+02  0.19317834773E+04  0.25500000920E-02 0.  1.
</event>
<event>
 5   0  0.5846812E-08  0.4002138E+04  0.7818609E-02  0.8004115E-01
       -2   -1    0    0    0  501  0.00000000000E+00  0.00000000000E+00  0.18069213596E+04  0.18069213596E+04  0.25500000920E-02 0. -1.
        2   -1    0    0  501    0  0.00000000000E+00  0.00000000000E+00 -0.22160774740E+04  0.22160774740E+04  0.25500000920E-02 0.  1.
    10030    2    1    2    0    0  0.00000000000E+00  0.00000000000E+00 -0.40915611435E+03  0.40229988336E+04  0.40021382896E+04 0.  0.
        4    1    3    3  502    0 -0.17812406561E+04 -0.27445699177E+03 -0.10786685431E+04  0.21003981417E+04  0.12699999809E+01 0.  1.
       -4    1    3    3    0  502  0.17812406561E+04  0.27445699177E+03  0.66951242871E+03  0.19226006918E+04  0.12699999809E+01 0. -1.
</event>
<event>
 5   0  0.6161563E-08  0.3998440E+04  0.7818609E-02  0.8004861E-01
       -2   -1    0    0    0  501  0.00000000000E+00  0.00000000000E+00  0.18430168536E+04  0.18430168536E+04  0.25500000920E-02 0. -1.
        2   -1    0    0  501    0  0.00000000000E+00  0.00000000000E+00 -0.21686618411E+04  0.21686618411E+04  0.25500000920E-02 0.  1.
    10030    2    1    2    0    0  0.00000000000E+00  0.00000000000E+00 -0.32564498749E+03  0.40116786947E+04  0.39984398572E+04 0.  0.
        1    1    3    3  502    0 -0.25052175734E+03 -0.18933568851E+04 -0.75581144583E+03  0.20539747776E+04  0.50400001928E-02 0.  1.
       -1    1    3    3    0  502  0.25052175734E+03  0.18933568851E+04  0.43016645834E+03  0.19577039171E+04  0.50400001928E-02 0. -1.
</event>
<event>
 5   0  0.5888700E-08  0.3999273E+04  0.7818609E-02  0.8004693E-01
        2   -1    0    0  501    0  0.00000000000E+00  0.00000000000E+00  0.16325887202E+04  0.16325887202E+04  0.25500000920E-02 0. -1.
       -2   -1    0    0    0  501  0.00000000000E+00  0.00000000000E+00 -0.24492064350E+04  0.24492064350E+04  0.25500000920E-02 0.  1.
    10030    2    1    2    0    0  0.00000000000E+00  0.00000000000E+00 -0.81661771485E+03  0.40817951552E+04  0.39992733336E+04 0.  0.
        5    1    3    3  502    0 -0.10971159834E+04 -0.59451688778E+03  0.11864336044E+04  0.17218480184E+04  0.46999998093E+01 0. -1.
       -5    1    3    3    0  502  0.10971159834E+04  0.59451688778E+03 -0.20030513192E+04  0.23599471368E+04  0.46999998093E+01 0.  1.
</event>
<event>
 5   0  0.5951623E-08  0.3995952E+04  0.7818609E-02  0.8005364E-01
        2   -1    0    0  501    0  0.00000000000E+00  0.00000000000E+00  0.19388851337E+04  0.19388851337E+04  0.25500000920E-02 0. -1.
       -2   -1    0    0    0  501  0.00000000000E+00  0.00000000000E+00 -0.20588679055E+04  0.20588679055E+04  0.25500000920E-02 0.  1.
    10030    2    1    2    0    0  0.00000000000E+00  0.00000000000E+00 -0.11998277176E+03  0.39977530392E+04  0.39959521389E+04 0.  0.
        2    1    3    3  502    0 -0.19784855640E+04 -0.19201212303E+03  0.14167969866E+03  0.19928238556E+04  0.25500000920E-02 0.  1.
       -2    1    3    3    0  502  0.19784855640E+04  0.19201212303E+03 -0.26166247042E+03  0.20049291835E+04  0.25500000920E-02 0. -1.
</event>
<event>
 5   0  0.5945387E-08  0.4093224E+04  0.7818609E-02  0.7986000E-01
       -2   -1    0    0    0  501  0.00000000000E+00  0.00000000000E+00  0.18035674843E+04  0.18035674843E+04  0.25500000920E-02 0. -1.
        2   -1    0    0  501    0  0.00000000000E+00  0.00000000000E+00 -0.23224087466E+04  0.23224087466E+04  0.25500000920E-02 0.  1.
    10030    2    1    2    0    0  0.00000000000E+00  0.00000000000E+00 -0.51884126224E+03  0.41259762309E+04  0.40932241085E+04 0.  0.
        3    1    3    3  502    0 -0.11482178750E+04  0.91278726179E+03  0.11792472644E+04  0.18820757144E+04  0.10100000352E+00 0. -1.
       -3    1    3    3    0  502  0.11482178750E+04 -0.91278726179E+03 -0.16980885266E+04  0.22439005166E+04  0.10100000352E+00 0.  1.
</event>
<event>
 5   0  0.1879500E-08  0.4011598E+04  0.7818609E-02  0.8002211E-01
        1   -1    0    0  501    0  0.00000000000E+00  0.00000000000E+00  0.26179894798E+04  0.26179894798E+04  0.50400001928E-02 0. -1.
       -1   -1    0    0    0  501  0.00000000000E+00  0.00000000000E+00 -0.15367631603E+04  0.15367631603E+04  0.50400001928E-02 0.  1.
    10030    2    1    2    0    0  0.00000000000E+00  0.00000000000E+00  0.10812263194E+04  0.41547526401E+04  0.40115980789E+04 0.  0.
        3    1    3    3  502    0 -0.38027628257E+03  0.15357399758E+04  0.18175430252E+04  0.24096825482E+04  0.10100000352E+00 0. -1.
       -3    1    3    3    0  502  0.38027628257E+03 -0.15357399758E+04 -0.73631670573E+03  0.17450700919E+04  0.10100000352E+00 0.  1.
</event>
<event>
 5   0  0.5888700E-08  0.3999676E+04  0.7818609E-02  0.8004612E-01
        2   -1    0    0  501    0  0.00000000000E+00  0.00000000000E+00  0.13492334224E+04  0.13492334224E+04  0.25500000920E-02 0. -1.
       -2   -1    0    0    0  501  0.00000000000E+00  0.00000000000E+00 -0.29641658230E+04  0.29641658230E+04  0.25500000920E-02 0.  1.
    10030    2    1    2    0    0  0.00000000000E+00  0.00000000000E+00 -0.16149324006E+04  0.43133992454E+04  0.39996757858E+04 0.  0.
        5    1    3    3  502    0 -0.90352245598E+03 -0.72999362514E+03 -0.25630632892E+04  0.28139934321E+04  0.46999998093E+01 0.  1.
       -5    1    3    3    0  502  0.90352245598E+03  0.72999362514E+03  0.94813088859E+03  0.14994058133E+04  0.46999998093E+01 0. -1.
</event>
<event>
 5   0  0.1879500E-08  0.3997220E+04  0.7818609E-02  0.8005108E-01
       -1   -1    0    0    0  501  0.00000000000E+00  0.00000000000E+00  0.18682292153E+04  0.18682292153E+04  0.50400001928E-02 0. -1.
        1   -1    0    0  501    0  0.00000000000E+00  0.00000000000E+00 -0.21380899945E+04  0.21380899945E+04  0.50400001928E-02 0.  1.
    10030    2    1    2    0    0  0.00000000000E+00  0.00000000000E+00 -0.26986077923E+03  0.40063192099E+04  0.39972201304E+04 0.  0.
        4    1    3    3  502    0  0.71192518663E+03  0.15598717782E+04  0.89424840580E+03  0.19338353756E+04  0.12699999809E+01 0. -1.
       -4    1    3    3    0  502 -0.71192518663E+03 -0.15598717782E+04 -0.11641091850E+04  0.20724838343E+04  0.12699999809E+01 0.  1.
</event>
<event>
 5   0  0.6161563E-08  0.3999684E+04  0.7818609E-02  0.8004610E-01
        2   -1    0    0  501    0  0.00000000000E+00  0.00000000000E+00  0.14058358880E+04  0.14058358880E+04  0.25500000920E-02 0. -1.
       -2   -1    0    0    0  501  0.00000000000E+00  0.00000000000E+00 -0.28448331855E+04  0.28448331855E+04  0.25500000920E-02 0.  1.
    10030    2    1    2    0    0  0.00000000000E+00  0.00000000000E+00 -0.14389972975E+04  0.42506690736E+04  0.39996842814E+04 0.  0.
        1    1    3    3  502    0 -0.20316268191E+03  0.41849121294E+03 -0.27865315014E+04  0.28250960655E+04  0.50400001928E-02 0.  1.
       -1    1    3    3    0  502  0.20316268191E+03 -0.41849121294E+03  0.13475342039E+04  0.14255730081E+04  0.50400001928E-02 0. -1.
</event>
<event>
 5   0  0.5951623E-08  0.4004968E+04  0.7818609E-02  0.8003545E-01
       -2   -1    0    0    0  501  0.00000000000E+00  0.00000000000E+00  0.28547825652E+04  0.28547825652E+04  0.25500000920E-02 0.  1.
        2   -1    0    0  501    0  0.00000000000E+00  0.00000000000E+00 -0.14046403390E+04  0.14046403390E+04  0.25500000920E-02 0. -1.
    10030    2    1    2    0    0  0.00000000000E+00  0.00000000000E+00  0.14501422262E+04  0.42594229042E+04  0.40049682896E+04 0.  0.
        2    1    3    3  502    0  0.11472045445E+04  0.25659474916E+03 -0.99904421156E+03  0.15427276068E+04  0.25500000920E-02 0. -1.
       -2    1    3    3    0  502 -0.11472045445E+04 -0.25659474916E+03  0.24491864378E+04  0.27166952974E+04  0.25500000920E-02 0.  1.
</event>
<event>
 5   0  0.1879500E-08  0.3987699E+04  0.7818609E-02  0.8007033E-01
        3   -1    0    0  501    0  0.00000000000E+00  0.00000000000E+00  0.14560747991E+04  0.14560748026E+04  0.10100000352E+00 0.  1.
       -3   -1    0    0    0  501  0.00000000000E+00  0.00000000000E+00 -0.27302420230E+04  0.27302420249E+04  0.10100000352E+00 0. -1.
    10030    2    1    2    0    0  0.00000000000E+00  0.00000000000E+00 -0.12741672240E+04  0.41863168275E+04  0.39876993951E+04 0.  0.
        4    1    3    3  502    0  0.16863339117E+04  0.52155812229E+02 -0.17525468202E+04  0.24326660808E+04  0.12699999809E+01 0. -1.
       -4    1    3    3    0  502 -0.16863339117E+04 -0.52155812229E+02  0.47837959622E+03  0.17536507468E+04  0.12699999809E+01 0.  1.
</event>
<event>
 5   0  0.5846812E-08  0.3994502E+04  0.7818609E-02  0.8005657E-01
       -2   -1    0    0    0  501  0.00000000000E+00  0.00000000000E+00  0.18974449083E+04  0.18974449083E+04  0.25500000920E-02 0. -1.
        2   -1    0    0  501    0  0.00000000000E+00  0.00000000000E+00 -0.21023068477E+04  0.21023068477E+04  0.25500000920E-02 0.  1.
    10030    2    1    2    0    0  0.00000000000E+00  0.00000000000E+00 -0.20486193945E+03  0.39997517560E+04  0.39945019333E+04 0.  0.
        4    1    3    3  502    0  0.16150226551E+03  0.47754414258E+02  0.18903218603E+04  0.18978097413E+04  0.12699999809E+01 0. -1.
       -4    1    3    3    0  502 -0.16150226551E+03 -0.47754414258E+02 -0.20951837997E+04  0.21019420147E+04  0.12699999809E+01 0.  1.
</event>
<event>
 5   0  0.5888700E-08  0.4001599E+04  0.7818609E-02  0.8004224E-01
       -2   -1    0    0    0  501  0.00000000000E+00  0.00000000000E+00  0.21463811104E+04  0.21463811104E+04  0.25500000920E-02 0.  1.
        2   -1    0    0  501    0  0.00000000000E+00  0.00000000000E+00 -0.18650919834E+04  0.18650919834E+04  0.25500000920E-02 0. -1.
    10030    2    1    2    0    0  0.00000000000E+00  0.00000000000E+00  0.28128912698E+03  0.40114730937E+04  0.40015987816E+04 0.  0.
        5    1    3    3  502    0  0.12866566157E+04  0.60785573096E+03  0.15506009856E+04  0.21046043198E+04  0.46999998093E+01 0. -1.
       -5    1    3    3    0  502 -0.12866566157E+04 -0.60785573096E+03 -0.12693118587E+04  0.19068687739E+04  0.46999998093E+01 0.  1.
</event>
<event>
 5   0  0.1879500E-08  0.3984777E+04  0.7818609E-02  0.8007625E-01
        1   -1    0    0  501    0  0.00000000000E+00  0.00000000000E+00  0.24598415287E+04  0.24598415288E+04  0.50400001928E-02 0.  1.
       -1   -1    0    0    0  501  0.00000000000E+00  0.00000000000E+00 -0.16137675906E+04  0.16137675906E+04  0.50400001928E-02 0. -1.
    10030    2    1    2    0    0  0.00000000000E+00  0.00000000000E+00  0.84607393816E+03  0.40736091193E+04  0.39847773022E+04 0.  0.
        4    1    3    3  502    0 -0.27518381421E+03 -0.16952813259E+04  0.14554545146E+04  0.22512339644E+04  0.12699999809E+01 0.  1.
       -4    1    3    3    0  502  0.27518381421E+03  0.16952813259E+04 -0.60938057648E+03  0.18223751549E+04  0.12699999809E+01 0. -1.
</event>
<event>
 5   0  0.6161563E-08  0.3999136E+04  0.7818609E-02  0.8004721E-01
       -2   -1    0    0    0  501  0.00000000000E+00  0.00000000000E+00  0.13804737395E+04  0.13804737395E+04  0.25500000920E-02 0.  1.
        2   -1    0    0  501    0  0.00000000000E+00  0.00000000000E+00 -0.28963041655E+04  0.28963041655E+04  0.25500000920E-02 0. -1.
    10030    2    1    2    0    0  0.00000000000E+00  0.00000000000E+00 -0.15158304260E+04  0.42767779050E+04  0.39991358277E+04 0.  0.
        1    1    3    3  502    0  0.13017683958E+04 -0.10069472428E+04  0.45659068998E+03  0.17079282082E+04  0.50400001928E-02 0.  1.
       -1    1    3    3    0  502 -0.13017683958E+04  0.10069472428E+04 -0.19724211160E+04  0.25688496968E+04  0.50400001928E-02 0. -1.
</event>
<event>
 5   0  0.1879500E-08  0.4002625E+04  0.7818609E-02  0.8004017E-01
       -1   -1    0    0    0  501  0.00000000000E+00  0.00000000000E+00  0.14738547464E+04  0.14738547464E+04  0.50400001928E-02 0.  1.
        1   -1    0    0  501    0  0.00000000000E+00  0.00000000000E+00 -0.27175350770E+04  0.27175350770E+04  0.50400001928E-02 0. -1.
    10030    2    1    2    0    0  0.00000000000E+00  0.00000000000E+00 -0.12436803306E+04  0.41913898234E+04  0.40026251245E+04 0.  0.
        3    1    3    3  502    0  0.77198317629E+02  0.10464047539E+04 -0.24064203995E+04  0.26252203029E+04  0.10100000352E+00 0. -1.
       -3    1    3    3    0  502 -0.77198317629E+02 -0.10464047539E+04  0.11627400689E+04  0.15661695206E+04  0.10100000352E+00 0.  1.
</event>
<event>
 5   0  0.1879500E-08  0.4001818E+04  0.7818609E-02  0.8004180E-01
       -1   -1    0    0    0  501  0.00000000000E+00  0.00000000000E+00  0.34129024863E+04  0.34129024863E+04  0.50400001928E-02 0.  1.
        1   -1    0    0  501    0  0.00000000000E+00  0.00000000000E+00 -0.11730888002E+04  0.11730888002E+04  0.50400001928E-02 0. -1.
    10030    2    1    2    0    0  0.00000000000E+00  0.00000000000E+00  0.22398136861E+04  0.45859912865E+04  0.40018184281E+04 0.  0.
        5    1    3    3  502    0  0.37346955779E+03  0.11485879533E+04 -0.70823400646E+03  0.14001254568E+04  0.46999998093E+01 0. -1.
       -5    1    3    3    0  502 -0.37346955779E+03 -0.11485879533E+04  0.29480476926E+04  0.31858658296E+04  0.46999998093E+01 0.  1.
</event>
<event>
 5   0  0.1879500E-08  0.4128305E+04  0.7818609E-02  0.7979152E-01
       -1   -1    0    0    0  501  0.00000000000E+00  0.00000000000E+00  0.23537017595E+04  0.23537017595E+04  0.50400001928E-02 0. -1.
        1   -1    0    0  501    0  0.00000000000E+00  0.00000000000E+00 -0.18102235174E+04  0.18102235174E+04  0.50400001928E-02 0.  1.
    10030    2    1    2    0    0  0.00000000000E+00  0.00000000000E+00  0.54347824209E+03  0.41639252769E+04  0.41283053559E+04 0.  0.
        1    1    3    3  502    0  0.14477027904E+04 -0.12240530474E+04 -0.55174701408E+03  0.19744806912E+04  0.50400001928E-02 0.  1.
       -1    1    3    3    0  502 -0.14477027904E+04  0.12240530474E+04  0.10952252562E+04  0.21894445857E+04  0.50400001928E-02 0. -1.
</event>
<event>
 5   0  0.5945387E-08  0.3997188E+04  0.7818609E-02  0.8005114E-01
        2   -1    0    0  501    0  0.00000000000E+00  0.00000000000E+00  0.28743889325E+04  0.28743889325E+04  0.25500000920E-02 0.  1.
       -2   -1    0    0    0  501  0.00000000000E+00  0.00000000000E+00 -0.13896444058E+04  0.13896444058E+04  0.25500000920E-02 0. -1.
    10030    2    1    2    0    0  0.00000000000E+00  0.00000000000E+00  0.14847445268E+04  0.42640333383E+04  0.39971882618E+04 0.  0.
        3    1    3    3  502    0 -0.87139877522E+03 -0.27597859319E+03 -0.11536020438E+04  0.14718348056E+04  0.10100000352E+00 0. -1.
       -3    1    3    3    0  502  0.87139877522E+03  0.27597859319E+03  0.26383465705E+04  0.27921985327E+04  0.10100000352E+00 0.  1.
</event>
<event>
 5   0  0.5945387E-08  0.4014770E+04  0.7818609E-02  0.8001574E-01
        2   -1    0    0  501    0  0.00000000000E+00  0.00000000000E+00  0.27084445318E+04  0.27084445318E+04  0.25500000920E-02 0.  1.
       -2   -1    0    0    0  501  0.00000000000E+00  0.00000000000E+00 -0.14877894624E+04  0.14877894624E+04  0.25500000920E-02 0. -1.
    10030    2    1    2    0    0  0.00000000000E+00  0.00000000000E+00  0.12206550695E+04  0.41962339942E+04  0.40147703465E+04 0.  0.
        3    1    3    3  502    0  0.22091720158E+03 -0.56285222062E+03 -0.13903450574E+04  0.15161353571E+04  0.10100000352E+00 0. -1.
       -3    1    3    3    0  502 -0.22091720158E+03  0.56285222062E+03  0.26110001268E+04  0.26800986371E+04  0.10100000352E+00 0.  1.
</event>
<event>
 5   0  0.5888700E-08  0.3998334E+04  0.7818609E-02  0.8004883E-01
        2   -1    0    0  501    0  0.00000000000E+00  0.00000000000E+00  0.14751275214E+04  0.14751275214E+04  0.25500000920E-02 0. -1.
       -2   -1    0    0    0  501  0.00000000000E+00  0.00000000000E+00 -0.27093712287E+04  0.27093712287E+04  0.25500000920E-02 0.  1.
    10030    2    1    2    0    0  0.00000000000E+00  0.00000000000E+00 -0.12342437073E+04  0.41844987502E+04  0.39983336856E+04 0.  0.
        5    1    3    3  502    0  0.13492043177E+04  0.62358502269E+03  0.78207746352E+03  0.16795469093E+04  0.46999998093E+01 0. -1.
       -5    1    3    3    0  502 -0.13492043177E+04 -0.62358502269E+03 -0.20163211708E+04  0.25049518409E+04  0.46999998093E+01 0.  1.
</event>
<event>
 5   0  0.1879500E-08  0.3997179E+04  0.7818609E-02  0.8005116E-01
       -1   -1    0    0    0  501  0.00000000000E+00  0.00000000000E+00  0.16319420331E+04  0.16319420331E+04  0.50400001928E-02 0. -1.
        1   -1    0    0  501    0  0.00000000000E+00  0.00000000000E+00 -0.24476115612E+04  0.24476115612E+04  0.50400001928E-02 0.  1.
    10030    2    1    2    0    0  0.00000000000E+00  0.00000000000E+00 -0.81566952814E+03  0.40795535943E+04  0.39971790990E+04 0.  0.
        2    1    3    3  502    0 -0.13597552270E+04 -0.90944682089E+03  0.76401381104E+03  0.18054763640E+04  0.25500000920E-02 0. -1.
       -2    1    3    3    0  502  0.13597552270E+04  0.90944682089E+03 -0.15796833392E+04  0.22740772303E+04  0.25500000920E-02 0.  1.
</event>
<event>
 5   0  0.1879500E-08  0.3985825E+04  0.7818609E-02  0.8007412E-01
       -1   -1    0    0    0  501  0.00000000000E+00  0.00000000000E+00  0.27228279865E+04  0.27228279866E+04  0.50400001928E-02 0. -1.
        1   -1    0    0  501    0  0.00000000000E+00  0.00000000000E+00 -0.14586675163E+04  0.14586675163E+04  0.50400001928E-02 0.  1.
    10030    2    1    2    0    0  0.00000000000E+00  0.00000000000E+00  0.12641604703E+04  0.41814955028E+04  0.39858252528E+04 0.  0.
        4    1    3    3  502    0 -0.10452943877E+04 -0.23641823403E+03  0.23947928986E+04  0.26236555755E+04  0.12699999809E+01 0. -1.
       -4    1    3    3    0  502  0.10452943877E+04  0.23641823403E+03 -0.11306324283E+04  0.15578399274E+04  0.12699999809E+01 0.  1.
</event>
<event>
 5   0  0.5951623E-08  0.4020991E+04  0.7818609E-02  0.8000325E-01
        2   -1    0    0  501    0  0.00000000000E+00  0.00000000000E+00  0.25276294332E+04  0.25276294332E+04  0.25500000920E-02 0. -1.
       -2   -1    0    0    0  501  0.00000000000E+00  0.00000000000E+00 -0.15991634360E+04  0.15991634360E+04  0.25500000920E-02 0.  1.
    10030    2    1    2    0    0  0.00000000000E+00  0.00000000000E+00  0.92846599721E+03  0.41267928693E+04  0.40209912059E+04 0.  0.
        2    1    3    3  502    0 -0.35954400599E+03  0.12681241309E+04 -0.10938300953E+04  0.17128557969E+04  0.25500000920E-02 0.  1.
       -2    1    3    3    0  502  0.35954400599E+03 -0.12681241309E+04  0.20222960925E+04  0.24139370724E+04  0.25500000920E-02 0. -1.
</event>
<event>
 5   0  0.5945387E-08  0.3887594E+04  0.7818609E-02  0.8027614E-01
        2   -1    0    0  501    0  0.00000000000E+00  0.00000000000E+00  0.18969970140E+04  0.18969970140E+04  0.25500000920E-02 0. -1.
       -2   -1    0    0    0  501  0.00000000000E+00  0.00000000000E+00 -0.19917514425E+04  0.19917514425E+04  0.25500000920E-02 0.  1.
    10030    2    1    2    0    0  0.00000000000E+00  0.00000000000E+00 -0.94754428487E+02  0.38887484566E+04  0.38875938775E+04 0.  0.
        3    1    3    3  502    0  0.34757069468E+03 -0.49121196911E+03 -0.18962367096E+04  0.19894241015E+04  0.10100000352E+00 0.  1.
       -3    1    3    3    0  502 -0.34757069468E+03  0.49121196911E+03  0.18014822811E+04  0.18993243551E+04  0.10100000352E+00 0. -1.
</event>
<event>
 5   0  0.1879500E-08  0.4018247E+04  0.7818609E-02  0.8000876E-01
       -1   -1    0    0    0  501  0.00000000000E+00  0.00000000000E+00  0.18215065483E+04  0.18215065483E+04  0.50400001928E-02 0. -1.
        1   -1    0    0  501    0  0.00000000000E+00  0.00000000000E+00 -0.22160646604E+04  0.22160646604E+04  0.50400001928E-02 0.  1.
    10030    2    1    2    0    0  0.00000000000E+00  0.00000000000E+00 -0.39455811205E+03  0.40375712087E+04  0.40182465283E+04 0.  0.
        1    1    3    3  502    0  0.10739303748E+04  0.16980130763E+04 -0.19848203828E+03  0.20189031618E+04  0.50400001928E-02 0. -1.
       -1    1    3    3    0  502 -0.10739303748E+04 -0.16980130763E+04 -0.19607607377E+03  0.20186680470E+04  0.50400001928E-02 0.  1.
</event>
<event>
 5   0  0.5888700E-08  0.3991460E+04  0.7818609E-02  0.8006272E-01
       -2   -1    0    0    0  501  0.00000000000E+00  0.00000000000E+00  0.17685081925E+04  0.17685081925E+04  0.25500000920E-02 0. -1.
        2   -1    0    0  501    0  0.00000000000E+00  0.00000000000E+00 -0.22521459455E+04  0.22521459455E+04  0.25500000920E-02 0.  1.
    10030    2    1    2    0    0  0.00000000000E+00  0.00000000000E+00 -0.48363775300E+03  0.40206541380E+04  0.39914601615E+04 0.  0.
        5    1    3    3  502    0 -0.15925429315E+04 -0.15426969198E+03  0.95976978378E+03  0.18657899813E+04  0.46999998093E+01 0. -1.
       -5    1    3    3    0  502  0.15925429315E+04  0.15426969198E+03 -0.14434075368E+04  0.21548641567E+04  0.46999998093E+01 0.  1.
</event>
<event>
 5   0  0.1879500E-08  0.4006960E+04  0.7818609E-02  0.8003144E-01
        1   -1    0    0  501    0  0.00000000000E+00  0.00000000000E+00  0.18869777372E+04  0.18869777372E+04  0.50400001928E-02 0. -1.
       -1   -1    0    0    0  501  0.00000000000E+00  0.00000000000E+00 -0.21271755389E+04  0.21271755389E+04  0.50400001928E-02 0.  1.
    10030    2    1    2    0    0  0.00000000000E+00  0.00000000000E+00 -0.24019780168E+03  0.40141532761E+04  0.40069603867E+04 0.  0.
        1    1    3    3  502    0  0.14868644776E+04  0.12186804901E+04 -0.68501254569E+03  0.20408797856E+04  0.50400001928E-02 0. -1.
       -1    1    3    3    0  502 -0.14868644776E+04 -0.12186804901E+04  0.44481474401E+03  0.19732734905E+04  0.50400001928E-02 0.  1.
</event>
<event>
 5   0  0.1879500E-08  0.3998749E+04  0.7818609E-02  0.8004799E-01
        1   -1    0    0  501    0  0.00000000000E+00  0.00000000000E+00  0.14112649440E+04  0.14112649440E+04  0.50400001928E-02 0. -1.
       -1   -1    0    0    0  501  0.00000000000E+00  0.00000000000E+00 -0.28325642001E+04  0.28325642001E+04  0.50400001928E-02 0.  1.
    10030    2    1    2    0    0  0.00000000000E+00  0.00000000000E+00 -0.14212992561E+04  0.42438291441E+04  0.39987490830E+04 0.  0.
        5    1    3    3  502    0  0.75106217332E+03 -0.15351363174E+04  0.39060785330E+03  0.17530928344E+04  0.46999998093E+01 0. -1.
       -5    1    3    3    0  502 -0.75106217332E+03  0.15351363174E+04 -0.18119071094E+04  0.24907363096E+04  0.46999998093E+01 0.  1.
</event>
<event>
 5   0  0.5951623E-08  0.4016980E+04  0.7818609E-02  0.8001130E-01
       -2   -1    0    0    0  501  0.00000000000E+00  0.00000000000E+00  0.16541116659E+04  0.16541116659E+04  0.25500000920E-02 0. -1.
        2   -1    0    0  501    0  0.00000000000E+00  0.00000000000E+00 -0.24387902903E+04  0.24387902903E+04  0.25500000920E-02 0.  1.
    10030    2    1    2    0    0  0.00000000000E+00  0.00000000000E+00 -0.78467862440E+03  0.40929019562E+04  0.40169796962E+04 0.  0.
        2    1    3    3  502    0 -0.14403452919E+04  0.99129386161E+03 -0.13993373276E+04  0.22395095527E+04  0.25500000920E-02 0.  1.
       -2    1    3    3    0  502  0.14403452919E+04 -0.99129386161E+03  0.61465870322E+03  0.18533924035E+04  0.25500000920E-02 0. -1.
</event>
<event>
 5   0  0.1879500E-08  0.4009525E+04  0.7818609E-02  0.8002628E-01
       -1   -1    0    0    0  501  0.00000000000E+00  0.00000000000E+00  0.18970751106E+04  0.18970751106E+04  0.50400001928E-02 0. -1.
        1   -1    0    0  501    0  0.00000000000E+00  0.00000000000E+00 -0.21185631586E+04  0.21185631586E+04  0.50400001928E-02 0.  1.
    10030    2    1    2    0    0  0.00000000000E+00  0.00000000000E+00 -0.22148804798E+03  0.40156382692E+04  0.40095253777E+04 0.  0.
        1    1    3    3  502    0  0.82738894189E+03 -0.16578885660E+04  0.65586825029E+03  0.19655355810E+04  0.50400001928E-02 0. -1.
       -1    1    3    3    0  502 -0.82738894189E+03  0.16578885660E+04 -0.87735629827E+03  0.20501026883E+04  0.50400001928E-02 0.  1.
</event>
<event>
 5   0  0.1879500E-08  0.4020330E+04  0.7818609E-02  0.8000458E-01
        1   -1    0    0  501    0  0.00000000000E+00  0.00000000000E+00  0.25765916127E+04  0.25765916127E+04  0.50400001928E-02 0.  1.
       -1   -1    0    0    0  501  0.00000000000E+00  0.00000000000E+00 -0.15682588965E+04  0.15682588965E+04  0.50400001928E-02 0. -1.
    10030    2    1    2    0    0  0.00000000000E+00  0.00000000000E+00  0.10083327162E+04  0.41448505093E+04  0.40203296976E+04 0.  0.
        2    1    3    3  502    0 -0.38166051123E+03 -0.11448341500E+04  0.21615822524E+04  0.24756307905E+04  0.25500000920E-02 0.  1.
       -2    1    3    3    0  502  0.38166051123E+03  0.11448341500E+04 -0.11532495362E+04  0.16692197188E+04  0.25500000920E-02 0. -1.
</event>
<event>
 5   0  0.5888700E-08  0.3998998E+04  0.7818609E-02  0.8004749E-01
        2   -1    0    0  501    0  0.00000000000E+00  0.00000000000E+00  0.20039051455E+04  0.20039051455E+04  0.25500000920E-02 0.  1.
       -2   -1    0    0    0  501  0.00000000000E+00  0.00000000000E+00 -0.19951027296E+04  0.19951027296E+04  0.25500000920E-02 0. -1.
    10030    2    1    2    0    0  0.00000000000E+00  0.00000000000E+00  0.88024159001E+01  0.39990078752E+04  0.39989981874E+04 0.  0.
        5    1    3    3  502    0  0.15092408251E+04  0.40867439295E+03  0.12506593808E+04  0.20022471387E+04  0.46999998093E+01 0. -1.
       -5    1    3    3    0  502 -0.15092408251E+04 -0.40867439295E+03 -0.12418569649E+04  0.19967607365E+04  0.46999998093E+01 0.  1.
</event>
<event>
 5   0  0.5846812E-08  0.3992615E+04  0.7818609E-02  0.8006038E-01
       -2   -1    0    0    0  501  0.00000000000E+00  0.00000000000E+00  0.23313802955E+04  0.23313802955E+04  0.25500000920E-02 0.  1.
        2   -1    0    0  501    0  0.00000000000E+00  0.00000000000E+00 -0.17093920777E+04  0.17093920777E+04  0.25500000920E-02 0. -1.
    10030    2    1    2    0    0  0.00000000000E+00  0.00000000000E+00  0.62198821783E+03  0.40407723732E+04  0.39926146857E+04 0.  0.
        4    1    3    3  502    0  0.14314211487E+04 -0.96704245166E+03 -0.70162597848E+03  0.18645155497E+04  0.12699999809E+01 0. -1.
       -4    1    3    3    0  502 -0.14314211487E+04  0.96704245166E+03  0.13236141963E+04  0.21762568235E+04  0.12699999809E+01 0.  1.
</event>
<event>
 5   0  0.1879500E-08  0.3983959E+04  0.7818609E-02  0.8007790E-01
        1   -1    0    0  501    0  0.00000000000E+00  0.00000000000E+00  0.15468704726E+04  0.15468704726E+04  0.50400001928E-02 0. -1.
       -1   -1    0    0    0  501  0.00000000000E+00  0.00000000000E+00 -0.25651675987E+04  0.25651675987E+04  0.50400001928E-02 0.  1.
    10030    2    1    2    0    0  0.00000000000E+00  0.00000000000E+00 -0.10182971261E+04  0.41120380714E+04  0.39839588431E+04 0.  0.
        2    1    3    3  502    0 -0.88216611149E+02  0.16453544155E+04  0.64621675230E+03  0.17699066117E+04  0.25500000920E-02 0. -1.
       -2    1    3    3    0  502  0.88216611149E+02 -0.16453544155E+04 -0.16645138784E+04  0.23421314597E+04  0.25500000920E-02 0.  1.
</event>
<event>
 5   0  0.1879500E-08  0.3981754E+04  0.7818609E-02  0.8008238E-01
        1   -1    0    0  501    0  0.00000000000E+00  0.00000000000E+00  0.12817158003E+04  0.12817158003E+04  0.50400001928E-02 0. -1.
       -1   -1    0    0    0  501  0.00000000000E+00  0.00000000000E+00 -0.30924102420E+04  0.30924102420E+04  0.50400001928E-02 0.  1.
    10030    2    1    2    0    0  0.00000000000E+00  0.00000000000E+00 -0.18106944417E+04  0.43741260423E+04  0.39817539191E+04 0.  0.
        5    1    3    3  502    0  0.85169709776E+02 -0.96805609351E+03 -0.28141522024E+04  0.29772237383E+04  0.46999998093E+01 0.  1.
       -5    1    3    3    0  502 -0.85169709776E+02  0.96805609351E+03  0.10034577606E+04  0.13969023040E+04  0.46999998093E+01 0. -1.
</event>
<event>
 5   0  0.1879500E-08  0.3995964E+04  0.7818609E-02  0.8005361E-01
        1   -1    0    0  501    0  0.00000000000E+00  0.00000000000E+00  0.26411271797E+04  0.26411271797E+04  0.50400001928E-02 0.  1.
       -1   -1    0    0    0  501  0.00000000000E+00  0.00000000000E+00 -0.15114499638E+04  0.15114499638E+04  0.50400001928E-02 0. -1.
    10030    2    1    2    0    0  0.00000000000E+00  0.00000000000E+00  0.11296772160E+04  0.41525771435E+04  0.39959637536E+04 0.  0.
        2    1    3    3  502    0 -0.11768180151E+04 -0.15901210011E+04  0.85608368704E+03  0.21555195935E+04  0.25500000920E-02 0.  1.
       -2    1    3    3    0  502  0.11768180151E+04  0.15901210011E+04  0.27359352892E+03  0.19970575500E+04  0.25500000920E-02 0. -1.
</event>
<event>
 5   0  0.5945387E-08  0.3997296E+04  0.7818609E-02  0.8005092E-01
       -2   -1    0    0    0  501  0.00000000000E+00  0.00000000000E+00  0.24431781042E+04  0.24431781042E+04  0.25500000920E-02 0. -1.
        2   -1    0    0  501    0  0.00000000000E+00  0.00000000000E+00 -0.16349989867E+04  0.16349989867E+04  0.25500000920E-02 0.  1.
    10030    2    1    2    0    0  0.00000000000E+00  0.00000000000E+00  0.80817911755E+03  0.40781770909E+04  0.39972959483E+04 0.  0.
        3    1    3    3  502    0 -0.78624875252E+01 -0.19596062915E+04  0.31037626513E+01  0.19596245252E+04  0.10100000352E+00 0. -1.
       -3    1    3    3    0  502  0.78624875252E+01  0.19596062915E+04  0.80507535490E+03  0.21185525657E+04  0.10100000352E+00 0.  1.
</event>
<event>
 5   0  0.1879500E-08  0.3961381E+04  0.7818609E-02  0.8012383E-01
       -1   -1    0    0    0  501  0.00000000000E+00  0.00000000000E+00  0.31147693434E+04  0.31147693434E+04  0.50400001928E-02 0.  1.
        1   -1    0    0  501    0  0.00000000000E+00  0.00000000000E+00 -0.12595268090E+04  0.12595268091E+04  0.50400001928E-02 0. -1.
    10030    2    1    2    0    0  0.00000000000E+00  0.00000000000E+00  0.18552425343E+04  0.43742961524E+04  0.39613813207E+04 0.  0.
        4    1    3    3  502    0  0.16840310688E+04  0.89275824172E+02  0.20747525371E+04  0.26736735995E+04  0.12699999809E+01 0.  1.
       -4    1    3    3    0  502 -0.16840310688E+04 -0.89275824172E+02 -0.21951000274E+03  0.17006225530E+04  0.12699999809E+01 0. -1.
</event>
<event>
 5   0  0.1879500E-08  0.4014868E+04  0.7818609E-02  0.8001554E-01
        1   -1    0    0  501    0  0.00000000000E+00  0.00000000000E+00  0.19826895502E+04  0.19826895502E+04  0.50400001928E-02 0. -1.
       -1   -1    0    0    0  501  0.00000000000E+00  0.00000000000E+00 -0.20324870727E+04  0.20324870727E+04  0.50400001928E-02 0.  1.
    10030    2    1    2    0    0  0.00000000000E+00  0.00000000000E+00 -0.49797522450E+02  0.40151766229E+04  0.40148678085E+04 0.  0.
        3    1    3    3  502    0 -0.19241601712E+04  0.74084991423E+02  0.54251593921E+03  0.20005510503E+04  0.10100000352E+00 0. -1.
       -3    1    3    3    0  502  0.19241601712E+04 -0.74084991423E+02 -0.59231346166E+03  0.20146255726E+04  0.10100000352E+00 0.  1.
</event>
<event>
 5   0  0.6161563E-08  0.3981450E+04  0.7818609E-02  0.8008299E-01
        2   -1    0    0  501    0  0.00000000000E+00  0.00000000000E+00  0.18098274366E+04  0.18098274366E+04  0.25500000920E-02 0.  1.
       -2   -1    0    0    0  501  0.00000000000E+00  0.00000000000E+00 -0.21897038945E+04  0.21897038945E+04  0.25500000920E-02 0. -1.
    10030    2    1    2    0    0  0.00000000000E+00  0.00000000000E+00 -0.37987645788E+03  0.39995313311E+04  0.39814500808E+04 0.  0.
        1    1    3    3  502    0 -0.19287360908E+03 -0.91536026018E+03 -0.19551611221E+04  0.21674269650E+04  0.50400001928E-02 0. -1.
       -1    1    3    3    0  502  0.19287360908E+03  0.91536026018E+03  0.15752846643E+04  0.18321043662E+04  0.50400001928E-02 0.  1.
</event>
<event>
 5   0  0.1879500E-08  0.3999817E+04  0.7818609E-02  0.8004583E-01
        1   -1    0    0  501    0  0.00000000000E+00  0.00000000000E+00  0.20226683848E+04  0.20226683848E+04  0.50400001928E-02 0. -1.
       -1   -1    0    0    0  501  0.00000000000E+00  0.00000000000E+00 -0.19774049377E+04  0.19774049377E+04  0.50400001928E-02 0.  1.
    10030    2    1    2    0    0  0.00000000000E+00  0.00000000000E+00  0.45263447137E+02  0.40000733225E+04  0.39998172215E+04 0.  0.
        1    1    3    3  502    0 -0.18278399567E+04 -0.20640086252E+03  0.80756045763E+03  0.20089186435E+04  0.50400001928E-02 0. -1.
       -1    1    3    3    0  502  0.18278399567E+04  0.20640086252E+03 -0.76229701049E+03  0.19911546790E+04  0.50400001928E-02 0.  1.
</event>
<event>
 5   0  0.5945387E-08  0.3986345E+04  0.7818609E-02  0.8007307E-01
       -2   -1    0    0    0  501  0.00000000000E+00  0.00000000000E+00  0.29476563877E+04  0.29476563877E+04  0.25500000920E-02 0. -1.
        2   -1    0    0  501    0  0.00000000000E+00  0.00000000000E+00 -0.13477609846E+04  0.13477609846E+04  0.25500000920E-02 0.  1.
    10030    2    1    2    0    0  0.00000000000E+00  0.00000000000E+00  0.15998954031E+04  0.42954173724E+04  0.39863448298E+04 0.  0.
        3    1    3    3  502    0 -0.46526797674E+02  0.43679510646E+03  0.28948504012E+04  0.29279879719E+04  0.10100000352E+00 0. -1.
       -3    1    3    3    0  502  0.46526797674E+02 -0.43679510646E+03 -0.12949549981E+04  0.13674294005E+04  0.10100000352E+00 0.  1.
</event>
<event>
 5   0  0.5945387E-08  0.4056300E+04  0.7818609E-02  0.7993284E-01
       -2   -1    0    0    0  501  0.00000000000E+00  0.00000000000E+00  0.30070844934E+04  0.30070844934E+04  0.25500000920E-02 0. -1.
        2   -1    0    0  501    0  0.00000000000E+00  0.00000000000E+00 -0.13679007977E+04  0.13679007977E+04  0.25500000920E-02 0.  1.
    10030    2    1    2    0    0  0.00000000000E+00  0.00000000000E+00  0.16391836957E+04  0.43749852912E+04  0.40563004215E+04 0.  0.
        3    1    3    3  502    0  0.15469001311E+04 -0.51370324517E+03 -0.48212632964E+03  0.16997755286E+04  0.10100000352E+00 0.  1.
       -3    1    3    3    0  502 -0.15469001311E+04  0.51370324517E+03  0.21213100253E+04  0.26752097625E+04  0.10100000352E+00 0. -1.
</event>
<event>
 5   0  0.5846812E-08  0.4012224E+04  0.7818609E-02  0.8002085E-01
       -2   -1    0    0    0  501  0.00000000000E+00  0.00000000000E+00  0.22455910960E+04  0.22455910960E+04  0.25500000920E-02 0. -1.
        2   -1    0    0  501    0  0.00000000000E+00  0.00000000000E+00 -0.17921719410E+04  0.17921719410E+04  0.25500000920E-02 0.  1.
    10030    2    1    2    0    0  0.00000000000E+00  0.00000000000E+00  0.45341915499E+03  0.40377630370E+04  0.40122239983E+04 0.  0.
        4    1    3    3  502    0  0.15873751170E+04  0.94499119965E+03  0.10138105312E+04  0.21072687383E+04  0.12699999809E+01 0. -1.
       -4    1    3    3    0  502 -0.15873751170E+04 -0.94499119965E+03 -0.56039137622E+03  0.19304942986E+04  0.12699999809E+01 0.  1.
</event>
<event>
 5   0  0.1879500E-08  0.3818432E+04  0.7818609E-02  0.8042211E-01
        1   -1    0    0  501    0  0.00000000000E+00  0.00000000000E+00  0.24961259481E+04  0.24961259481E+04  0.50400001928E-02 0. -1.
       -1   -1    0    0    0  501  0.00000000000E+00  0.00000000000E+00 -0.14603052869E+04  0.14603052869E+04  0.50400001928E-02 0.  1.
    10030    2    1    2    0    0  0.00000000000E+00  0.00000000000E+00  0.10358206612E+04  0.39564312350E+04  0.38184320965E+04 0.  0.
        5    1    3    3  502    0 -0.12936958589E+04  0.10356490303E+04 -0.46443913226E+03  0.17210298332E+04  0.46999998093E+01 0.  1.
       -5    1    3    3    0  502  0.12936958589E+04 -0.10356490303E+04  0.15002597935E+04  0.22354014018E+04  0.46999998093E+01 0. -1.
</event>
<event>
 5   0  0.5846812E-08  0.3970769E+04  0.7818609E-02  0.8010470E-01
       -2   -1    0    0    0  501  0.00000000000E+00  0.00000000000E+00  0.17943414385E+04  0.17943414385E+04  0.25500000920E-02 0.  1.
        2   -1    0    0  501    0  0.00000000000E+00  0.00000000000E+00 -0.21967675103E+04  0.21967675103E+04  0.25500000920E-02 0. -1.
    10030    2    1    2    0    0  0.00000000000E+00  0.00000000000E+00 -0.40242607175E+03  0.39911089488E+04  0.39707686785E+04 0.  0.
        4    1    3    3  502    0  0.59622598106E+03  0.15802534524E+04  0.84771451111E+03  0.18897904380E+04  0.12699999809E+01 0. -1.
       -4    1    3    3    0  502 -0.59622598106E+03 -0.15802534524E+04 -0.12501405829E+04  0.21013185109E+04  0.12699999809E+01 0.  1.
</event>
<event>
 5   0  0.1879500E-08  0.3998523E+04  0.7818609E-02  0.8004845E-01
       -1   -1    0    0    0  501  0.00000000000E+00  0.00000000000E+00  0.13142589544E+04  0.13142589545E+04  0.50400001928E-02 0.  1.
        1   -1    0    0  501    0  0.00000000000E+00  0.00000000000E+00 -0.30412924448E+04  0.30412924448E+04  0.50400001928E-02 0. -1.
    10030    2    1    2    0    0  0.00000000000E+00  0.00000000000E+00 -0.17270334903E+04  0.43555513992E+04  0.39985226415E+04 0.  0.
        5    1    3    3  502    0 -0.18326137489E+04 -0.82047545824E+02  0.23276520071E+01  0.18344569934E+04  0.46999998093E+01 0.  1.
       -5    1    3    3    0  502  0.18326137489E+04  0.82047545824E+02 -0.17293611423E+04  0.25210944058E+04  0.46999998093E+01 0. -1.
</event>
<event>
 5   0  0.6161563E-08  0.3994858E+04  0.7818609E-02  0.8005585E-01
       -2   -1    0    0    0  501  0.00000000000E+00  0.00000000000E+00  0.18542966652E+04  0.18542966652E+04  0.25500000920E-02 0.  1.
        2   -1    0    0  501    0  0.00000000000E+00  0.00000000000E+00 -0.21516099842E+04  0.21516099842E+04  0.25500000920E-02 0. -1.
    10030    2    1    2    0    0  0.00000000000E+00  0.00000000000E+00 -0.29731331900E+03  0.40059066494E+04  0.39948583046E+04 0.  0.
        1    1    3    3  502    0  0.53316723681E+03 -0.18119962665E+04 -0.80016534697E+03  0.20513074745E+04  0.50400001928E-02 0. -1.
       -1    1    3    3    0  502 -0.53316723681E+03  0.18119962665E+04  0.50285202797E+03  0.19545991749E+04  0.50400001928E-02 0.  1.
</event>
<event>
 5   0  0.1879500E-08  0.3984447E+04  0.7818609E-02  0.8007691E-01
       -1   -1    0    0    0  501  0.00000000000E+00  0.00000000000E+00  0.14553973194E+04  0.14553973194E+04  0.50400001928E-02 0. -1.
        1   -1    0    0  501    0  0.00000000000E+00  0.00000000000E+00 -0.27270592699E+04  0.27270592699E+04  0.50400001928E-02 0.  1.
    10030    2    1    2    0    0  0.00000000000E+00  0.00000000000E+00 -0.12716619505E+04  0.41824565893E+04  0.39844471392E+04 0.  0.
        2    1    3    3  502    0  0.35622049246E+03 -0.24303139379E+03  0.14058195134E+04  0.14704712856E+04  0.25500000920E-02 0. -1.
       -2    1    3    3    0  502 -0.35622049246E+03  0.24303139379E+03 -0.26774814639E+04  0.27119853036E+04  0.25500000920E-02 0.  1.
</event>
<event>
 5   0  0.5888700E-08  0.3990804E+04  0.7818609E-02  0.8006404E-01
        2   -1    0    0  501    0  0.00000000000E+00  0.00000000000E+00  0.24239997840E+04  0.24239997840E+04  0.25500000920E-02 0. -1.
       -2   -1    0    0    0  501  0.00000000000E+00  0.00000000000E+00 -0.16425861508E+04  0.16425861508E+04  0.25500000920E-02 0.  1.
    10030    2    1    2    0    0  0.00000000000E+00  0.00000000000E+00  0.78141363318E+03  0.40665859348E+04  0.39908036658E+04 0.  0.
        5    1    3    3  502    0 -0.82840897135E+03 -0.15716335038E+04 -0.53501171683E+03  0.18554117929E+04  0.46999998093E+01 0.  1.
       -5    1    3    3    0  502  0.82840897135E+03  0.15716335038E+04  0.13164253500E+04  0.22111741420E+04  0.46999998093E+01 0. -1.
</event>
<event>
 5   0  0.1879500E-08  0.3961489E+04  0.7818609E-02  0.8012361E-01
       -1   -1    0    0    0  501  0.00000000000E+00  0.00000000000E+00  0.17653270846E+04  0.17653270846E+04  0.50400001928E-02 0.  1.
        1   -1    0    0  501    0  0.00000000000E+00  0.00000000000E+00 -0.22224484131E+04  0.22224484132E+04  0.50400001928E-02 0. -1.
    10030    2    1    2    0    0  0.00000000000E+00  0.00000000000E+00 -0.45712132853E+03  0.39877754978E+04  0.39614887999E+04 0.  0.
        3    1    3    3  502    0 -0.99279333331E+03 -0.49863608799E+02  0.14960570699E+04  0.17961936835E+04  0.10100000352E+00 0.  1.
       -3    1    3    3    0  502  0.99279333331E+03  0.49863608799E+02 -0.19531783984E+04  0.21915818142E+04  0.10100000352E+00 0. -1.
</event>
<event>
 5   0  0.1879500E-08  0.3977150E+04  0.7818609E-02  0.8009172E-01
       -1   -1    0    0    0  501  0.00000000000E+00  0.00000000000E+00  0.19358698959E+04  0.19358698959E+04  0.50400001928E-02 0.  1.
        1   -1    0    0  501    0  0.00000000000E+00  0.00000000000E+00 -0.20427152765E+04  0.20427152765E+04  0.50400001928E-02 0. -1.
    10030    2    1    2    0    0  0.00000000000E+00  0.00000000000E+00 -0.10684538057E+03  0.39785851724E+04  0.39771502409E+04 0.  0.
        3    1    3    3  502    0  0.11389963920E+03  0.16245910534E+04  0.10881120549E+04  0.19586365341E+04  0.10100000352E+00 0.  1.
       -3    1    3    3    0  502 -0.11389963920E+03 -0.16245910534E+04 -0.11949574355E+04  0.20199486383E+04  0.10100000352E+00 0. -1.
</event>
<event>
 5   0  0.1879500E-08  0.4053685E+04  0.7818609E-02  0.7993803E-01
       -1   -1    0    0    0  501  0.00000000000E+00  0.00000000000E+00  0.24939433432E+04  0.24939433432E+04  0.50400001928E-02 0. -1.
        1   -1    0    0  501    0  0.00000000000E+00  0.00000000000E+00 -0.16472264791E+04  0.16472264791E+04  0.50400001928E-02 0.  1.
    10030    2    1    2    0    0  0.00000000000E+00  0.00000000000E+00  0.84671686408E+03  0.41411698223E+04  0.40536845030E+04 0.  0.
        3    1    3    3  502    0 -0.14570632278E+04 -0.56700802609E+03  0.17409842294E+04  0.23399909078E+04  0.10100000352E+00 0. -1.
       -3    1    3    3    0  502  0.14570632278E+04  0.56700802609E+03 -0.89426736533E+03  0.18011789145E+04  0.10100000352E+00 0.  1.
</event>
<event>
 5   0  0.1879500E-08  0.3991507E+04  0.7818609E-02  0.8006262E-01
       -1   -1    0    0    0  501  0.00000000000E+00  0.00000000000E+00  0.13396560258E+04  0.13396560258E+04  0.50400001928E-02 0. -1.
        1   -1    0    0  501    0  0.00000000000E+00  0.00000000000E+00 -0.29731756315E+04  0.29731756315E+04  0.50400001928E-02 0.  1.
    10030    2    1    2    0    0  0.00000000000E+00  0.00000000000E+00 -0.16335196056E+04  0.43128316573E+04  0.39915073096E+04 0.  0.
        2    1    3    3  502    0 -0.58128113592E+03  0.19079521131E+04 -0.89211368950E+03  0.21849567180E+04  0.25500000920E-02 0. -1.
       -2    1    3    3    0  502  0.58128113592E+03 -0.19079521131E+04 -0.74140591614E+03  0.21278749393E+04  0.25500000920E-02 0.  1.
</event>
<event>
 5   0  0.1879500E-08  0.4002732E+04  0.7818609E-02  0.8003996E-01
       -1   -1    0    0    0  501  0.00000000000E+00  0.00000000000E+00  0.14589835451E+04  0.14589835451E+04  0.50400001928E-02 0. -1.
        1   -1    0    0  501    0  0.00000000000E+00  0.00000000000E+00 -0.27453817640E+04  0.27453817640E+04  0.50400001928E-02 0.  1.
    10030    2    1    2    0    0  0.00000000000E+00  0.00000000000E+00 -0.12863982189E+04  0.42043653092E+04  0.40027324761E+04 0.  0.
        5    1    3    3  502    0  0.26295066463E+03 -0.62330478474E+03 -0.26216396584E+04  0.27075207285E+04  0.46999998093E+01 0.  1.
       -5    1    3    3    0  502 -0.26295066463E+03  0.62330478474E+03  0.13352414395E+04  0.14968445806E+04  0.46999998093E+01 0. -1.
</event>
<event>
 5   0  0.5888700E-08  0.3999284E+04  0.7818609E-02  0.8004691E-01
       -2   -1    0    0    0  501  0.00000000000E+00  0.00000000000E+00  0.13028755615E+04  0.13028755615E+04  0.25500000920E-02 0. -1.
        2   -1    0    0  501    0  0.00000000000E+00  0.00000000000E+00 -0.30690331970E+04  0.30690331970E+04  0.25500000920E-02 0.  1.
    10030    2    1    2    0    0  0.00000000000E+00  0.00000000000E+00 -0.17661576354E+04  0.43719087585E+04  0.39992841109E+04 0.  0.
        5    1    3    3  502    0 -0.57566991638E+03 -0.97100985508E+03 -0.26874069542E+04  0.29148643568E+04  0.46999998093E+01 0.  1.
       -5    1    3    3    0  502  0.57566991638E+03  0.97100985508E+03  0.92124931874E+03  0.14570444017E+04  0.46999998093E+01 0. -1.
</event>
<event>
 5   0  0.6161563E-08  0.3973058E+04  0.7818609E-02  0.8010004E-01
        2   -1    0    0  501    0  0.00000000000E+00  0.00000000000E+00  0.31263334653E+04  0.31263334653E+04  0.25500000920E-02 0. -1.
       -2   -1    0    0    0  501  0.00000000000E+00  0.00000000000E+00 -0.12622762589E+04  0.12622762589E+04  0.25500000920E-02 0.  1.
    10030    2    1    2    0    0  0.00000000000E+00  0.00000000000E+00  0.18640572064E+04  0.43886097242E+04  0.39730575182E+04 0.  0.
        1    1    3    3  502    0 -0.75719838923E+03 -0.12007170196E+04 -0.60300762713E+03  0.15422998931E+04  0.50400001928E-02 0.  1.
       -1    1    3    3    0  502  0.75719838923E+03  0.12007170196E+04  0.24670648336E+04  0.28463098311E+04  0.50400001928E-02 0. -1.
</event>
<event>
 5   0  0.1879500E-08  0.3866214E+04  0.7818609E-02  0.8032093E-01
       -1   -1    0    0    0  501  0.00000000000E+00  0.00000000000E+00  0.22245793670E+04  0.22245793670E+04  0.50400001928E-02 0. -1.
        1   -1    0    0  501    0  0.00000000000E+00  0.00000000000E+00 -0.16798246780E+04  0.16798246780E+04  0.50400001928E-02 0.  1.
    10030    2    1    2    0    0  0.00000000000E+00  0.00000000000E+00  0.54475468892E+03  0.39044040450E+04  0.38662143339E+04 0.  0.
        1    1    3    3  502    0 -0.19117855927E+04 -0.27880771603E+03  0.20657682094E+03  0.19430213272E+04  0.50400001928E-02 0.  1.
       -1    1    3    3    0  502  0.19117855927E+04  0.27880771603E+03  0.33817786798E+03  0.19613827178E+04  0.50400001928E-02 0. -1.
</event>
<event>
 5   0  0.5846812E-08  0.4014206E+04  0.7818609E-02  0.8001687E-01
       -2   -1    0    0    0  501  0.00000000000E+00  0.00000000000E+00  0.18772675802E+04  0.18772675802E+04  0.25500000920E-02 0.  1.
        2   -1    0    0  501    0  0.00000000000E+00  0.00000000000E+00 -0.21459181932E+04  0.21459181932E+04  0.25500000920E-02 0. -1.
    10030    2    1    2    0    0  0.00000000000E+00  0.00000000000E+00 -0.26865061296E+03  0.40231857734E+04  0.40142061003E+04 0.  0.
        4    1    3    3  502    0 -0.12279996683E+02  0.84597256549E+03 -0.19584628609E+04  0.21334007523E+04  0.12699999809E+01 0. -1.
       -4    1    3    3    0  502  0.12279996683E+02 -0.84597256549E+03  0.16898122479E+04  0.18897850211E+04  0.12699999809E+01 0.  1.
</event>
<event>
 5   0  0.5945387E-08  0.4041932E+04  0.7818609E-02  0.7996141E-01
       -2   -1    0    0    0  501  0.00000000000E+00  0.00000000000E+00  0.21745313182E+04  0.21745313182E+04  0.25500000920E-02 0.  1.
        2   -1    0    0  501    0  0.00000000000E+00  0.00000000000E+00 -0.18782450632E+04  0.18782450632E+04  0.25500000920E-02 0. -1.
    10030    2    1    2    0    0  0.00000000000E+00  0.00000000000E+00  0.29628625500E+03  0.40527763815E+04  0.40419315746E+04 0.  0.
        3    1    3    3  502    0  0.13335275410E+04 -0.78735639632E+03 -0.11538310605E+04  0.19312047856E+04  0.10100000352E+00 0. -1.
       -3    1    3    3    0  502 -0.13335275410E+04  0.78735639632E+03  0.14501173155E+04  0.21215715959E+04  0.10100000352E+00 0.  1.
</event>
<event>
 5   0  0.1879500E-08  0.4019152E+04  0.7818609E-02  0.8000694E-01
       -1   -1    0    0    0  501  0.00000000000E+00  0.00000000000E+00  0.35757425749E+04  0.35757425749E+04  0.50400001928E-02 0. -1.
        1   -1    0    0  501    0  0.00000000000E+00  0.00000000000E+00 -0.11293866429E+04  0.11293866429E+04  0.50400001928E-02 0.  1.
    10030    2    1    2    0    0  0.00000000000E+00  0.00000000000E+00  0.24463559320E+04  0.47051292178E+04  0.40191521008E+04 0.  0.
        3    1    3    3  502    0 -0.14938937719E+04 -0.10072136090E+04  0.18121089613E+03  0.18108106624E+04  0.10100000352E+00 0.  1.
       -3    1    3    3    0  502  0.14938937719E+04  0.10072136090E+04  0.22651450359E+04  0.28943185553E+04  0.10100000352E+00 0. -1.
</event>
<event>
 5   0  0.1879500E-08  0.4000709E+04  0.7818609E-02  0.8004404E-01
       -1   -1    0    0    0  501  0.00000000000E+00  0.00000000000E+00  0.18782267084E+04  0.18782267085E+04  0.50400001928E-02 0.  1.
        1   -1    0    0  501    0  0.00000000000E+00  0.00000000000E+00 -0.21304229684E+04  0.21304229684E+04  0.50400001928E-02 0. -1.
    10030    2    1    2    0    0  0.00000000000E+00  0.00000000000E+00 -0.25219625995E+03  0.40086496769E+04  0.40007085970E+04 0.  0.
        5    1    3    3  502    0 -0.12464840579E+04 -0.13489412490E+03  0.14356734583E+04  0.19060690702E+04  0.46999998093E+01 0.  1.
       -5    1    3    3    0  502  0.12464840579E+04  0.13489412490E+03 -0.16878697183E+04  0.21025806066E+04  0.46999998093E+01 0. -1.
</event>
<event>
 5   0  0.1879500E-08  0.3988263E+04  0.7818609E-02  0.8006918E-01
       -1   -1    0    0    0  501  0.00000000000E+00  0.00000000000E+00  0.22986832066E+04  0.22986832066E+04  0.50400001928E-02 0. -1.
        1   -1    0    0  501    0  0.00000000000E+00  0.00000000000E+00 -0.17299300606E+04  0.17299300606E+04  0.50400001928E-02 0.  1.
    10030    2    1    2    0    0  0.00000000000E+00  0.00000000000E+00  0.56875314604E+03  0.40286132672E+04  0.39882633709E+04 0.  0.
        4    1    3    3  502    0 -0.89696812575E+01  0.73938625061E+02  0.22972773102E+04  0.22984847244E+04  0.12699999809E+01 0. -1.
       -4    1    3    3    0  502  0.89696812575E+01 -0.73938625061E+02 -0.17285241642E+04  0.17301285428E+04  0.12699999809E+01 0.  1.
</event>
<event>
 5   0  0.5945387E-08  0.3963312E+04  0.7818609E-02  0.8011989E-01
        2   -1    0    0  501    0  0.00000000000E+00  0.00000000000E+00  0.24401123613E+04  0.24401123613E+04  0.25500000920E-02 0.  1.
       -2   -1    0    0    0  501  0.00000000000E+00  0.00000000000E+00 -0.16093358714E+04  0.16093358714E+04  0.25500000920E-02 0. -1.
    10030    2    1    2    0    0  0.00000000000E+00  0.00000000000E+00  0.83077648988E+03  0.40494482327E+04  0.39633119248E+04 0.  0.
        3    1    3    3  502    0  0.71054893415E+03  0.22042448514E+01  0.23054778925E+04  0.24124910299E+04  0.10100000352E+00 0.  1.
       -3    1    3    3    0  502 -0.71054893415E+03 -0.22042448514E+01 -0.14747014026E+04  0.16369572027E+04  0.10100000352E+00 0. -1.
</event>
<event>
 5   0  0.5951623E-08  0.3999774E+04  0.7818609E-02  0.8004592E-01
        2   -1    0    0  501    0  0.00000000000E+00  0.00000000000E+00  0.12454278289E+04  0.12454278289E+04  0.25500000920E-02 0. -1.
       -2   -1    0    0    0  501  0.00000000000E+00  0.00000000000E+00 -0.32113850803E+04  0.32113850803E+04  0.25500000920E-02 0.  1.
    10030    2    1    2    0    0  0.00000000000E+00  0.00000000000E+00 -0.19659572514E+04  0.44568129092E+04  0.39997741678E+04 0.  0.
        2    1    3    3  502    0  0.58635266321E+03 -0.13815179197E+04  0.48985493968E+03  0.15787207068E+04  0.25500000920E-02 0. -1.
       -2    1    3    3    0  502 -0.58635266321E+03  0.13815179197E+04 -0.24558121910E+04  0.28780922024E+04  0.25500000920E-02 0.  1.
</event>
<event>
 5   0  0.5945387E-08  0.3998293E+04  0.7818609E-02  0.8004891E-01
        2   -1    0    0  501    0  0.00000000000E+00  0.00000000000E+00  0.14476655776E+04  0.14476655776E+04  0.25500000920E-02 0. -1.
       -2   -1    0    0    0  501  0.00000000000E+00  0.00000000000E+00 -0.27607119038E+04  0.27607119038E+04  0.25500000920E-02 0.  1.
    10030    2    1    2    0    0  0.00000000000E+00  0.00000000000E+00 -0.13130463262E+04  0.42083774814E+04  0.39982934324E+04 0.  0.
        3    1    3    3  502    0  0.73358377219E+03 -0.94429309595E+03  0.10297660504E+04  0.15780534626E+04  0.10100000352E+00 0. -1.
       -3    1    3    3    0  502 -0.73358377219E+03  0.94429309595E+03 -0.23428123766E+04  0.26303240188E+04  0.10100000352E+00 0.  1.
</event>
<event>
 5   0  0.5951623E-08  0.3969755E+04  0.7818609E-02  0.8010676E-01
        2   -1    0    0  501    0  0.00000000000E+00  0.00000000000E+00  0.30122364569E+04  0.30122364569E+04  0.25500000920E-02 0. -1.
       -2   -1    0    0    0  501  0.00000000000E+00  0.00000000000E+00 -0.13079113777E+04  0.13079113777E+04  0.25500000920E-02 0.  1.
    10030    2    1    2    0    0  0.00000000000E+00  0.00000000000E+00  0.17043250792E+04  0.43201478347E+04  0.39697548209E+04 0.  0.
        2    1    3    3  502    0  0.26128331222E+03  0.13569968625E+04  0.24027134559E+04  0.27717758577E+04  0.25500000920E-02 0. -1.
       -2    1    3    3    0  502 -0.26128331222E+03 -0.13569968625E+04 -0.69838837674E+03  0.15483719769E+04  0.25500000920E-02 0.  1.
</event>
<event>
 5   0  0.5945387E-08  0.4024069E+04  0.7818609E-02  0.7999709E-01
       -2   -1    0    0    0  501  0.00000000000E+00  0.00000000000E+00  0.35028800906E+04  0.35028800906E+04  0.25500000920E-02 0. -1.
        2   -1    0    0  501    0  0.00000000000E+00  0.00000000000E+00 -0.11557014280E+04  0.11557014280E+04  0.25500000920E-02 0.  1.
    10030    2    1    2    0    0  0.00000000000E+00  0.00000000000E+00  0.23471786626E+04  0.46585815185E+04  0.40240693447E+04 0.  0.
        3    1    3    3  502    0 -0.14500424275E+04  0.82885661691E+03  0.24723884105E+04  0.29836773947E+04  0.10100000352E+00 0. -1.
       -3    1    3    3    0  502  0.14500424275E+04 -0.82885661691E+03 -0.12520974792E+03  0.16749041239E+04  0.10100000352E+00 0.  1.
</event>
<event>
 5   0  0.5888700E-08  0.3978369E+04  0.7818609E-02  0.8008924E-01
       -2   -1    0    0    0  501  0.00000000000E+00  0.00000000000E+00  0.17869624645E+04  0.17869624645E+04  0.25500000920E-02 0.  1.
        2   -1    0    0  501    0  0.00000000000E+00  0.00000000000E+00 -0.22142909009E+04  0.22142909009E+04  0.25500000920E-02 0. -1.
    10030    2    1    2    0    0  0.00000000000E+00  0.00000000000E+00 -0.42732843642E+03  0.40012533653E+04  0.39783688744E+04 0.  0.
        5    1    3    3  502    0 -0.20477939180E+03 -0.55981910477E+03 -0.21223425801E+04  0.22044709448E+04  0.46999998093E+01 0. -1.
       -5    1    3    3    0  502  0.20477939180E+03  0.55981910477E+03  0.16950141437E+04  0.17967824205E+04  0.46999998093E+01 0.  1.
</event>
<event>
 5   0  0.5846812E-08  0.3985034E+04  0.7818609E-02  0.8007573E-01
        2   -1    0    0  501    0  0.00000000000E+00  0.00000000000E+00  0.13835735719E+04  0.13835735719E+04  0.25500000920E-02 0.  1.
       -2   -1    0    0    0  501  0.00000000000E+00  0.00000000000E+00 -0.28694704117E+04  0.28694704117E+04  0.25500000920E-02 0. -1.
    10030    2    1    2    0    0  0.00000000000E+00  0.00000000000E+00 -0.14858968398E+04  0.42530439836E+04  0.39850337147E+04 0.  0.
        4    1    3    3  502    0  0.48562842575E+02 -0.19441152420E+04 -0.12059195418E+04  0.22882713952E+04  0.12699999809E+01 0. -1.
       -4    1    3    3    0  502 -0.48562842575E+02  0.19441152420E+04 -0.27997729796E+03  0.19647725884E+04  0.12699999809E+01 0.  1.
</event>
<event>
 5   0  0.5846812E-08  0.3861312E+04  0.7818609E-02  0.8033124E-01
       -2   -1    0    0    0  501  0.00000000000E+00  0.00000000000E+00  0.29373030268E+04  0.29373030268E+04  0.25500000920E-02 0. -1.
        2   -1    0    0  501    0  0.00000000000E+00  0.00000000000E+00 -0.12689984344E+04  0.12689984344E+04  0.25500000920E-02 0.  1.
    10030    2    1    2    0    0  0.00000000000E+00  0.00000000000E+00  0.16683045924E+04  0.42063014612E+04  0.38613121823E+04 0.  0.
        4    1    3    3  502    0  0.18892957745E+04 -0.10331502587E+03  0.41603841851E+03  0.19373182745E+04  0.12699999809E+01 0.  1.
       -4    1    3    3    0  502 -0.18892957745E+04  0.10331502587E+03  0.12522661739E+04  0.22689831867E+04  0.12699999809E+01 0. -1.
</event>
<event>
 5   0  0.1879500E-08  0.4037446E+04  0.7818609E-02  0.7997035E-01
       -1   -1    0    0    0  501  0.00000000000E+00  0.00000000000E+00  0.18376796694E+04  0.18376796694E+04  0.50400001928E-02 0. -1.
        1   -1    0    0  501    0  0.00000000000E+00  0.00000000000E+00 -0.22176021147E+04  0.22176021147E+04  0.50400001928E-02 0.  1.
    10030    2    1    2    0    0  0.00000000000E+00  0.00000000000E+00 -0.37992244526E+03  0.40552817841E+04  0.40374458862E+04 0.  0.
        1    1    3    3  502    0 -0.18142426810E+04 -0.64948992349E+03 -0.79422395012E+03  0.20842517480E+04  0.50400001928E-02 0. -1.
       -1    1    3    3    0  502  0.18142426810E+04  0.64948992349E+03  0.41430150486E+03  0.19710300361E+04  0.50400001928E-02 0.  1.
</event>
<event>
 5   0  0.5951623E-08  0.4002350E+04  0.7818609E-02  0.8004073E-01
        2   -1    0    0  501    0  0.00000000000E+00  0.00000000000E+00  0.24927110448E+04  0.24927110448E+04  0.25500000920E-02 0.  1.
       -2   -1    0    0    0  501  0.00000000000E+00  0.00000000000E+00 -0.16065644502E+04  0.16065644502E+04  0.25500000920E-02 0. -1.
    10030    2    1    2    0    0  0.00000000000E+00  0.00000000000E+00  0.88614659462E+03  0.40992754949E+04  0.40023497843E+04 0.  0.
        2    1    3    3  502    0  0.36142985166E+03 -0.14675257646E+04  0.17864924040E+04  0.23400466912E+04  0.25500000920E-02 0.  1.
       -2    1    3    3    0  502 -0.36142985166E+03  0.14675257646E+04 -0.90034580939E+03  0.17592288037E+04  0.25500000920E-02 0. -1.
</event>
<event>
 5   0  0.1879500E-08  0.4009014E+04  0.7818609E-02  0.8002731E-01
        1   -1    0    0  501    0  0.00000000000E+00  0.00000000000E+00  0.33684895679E+04  0.33684895679E+04  0.50400001928E-02 0. -1.
       -1   -1    0    0    0  501  0.00000000000E+00  0.00000000000E+00 -0.11928339738E+04  0.11928339738E+04  0.50400001928E-02 0.  1.
    10030    2    1    2    0    0  0.00000000000E+00  0.00000000000E+00  0.21756555941E+04  0.45613235417E+04  0.40090142414E+04 0.  0.
        5    1    3    3  502    0 -0.19957803024E+04 -0.13795896439E+03  0.12310916460E+04  0.23489956199E+04  0.46999998093E+01 0.  1.
       -5    1    3    3    0  502  0.19957803024E+04  0.13795896439E+03  0.94456394812E+03  0.22123279218E+04  0.46999998093E+01 0. -1.
</event>
<event>
 5   0  0.1879500E-08  0.4011346E+04  0.7818609E-02  0.8002262E-01
       -1   -1    0    0    0  501  0.00000000000E+00  0.00000000000E+00  0.16303228493E+04  0.16303228493E+04  0.50400001928E-02 0.  1.
        1   -1    0    0  501    0  0.00000000000E+00  0.00000000000E+00 -0.24674397686E+04  0.24674397686E+04  0.50400001928E-02 0. -1.
    10030    2    1    2    0    0  0.00000000000E+00  0.00000000000E+00 -0.83711691934E+03  0.40977626180E+04  0.40113456267E+04 0.  0.
        1    1    3    3  502    0 -0.49028362220E+03  0.11949565780E+04  0.11489109268E+04  0.17286687280E+04  0.50400001928E-02 0.  1.
       -1    1    3    3    0  502  0.49028362220E+03 -0.11949565780E+04 -0.19860278461E+04  0.23690938899E+04  0.50400001928E-02 0. -1.
</event>
<event>
 5   0  0.1879500E-08  0.4025973E+04  0.7818609E-02  0.7999327E-01
        1   -1    0    0  501    0  0.00000000000E+00  0.00000000000E+00  0.22024910345E+04  0.22024910345E+04  0.50400001928E-02 0.  1.
       -1   -1    0    0    0  501  0.00000000000E+00  0.00000000000E+00 -0.18397871824E+04  0.18397871824E+04  0.50400001928E-02 0. -1.
    10030    2    1    2    0    0  0.00000000000E+00  0.00000000000E+00  0.36270385202E+03  0.40422782169E+04  0.40259730623E+04 0.  0.
        5    1    3    3  502    0 -0.34867719141E+03 -0.66136308181E+03  0.20579092114E+04  0.21895180570E+04  0.46999998093E+01 0.  1.
       -5    1    3    3    0  502  0.34867719141E+03  0.66136308181E+03 -0.16952053593E+04  0.18527601599E+04  0.46999998093E+01 0. -1.
</event>
<event>
 5   0  0.6161563E-08  0.4011799E+04  0.7818609E-02  0.8002171E-01
       -2   -1    0    0    0  501  0.00000000000E+00  0.00000000000E+00  0.11319021755E+04  0.11319021755E+04  0.25500000920E-02 0. -1.
        2   -1    0    0  501    0  0.00000000000E+00  0.00000000000E+00 -0.35547526065E+04  0.35547526065E+04  0.25500000920E-02 0.  1.
    10030    2    1    2    0    0  0.00000000000E+00  0.00000000000E+00 -0.24228504310E+04  0.46866547820E+04  0.40117987032E+04 0.  0.
        1    1    3    3  502    0  0.18806629699E+04 -0.69742010594E+03 -0.11897517588E+04  0.23321229080E+04  0.50400001928E-02 0.  1.
       -1    1    3    3    0  502 -0.18806629699E+04  0.69742010594E+03 -0.12330986722E+04  0.23545318741E+04  0.50400001928E-02 0. -1.
</event>
<event>
 5   0  0.5945387E-08  0.3983218E+04  0.7818609E-02  0.8007941E-01
        2   -1    0    0  501    0  0.00000000000E+00  0.00000000000E+00  0.22373542013E+04  0.22373542013E+04  0.25500000920E-02 0. -1.
       -2   -1    0    0    0  501  0.00000000000E+00  0.00000000000E+00 -0.17728561717E+04  0.17728561717E+04  0.25500000920E-02 0.  1.
    10030    2    1    2    0    0  0.00000000000E+00  0.00000000000E+00  0.46449802956E+03  0.40102103730E+04  0.39832183993E+04 0.  0.
        3    1    3    3  502    0 -0.87969140562E+03  0.98086841694E+03  0.17358713297E+04  0.21792680203E+04  0.10100000352E+00 0. -1.
       -3    1    3    3    0  502  0.87969140562E+03 -0.98086841694E+03 -0.12713733002E+04  0.18309423527E+04  0.10100000352E+00 0.  1.
</event>
<event>
 5   0  0.5888700E-08  0.3954829E+04  0.7818609E-02  0.8013721E-01
        2   -1    0    0  501    0  0.00000000000E+00  0.00000000000E+00  0.19158067254E+04  0.19158067254E+04  0.25500000920E-02 0. -1.
       -2   -1    0    0    0  501  0.00000000000E+00  0.00000000000E+00 -0.20410032556E+04  0.20410032557E+04  0.25500000920E-02 0.  1.
    10030    2    1    2    0    0  0.00000000000E+00  0.00000000000E+00 -0.12519653023E+03  0.39568099811E+04  0.39548288275E+04 0.  0.
        5    1    3    3  502    0  0.33326566455E+03  0.90250294357E+03  0.16658574237E+04  0.19237153148E+04  0.46999998093E+01 0. -1.
       -5    1    3    3    0  502 -0.33326566455E+03 -0.90250294357E+03 -0.17910539539E+04  0.20330946663E+04  0.46999998093E+01 0.  1.
</event>
<event>
 5   0  0.1879500E-08  0.3996116E+04  0.7818609E-02  0.8005330E-01
        3   -1    0    0  501    0  0.00000000000E+00  0.00000000000E+00  0.13228516776E+04  0.13228516815E+04  0.10100000352E+00 0. -1.
       -3   -1    0    0    0  501  0.00000000000E+00  0.00000000000E+00 -0.30179015375E+04  0.30179015392E+04  0.10100000352E+00 0.  1.
    10030    2    1    2    0    0  0.00000000000E+00  0.00000000000E+00 -0.16950498599E+04  0.43407532207E+04  0.39961161764E+04 0.  0.
        2    1    3    3  502    0 -0.11989898633E+03 -0.10363659896E+04  0.10034936648E+04  0.14475599354E+04  0.25500000920E-02 0. -1.
       -2    1    3    3    0  502  0.11989898633E+03  0.10363659896E+04 -0.26985435247E+04  0.28931932853E+04  0.25500000920E-02 0.  1.
</event>
<event>
 5   0  0.5945387E-08  0.4002874E+04  0.7818609E-02  0.8003967E-01
        2   -1    0    0  501    0  0.00000000000E+00  0.00000000000E+00  0.13343151510E+04  0.13343151510E+04  0.25500000920E-02 0. -1.
       -2   -1    0    0    0  501  0.00000000000E+00  0.00000000000E+00 -0.30021012751E+04  0.30021012751E+04  0.25500000920E-02 0.  1.
    10030    2    1    2    0    0  0.00000000000E+00  0.00000000000E+00 -0.16677861241E+04  0.43364164261E+04  0.40028735759E+04 0.  0.
        3    1    3    3  502    0 -0.64881557438E+03  0.14778866877E+04  0.44820763439E+03  0.16751121768E+04  0.10100000352E+00 0. -1.
       -3    1    3    3    0  502  0.64881557438E+03 -0.14778866877E+04 -0.21159937584E+04  0.26613042493E+04  0.10100000352E+00 0.  1.
</event>
<event>
 5   0  0.5846812E-08  0.4035950E+04  0.7818609E-02  0.7997333E-01
        2   -1    0    0  501    0  0.00000000000E+00  0.00000000000E+00  0.24729302150E+04  0.24729302150E+04  0.25500000920E-02 0. -1.
       -2   -1    0    0    0  501  0.00000000000E+00  0.00000000000E+00 -0.16467195523E+04  0.16467195523E+04  0.25500000920E-02 0.  1.
    10030    2    1    2    0    0  0.00000000000E+00  0.00000000000E+00  0.82621066271E+03  0.41196497673E+04  0.40359497204E+04 0.  0.
        4    1    3    3  502    0 -0.15837983723E+04 -0.31456014654E+01  0.16895567330E+04  0.23158218295E+04  0.12699999809E+01 0. -1.
       -4    1    3    3    0  502  0.15837983723E+04  0.31456014654E+01 -0.86334607034E+03  0.18038279378E+04  0.12699999809E+01 0.  1.
</event>
<event>
 5   0  0.5888700E-08  0.3981797E+04  0.7818609E-02  0.8008229E-01
        2   -1    0    0  501    0  0.00000000000E+00  0.00000000000E+00  0.24824670181E+04  0.24824670181E+04  0.25500000920E-02 0.  1.
       -2   -1    0    0    0  501  0.00000000000E+00  0.00000000000E+00 -0.15966681389E+04  0.15966681389E+04  0.25500000920E-02 0. -1.
    10030    2    1    2    0    0  0.00000000000E+00  0.00000000000E+00  0.88579887919E+03  0.40791351570E+04  0.39817965762E+04 0.  0.
        5    1    3    3  502    0 -0.61222170183E+03  0.24092691525E+03 -0.14820757541E+04  0.16215522876E+04  0.46999998093E+01 0. -1.
       -5    1    3    3    0  502  0.61222170183E+03 -0.24092691525E+03  0.23678746333E+04  0.24575828693E+04  0.46999998093E+01 0.  1.
</event>
<event>
 5   0  0.1879500E-08  0.3985724E+04  0.7818609E-02  0.8007433E-01
       -1   -1    0    0    0  501  0.00000000000E+00  0.00000000000E+00  0.19117926912E+04  0.19117926912E+04  0.50400001928E-02 0. -1.
        1   -1    0    0  501    0  0.00000000000E+00  0.00000000000E+00 -0.20773693872E+04  0.20773693872E+04  0.50400001928E-02 0.  1.
    10030    2    1    2    0    0  0.00000000000E+00  0.00000000000E+00 -0.16557669603E+03  0.39891620784E+04  0.39857243313E+04 0.  0.
        5    1    3    3  502    0  0.78914767270E+03 -0.44531571953E+03  0.16936840808E+04  0.19208456457E+04  0.46999998093E+01 0. -1.
       -5    1    3    3    0  502 -0.78914767270E+03  0.44531571953E+03 -0.18592607768E+04  0.20683164326E+04  0.46999998093E+01 0.  1.
</event>
<event>
 5   0  0.5945387E-08  0.4026289E+04  0.7818609E-02  0.7999264E-01
        2   -1    0    0  501    0  0.00000000000E+00  0.00000000000E+00  0.12118692130E+04  0.12118692130E+04  0.25500000920E-02 0. -1.
       -2   -1    0    0    0  501  0.00000000000E+00  0.00000000000E+00 -0.33442151517E+04  0.33442151517E+04  0.25500000920E-02 0.  1.
    10030    2    1    2    0    0  0.00000000000E+00  0.00000000000E+00 -0.21323459387E+04  0.45560843647E+04  0.40262893011E+04 0.  0.
        3    1    3    3  502    0 -0.64485115378E+03  0.17538273331E+04 -0.19137346751E+04  0.26747193763E+04  0.10100000352E+00 0.  1.
       -3    1    3    3    0  502  0.64485115378E+03 -0.17538273331E+04 -0.21861126354E+03  0.18813649884E+04  0.10100000352E+00 0. -1.
</event>
<event>
 5   0  0.6161563E-08  0.4030394E+04  0.7818609E-02  0.7998443E-01
        2   -1    0    0  501    0  0.00000000000E+00  0.00000000000E+00  0.23744282646E+04  0.23744282646E+04  0.25500000920E-02 0. -1.
       -2   -1    0    0    0  501  0.00000000000E+00  0.00000000000E+00 -0.17103142361E+04  0.17103142361E+04  0.25500000920E-02 0.  1.
    10030    2    1    2    0    0  0.00000000000E+00  0.00000000000E+00  0.66411402857E+03  0.40847425007E+04  0.40303937592E+04 0.  0.
        1    1    3    3  502    0  0.25137870294E+03  0.75196334589E+03 -0.15455935955E+04  0.17370951869E+04  0.50400001928E-02 0.  1.
       -1    1    3    3    0  502 -0.25137870294E+03 -0.75196334589E+03  0.22097076241E+04  0.23476473138E+04  0.50400001928E-02 0. -1.
</event>
<event>
 5   0  0.5846812E-08  0.4001674E+04  0.7818609E-02  0.8004209E-01
        2   -1    0    0  501    0  0.00000000000E+00  0.00000000000E+00  0.14931524890E+04  0.14931524890E+04  0.25500000920E-02 0.  1.
       -2   -1    0    0    0  501  0.00000000000E+00  0.00000000000E+00 -0.26811384531E+04  0.26811384531E+04  0.25500000920E-02 0. -1.
    10030    2    1    2    0    0  0.00000000000E+00  0.00000000000E+00 -0.11879859641E+04  0.41742909421E+04  0.40016739270E+04 0.  0.
        4    1    3    3  502    0  0.12040368924E+04 -0.57593663411E+03  0.96092359365E+03  0.16446226347E+04  0.12699999809E+01 0.  1.
       -4    1    3    3    0  502 -0.12040368924E+04  0.57593663411E+03 -0.21489095577E+04  0.25296683073E+04  0.12699999809E+01 0. -1.
</event>
<event>
 5   0  0.6161563E-08  0.4001465E+04  0.7818609E-02  0.8004251E-01
        2   -1    0    0  501    0  0.00000000000E+00  0.00000000000E+00  0.31650685765E+04  0.31650685765E+04  0.25500000920E-02 0. -1.
       -2   -1    0    0    0  501  0.00000000000E+00  0.00000000000E+00 -0.12647215046E+04  0.12647215046E+04  0.25500000920E-02 0.  1.
    10030    2    1    2    0    0  0.00000000000E+00  0.00000000000E+00  0.19003470719E+04  0.44297900811E+04  0.40014648779E+04 0.  0.
        1    1    3    3  502    0 -0.35979569772E+03  0.14301462128E+04  0.24469989154E+04  0.28570220206E+04  0.50400001928E-02 0. -1.
       -1    1    3    3    0  502  0.35979569772E+03 -0.14301462128E+04 -0.54665184347E+03  0.15727680605E+04  0.50400001928E-02 0.  1.
</event>
<event>
 5   0  0.5945387E-08  0.4011486E+04  0.7818609E-02  0.8002234E-01
        2   -1    0    0  501    0  0.00000000000E+00  0.00000000000E+00  0.26092512239E+04  0.26092512239E+04  0.25500000920E-02 0. -1.
       -2   -1    0    0    0  501  0.00000000000E+00  0.00000000000E+00 -0.15418232605E+04  0.15418232605E+04  0.25500000920E-02 0.  1.
    10030    2    1    2    0    0  0.00000000000E+00  0.00000000000E+00  0.10674279634E+04  0.41510744843E+04  0.40114856247E+04 0.  0.
        3    1    3    3  502    0 -0.26851607133E+03  0.15784490988E+04 -0.71638016566E+03  0.17540818082E+04  0.10100000352E+00 0.  1.
       -3    1    3    3    0  502  0.26851607133E+03 -0.15784490988E+04  0.17838081290E+04  0.23969926761E+04  0.10100000352E+00 0. -1.
</event>
<event>
 5   0  0.5951623E-08  0.3994763E+04  0.7818609E-02  0.8005604E-01
       -2   -1    0    0    0  501  0.00000000000E+00  0.00000000000E+00  0.26433287061E+04  0.26433287061E+04  0.25500000920E-02 0.  1.
        2   -1    0    0  501    0  0.00000000000E+00  0.00000000000E+00 -0.15092837043E+04  0.15092837043E+04  0.25500000920E-02 0. -1.
    10030    2    1    2    0    0  0.00000000000E+00  0.00000000000E+00  0.11340450018E+04  0.41526124104E+04  0.39947630424E+04 0.  0.
        2    1    3    3  502    0  0.13957792911E+04 -0.48179193633E+03 -0.83119528098E+03  0.16944641910E+04  0.25500000920E-02 0. -1.
       -2    1    3    3    0  502 -0.13957792911E+04  0.48179193633E+03  0.19652402827E+04  0.24581482194E+04  0.25500000920E-02 0.  1.
</event>
<event>
 5   0  0.6161563E-08  0.3999500E+04  0.7818609E-02  0.8004647E-01
        2   -1    0    0  501    0  0.00000000000E+00  0.00000000000E+00  0.17369755331E+04  0.17369755331E+04  0.25500000920E-02 0. -1.
       -2   -1    0    0    0  501  0.00000000000E+00  0.00000000000E+00 -0.23022778718E+04  0.23022778718E+04  0.25500000920E-02 0.  1.
    10030    2    1    2    0    0  0.00000000000E+00  0.00000000000E+00 -0.56530233874E+03  0.40392534049E+04  0.39995001356E+04 0.  0.
        1    1    3    3  502    0 -0.97207719162E+01 -0.30352852519E+03 -0.22788539431E+04  0.22989996418E+04  0.50400001928E-02 0.  1.
       -1    1    3    3    0  502  0.97207719162E+01  0.30352852519E+03  0.17135516044E+04  0.17402537631E+04  0.50400001928E-02 0. -1.
</event>
<event>
 5   0  0.5951623E-08  0.3973341E+04  0.7818609E-02  0.8009946E-01
        2   -1    0    0  501    0  0.00000000000E+00  0.00000000000E+00  0.28434996858E+04  0.28434996858E+04  0.25500000920E-02 0.  1.
       -2   -1    0    0    0  501  0.00000000000E+00  0.00000000000E+00 -0.13880288767E+04  0.13880288767E+04  0.25500000920E-02 0. -1.
    10030    2    1    2    0    0  0.00000000000E+00  0.00000000000E+00  0.14554708091E+04  0.42315285625E+04  0.39733409996E+04 0.  0.
        2    1    3    3  502    0  0.32821172737E+03  0.48154648801E+03 -0.12949555953E+04  0.14200422360E+04  0.25500000920E-02 0. -1.
       -2    1    3    3    0  502 -0.32821172737E+03 -0.48154648801E+03  0.27504264045E+04  0.28114863266E+04  0.25500000920E-02 0.  1.
</event>
<event>
 5   0  0.1879500E-08  0.4003840E+04  0.7818609E-02  0.8003772E-01
        1   -1    0    0  501    0  0.00000000000E+00  0.00000000000E+00  0.22693635893E+04  0.22693635893E+04  0.50400001928E-02 0. -1.
       -1   -1    0    0    0  501  0.00000000000E+00  0.00000000000E+00 -0.17659945194E+04  0.17659945194E+04  0.50400001928E-02 0.  1.
    10030    2    1    2    0    0  0.00000000000E+00  0.00000000000E+00  0.50336906989E+03  0.40353581088E+04  0.40038399875E+04 0.  0.
        1    1    3    3  502    0  0.13431166226E+03 -0.35056380411E+03 -0.17302000638E+04  0.17704595065E+04  0.50400001928E-02 0.  1.
       -1    1    3    3    0  502 -0.13431166226E+03  0.35056380411E+03  0.22335691337E+04  0.22648986022E+04  0.50400001928E-02 0. -1.
</event>
<event>
 5   0  0.1879500E-08  0.3996904E+04  0.7818609E-02  0.8005171E-01
        1   -1    0    0  501    0  0.00000000000E+00  0.00000000000E+00  0.20916795216E+04  0.20916795216E+04  0.50400001928E-02 0.  1.
       -1   -1    0    0    0  501  0.00000000000E+00  0.00000000000E+00 -0.19093797843E+04  0.19093797843E+04  0.50400001928E-02 0. -1.
    10030    2    1    2    0    0  0.00000000000E+00  0.00000000000E+00  0.18229973728E+03  0.40010593060E+04  0.39969040989E+04 0.  0.
        2    1    3    3  502    0 -0.66606286959E+03  0.13585153551E+04 -0.12158133904E+04  0.19409806584E+04  0.25500000920E-02 0. -1.
       -2    1    3    3    0  502  0.66606286959E+03 -0.13585153551E+04  0.13981131277E+04  0.20600786475E+04  0.25500000920E-02 0.  1.
</event>
<event>
 5   0  0.1879500E-08  0.4001207E+04  0.7818609E-02  0.8004303E-01
        1   -1    0    0  501    0  0.00000000000E+00  0.00000000000E+00  0.23883319476E+04  0.23883319476E+04  0.50400001928E-02 0. -1.
       -1   -1    0    0    0  501  0.00000000000E+00  0.00000000000E+00 -0.16758203848E+04  0.16758203848E+04  0.50400001928E-02 0.  1.
    10030    2    1    2    0    0  0.00000000000E+00  0.00000000000E+00  0.71251156276E+03  0.40641523324E+04  0.40012074995E+04 0.  0.
        4    1    3    3  502    0  0.18062757931E+03 -0.16450698811E+04  0.14980086586E+04  0.22322438913E+04  0.12699999809E+01 0. -1.
       -4    1    3    3    0  502 -0.18062757931E+03  0.16450698811E+04 -0.78549709587E+03  0.18319084411E+04  0.12699999809E+01 0.  1.
</event>
<event>
 5   0  0.1879500E-08  0.3997589E+04  0.7818609E-02  0.8005033E-01
        3   -1    0    0  501    0  0.00000000000E+00  0.00000000000E+00  0.20449817971E+04  0.20449817996E+04  0.10100000352E+00 0.  1.
       -3   -1    0    0    0  501  0.00000000000E+00  0.00000000000E+00 -0.19536505727E+04  0.19536505753E+04  0.10100000352E+00 0. -1.
    10030    2    1    2    0    0  0.00000000000E+00  0.00000000000E+00  0.91331224384E+02  0.39986323749E+04  0.39975892082E+04 0.  0.
        5    1    3    3  502    0 -0.86956295458E+02 -0.78839533515E+03 -0.17894872780E+04  0.19574001660E+04  0.46999998093E+01 0. -1.
       -5    1    3    3    0  502  0.86956295458E+02  0.78839533515E+03  0.18808185024E+04  0.20412322089E+04  0.46999998093E+01 0.  1.
</event>
<event>
 5   0  0.5945387E-08  0.3871040E+04  0.7818609E-02  0.8031080E-01
        2   -1    0    0  501    0  0.00000000000E+00  0.00000000000E+00  0.19328784191E+04  0.19328784191E+04  0.25500000920E-02 0. -1.
       -2   -1    0    0    0  501  0.00000000000E+00  0.00000000000E+00 -0.19381648240E+04  0.19381648240E+04  0.25500000920E-02 0.  1.
    10030    2    1    2    0    0  0.00000000000E+00  0.00000000000E+00 -0.52864049803E+01  0.38710432431E+04  0.38710396335E+04 0.  0.
        3    1    3    3  502    0 -0.35537851655E+03  0.12104069153E+04 -0.14705880852E+04  0.19375262882E+04  0.10100000352E+00 0.  1.
       -3    1    3    3    0  502  0.35537851655E+03 -0.12104069153E+04  0.14653016802E+04  0.19335169549E+04  0.10100000352E+00 0. -1.
</event>
<event>
 5   0  0.5945387E-08  0.3938977E+04  0.7818609E-02  0.8016971E-01
        2   -1    0    0  501    0  0.00000000000E+00  0.00000000000E+00  0.17145588041E+04  0.17145588041E+04  0.25500000920E-02 0. -1.
       -2   -1    0    0    0  501  0.00000000000E+00  0.00000000000E+00 -0.22623224189E+04  0.22623224189E+04  0.25500000920E-02 0.  1.
    10030    2    1    2    0    0  0.00000000000E+00  0.00000000000E+00 -0.54776361484E+03  0.39768812230E+04  0.39389769337E+04 0.  0.
        3    1    3    3  502    0  0.19431252542E+04 -0.31272587454E+03 -0.34774029152E+03  0.19986136561E+04  0.10100000352E+00 0. -1.
       -3    1    3    3    0  502 -0.19431252542E+04  0.31272587454E+03 -0.20002332332E+03  0.19782675668E+04  0.10100000352E+00 0.  1.
</event>
<event>
 5   0  0.1879500E-08  0.3833849E+04  0.7818609E-02  0.8038930E-01
        1   -1    0    0  501    0  0.00000000000E+00  0.00000000000E+00  0.20711046098E+04  0.20711046098E+04  0.50400001928E-02 0. -1.
       -1   -1    0    0    0  501  0.00000000000E+00  0.00000000000E+00 -0.17742224915E+04  0.17742224915E+04  0.50400001928E-02 0.  1.
    10030    2    1    2    0    0  0.00000000000E+00  0.00000000000E+00  0.29688211826E+03  0.38453271013E+04  0.38338494394E+04 0.  0.
        3    1    3    3  502    0 -0.11187909987E+04  0.14676369154E+04  0.66859652589E+03  0.19628226458E+04  0.10100000352E+00 0. -1.
       -3    1    3    3    0  502  0.11187909987E+04 -0.14676369154E+04 -0.37171440764E+03  0.18825044555E+04  0.10100000352E+00 0.  1.
</event>
<event>
 5   0  0.1879500E-08  0.4026719E+04  0.7818609E-02  0.7999178E-01
       -1   -1    0    0    0  501  0.00000000000E+00  0.00000000000E+00  0.15037367292E+04  0.15037367292E+04  0.50400001928E-02 0. -1.
        1   -1    0    0  501    0  0.00000000000E+00  0.00000000000E+00 -0.26956950256E+04  0.26956950256E+04  0.50400001928E-02 0.  1.
    10030    2    1    2    0    0  0.00000000000E+00  0.00000000000E+00 -0.11919582964E+04  0.41994317548E+04  0.40267185750E+04 0.  0.
        4    1    3    3  502    0  0.68915337783E+03  0.71014201746E+03 -0.24245762160E+04  0.26187412058E+04  0.12699999809E+01 0.  1.
       -4    1    3    3    0  502 -0.68915337783E+03 -0.71014201746E+03  0.12326179195E+04  0.15806905490E+04  0.12699999809E+01 0. -1.
</event>
<event>
 5   0  0.1879500E-08  0.3961873E+04  0.7818609E-02  0.8012282E-01
       -3   -1    0    0    0  501  0.00000000000E+00  0.00000000000E+00  0.24107223809E+04  0.24107223831E+04  0.10100000352E+00 0. -1.
        3   -1    0    0  501    0  0.00000000000E+00  0.00000000000E+00 -0.16277731552E+04  0.16277731583E+04  0.10100000352E+00 0.  1.
    10030    2    1    2    0    0  0.00000000000E+00  0.00000000000E+00  0.78294922575E+03  0.40384955414E+04  0.39618728838E+04 0.  0.
        3    1    3    3  502    0  0.89060752672E+03 -0.70892396221E+03  0.20440490027E+04  0.23396348618E+04  0.10100000352E+00 0. -1.
       -3    1    3    3    0  502 -0.89060752672E+03  0.70892396221E+03 -0.12610997770E+04  0.16988606796E+04  0.10100000352E+00 0.  1.
</event>
<event>
 5   0  0.5846812E-08  0.3928573E+04  0.7818609E-02  0.8019113E-01
        2   -1    0    0  501    0  0.00000000000E+00  0.00000000000E+00  0.19365085039E+04  0.19365085039E+04  0.25500000920E-02 0.  1.
       -2   -1    0    0    0  501  0.00000000000E+00  0.00000000000E+00 -0.19924630291E+04  0.19924630291E+04  0.25500000920E-02 0. -1.
    10030    2    1    2    0    0  0.00000000000E+00  0.00000000000E+00 -0.55954525155E+02  0.39289715330E+04  0.39285730740E+04 0.  0.
        4    1    3    3  502    0 -0.18288485560E+04  0.59596694582E+03 -0.42620899234E+03  0.19701571915E+04  0.12699999809E+01 0. -1.
       -4    1    3    3    0  502  0.18288485560E+04 -0.59596694582E+03  0.37025446719E+03  0.19588143415E+04  0.12699999809E+01 0.  1.
</event>
<event>
 5   0  0.5846812E-08  0.3995810E+04  0.7818609E-02  0.8005392E-01
       -2   -1    0    0    0  501  0.00000000000E+00  0.00000000000E+00  0.22463132932E+04  0.22463132932E+04  0.25500000920E-02 0.  1.
        2   -1    0    0  501    0  0.00000000000E+00  0.00000000000E+00 -0.17769668123E+04  0.17769668123E+04  0.25500000920E-02 0. -1.
    10030    2    1    2    0    0  0.00000000000E+00  0.00000000000E+00  0.46934648085E+03  0.40232801055E+04  0.39958098914E+04 0.  0.
        4    1    3    3  502    0 -0.72578050682E+03  0.64593476231E+03  0.19924220857E+04  0.22166949366E+04  0.12699999809E+01 0.  1.
       -4    1    3    3    0  502  0.72578050682E+03 -0.64593476231E+03 -0.15230756049E+04  0.18065851689E+04  0.12699999809E+01 0. -1.
</event>
<event>
 5   0  0.5945387E-08  0.3977765E+04  0.7818609E-02  0.8009047E-01
        2   -1    0    0  501    0  0.00000000000E+00  0.00000000000E+00  0.17311663856E+04  0.17311663856E+04  0.25500000920E-02 0.  1.
       -2   -1    0    0    0  501  0.00000000000E+00  0.00000000000E+00 -0.22849645219E+04  0.22849645219E+04  0.25500000920E-02 0. -1.
    10030    2    1    2    0    0  0.00000000000E+00  0.00000000000E+00 -0.55379813631E+03  0.40161309075E+04  0.39777650874E+04 0.  0.
        3    1    3    3  502    0 -0.13929636240E+04  0.65578728723E+03  0.99431149102E+03  0.18327738473E+04  0.10100000352E+00 0.  1.
       -3    1    3    3    0  502  0.13929636240E+04 -0.65578728723E+03 -0.15481096273E+04  0.21833570602E+04  0.10100000352E+00 0. -1.
</event>
<event>
 5   0  0.1879500E-08  0.3994609E+04  0.7818609E-02  0.8005635E-01
        1   -1    0    0  501    0  0.00000000000E+00  0.00000000000E+00  0.21901057670E+04  0.21901057670E+04  0.50400001928E-02 0.  1.
       -1   -1    0    0    0  501  0.00000000000E+00  0.00000000000E+00 -0.18214765328E+04  0.18214765329E+04  0.50400001928E-02 0. -1.
    10030    2    1    2    0    0  0.00000000000E+00  0.00000000000E+00  0.36862923412E+03  0.40115822998E+04  0.39946094973E+04 0.  0.
        1    1    3    3  502    0  0.31370413334E+02 -0.11323772428E+04 -0.14676562278E+04  0.18539895161E+04  0.50400001928E-02 0. -1.
       -1    1    3    3    0  502 -0.31370413334E+02  0.11323772428E+04  0.18362854619E+04  0.21575927837E+04  0.50400001928E-02 0.  1.
</event>
<event>
 5   0  0.5846812E-08  0.3989266E+04  0.7818609E-02  0.8006715E-01
        2   -1    0    0  501    0  0.00000000000E+00  0.00000000000E+00  0.23626276133E+04  0.23626276133E+04  0.25500000920E-02 0.  1.
       -2   -1    0    0    0  501  0.00000000000E+00  0.00000000000E+00 -0.16839557127E+04  0.16839557127E+04  0.25500000920E-02 0. -1.
    10030    2    1    2    0    0  0.00000000000E+00  0.00000000000E+00  0.67867190056E+03  0.40465833260E+04  0.39892657302E+04 0.  0.
        4    1    3    3  502    0 -0.20996174800E+03 -0.18984254824E+04  0.92244791379E+03  0.21210881675E+04  0.12699999809E+01 0.  1.
       -4    1    3    3    0  502  0.20996174800E+03  0.18984254824E+04 -0.24377601324E+03  0.19254951585E+04  0.12699999809E+01 0. -1.
</event>
<event>
 5   0  0.1879500E-08  0.3980018E+04  0.7818609E-02  0.8008590E-01
       -1   -1    0    0    0  501  0.00000000000E+00  0.00000000000E+00  0.24254917222E+04  0.24254917222E+04  0.50400001928E-02 0. -1.
        1   -1    0    0  501    0  0.00000000000E+00  0.00000000000E+00 -0.16327148444E+04  0.16327148444E+04  0.50400001928E-02 0.  1.
    10030    2    1    2    0    0  0.00000000000E+00  0.00000000000E+00  0.79277687775E+03  0.40582065666E+04  0.39800182612E+04 0.  0.
        4    1    3    3  502    0 -0.50726159893E+03 -0.16854988692E+04 -0.55024325698E+03  0.18441773295E+04  0.12699999809E+01 0.  1.
       -4    1    3    3    0  502  0.50726159893E+03  0.16854988692E+04  0.13430201347E+04  0.22140292371E+04  0.12699999809E+01 0. -1.
</event>
<event>
 5   0  0.6161563E-08  0.4011823E+04  0.7818609E-02  0.8002166E-01
       -2   -1    0    0    0  501  0.00000000000E+00  0.00000000000E+00  0.16251387600E+04  0.16251387600E+04  0.25500000920E-02 0. -1.
        2   -1    0    0  501    0  0.00000000000E+00  0.00000000000E+00 -0.24758993947E+04  0.24758993947E+04  0.25500000920E-02 0.  1.
    10030    2    1    2    0    0  0.00000000000E+00  0.00000000000E+00 -0.85076063470E+03  0.41010381547E+04  0.40118225645E+04 0.  0.
        1    1    3    3  502    0 -0.71301381320E+03 -0.16126244668E+04 -0.14030664012E+04  0.22533401197E+04  0.50400001928E-02 0.  1.
       -1    1    3    3    0  502  0.71301381320E+03  0.16126244668E+04  0.55230576655E+03  0.18476980350E+04  0.50400001928E-02 0. -1.
</event>
<event>
 5   0  0.5888700E-08  0.4017748E+04  0.7818609E-02  0.8000976E-01
        2   -1    0    0  501    0  0.00000000000E+00  0.00000000000E+00  0.27039237582E+04  0.27039237582E+04  0.25500000920E-02 0. -1.
       -2   -1    0    0    0  501  0.00000000000E+00  0.00000000000E+00 -0.14924881967E+04  0.14924881967E+04  0.25500000920E-02 0.  1.
    10030    2    1    2    0    0  0.00000000000E+00  0.00000000000E+00  0.12114355614E+04  0.41964119549E+04  0.40177477740E+04 0.  0.
        5    1    3    3  502    0  0.14426139994E+04 -0.13910848083E+04  0.46061513719E+03  0.20563172153E+04  0.46999998093E+01 0.  1.
       -5    1    3    3    0  502 -0.14426139994E+04  0.13910848083E+04  0.75082042426E+03  0.21400947396E+04  0.46999998093E+01 0. -1.
</event>
<event>
 5   0  0.1879500E-08  0.4012117E+04  0.7818609E-02  0.8002107E-01
       -1   -1    0    0    0  501  0.00000000000E+00  0.00000000000E+00  0.21571124270E+04  0.21571124270E+04  0.50400001928E-02 0.  1.
        1   -1    0    0  501    0  0.00000000000E+00  0.00000000000E+00 -0.18655820548E+04  0.18655820548E+04  0.50400001928E-02 0. -1.
    10030    2    1    2    0    0  0.00000000000E+00  0.00000000000E+00  0.29153037219E+03  0.40226944817E+04  0.40121167649E+04 0.  0.
        1    1    3    3  502    0 -0.13057638100E+04 -0.15209643747E+04  0.68630720287E+02  0.20057571968E+04  0.50400001928E-02 0. -1.
       -1    1    3    3    0  502  0.13057638100E+04  0.15209643747E+04  0.22289965190E+03  0.20169372850E+04  0.50400001928E-02 0.  1.
</event>
<event>
 5   0  0.1879500E-08  0.4004571E+04  0.7818609E-02  0.8003625E-01
       -1   -1    0    0    0  501  0.00000000000E+00  0.00000000000E+00  0.17406613238E+04  0.17406613238E+04  0.50400001928E-02 0.  1.
        1   -1    0    0  501    0  0.00000000000E+00  0.00000000000E+00 -0.23032322857E+04  0.23032322857E+04  0.50400001928E-02 0. -1.
    10030    2    1    2    0    0  0.00000000000E+00  0.00000000000E+00 -0.56257096195E+03  0.40438936095E+04  0.40045710679E+04 0.  0.
        1    1    3    3  502    0 -0.17891556183E+04  0.59221167834E+03 -0.96420632053E+03  0.21169521315E+04  0.50400001928E-02 0. -1.
       -1    1    3    3    0  502  0.17891556183E+04 -0.59221167834E+03  0.40163535859E+03  0.19269414780E+04  0.50400001928E-02 0.  1.
</event>
<event>
 5   0  0.1879500E-08  0.3995149E+04  0.7818609E-02  0.8005526E-01
       -1   -1    0    0    0  501  0.00000000000E+00  0.00000000000E+00  0.11792517050E+04  0.11792517050E+04  0.50400001928E-02 0. -1.
        1   -1    0    0  501    0  0.00000000000E+00  0.00000000000E+00 -0.33837588450E+04  0.33837588450E+04  0.50400001928E-02 0.  1.
    10030    2    1    2    0    0  0.00000000000E+00  0.00000000000E+00 -0.22045071400E+04  0.45630105500E+04  0.39951487518E+04 0.  0.
        4    1    3    3  502    0  0.14289799991E+04  0.13438678476E+04 -0.67135242946E+03  0.20733259095E+04  0.12699999809E+01 0. -1.
       -4    1    3    3    0  502 -0.14289799991E+04 -0.13438678476E+04 -0.15331547106E+04  0.24896846405E+04  0.12699999809E+01 0.  1.
</event>
<event>
 5   0  0.5846812E-08  0.3947461E+04  0.7818609E-02  0.8015230E-01
       -2   -1    0    0    0  501  0.00000000000E+00  0.00000000000E+00  0.15204564570E+04  0.15204564570E+04  0.25500000920E-02 0.  1.
        2   -1    0    0  501    0  0.00000000000E+00  0.00000000000E+00 -0.25621330532E+04  0.25621330532E+04  0.25500000920E-02 0. -1.
    10030    2    1    2    0    0  0.00000000000E+00  0.00000000000E+00 -0.10416765962E+04  0.40825895102E+04  0.39474608266E+04 0.  0.
        4    1    3    3  502    0  0.45310364787E+02 -0.69955306143E+03  0.13873635463E+04  0.15544152397E+04  0.12699999809E+01 0.  1.
       -4    1    3    3    0  502 -0.45310364787E+02  0.69955306143E+03 -0.24290401425E+04  0.25281742705E+04  0.12699999809E+01 0. -1.
</event>
<event>
 5   0  0.1879500E-08  0.3990784E+04  0.7818609E-02  0.8006408E-01
        1   -1    0    0  501    0  0.00000000000E+00  0.00000000000E+00  0.18628365732E+04  0.18628365733E+04  0.50400001928E-02 0. -1.
       -1   -1    0    0    0  501  0.00000000000E+00  0.00000000000E+00 -0.21373793357E+04  0.21373793357E+04  0.50400001928E-02 0.  1.
    10030    2    1    2    0    0  0.00000000000E+00  0.00000000000E+00 -0.27454276241E+03  0.40002159089E+04  0.39907835809E+04 0.  0.
        1    1    3    3  502    0 -0.11851738526E+04 -0.72023780026E+03 -0.15753081030E+04  0.20988032707E+04  0.50400001928E-02 0.  1.
       -1    1    3    3    0  502  0.11851738526E+04  0.72023780026E+03  0.13007653405E+04  0.19014126382E+04  0.50400001928E-02 0. -1.
</event>
<event>
 5   0  0.6161563E-08  0.4005054E+04  0.7818609E-02  0.8003528E-01
       -2   -1    0    0    0  501  0.00000000000E+00  0.00000000000E+00  0.20579060689E+04  0.20579060689E+04  0.25500000920E-02 0.  1.
        2   -1    0    0  501    0  0.00000000000E+00  0.00000000000E+00 -0.19486381626E+04  0.19486381626E+04  0.25500000920E-02 0. -1.
    10030    2    1    2    0    0  0.00000000000E+00  0.00000000000E+00  0.10926790632E+03  0.40065442315E+04  0.40050539577E+04 0.  0.
        1    1    3    3  502    0 -0.11280751271E+04  0.12886580543E+04  0.10927682498E+04  0.20315844854E+04  0.50400001928E-02 0. -1.
       -1    1    3    3    0  502  0.11280751271E+04 -0.12886580543E+04 -0.98350034352E+03  0.19749597462E+04  0.50400001928E-02 0.  1.
</event>
<event>
 5   0  0.1879500E-08  0.3969686E+04  0.7818609E-02  0.8010690E-01
       -3   -1    0    0    0  501  0.00000000000E+00  0.00000000000E+00  0.27839224260E+04  0.27839224278E+04  0.10100000352E+00 0.  1.
        3   -1    0    0  501    0  0.00000000000E+00  0.00000000000E+00 -0.14151261809E+04  0.14151261845E+04  0.10100000352E+00 0. -1.
    10030    2    1    2    0    0  0.00000000000E+00  0.00000000000E+00  0.13687962451E+04  0.41990486123E+04  0.39696858928E+04 0.  0.
        5    1    3    3  502    0 -0.12022398724E+04 -0.12218679085E+04 -0.37403475040E+03  0.17544987835E+04  0.46999998093E+01 0. -1.
       -5    1    3    3    0  502  0.12022398724E+04  0.12218679085E+04  0.17428309955E+04  0.24445498288E+04  0.46999998093E+01 0.  1.
</event>
<event>
 5   0  0.5945387E-08  0.3940732E+04  0.7818609E-02  0.8016611E-01
       -2   -1    0    0    0  501  0.00000000000E+00  0.00000000000E+00  0.21673336090E+04  0.21673336090E+04  0.25500000920E-02 0.  1.
        2   -1    0    0  501    0  0.00000000000E+00  0.00000000000E+00 -0.17912992303E+04  0.17912992303E+04  0.25500000920E-02 0. -1.
    10030    2    1    2    0    0  0.00000000000E+00  0.00000000000E+00  0.37603437872E+03  0.39586328393E+04  0.39407324322E+04 0.  0.
        3    1    3    3  502    0 -0.16751703798E+04 -0.57875726138E+03 -0.67681579255E+03  0.18971650946E+04  0.10100000352E+00 0. -1.
       -3    1    3    3    0  502  0.16751703798E+04  0.57875726138E+03  0.10528501713E+04  0.20614677447E+04  0.10100000352E+00 0.  1.
</event>
<event>
 5   0  0.1879500E-08  0.3980372E+04  0.7818609E-02  0.8008518E-01
       -1   -1    0    0    0  501  0.00000000000E+00  0.00000000000E+00  0.20030565920E+04  0.20030565920E+04  0.50400001928E-02 0.  1.
        1   -1    0    0  501    0  0.00000000000E+00  0.00000000000E+00 -0.19773985264E+04  0.19773985264E+04  0.50400001928E-02 0. -1.
    10030    2    1    2    0    0  0.00000000000E+00  0.00000000000E+00  0.25658065613E+02  0.39804551184E+04  0.39803724214E+04 0.  0.
        1    1    3    3  502    0 -0.15446475466E+04  0.21457500972E+03 -0.12236685223E+04  0.19822570798E+04  0.50400001928E-02 0. -1.
       -1    1    3    3    0  502  0.15446475466E+04 -0.21457500972E+03  0.12493265879E+04  0.19981980386E+04  0.50400001928E-02 0.  1.
</event>
<event>
 5   0  0.5888700E-08  0.4014337E+04  0.7818609E-02  0.8001661E-01
       -2   -1    0    0    0  501  0.00000000000E+00  0.00000000000E+00  0.33049765344E+04  0.33049765344E+04  0.25500000920E-02 0. -1.
        2   -1    0    0  501    0  0.00000000000E+00  0.00000000000E+00 -0.12189875008E+04  0.12189875008E+04  0.25500000920E-02 0.  1.
    10030    2    1    2    0    0  0.00000000000E+00  0.00000000000E+00  0.20859890336E+04  0.45239640352E+04  0.40143368497E+04 0.  0.
        5    1    3    3  502    0 -0.13222295686E+04  0.15045510385E+04  0.89719406119E+03  0.21947537750E+04  0.46999998093E+01 0.  1.
       -5    1    3    3    0  502  0.13222295686E+04 -0.15045510385E+04  0.11887949724E+04  0.23292102602E+04  0.46999998093E+01 0. -1.
</event>
<event>
 5   0  0.1879500E-08  0.3997372E+04  0.7818609E-02  0.8005077E-01
       -1   -1    0    0    0  501  0.00000000000E+00  0.00000000000E+00  0.16528740268E+04  0.16528740268E+04  0.50400001928E-02 0.  1.
        1   -1    0    0  501    0  0.00000000000E+00  0.00000000000E+00 -0.24168478498E+04  0.24168478498E+04  0.50400001928E-02 0. -1.
    10030    2    1    2    0    0  0.00000000000E+00  0.00000000000E+00 -0.76397382307E+03  0.40697218766E+04  0.39973716553E+04 0.  0.
        1    1    3    3  502    0 -0.99036111945E+03  0.10562829915E+04 -0.17846738217E+04  0.22981752664E+04  0.50400001928E-02 0. -1.
       -1    1    3    3    0  502  0.99036111945E+03 -0.10562829915E+04  0.10206999986E+04  0.17715466102E+04  0.50400001928E-02 0.  1.
</event>
<event>
 5   0  0.1879500E-08  0.3998767E+04  0.7818609E-02  0.8004795E-01
       -3   -1    0    0    0  501  0.00000000000E+00  0.00000000000E+00  0.21463769979E+04  0.21463770003E+04  0.10100000352E+00 0.  1.
        3   -1    0    0  501    0  0.00000000000E+00  0.00000000000E+00 -0.18624571497E+04  0.18624571524E+04  0.10100000352E+00 0. -1.
    10030    2    1    2    0    0  0.00000000000E+00  0.00000000000E+00  0.28391984825E+03  0.40088341527E+04  0.39987674080E+04 0.  0.
        4    1    3    3  502    0  0.36252560823E+03  0.48958940257E+02  0.21125409983E+04  0.21439806148E+04  0.12699999809E+01 0.  1.
       -4    1    3    3    0  502 -0.36252560823E+03 -0.48958940257E+02 -0.18286211500E+04  0.18648535379E+04  0.12699999809E+01 0. -1.
</event>
<event>
 5   0  0.1879500E-08  0.4002673E+04  0.7818609E-02  0.8004007E-01
       -1   -1    0    0    0  501  0.00000000000E+00  0.00000000000E+00  0.21693354868E+04  0.21693354868E+04  0.50400001928E-02 0.  1.
        1   -1    0    0  501    0  0.00000000000E+00  0.00000000000E+00 -0.18463481612E+04  0.18463481612E+04  0.50400001928E-02 0. -1.
    10030    2    1    2    0    0  0.00000000000E+00  0.00000000000E+00  0.32298732558E+03  0.40156836481E+04  0.40026734002E+04 0.  0.
        3    1    3    3  502    0 -0.10387000301E+04  0.34399497135E+03  0.18426845826E+04  0.21430624755E+04  0.10100000352E+00 0.  1.
       -3    1    3    3    0  502  0.10387000301E+04 -0.34399497135E+03 -0.15196972570E+04  0.18726211726E+04  0.10100000352E+00 0. -1.
</event>
<event>
 5   0  0.5846812E-08  0.4008895E+04  0.7818609E-02  0.8002754E-01
       -2   -1    0    0    0  501  0.00000000000E+00  0.00000000000E+00  0.14209674925E+04  0.14209674925E+04  0.25500000920E-02 0. -1.
        2   -1    0    0  501    0  0.00000000000E+00  0.00000000000E+00 -0.28275174872E+04  0.28275174872E+04  0.25500000920E-02 0.  1.
    10030    2    1    2    0    0  0.00000000000E+00  0.00000000000E+00 -0.14065499948E+04  0.42484849797E+04  0.40088953260E+04 0.  0.
        4    1    3    3  502    0  0.16015781980E+04  0.11524325097E+04 -0.32910847188E+03  0.20003668196E+04  0.12699999809E+01 0.  1.
       -4    1    3    3    0  502 -0.16015781980E+04 -0.11524325097E+04 -0.10774415229E+04  0.22481181601E+04  0.12699999809E+01 0. -1.
</event>
<event>
 5   0  0.1879500E-08  0.3981032E+04  0.7818609E-02  0.8008384E-01
       -1   -1    0    0    0  501  0.00000000000E+00  0.00000000000E+00  0.26440566400E+04  0.26440566400E+04  0.50400001928E-02 0. -1.
        1   -1    0    0  501    0  0.00000000000E+00  0.00000000000E+00 -0.14985132009E+04  0.14985132009E+04  0.50400001928E-02 0.  1.
    10030    2    1    2    0    0  0.00000000000E+00  0.00000000000E+00  0.11455434391E+04  0.41425698409E+04  0.39810319159E+04 0.  0.
        2    1    3    3  502    0  0.15208919435E+04 -0.12532940889E+04  0.28160461459E+03  0.19907685792E+04  0.25500000920E-02 0.  1.
       -2    1    3    3    0  502 -0.15208919435E+04  0.12532940889E+04  0.86393882450E+03  0.21518012616E+04  0.25500000920E-02 0. -1.
</event>
<event>
 5   0  0.6161563E-08  0.4007246E+04  0.7818609E-02  0.8003086E-01
        2   -1    0    0  501    0  0.00000000000E+00  0.00000000000E+00  0.24204900992E+04  0.24204900992E+04  0.25500000920E-02 0. -1.
       -2   -1    0    0    0  501  0.00000000000E+00  0.00000000000E+00 -0.16585508253E+04  0.16585508253E+04  0.25500000920E-02 0.  1.
    10030    2    1    2    0    0  0.00000000000E+00  0.00000000000E+00  0.76193927391E+03  0.40790409246E+04  0.40072463622E+04 0.  0.
        1    1    3    3  502    0  0.14454957802E+04 -0.11563275666E+04  0.11614892613E+04  0.21853166352E+04  0.50400001928E-02 0. -1.
       -1    1    3    3    0  502 -0.14454957802E+04  0.11563275666E+04 -0.39954998735E+03  0.18937242894E+04  0.50400001928E-02 0.  1.
</event>
<event>
 5   0  0.5846812E-08  0.4006081E+04  0.7818609E-02  0.8003321E-01
        2   -1    0    0  501    0  0.00000000000E+00  0.00000000000E+00  0.12063653946E+04  0.12063653946E+04  0.25500000920E-02 0.  1.
       -2   -1    0    0    0  501  0.00000000000E+00  0.00000000000E+00 -0.33258333823E+04  0.33258333823E+04  0.25500000920E-02 0. -1.
    10030    2    1    2    0    0  0.00000000000E+00  0.00000000000E+00 -0.21194679876E+04  0.45321987769E+04  0.40060805288E+04 0.  0.
        4    1    3    3  502    0  0.23162056725E+03  0.85042744611E+03  0.97518035531E+03  0.13144783249E+04  0.12699999809E+01 0.  1.
       -4    1    3    3    0  502 -0.23162056725E+03 -0.85042744611E+03 -0.30946483429E+04  0.32177204521E+04  0.12699999809E+01 0. -1.
</event>
<event>
 5   0  0.5846812E-08  0.4003250E+04  0.7818609E-02  0.8003891E-01
        2   -1    0    0  501    0  0.00000000000E+00  0.00000000000E+00  0.24618917816E+04  0.24618917816E+04  0.25500000920E-02 0.  1.
       -2   -1    0    0    0  501  0.00000000000E+00  0.00000000000E+00 -0.16274081252E+04  0.16274081252E+04  0.25500000920E-02 0. -1.
    10030    2    1    2    0    0  0.00000000000E+00  0.00000000000E+00  0.83448365643E+03  0.40892999069E+04  0.40032500241E+04 0.  0.
        4    1    3    3  502    0 -0.13210426850E+04 -0.50713367774E+03  0.18633565216E+04  0.23397515856E+04  0.12699999809E+01 0.  1.
       -4    1    3    3    0  502  0.13210426850E+04  0.50713367774E+03 -0.10288728652E+04  0.17495483213E+04  0.12699999809E+01 0. -1.
</event>
<event>
 5   0  0.5951623E-08  0.4003148E+04  0.7818609E-02  0.8003912E-01
        2   -1    0    0  501    0  0.00000000000E+00  0.00000000000E+00  0.15858025500E+04  0.15858025500E+04  0.25500000920E-02 0. -1.
       -2   -1    0    0    0  501  0.00000000000E+00  0.00000000000E+00 -0.25263538865E+04  0.25263538865E+04  0.25500000920E-02 0.  1.
    10030    2    1    2    0    0  0.00000000000E+00  0.00000000000E+00 -0.94055133653E+03  0.41121564364E+04  0.40031479789E+04 0.  0.
        2    1    3    3  502    0 -0.81376649374E+03  0.32930917793E+03  0.13774944809E+04  0.16334477298E+04  0.25500000920E-02 0. -1.
       -2    1    3    3    0  502  0.81376649374E+03 -0.32930917793E+03 -0.23180458174E+04  0.24787087067E+04  0.25500000920E-02 0.  1.
</event>
<event>
 5   0  0.5945387E-08  0.3958510E+04  0.7818609E-02  0.8012969E-01
       -2   -1    0    0    0  501  0.00000000000E+00  0.00000000000E+00  0.35673562187E+04  0.35673562187E+04  0.25500000920E-02 0.  1.
        2   -1    0    0  501    0  0.00000000000E+00  0.00000000000E+00 -0.10981384727E+04  0.10981384727E+04  0.25500000920E-02 0. -1.
    10030    2    1    2    0    0  0.00000000000E+00  0.00000000000E+00  0.24692177459E+04  0.46654946914E+04  0.39585103813E+04 0.  0.
        3    1    3    3  502    0 -0.21840732818E+03 -0.17440347656E+04  0.16208930262E+03  0.17651152871E+04  0.10100000352E+00 0. -1.
       -3    1    3    3    0  502  0.21840732818E+03  0.17440347656E+04  0.23071284433E+04  0.29003794043E+04  0.10100000352E+00 0.  1.
</event>
<event>
 5   0  0.1879500E-08  0.4008171E+04  0.7818609E-02  0.8002900E-01
       -1   -1    0    0    0  501  0.00000000000E+00  0.00000000000E+00  0.20920090936E+04  0.20920090936E+04  0.50400001928E-02 0. -1.
        1   -1    0    0  501    0  0.00000000000E+00  0.00000000000E+00 -0.19198573033E+04  0.19198573033E+04  0.50400001928E-02 0.  1.
    10030    2    1    2    0    0  0.00000000000E+00  0.00000000000E+00  0.17215179033E+03  0.40118663969E+04  0.40081711225E+04 0.  0.
        3    1    3    3  502    0  0.40225377187E+03  0.16366700737E+04  0.11714472768E+04  0.20525071887E+04  0.10100000352E+00 0. -1.
       -3    1    3    3    0  502 -0.40225377187E+03 -0.16366700737E+04 -0.99929548645E+03  0.19593592082E+04  0.10100000352E+00 0.  1.
</event>
<event>
 5   0  0.1879500E-08  0.4008435E+04  0.7818609E-02  0.8002847E-01
       -1   -1    0    0    0  501  0.00000000000E+00  0.00000000000E+00  0.17786267574E+04  0.17786267575E+04  0.50400001928E-02 0. -1.
        1   -1    0    0  501    0  0.00000000000E+00  0.00000000000E+00 -0.22584206564E+04  0.22584206564E+04  0.50400001928E-02 0.  1.
    10030    2    1    2    0    0  0.00000000000E+00  0.00000000000E+00 -0.47979389900E+03  0.40370474139E+04  0.40084348113E+04 0.  0.
        4    1    3    3  502    0 -0.19243161730E+04 -0.44547939809E+03 -0.58208857920E+03  0.20591924035E+04  0.12699999809E+01 0.  1.
       -4    1    3    3    0  502  0.19243161730E+04  0.44547939809E+03  0.10229468021E+03  0.19778550104E+04  0.12699999809E+01 0. -1.
</event>
<event>
 5   0  0.5945387E-08  0.3962665E+04  0.7818609E-02  0.8012121E-01
       -2   -1    0    0    0  501  0.00000000000E+00  0.00000000000E+00  0.18368920618E+04  0.18368920618E+04  0.25500000920E-02 0. -1.
        2   -1    0    0  501    0  0.00000000000E+00  0.00000000000E+00 -0.21371312278E+04  0.21371312278E+04  0.25500000920E-02 0.  1.
    10030    2    1    2    0    0  0.00000000000E+00  0.00000000000E+00 -0.30023916601E+03  0.39740232896E+04  0.39626654602E+04 0.  0.
        3    1    3    3  502    0 -0.54773128093E+03 -0.13321379385E+03  0.17547782298E+04  0.18430957970E+04  0.10100000352E+00 0. -1.
       -3    1    3    3    0  502  0.54773128093E+03  0.13321379385E+03 -0.20550173958E+04  0.21309274925E+04  0.10100000352E+00 0.  1.
</event>
<event>
 5   0  0.5951623E-08  0.3980967E+04  0.7818609E-02  0.8008397E-01
       -2   -1    0    0    0  501  0.00000000000E+00  0.00000000000E+00  0.13914619098E+04  0.13914619098E+04  0.25500000920E-02 0. -1.
        2   -1    0    0  501    0  0.00000000000E+00  0.00000000000E+00 -0.28473820149E+04  0.28473820149E+04  0.25500000920E-02 0.  1.
    10030    2    1    2    0    0  0.00000000000E+00  0.00000000000E+00 -0.14559201051E+04  0.42388439247E+04  0.39809665241E+04 0.  0.
        2    1    3    3  502    0 -0.18871125760E+04 -0.46531955656E+03 -0.27083992078E+03  0.19624144381E+04  0.25500000920E-02 0. -1.
       -2    1    3    3    0  502  0.18871125760E+04  0.46531955656E+03 -0.11850801843E+04  0.22764294866E+04  0.25500000920E-02 0.  1.
</event>
<event>
 5   0  0.1879500E-08  0.4019050E+04  0.7818609E-02  0.8000715E-01
       -1   -1    0    0    0  501  0.00000000000E+00  0.00000000000E+00  0.21582478377E+04  0.21582478377E+04  0.50400001928E-02 0.  1.
        1   -1    0    0  501    0  0.00000000000E+00  0.00000000000E+00 -0.18710504191E+04  0.18710504191E+04  0.50400001928E-02 0. -1.
    10030    2    1    2    0    0  0.00000000000E+00  0.00000000000E+00  0.28719741867E+03  0.40292982568E+04  0.40190498983E+04 0.  0.
        1    1    3    3  502    0 -0.98125336142E+03  0.16273032405E+04  0.79888342684E+03  0.20613560405E+04  0.50400001928E-02 0.  1.
       -1    1    3    3    0  502  0.98125336142E+03 -0.16273032405E+04 -0.51168600818E+03  0.19679422163E+04  0.50400001928E-02 0. -1.
</event>
<event>
 5   0  0.6161563E-08  0.3987149E+04  0.7818609E-02  0.8007144E-01
       -2   -1    0    0    0  501  0.00000000000E+00  0.00000000000E+00  0.19021108647E+04  0.19021108647E+04  0.25500000920E-02 0. -1.
        2   -1    0    0  501    0  0.00000000000E+00  0.00000000000E+00 -0.20894358440E+04  0.20894358440E+04  0.25500000920E-02 0.  1.
    10030    2    1    2    0    0  0.00000000000E+00  0.00000000000E+00 -0.18732497933E+03  0.39915467088E+04  0.39871486654E+04 0.  0.
        1    1    3    3  502    0  0.77763967427E+03 -0.18332204667E+04  0.87619032668E+00  0.19913366140E+04  0.50400001928E-02 0.  1.
       -1    1    3    3    0  502 -0.77763967427E+03  0.18332204667E+04 -0.18820116966E+03  0.20002100947E+04  0.50400001928E-02 0. -1.
</event>
<event>
 5   0  0.1879500E-08  0.3975637E+04  0.7818609E-02  0.8009479E-01
        1   -1    0    0  501    0  0.00000000000E+00  0.00000000000E+00  0.19966824158E+04  0.19966824158E+04  0.50400001928E-02 0.  1.
       -1   -1    0    0    0  501  0.00000000000E+00  0.00000000000E+00 -0.19789938624E+04  0.19789938624E+04  0.50400001928E-02 0. -1.
    10030    2    1    2    0    0  0.00000000000E+00  0.00000000000E+00  0.17688553356E+02  0.39756762782E+04  0.39756369281E+04 0.  0.
        2    1    3    3  502    0  0.67480756001E+03 -0.13884496526E+04  0.12611603750E+04  0.19934099359E+04  0.25500000920E-02 0.  1.
       -2    1    3    3    0  502 -0.67480756001E+03  0.13884496526E+04 -0.12434718217E+04  0.19822663424E+04  0.25500000920E-02 0. -1.
</event>
<event>
 5   0  0.5888700E-08  0.3993194E+04  0.7818609E-02  0.8005921E-01
       -2   -1    0    0    0  501  0.00000000000E+00  0.00000000000E+00  0.28011143220E+04  0.28011143220E+04  0.25500000920E-02 0.  1.
        2   -1    0    0  501    0  0.00000000000E+00  0.00000000000E+00 -0.14231480534E+04  0.14231480534E+04  0.25500000920E-02 0. -1.
    10030    2    1    2    0    0  0.00000000000E+00  0.00000000000E+00  0.13779662686E+04  0.42242623755E+04  0.39931944079E+04 0.  0.
        5    1    3    3  502    0  0.14476465218E+04 -0.13434637851E+04  0.99885449672E+03  0.22132120977E+04  0.46999998093E+01 0. -1.
       -5    1    3    3    0  502 -0.14476465218E+04  0.13434637851E+04  0.37911177186E+03  0.20110502777E+04  0.46999998093E+01 0.  1.
</event>
<event>
 5   0  0.1879500E-08  0.3992194E+04  0.7818609E-02  0.8006123E-01
       -1   -1    0    0    0  501  0.00000000000E+00  0.00000000000E+00  0.21310847929E+04  0.21310847929E+04  0.50400001928E-02 0.  1.
        1   -1    0    0  501    0  0.00000000000E+00  0.00000000000E+00 -0.18696594231E+04  0.18696594231E+04  0.50400001928E-02 0. -1.
    10030    2    1    2    0    0  0.00000000000E+00  0.00000000000E+00  0.26142536984E+03  0.40007442160E+04  0.39921937651E+04 0.  0.
        2    1    3    3  502    0  0.18579044494E+03 -0.73537874215E+03 -0.17196174481E+04  0.18794637936E+04  0.25500000920E-02 0. -1.
       -2    1    3    3    0  502 -0.18579044494E+03  0.73537874215E+03  0.19810428179E+04  0.21212804224E+04  0.25500000920E-02 0.  1.
</event>
<event>
 5   0  0.1879500E-08  0.4006055E+04  0.7818609E-02  0.8003326E-01
        1   -1    0    0  501    0  0.00000000000E+00  0.00000000000E+00  0.28995484140E+04  0.28995484140E+04  0.50400001928E-02 0. -1.
       -1   -1    0    0    0  501  0.00000000000E+00  0.00000000000E+00 -0.13837045846E+04  0.13837045846E+04  0.50400001928E-02 0.  1.
    10030    2    1    2    0    0  0.00000000000E+00  0.00000000000E+00  0.15158438293E+04  0.42832529986E+04  0.40060546346E+04 0.  0.
        3    1    3    3  502    0 -0.16719083508E+04 -0.58243913693E+03  0.17595501031E+04  0.24961028539E+04  0.10100000352E+00 0. -1.
       -3    1    3    3    0  502  0.16719083508E+04  0.58243913693E+03 -0.24370627377E+03  0.17871501447E+04  0.10100000352E+00 0.  1.
</event>
<event>
 5   0  0.1879500E-08  0.4009687E+04  0.7818609E-02  0.8002595E-01
        3   -1    0    0  501    0  0.00000000000E+00  0.00000000000E+00  0.17607308670E+04  0.17607308699E+04  0.10100000352E+00 0. -1.
       -3   -1    0    0    0  501  0.00000000000E+00  0.00000000000E+00 -0.22828009815E+04  0.22828009837E+04  0.10100000352E+00 0.  1.
    10030    2    1    2    0    0  0.00000000000E+00  0.00000000000E+00 -0.52207011447E+03  0.40435318536E+04  0.40096873502E+04 0.  0.
        1    1    3    3  502    0 -0.17113697628E+04  0.71792207562E+03 -0.10258557721E+04  0.21205137672E+04  0.50400001928E-02 0.  1.
       -1    1    3    3    0  502  0.17113697628E+04 -0.71792207562E+03  0.50378565763E+03  0.19230180864E+04  0.50400001928E-02 0. -1.
</event>
<event>
 5   0  0.6161563E-08  0.4018739E+04  0.7818609E-02  0.8000777E-01
        2   -1    0    0  501    0  0.00000000000E+00  0.00000000000E+00  0.25712466672E+04  0.25712466672E+04  0.25500000920E-02 0. -1.
       -2   -1    0    0    0  501  0.00000000000E+00  0.00000000000E+00 -0.15702759046E+04  0.15702759046E+04  0.25500000920E-02 0.  1.
    10030    2    1    2    0    0  0.00000000000E+00  0.00000000000E+00  0.10009707626E+04  0.41415225718E+04  0.40187394473E+04 0.  0.
        1    1    3    3  502    0 -0.47005922895E+03 -0.56645749052E+03  0.24272983174E+04  0.25364555760E+04  0.50400001928E-02 0. -1.
       -1    1    3    3    0  502  0.47005922895E+03  0.56645749052E+03 -0.14263275548E+04  0.16050669958E+04  0.50400001928E-02 0.  1.
</event>
<event>
 5   0  0.1879500E-08  0.4007834E+04  0.7818609E-02  0.8002968E-01
        1   -1    0    0  501    0  0.00000000000E+00  0.00000000000E+00  0.28144146859E+04  0.28144146859E+04  0.50400001928E-02 0. -1.
       -1   -1    0    0    0  501  0.00000000000E+00  0.00000000000E+00 -0.14268274929E+04  0.14268274929E+04  0.50400001928E-02 0.  1.
    10030    2    1    2    0    0  0.00000000000E+00  0.00000000000E+00  0.13875871930E+04  0.42412421788E+04  0.40078344528E+04 0.  0.
        3    1    3    3  502    0 -0.12876300059E+04  0.36453487705E+03 -0.88465164604E+03  0.16042086067E+04  0.10100000352E+00 0.  1.
       -3    1    3    3    0  502  0.12876300059E+04 -0.36453487705E+03  0.22722388391E+04  0.26370335721E+04  0.10100000352E+00 0. -1.
</event>
<event>
 5   0  0.5951623E-08  0.4017595E+04  0.7818609E-02  0.8001006E-01
       -2   -1    0    0    0  501  0.00000000000E+00  0.00000000000E+00  0.19441136771E+04  0.19441136771E+04  0.25500000920E-02 0. -1.
        2   -1    0    0  501    0  0.00000000000E+00  0.00000000000E+00 -0.20756339311E+04  0.20756339311E+04  0.25500000920E-02 0.  1.
    10030    2    1    2    0    0  0.00000000000E+00  0.00000000000E+00 -0.13152025399E+03  0.40197476081E+04  0.40175954570E+04 0.  0.
        2    1    3    3  502    0  0.16177226434E+04 -0.81463947524E+03  0.80338483204E+03  0.19814366540E+04  0.25500000920E-02 0. -1.
       -2    1    3    3    0  502 -0.16177226434E+04  0.81463947524E+03 -0.93490508603E+03  0.20383109541E+04  0.25500000920E-02 0.  1.
</event>
<event>
 5   0  0.1879500E-08  0.4006900E+04  0.7818609E-02  0.8003156E-01
        1   -1    0    0  501    0  0.00000000000E+00  0.00000000000E+00  0.21166206164E+04  0.21166206164E+04  0.50400001928E-02 0.  1.
       -1   -1    0    0    0  501  0.00000000000E+00  0.00000000000E+00 -0.18963303154E+04  0.18963303154E+04  0.50400001928E-02 0. -1.
    10030    2    1    2    0    0  0.00000000000E+00  0.00000000000E+00  0.22029030106E+03  0.40129509318E+04  0.40068999694E+04 0.  0.
        4    1    3    3  502    0 -0.17494556113E+03  0.77024743085E+03 -0.17338096734E+04  0.19052518601E+04  0.12699999809E+01 0. -1.
       -4    1    3    3    0  502  0.17494556113E+03 -0.77024743085E+03  0.19540999744E+04  0.21076990717E+04  0.12699999809E+01 0.  1.
</event>
<event>
 5   0  0.1879500E-08  0.3987433E+04  0.7818609E-02  0.8007086E-01
       -1   -1    0    0    0  501  0.00000000000E+00  0.00000000000E+00  0.18002260704E+04  0.18002260704E+04  0.50400001928E-02 0. -1.
        1   -1    0    0  501    0  0.00000000000E+00  0.00000000000E+00 -0.22080036875E+04  0.22080036875E+04  0.50400001928E-02 0.  1.
    10030    2    1    2    0    0  0.00000000000E+00  0.00000000000E+00 -0.40777761710E+03  0.40082297579E+04  0.39874331602E+04 0.  0.
        5    1    3    3  502    0  0.10657798280E+04 -0.63097181807E+02  0.14886433720E+04  0.18319249644E+04  0.46999998093E+01 0. -1.
       -5    1    3    3    0  502 -0.10657798280E+04  0.63097181807E+02 -0.18964209891E+04  0.21763047935E+04  0.46999998093E+01 0.  1.
</event>
<event>
 5   0  0.5888700E-08  0.3975326E+04  0.7818609E-02  0.8009543E-01
        2   -1    0    0  501    0  0.00000000000E+00  0.00000000000E+00  0.19819186065E+04  0.19819186065E+04  0.25500000920E-02 0. -1.
       -2   -1    0    0    0  501  0.00000000000E+00  0.00000000000E+00 -0.19934244356E+04  0.19934244356E+04  0.25500000920E-02 0.  1.
    10030    2    1    2    0    0  0.00000000000E+00  0.00000000000E+00 -0.11505829044E+02  0.39753430421E+04  0.39753263914E+04 0.  0.
        5    1    3    3  502    0  0.13705653304E+04  0.12954271375E+04  0.62210487053E+03  0.19858543133E+04  0.46999998093E+01 0. -1.
       -5    1    3    3    0  502 -0.13705653304E+04 -0.12954271375E+04 -0.63361069957E+03  0.19894887288E+04  0.46999998093E+01 0.  1.
</event>
<event>
 5   0  0.1879500E-08  0.3973421E+04  0.7818609E-02  0.8009930E-01
       -3   -1    0    0    0  501  0.00000000000E+00  0.00000000000E+00  0.27196284115E+04  0.27196284134E+04  0.10100000352E+00 0.  1.
        3   -1    0    0  501    0  0.00000000000E+00  0.00000000000E+00 -0.14513081541E+04  0.14513081576E+04  0.10100000352E+00 0. -1.
    10030    2    1    2    0    0  0.00000000000E+00  0.00000000000E+00  0.12683202574E+04  0.41709365710E+04  0.39734211461E+04 0.  0.
        4    1    3    3  502    0  0.74289664994E+03  0.38397778936E+03 -0.12575552606E+04  0.15102255532E+04  0.12699999809E+01 0. -1.
       -4    1    3    3    0  502 -0.74289664994E+03 -0.38397778936E+03  0.25258755180E+04  0.26607110178E+04  0.12699999809E+01 0.  1.
</event>
<event>
 5   0  0.1879500E-08  0.3878230E+04  0.7818609E-02  0.8029572E-01
       -1   -1    0    0    0  501  0.00000000000E+00  0.00000000000E+00  0.12021978286E+04  0.12021978286E+04  0.50400001928E-02 0.  1.
        1   -1    0    0  501    0  0.00000000000E+00  0.00000000000E+00 -0.31277446306E+04  0.31277446306E+04  0.50400001928E-02 0. -1.
    10030    2    1    2    0    0  0.00000000000E+00  0.00000000000E+00 -0.19255468020E+04  0.43299424592E+04  0.38782304229E+04 0.  0.
        2    1    3    3  502    0  0.17685373959E+04 -0.79524924950E+03 -0.95754695096E+03  0.21626470014E+04  0.25500000920E-02 0. -1.
       -2    1    3    3    0  502 -0.17685373959E+04  0.79524924950E+03 -0.96799985107E+03  0.21672954578E+04  0.25500000920E-02 0.  1.
</event>
<event>
 5   0  0.6161563E-08  0.3995735E+04  0.7818609E-02  0.8005408E-01
        2   -1    0    0  501    0  0.00000000000E+00  0.00000000000E+00  0.16723210165E+04  0.16723210165E+04  0.25500000920E-02 0. -1.
       -2   -1    0    0    0  501  0.00000000000E+00  0.00000000000E+00 -0.23867871261E+04  0.23867871261E+04  0.25500000920E-02 0.  1.
    10030    2    1    2    0    0  0.00000000000E+00  0.00000000000E+00 -0.71446610959E+03  0.40591081426E+04  0.39957348626E+04 0.  0.
        1    1    3    3  502    0 -0.91030802884E+03 -0.42861306048E+02 -0.21633446919E+04  0.23474577855E+04  0.50400001928E-02 0.  1.
       -1    1    3    3    0  502  0.91030802884E+03  0.42861306048E+02  0.14488785823E+04  0.17116503571E+04  0.50400001928E-02 0. -1.
</event>
<event>
 5   0  0.1879500E-08  0.3992498E+04  0.7818609E-02  0.8006062E-01
        1   -1    0    0  501    0  0.00000000000E+00  0.00000000000E+00  0.19279789384E+04  0.19279789384E+04  0.50400001928E-02 0. -1.
       -1   -1    0    0    0  501  0.00000000000E+00  0.00000000000E+00 -0.20669368445E+04  0.20669368445E+04  0.50400001928E-02 0.  1.
    10030    2    1    2    0    0  0.00000000000E+00  0.00000000000E+00 -0.13895790609E+03  0.39949157829E+04  0.39924983172E+04 0.  0.
        4    1    3    3  502    0  0.27674826260E+03 -0.47931666243E+03  0.18496696252E+04  0.19307028252E+04  0.12699999809E+01 0. -1.
       -4    1    3    3    0  502 -0.27674826260E+03  0.47931666243E+03 -0.19886275313E+04  0.20642129577E+04  0.12699999809E+01 0.  1.
</event>
<event>
 5   0  0.6161563E-08  0.3981240E+04  0.7818609E-02  0.8008342E-01
        2   -1    0    0  501    0  0.00000000000E+00  0.00000000000E+00  0.19472568175E+04  0.19472568175E+04  0.25500000920E-02 0. -1.
       -2   -1    0    0    0  501  0.00000000000E+00  0.00000000000E+00 -0.20349490240E+04  0.20349490240E+04  0.25500000920E-02 0.  1.
    10030    2    1    2    0    0  0.00000000000E+00  0.00000000000E+00 -0.87692206474E+02  0.39822058416E+04  0.39812401889E+04 0.  0.
        1    1    3    3  502    0 -0.59258376260E+03 -0.55525203263E+02  0.18561750584E+04  0.19492625301E+04  0.50400001928E-02 0. -1.
       -1    1    3    3    0  502  0.59258376260E+03  0.55525203263E+02 -0.19438672649E+04  0.20329433114E+04  0.50400001928E-02 0.  1.
</event>
<event>
 5   0  0.6161563E-08  0.4014287E+04  0.7818609E-02  0.8001671E-01
       -2   -1    0    0    0  501  0.00000000000E+00  0.00000000000E+00  0.13918636842E+04  0.13918636842E+04  0.25500000920E-02 0.  1.
        2   -1    0    0  501    0  0.00000000000E+00  0.00000000000E+00 -0.28944099556E+04  0.28944099556E+04  0.25500000920E-02 0. -1.
    10030    2    1    2    0    0  0.00000000000E+00  0.00000000000E+00 -0.15025462714E+04  0.42862736398E+04  0.40142865391E+04 0.  0.
        1    1    3    3  502    0  0.13646997598E+03 -0.20014799326E+04 -0.68308606665E+03  0.21192339535E+04  0.50400001928E-02 0. -1.
       -1    1    3    3    0  502 -0.13646997598E+03  0.20014799326E+04 -0.81946020474E+03  0.21670396864E+04  0.50400001928E-02 0.  1.
</event>
<event>
 5   0  0.1879500E-08  0.4002920E+04  0.7818609E-02  0.8003958E-01
        1   -1    0    0  501    0  0.00000000000E+00  0.00000000000E+00  0.27202472093E+04  0.27202472093E+04  0.50400001928E-02 0.  1.
       -1   -1    0    0    0  501  0.00000000000E+00  0.00000000000E+00 -0.14726022580E+04  0.14726022580E+04  0.50400001928E-02 0. -1.
    10030    2    1    2    0    0  0.00000000000E+00  0.00000000000E+00  0.12476449513E+04  0.41928494673E+04  0.40029200256E+04 0.  0.
        4    1    3    3  502    0  0.13736719987E+04 -0.11845096604E+04 -0.26237195319E+03  0.18327243520E+04  0.12699999809E+01 0.  1.
       -4    1    3    3    0  502 -0.13736719987E+04  0.11845096604E+04  0.15100169045E+04  0.23601251154E+04  0.12699999809E+01 0. -1.
</event>
<event>
 5   0  0.1879500E-08  0.3999005E+04  0.7818609E-02  0.8004747E-01
        1   -1    0    0  501    0  0.00000000000E+00  0.00000000000E+00  0.20141283445E+04  0.20141283445E+04  0.50400001928E-02 0. -1.
       -1   -1    0    0    0  501  0.00000000000E+00  0.00000000000E+00 -0.19849833227E+04  0.19849833227E+04  0.50400001928E-02 0.  1.
    10030    2    1    2    0    0  0.00000000000E+00  0.00000000000E+00  0.29145021797E+02  0.39991116672E+04  0.39990054631E+04 0.  0.
        5    1    3    3  502    0 -0.16812469805E+03  0.18709418705E+04  0.69964521809E+03  0.20045485571E+04  0.46999998093E+01 0. -1.
       -5    1    3    3    0  502  0.16812469805E+03 -0.18709418705E+04 -0.67050019629E+03  0.19945631100E+04  0.46999998093E+01 0.  1.
</event>
<event>
 5   0  0.5846812E-08  0.3978745E+04  0.7818609E-02  0.8008848E-01
       -2   -1    0    0    0  501  0.00000000000E+00  0.00000000000E+00  0.30436274857E+04  0.30436274857E+04  0.25500000920E-02 0. -1.
        2   -1    0    0  501    0  0.00000000000E+00  0.00000000000E+00 -0.13002911911E+04  0.13002911911E+04  0.25500000920E-02 0.  1.
    10030    2    1    2    0    0  0.00000000000E+00  0.00000000000E+00  0.17433362946E+04  0.43439186768E+04  0.39787445300E+04 0.  0.
        4    1    3    3  502    0  0.18712628422E+04 -0.45878951192E+03  0.33072611856E+03  0.19548641435E+04  0.12699999809E+01 0. -1.
       -4    1    3    3    0  502 -0.18712628422E+04  0.45878951192E+03  0.14126101760E+04  0.23890545333E+04  0.12699999809E+01 0.  1.
</event>
<event>
 5   0  0.1879500E-08  0.4024663E+04  0.7818609E-02  0.7999590E-01
        1   -1    0    0  501    0  0.00000000000E+00  0.00000000000E+00  0.22603150444E+04  0.22603150444E+04  0.50400001928E-02 0. -1.
       -1   -1    0    0    0  501  0.00000000000E+00  0.00000000000E+00 -0.17915550232E+04  0.17915550232E+04  0.50400001928E-02 0.  1.
    10030    2    1    2    0    0  0.00000000000E+00  0.00000000000E+00  0.46876002117E+03  0.40518700676E+04  0.40246633508E+04 0.  0.
        4    1    3    3  502    0  0.15145404388E+03 -0.73240296863E+03 -0.16464364841E+04  0.18083437574E+04  0.12699999809E+01 0.  1.
       -4    1    3    3    0  502 -0.15145404388E+03  0.73240296863E+03  0.21151965052E+04  0.22435263102E+04  0.12699999809E+01 0. -1.
</event>
<event>
 5   0  0.1879500E-08  0.3996035E+04  0.7818609E-02  0.8005347E-01
        1   -1    0    0  501    0  0.00000000000E+00  0.00000000000E+00  0.20671609490E+04  0.20671609490E+04  0.50400001928E-02 0. -1.
       -1   -1    0    0    0  501  0.00000000000E+00  0.00000000000E+00 -0.19311866082E+04  0.19311866082E+04  0.50400001928E-02 0.  1.
    10030    2    1    2    0    0  0.00000000000E+00  0.00000000000E+00  0.13597434080E+03  0.39983475572E+04  0.39960348055E+04 0.  0.
        1    1    3    3  502    0 -0.45408522622E+03 -0.14711356240E+04  0.13421605315E+04  0.20425054001E+04  0.50400001928E-02 0. -1.
       -1    1    3    3    0  502  0.45408522622E+03  0.14711356240E+04 -0.12061861907E+04  0.19558421571E+04  0.50400001928E-02 0.  1.
</event>
<event>
 5   0  0.1879500E-08  0.4018164E+04  0.7818609E-02  0.8000892E-01
       -3   -1    0    0    0  501  0.00000000000E+00  0.00000000000E+00  0.15048244745E+04  0.15048244778E+04  0.10100000352E+00 0. -1.
        3   -1    0    0  501    0  0.00000000000E+00  0.00000000000E+00 -0.26823132653E+04  0.26823132672E+04  0.10100000352E+00 0.  1.
    10030    2    1    2    0    0  0.00000000000E+00  0.00000000000E+00 -0.11774887908E+04  0.41871377450E+04  0.40181640887E+04 0.  0.
        4    1    3    3  502    0  0.56783431062E+03  0.19250758269E+04 -0.68227581119E+03  0.21198713733E+04  0.12699999809E+01 0.  1.
       -4    1    3    3    0  502 -0.56783431062E+03 -0.19250758269E+04 -0.49521297965E+03  0.20672663718E+04  0.12699999809E+01 0. -1.
</event>
<event>
 5   0  0.5846812E-08  0.3990886E+04  0.7818609E-02  0.8006388E-01
       -2   -1    0    0    0  501  0.00000000000E+00  0.00000000000E+00  0.14738003550E+04  0.14738003550E+04  0.25500000920E-02 0.  1.
        2   -1    0    0  501    0  0.00000000000E+00  0.00000000000E+00 -0.27017181172E+04  0.27017181172E+04  0.25500000920E-02 0. -1.
    10030    2    1    2    0    0  0.00000000000E+00  0.00000000000E+00 -0.12279177622E+04  0.41755184721E+04  0.39908861773E+04 0.  0.
        4    1    3    3  502    0  0.60611939341E+03 -0.18144615996E+04 -0.12077905052E+04  0.22623905792E+04  0.12699999809E+01 0. -1.
       -4    1    3    3    0  502 -0.60611939341E+03  0.18144615996E+04 -0.20127256949E+02  0.19131278929E+04  0.12699999809E+01 0.  1.
</event>
<event>
 5   0  0.5951623E-08  0.3994257E+04  0.7818609E-02  0.8005706E-01
        2   -1    0    0  501    0  0.00000000000E+00  0.00000000000E+00  0.21826950788E+04  0.21826950788E+04  0.25500000920E-02 0.  1.
       -2   -1    0    0    0  501  0.00000000000E+00  0.00000000000E+00 -0.18273380611E+04  0.18273380611E+04  0.25500000920E-02 0. -1.
    10030    2    1    2    0    0  0.00000000000E+00  0.00000000000E+00  0.35535701766E+03  0.40100331398E+04  0.39942567735E+04 0.  0.
        2    1    3    3  502    0  0.14700783666E+04 -0.55654435840E+03  0.14144736234E+04  0.21146176151E+04  0.25500000920E-02 0.  1.
       -2    1    3    3    0  502 -0.14700783666E+04  0.55654435840E+03 -0.10591166057E+04  0.18954155247E+04  0.25500000920E-02 0. -1.
</event>
<event>
 5   0  0.1879500E-08  0.4012175E+04  0.7818609E-02  0.8002095E-01
        1   -1    0    0  501    0  0.00000000000E+00  0.00000000000E+00  0.16970703779E+04  0.16970703779E+04  0.50400001928E-02 0. -1.
       -1   -1    0    0    0  501  0.00000000000E+00  0.00000000000E+00 -0.23713726635E+04  0.23713726635E+04  0.50400001928E-02 0.  1.
    10030    2    1    2    0    0  0.00000000000E+00  0.00000000000E+00 -0.67430228555E+03  0.40684430414E+04  0.40121746234E+04 0.  0.
        5    1    3    3  502    0 -0.14525929013E+04 -0.88956852228E+03  0.73743054705E+03  0.18561207381E+04  0.46999998093E+01 0. -1.
       -5    1    3    3    0  502  0.14525929013E+04  0.88956852228E+03 -0.14117328326E+04  0.22123223032E+04  0.46999998093E+01 0.  1.
</event>
<event>
 5   0  0.1879500E-08  0.3991574E+04  0.7818609E-02  0.8006249E-01
        1   -1    0    0  501    0  0.00000000000E+00  0.00000000000E+00  0.14571077903E+04  0.14571077903E+04  0.50400001928E-02 0.  1.
       -1   -1    0    0    0  501  0.00000000000E+00  0.00000000000E+00 -0.27336102876E+04  0.27336102876E+04  0.50400001928E-02 0. -1.
    10030    2    1    2    0    0  0.00000000000E+00  0.00000000000E+00 -0.12765024973E+04  0.41907180780E+04  0.39915735473E+04 0.  0.
        1    1    3    3  502    0  0.51064948521E+03  0.78635560080E+03 -0.24879816788E+04  0.26587912407E+04  0.50400001928E-02 0. -1.
       -1    1    3    3    0  502 -0.51064948521E+03 -0.78635560080E+03  0.12114791815E+04  0.15319268373E+04  0.50400001928E-02 0.  1.
</event>
<event>
 5   0  0.5945387E-08  0.4011537E+04  0.7818609E-02  0.8002223E-01
       -2   -1    0    0    0  501  0.00000000000E+00  0.00000000000E+00  0.19260691413E+04  0.19260691413E+04  0.25500000920E-02 0.  1.
        2   -1    0    0  501    0  0.00000000000E+00  0.00000000000E+00 -0.20887661473E+04  0.20887661473E+04  0.25500000920E-02 0. -1.
    10030    2    1    2    0    0  0.00000000000E+00  0.00000000000E+00 -0.16269700601E+03  0.40148352886E+04  0.40115373709E+04 0.  0.
        3    1    3    3  502    0 -0.12126282552E+04 -0.13877404134E+04 -0.87371730349E+03  0.20395275622E+04  0.10100000352E+00 0. -1.
       -3    1    3    3    0  502  0.12126282552E+04  0.13877404134E+04  0.71102029748E+03  0.19753077264E+04  0.10100000352E+00 0.  1.
</event>
<event>
 5   0  0.5846812E-08  0.3982352E+04  0.7818609E-02  0.8008116E-01
       -2   -1    0    0    0  501  0.00000000000E+00  0.00000000000E+00  0.15122724781E+04  0.15122724781E+04  0.25500000920E-02 0.  1.
        2   -1    0    0  501    0  0.00000000000E+00  0.00000000000E+00 -0.26217381520E+04  0.26217381520E+04  0.25500000920E-02 0. -1.
    10030    2    1    2    0    0  0.00000000000E+00  0.00000000000E+00 -0.11094656739E+04  0.41340106301E+04  0.39823522959E+04 0.  0.
        4    1    3    3  502    0  0.84432781267E+03  0.16950725991E+03 -0.24184188895E+04  0.25671723169E+04  0.12699999809E+01 0. -1.
       -4    1    3    3    0  502 -0.84432781267E+03 -0.16950725991E+03  0.13089532156E+04  0.15668383133E+04  0.12699999809E+01 0.  1.
</event>
<event>
 5   0  0.5846812E-08  0.4010550E+04  0.7818609E-02  0.8002422E-01
        2   -1    0    0  501    0  0.00000000000E+00  0.00000000000E+00  0.21836321725E+04  0.21836321725E+04  0.25500000920E-02 0.  1.
       -2   -1    0    0    0  501  0.00000000000E+00  0.00000000000E+00 -0.18414856204E+04  0.18414856204E+04  0.25500000920E-02 0. -1.
    10030    2    1    2    0    0  0.00000000000E+00  0.00000000000E+00  0.34214655211E+03  0.40251177929E+04  0.40105497109E+04 0.  0.
        4    1    3    3  502    0 -0.58794376363E+03 -0.21181856252E+03  0.20834028237E+04  0.21751123905E+04  0.12699999809E+01 0.  1.
       -4    1    3    3    0  502  0.58794376363E+03  0.21181856252E+03 -0.17412562716E+04  0.18500054024E+04  0.12699999809E+01 0. -1.
</event>
<event>
 5   0  0.1879500E-08  0.3959673E+04  0.7818609E-02  0.8012731E-01
        1   -1    0    0  501    0  0.00000000000E+00  0.00000000000E+00  0.21894444165E+04  0.21894444165E+04  0.50400001928E-02 0.  1.
       -1   -1    0    0    0  501  0.00000000000E+00  0.00000000000E+00 -0.17902959189E+04  0.17902959189E+04  0.50400001928E-02 0. -1.
    10030    2    1    2    0    0  0.00000000000E+00  0.00000000000E+00  0.39914849761E+03  0.39797403354E+04  0.39596734226E+04 0.  0.
        3    1    3    3  502    0 -0.93072293000E+02  0.95170288970E+03  0.19419550653E+04  0.21646224446E+04  0.10100000352E+00 0.  1.
       -3    1    3    3    0  502  0.93072293000E+02 -0.95170288970E+03 -0.15428065677E+04  0.18151178908E+04  0.10100000352E+00 0. -1.
</event>
<event>
 5   0  0.1879500E-08  0.3999275E+04  0.7818609E-02  0.8004693E-01
        1   -1    0    0  501    0  0.00000000000E+00  0.00000000000E+00  0.23308771647E+04  0.23308771647E+04  0.50400001928E-02 0. -1.
       -1   -1    0    0    0  501  0.00000000000E+00  0.00000000000E+00 -0.17154703292E+04  0.17154703292E+04  0.50400001928E-02 0.  1.
    10030    2    1    2    0    0  0.00000000000E+00  0.00000000000E+00  0.61540683548E+03  0.40463474939E+04  0.39992752429E+04 0.  0.
        5    1    3    3  502    0 -0.53003892171E+02  0.12860872371E+04  0.18559758903E+04  0.22586496828E+04  0.46999998093E+01 0. -1.
       -5    1    3    3    0  502  0.53003892171E+02 -0.12860872371E+04 -0.12405690548E+04  0.17876978111E+04  0.46999998093E+01 0.  1.
</event>
<event>
 5   0  0.1879500E-08  0.4004065E+04  0.7818609E-02  0.8003727E-01
        1   -1    0    0  501    0  0.00000000000E+00  0.00000000000E+00  0.23256136927E+04  0.23256136927E+04  0.50400001928E-02 0.  1.
       -1   -1    0    0    0  501  0.00000000000E+00  0.00000000000E+00 -0.17234739622E+04  0.17234739622E+04  0.50400001928E-02 0. -1.
    10030    2    1    2    0    0  0.00000000000E+00  0.00000000000E+00  0.60213973051E+03  0.40490876550E+04  0.40040652570E+04 0.  0.
        3    1    3    3  502    0  0.17526749299E+04  0.29331725919E+03 -0.63137743955E+03  0.18858796106E+04  0.10100000352E+00 0. -1.
       -3    1    3    3    0  502 -0.17526749299E+04 -0.29331725919E+03  0.12335171701E+04  0.21632080444E+04  0.10100000352E+00 0.  1.
</event>
<event>
 5   0  0.1879500E-08  0.4000788E+04  0.7818609E-02  0.8004388E-01
       -1   -1    0    0    0  501  0.00000000000E+00  0.00000000000E+00  0.12670939913E+04  0.12670939913E+04  0.50400001928E-02 0. -1.
        1   -1    0    0  501    0  0.00000000000E+00  0.00000000000E+00 -0.31580736513E+04  0.31580736513E+04  0.50400001928E-02 0.  1.
    10030    2    1    2    0    0  0.00000000000E+00  0.00000000000E+00 -0.18909796600E+04  0.44251676425E+04  0.40007879961E+04 0.  0.
        2    1    3    3  502    0 -0.18790254983E+04 -0.10471314710E+03 -0.16955633695E+04  0.25331081316E+04  0.25500000920E-02 0.  1.
       -2    1    3    3    0  502  0.18790254983E+04  0.10471314710E+03 -0.19541629045E+03  0.18920595109E+04  0.25500000920E-02 0. -1.
</event>
<event>
 5   0  0.5945387E-08  0.4010787E+04  0.7818609E-02  0.8002374E-01
       -2   -1    0    0    0  501  0.00000000000E+00  0.00000000000E+00  0.17563704029E+04  0.17563704029E+04  0.25500000920E-02 0. -1.
        2   -1    0    0  501    0  0.00000000000E+00  0.00000000000E+00 -0.22897236567E+04  0.22897236567E+04  0.25500000920E-02 0.  1.
    10030    2    1    2    0    0  0.00000000000E+00  0.00000000000E+00 -0.53335325380E+03  0.40460940597E+04  0.40107868862E+04 0.  0.
        3    1    3    3  502    0  0.12482702043E+04  0.13610099090E+04  0.52191858454E+03  0.19190949675E+04  0.10100000352E+00 0. -1.
       -3    1    3    3    0  502 -0.12482702043E+04 -0.13610099090E+04 -0.10552718383E+04  0.21269990922E+04  0.10100000352E+00 0.  1.
</event>
<event>
 5   0  0.5945387E-08  0.3988952E+04  0.7818609E-02  0.8006779E-01
        2   -1    0    0  501    0  0.00000000000E+00  0.00000000000E+00  0.31589371102E+04  0.31589371102E+04  0.25500000920E-02 0. -1.
       -2   -1    0    0    0  501  0.00000000000E+00  0.00000000000E+00 -0.12592636661E+04  0.12592636661E+04  0.25500000920E-02 0.  1.
    10030    2    1    2    0    0  0.00000000000E+00  0.00000000000E+00  0.18996734441E+04  0.44182007763E+04  0.39889521061E+04 0.  0.
        3    1    3    3  502    0  0.68511634736E+03 -0.35358618513E+03 -0.10875405467E+04  0.13330986650E+04  0.10100000352E+00 0.  1.
       -3    1    3    3    0  502 -0.68511634736E+03  0.35358618513E+03  0.29872139908E+04  0.30851021113E+04  0.10100000352E+00 0. -1.
</event>
<event>
 5   0  0.1879500E-08  0.3987612E+04  0.7818609E-02  0.8007050E-01
        1   -1    0    0  501    0  0.00000000000E+00  0.00000000000E+00  0.28099056801E+04  0.28099056801E+04  0.50400001928E-02 0.  1.
       -1   -1    0    0    0  501  0.00000000000E+00  0.00000000000E+00 -0.14147312656E+04  0.14147312656E+04  0.50400001928E-02 0. -1.
    10030    2    1    2    0    0  0.00000000000E+00  0.00000000000E+00  0.13951744145E+04  0.42246369457E+04  0.39876115252E+04 0.  0.
        5    1    3    3  502    0 -0.16013290687E+04  0.10553089358E+04  0.11991755784E+03  0.19215447033E+04  0.46999998093E+01 0. -1.
       -5    1    3    3    0  502  0.16013290687E+04 -0.10553089358E+04  0.12752568567E+04  0.23030922424E+04  0.46999998093E+01 0.  1.
</event>
<event>
 5   0  0.5951623E-08  0.4078501E+04  0.7818609E-02  0.7988895E-01
       -2   -1    0    0    0  501  0.00000000000E+00  0.00000000000E+00  0.13168727851E+04  0.13168727851E+04  0.25500000920E-02 0. -1.
        2   -1    0    0  501    0  0.00000000000E+00  0.00000000000E+00 -0.31578925099E+04  0.31578925099E+04  0.25500000920E-02 0.  1.
    10030    2    1    2    0    0  0.00000000000E+00  0.00000000000E+00 -0.18410197248E+04  0.44747652950E+04  0.40785010504E+04 0.  0.
        2    1    3    3  502    0  0.13742048820E+04  0.71526201683E+03 -0.23754373529E+04  0.28359727481E+04  0.25500000920E-02 0.  1.
       -2    1    3    3    0  502 -0.13742048820E+04 -0.71526201683E+03  0.53441762810E+03  0.16387925469E+04  0.25500000920E-02 0. -1.
</event>
<event>
 5   0  0.6161563E-08  0.3978087E+04  0.7818609E-02  0.8008982E-01
       -2   -1    0    0    0  501  0.00000000000E+00  0.00000000000E+00  0.17953309491E+04  0.17953309491E+04  0.25500000920E-02 0. -1.
        2   -1    0    0  501    0  0.00000000000E+00  0.00000000000E+00 -0.22036568423E+04  0.22036568423E+04  0.25500000920E-02 0.  1.
    10030    2    1    2    0    0  0.00000000000E+00  0.00000000000E+00 -0.40832589321E+03  0.39989877915E+04  0.39780866408E+04 0.  0.
        1    1    3    3  502    0 -0.41770965875E+03 -0.10633820546E+04 -0.18409161861E+04  0.21666183691E+04  0.50400001928E-02 0.  1.
       -1    1    3    3    0  502  0.41770965875E+03  0.10633820546E+04  0.14325902929E+04  0.18323694224E+04  0.50400001928E-02 0. -1.
</event>
<event>
 5   0  0.5846812E-08  0.3996924E+04  0.7818609E-02  0.8005167E-01
       -2   -1    0    0    0  501  0.00000000000E+00  0.00000000000E+00  0.19993079312E+04  0.19993079312E+04  0.25500000920E-02 0. -1.
        2   -1    0    0  501    0  0.00000000000E+00  0.00000000000E+00 -0.19976165643E+04  0.19976165643E+04  0.25500000920E-02 0.  1.
    10030    2    1    2    0    0  0.00000000000E+00  0.00000000000E+00  0.16913669443E+01  0.39969244955E+04  0.39969241376E+04 0.  0.
        4    1    3    3  502    0 -0.60237552754E+02 -0.16736975953E+04 -0.10895473819E+04  0.19980008293E+04  0.12699999809E+01 0.  1.
       -4    1    3    3    0  502  0.60237552754E+02  0.16736975953E+04  0.10912387488E+04  0.19989236662E+04  0.12699999809E+01 0. -1.
</event>
<event>
 5   0  0.1879500E-08  0.4004539E+04  0.7818609E-02  0.8003632E-01
       -1   -1    0    0    0  501  0.00000000000E+00  0.00000000000E+00  0.12309972909E+04  0.12309972909E+04  0.50400001928E-02 0. -1.
        1   -1    0    0  501    0  0.00000000000E+00  0.00000000000E+00 -0.32567758563E+04  0.32567758563E+04  0.50400001928E-02 0.  1.
    10030    2    1    2    0    0  0.00000000000E+00  0.00000000000E+00 -0.20257785654E+04  0.44877731472E+04  0.40045385533E+04 0.  0.
        5    1    3    3  502    0 -0.74995559660E+03  0.47645252745E+03 -0.30237440655E+04  0.31515854219E+04  0.46999998093E+01 0.  1.
       -5    1    3    3    0  502  0.74995559660E+03 -0.47645252745E+03  0.99796550012E+03  0.13361877253E+04  0.46999998093E+01 0. -1.
</event>
<event>
 5   0  0.6161563E-08  0.4003769E+04  0.7818609E-02  0.8003787E-01
        2   -1    0    0  501    0  0.00000000000E+00  0.00000000000E+00  0.21002040871E+04  0.21002040871E+04  0.25500000920E-02 0. -1.
       -2   -1    0    0    0  501  0.00000000000E+00  0.00000000000E+00 -0.19081674425E+04  0.19081674425E+04  0.25500000920E-02 0.  1.
    10030    2    1    2    0    0  0.00000000000E+00  0.00000000000E+00  0.19203664457E+03  0.40083715296E+04  0.40037687554E+04 0.  0.
        1    1    3    3  502    0  0.17779148078E+04 -0.84648669639E+03  0.45701608953E+03  0.20214807684E+04  0.50400001928E-02 0. -1.
       -1    1    3    3    0  502 -0.17779148078E+04  0.84648669639E+03 -0.26497944496E+03  0.19868907613E+04  0.50400001928E-02 0.  1.
</event>
<event>
 5   0  0.5945387E-08  0.4024865E+04  0.7818609E-02  0.7999549E-01
        2   -1    0    0  501    0  0.00000000000E+00  0.00000000000E+00  0.16608899766E+04  0.16608899766E+04  0.25500000920E-02 0.  1.
       -2   -1    0    0    0  501  0.00000000000E+00  0.00000000000E+00 -0.24383828043E+04  0.24383828043E+04  0.25500000920E-02 0. -1.
    10030    2    1    2    0    0  0.00000000000E+00  0.00000000000E+00 -0.77749282767E+03  0.40992727809E+04  0.40248654928E+04 0.  0.
        3    1    3    3  502    0  0.82021490230E+03 -0.17459730460E+04 -0.97267896935E+03  0.21603885648E+04  0.10100000352E+00 0.  1.
       -3    1    3    3    0  502 -0.82021490230E+03  0.17459730460E+04  0.19518614168E+03  0.19388842161E+04  0.10100000352E+00 0. -1.
</event>
<event>
 5   0  0.1879500E-08  0.4007317E+04  0.7818609E-02  0.8003072E-01
        1   -1    0    0  501    0  0.00000000000E+00  0.00000000000E+00  0.13462694417E+04  0.13462694417E+04  0.50400001928E-02 0.  1.
       -1   -1    0    0    0  501  0.00000000000E+00  0.00000000000E+00 -0.29820533158E+04  0.29820533158E+04  0.50400001928E-02 0. -1.
    10030    2    1    2    0    0  0.00000000000E+00  0.00000000000E+00 -0.16357838741E+04  0.43283227575E+04  0.40073169341E+04 0.  0.
        4    1    3    3  502    0 -0.17221549783E+04 -0.87544592586E+03 -0.24388724799E+03  0.19472303256E+04  0.12699999809E+01 0.  1.
       -4    1    3    3    0  502  0.17221549783E+04  0.87544592586E+03 -0.13918966261E+04  0.23810924318E+04  0.12699999809E+01 0. -1.
</event>
<event>
 5   0  0.5888700E-08  0.4003646E+04  0.7818609E-02  0.8003811E-01
        2   -1    0    0  501    0  0.00000000000E+00  0.00000000000E+00  0.17986026480E+04  0.17986026480E+04  0.25500000920E-02 0. -1.
       -2   -1    0    0    0  501  0.00000000000E+00  0.00000000000E+00 -0.22280049364E+04  0.22280049364E+04  0.25500000920E-02 0.  1.
    10030    2    1    2    0    0  0.00000000000E+00  0.00000000000E+00 -0.42940228848E+03  0.40266075844E+04  0.40036461274E+04 0.  0.
        5    1    3    3  502    0  0.10755091494E+04 -0.10315438283E+03 -0.19095700817E+04  0.21940466595E+04  0.46999998093E+01 0.  1.
       -5    1    3    3    0  502 -0.10755091494E+04  0.10315438283E+03  0.14801677933E+04  0.18325609249E+04  0.46999998093E+01 0. -1.
</event>
<event>
 5   0  0.5951623E-08  0.3978667E+04  0.7818609E-02  0.8008864E-01
        2   -1    0    0  501    0  0.00000000000E+00  0.00000000000E+00  0.13417266070E+04  0.13417266071E+04  0.25500000920E-02 0. -1.
       -2   -1    0    0    0  501  0.00000000000E+00  0.00000000000E+00 -0.29495191689E+04  0.29495191689E+04  0.25500000920E-02 0.  1.
    10030    2    1    2    0    0  0.00000000000E+00  0.00000000000E+00 -0.16077925619E+04  0.42912457760E+04  0.39786672879E+04 0.  0.
        2    1    3    3  502    0 -0.15487336399E+04  0.12271079232E+04 -0.55540822774E+03  0.20525223609E+04  0.25500000920E-02 0.  1.
       -2    1    3    3    0  502  0.15487336399E+04 -0.12271079232E+04 -0.10523843341E+04  0.22387234151E+04  0.25500000920E-02 0. -1.
</event>
<event>
 5   0  0.5951623E-08  0.3976381E+04  0.7818609E-02  0.8009328E-01
        2   -1    0    0  501    0  0.00000000000E+00  0.00000000000E+00  0.16386574951E+04  0.16386574951E+04  0.25500000920E-02 0. -1.
       -2   -1    0    0    0  501  0.00000000000E+00  0.00000000000E+00 -0.24122808022E+04  0.24122808022E+04  0.25500000920E-02 0.  1.
    10030    2    1    2    0    0  0.00000000000E+00  0.00000000000E+00 -0.77362330704E+03  0.40509382973E+04  0.39763812779E+04 0.  0.
        2    1    3    3  502    0  0.65637601894E+03  0.10117948017E+04  0.12234398389E+04  0.17179532120E+04  0.25500000920E-02 0. -1.
       -2    1    3    3    0  502 -0.65637601894E+03 -0.10117948017E+04 -0.19970631460E+04  0.23329850853E+04  0.25500000920E-02 0.  1.
</event>
<event>
 5   0  0.1879500E-08  0.4000706E+04  0.7818609E-02  0.8004404E-01
       -1   -1    0    0    0  501  0.00000000000E+00  0.00000000000E+00  0.13139080083E+04  0.13139080083E+04  0.50400001928E-02 0.  1.
        1   -1    0    0  501    0  0.00000000000E+00  0.00000000000E+00 -0.30454273716E+04  0.30454273716E+04  0.50400001928E-02 0. -1.
    10030    2    1    2    0    0  0.00000000000E+00  0.00000000000E+00 -0.17315193633E+04  0.43593353799E+04  0.40007056439E+04 0.  0.
        3    1    3    3  502    0 -0.16279652550E+04 -0.64503541562E+03  0.18791297196E+03  0.17611510026E+04  0.10100000352E+00 0. -1.
       -3    1    3    3    0  502  0.16279652550E+04  0.64503541562E+03 -0.19194323352E+04  0.25981843773E+04  0.10100000352E+00 0.  1.
</event>
<event>
 5   0  0.1879500E-08  0.3992841E+04  0.7818609E-02  0.8005992E-01
       -1   -1    0    0    0  501  0.00000000000E+00  0.00000000000E+00  0.16357556683E+04  0.16357556684E+04  0.50400001928E-02 0. -1.
        1   -1    0    0  501    0  0.00000000000E+00  0.00000000000E+00 -0.24366074752E+04  0.24366074752E+04  0.50400001928E-02 0.  1.
    10030    2    1    2    0    0  0.00000000000E+00  0.00000000000E+00 -0.80085180682E+03  0.40723631435E+04  0.39928408378E+04 0.  0.
        2    1    3    3  502    0  0.24184378780E+03  0.63781319697E+03 -0.23140671808E+04  0.24125092765E+04  0.25500000920E-02 0.  1.
       -2    1    3    3    0  502 -0.24184378780E+03 -0.63781319697E+03  0.15132153740E+04  0.16598538670E+04  0.25500000920E-02 0. -1.
</event>
<event>
 5   0  0.6161563E-08  0.4002402E+04  0.7818609E-02  0.8004062E-01
       -2   -1    0    0    0  501  0.00000000000E+00  0.00000000000E+00  0.18925603406E+04  0.18925603406E+04  0.25500000920E-02 0.  1.
        2   -1    0    0  501    0  0.00000000000E+00  0.00000000000E+00 -0.21160776627E+04  0.21160776627E+04  0.25500000920E-02 0. -1.
    10030    2    1    2    0    0  0.00000000000E+00  0.00000000000E+00 -0.22351732206E+03  0.40086380033E+04  0.40024016100E+04 0.  0.
        1    1    3    3  502    0  0.18015352994E+04 -0.86664568891E+03 -0.20245624815E+03  0.20093762010E+04  0.50400001928E-02 0. -1.
       -1    1    3    3    0  502 -0.18015352994E+04  0.86664568891E+03 -0.21061073912E+02  0.19992618022E+04  0.50400001928E-02 0.  1.
</event>
<event>
 5   0  0.1879500E-08  0.3988003E+04  0.7818609E-02  0.8006971E-01
        1   -1    0    0  501    0  0.00000000000E+00  0.00000000000E+00  0.27423506230E+04  0.27423506230E+04  0.50400001928E-02 0.  1.
       -1   -1    0    0    0  501  0.00000000000E+00  0.00000000000E+00 -0.14498661167E+04  0.14498661167E+04  0.50400001928E-02 0. -1.
    10030    2    1    2    0    0  0.00000000000E+00  0.00000000000E+00  0.12924845063E+04  0.41922167397E+04  0.39880026321E+04 0.  0.
        2    1    3    3  502    0  0.16641925530E+04 -0.67074109063E+03 -0.26813319235E+03  0.18142011667E+04  0.25500000920E-02 0. -1.
       -2    1    3    3    0  502 -0.16641925530E+04  0.67074109063E+03  0.15606176986E+04  0.23780155730E+04  0.25500000920E-02 0.  1.
</event>
<event>
 5   0  0.1879500E-08  0.3990857E+04  0.7818609E-02  0.8006394E-01
        1   -1    0    0  501    0  0.00000000000E+00  0.00000000000E+00  0.15227406316E+04  0.15227406316E+04  0.50400001928E-02 0.  1.
       -1   -1    0    0    0  501  0.00000000000E+00  0.00000000000E+00 -0.26148472335E+04  0.26148472335E+04  0.50400001928E-02 0. -1.
    10030    2    1    2    0    0  0.00000000000E+00  0.00000000000E+00 -0.10921066019E+04  0.41375878651E+04  0.39908566138E+04 0.  0.
        5    1    3    3  502    0  0.13661618032E+04 -0.14382254761E+04 -0.77039164681E+03  0.21280075122E+04  0.46999998093E+01 0. -1.
       -5    1    3    3    0  502 -0.13661618032E+04  0.14382254761E+04 -0.32171495504E+03  0.20095803529E+04  0.46999998093E+01 0.  1.
</event>
<event>
 5   0  0.5888700E-08  0.4047592E+04  0.7818609E-02  0.7995014E-01
        2   -1    0    0  501    0  0.00000000000E+00  0.00000000000E+00  0.19066000283E+04  0.19066000283E+04  0.25500000920E-02 0. -1.
       -2   -1    0    0    0  501  0.00000000000E+00  0.00000000000E+00 -0.21481962287E+04  0.21481962287E+04  0.25500000920E-02 0.  1.
    10030    2    1    2    0    0  0.00000000000E+00  0.00000000000E+00 -0.24159620039E+03  0.40547962570E+04  0.40475923661E+04 0.  0.
        5    1    3    3  502    0 -0.97733648017E+02  0.15684588688E+04  0.11566631579E+04  0.19512833828E+04  0.46999998093E+01 0. -1.
       -5    1    3    3    0  502  0.97733648017E+02 -0.15684588688E+04 -0.13982593583E+04  0.21035128742E+04  0.46999998093E+01 0.  1.
</event>
<event>
 5   0  0.1879500E-08  0.3995912E+04  0.7818609E-02  0.8005372E-01
       -1   -1    0    0    0  501  0.00000000000E+00  0.00000000000E+00  0.14454484785E+04  0.14454484785E+04  0.50400001928E-02 0. -1.
        1   -1    0    0  501    0  0.00000000000E+00  0.00000000000E+00 -0.27616530686E+04  0.27616530686E+04  0.50400001928E-02 0.  1.
    10030    2    1    2    0    0  0.00000000000E+00  0.00000000000E+00 -0.13162045901E+04  0.42071015471E+04  0.39959115236E+04 0.  0.
        2    1    3    3  502    0  0.17506365105E+04  0.58964460528E+03 -0.14595279211E+04  0.23542792325E+04  0.25500000920E-02 0.  1.
       -2    1    3    3    0  502 -0.17506365105E+04 -0.58964460528E+03  0.14332333098E+03  0.18528223146E+04  0.25500000920E-02 0. -1.
</event>
<event>
 5   0  0.1879500E-08  0.3976170E+04  0.7818609E-02  0.8009371E-01
       -1   -1    0    0    0  501  0.00000000000E+00  0.00000000000E+00  0.32175923631E+04  0.32175923631E+04  0.50400001928E-02 0. -1.
        1   -1    0    0  501    0  0.00000000000E+00  0.00000000000E+00 -0.12283971525E+04  0.12283971525E+04  0.50400001928E-02 0.  1.
    10030    2    1    2    0    0  0.00000000000E+00  0.00000000000E+00  0.19891952106E+04  0.44459895157E+04  0.39761696628E+04 0.  0.
        3    1    3    3  502    0  0.18720555804E+04 -0.61894572068E+03  0.70997095218E+03  0.20956489840E+04  0.10100000352E+00 0. -1.
       -3    1    3    3    0  502 -0.18720555804E+04  0.61894572068E+03  0.12792242584E+04  0.23503405316E+04  0.10100000352E+00 0.  1.
</event>
<event>
 5   0  0.1879500E-08  0.4014987E+04  0.7818609E-02  0.8001530E-01
        1   -1    0    0  501    0  0.00000000000E+00  0.00000000000E+00  0.26512631451E+04  0.26512631451E+04  0.50400001928E-02 0.  1.
       -1   -1    0    0    0  501  0.00000000000E+00  0.00000000000E+00 -0.15200413634E+04  0.15200413634E+04  0.50400001928E-02 0. -1.
    10030    2    1    2    0    0  0.00000000000E+00  0.00000000000E+00  0.11312217816E+04  0.41713045085E+04  0.40149867476E+04 0.  0.
        5    1    3    3  502    0  0.88507244205E+03  0.17734638368E+04  0.23464841831E+03  0.19958980881E+04  0.46999998093E+01 0. -1.
       -5    1    3    3    0  502 -0.88507244205E+03 -0.17734638368E+04  0.89657336333E+03  0.21754064204E+04  0.46999998093E+01 0.  1.
</event>
<event>
 5   0  0.5951623E-08  0.3969710E+04  0.7818609E-02  0.8010685E-01
        2   -1    0    0  501    0  0.00000000000E+00  0.00000000000E+00  0.17154274787E+04  0.17154274787E+04  0.25500000920E-02 0. -1.
       -2   -1    0    0    0  501  0.00000000000E+00  0.00000000000E+00 -0.22965988442E+04  0.22965988442E+04  0.25500000920E-02 0.  1.
    10030    2    1    2    0    0  0.00000000000E+00  0.00000000000E+00 -0.58117136542E+03  0.40120263229E+04  0.39697096946E+04 0.  0.
        2    1    3    3  502    0 -0.13802273112E+04  0.13942502165E+04 -0.59493977340E+03  0.20501010782E+04  0.25500000920E-02 0.  1.
       -2    1    3    3    0  502  0.13802273112E+04 -0.13942502165E+04  0.13768407977E+02  0.19619252447E+04  0.25500000920E-02 0. -1.
</event>
<event>
 5   0  0.6161563E-08  0.4010741E+04  0.7818609E-02  0.8002383E-01
        2   -1    0    0  501    0  0.00000000000E+00  0.00000000000E+00  0.15875166225E+04  0.15875166225E+04  0.25500000920E-02 0. -1.
       -2   -1    0    0    0  501  0.00000000000E+00  0.00000000000E+00 -0.25332083218E+04  0.25332083218E+04  0.25500000920E-02 0.  1.
    10030    2    1    2    0    0  0.00000000000E+00  0.00000000000E+00 -0.94569169932E+03  0.41207249442E+04  0.40107407391E+04 0.  0.
        1    1    3    3  502    0 -0.99343799605E+03 -0.89167264982E+03  0.10646914207E+04  0.17075031443E+04  0.50400001928E-02 0. -1.
       -1    1    3    3    0  502  0.99343799605E+03  0.89167264982E+03 -0.20103831200E+04  0.24132217999E+04  0.50400001928E-02 0.  1.
</event>
<event>
 5   0  0.1879500E-08  0.4004216E+04  0.7818609E-02  0.8003697E-01
       -1   -1    0    0    0  501  0.00000000000E+00  0.00000000000E+00  0.14736125176E+04  0.14736125176E+04  0.50400001928E-02 0.  1.
        1   -1    0    0  501    0  0.00000000000E+00  0.00000000000E+00 -0.27201428313E+04  0.27201428313E+04  0.50400001928E-02 0. -1.
    10030    2    1    2    0    0  0.00000000000E+00  0.00000000000E+00 -0.12465303138E+04  0.41937553489E+04  0.40042160410E+04 0.  0.
        3    1    3    3  502    0 -0.13386748989E+04 -0.61769098460E+03 -0.20419474524E+04  0.25185595180E+04  0.10100000352E+00 0. -1.
       -3    1    3    3    0  502  0.13386748989E+04  0.61769098460E+03  0.79541713859E+03  0.16751958309E+04  0.10100000352E+00 0.  1.
</event>
<event>
 5   0  0.6161563E-08  0.3998181E+04  0.7818609E-02  0.8004914E-01
        2   -1    0    0  501    0  0.00000000000E+00  0.00000000000E+00  0.16155371045E+04  0.16155371045E+04  0.25500000920E-02 0. -1.
       -2   -1    0    0    0  501  0.00000000000E+00  0.00000000000E+00 -0.24737050496E+04  0.24737050496E+04  0.25500000920E-02 0.  1.
    10030    2    1    2    0    0  0.00000000000E+00  0.00000000000E+00 -0.85816794507E+03  0.40892421541E+04  0.39981807329E+04 0.  0.
        1    1    3    3  502    0  0.89358008280E+03 -0.10238150576E+03  0.13969058291E+04  0.16614190419E+04  0.50400001928E-02 0. -1.
       -1    1    3    3    0  502 -0.89358008280E+03  0.10238150576E+03 -0.22550737742E+04  0.24278231122E+04  0.50400001928E-02 0.  1.
</event>
<event>
 5   0  0.6161563E-08  0.4008976E+04  0.7818609E-02  0.8002738E-01
        2   -1    0    0  501    0  0.00000000000E+00  0.00000000000E+00  0.19765452455E+04  0.19765452455E+04  0.25500000920E-02 0. -1.
       -2   -1    0    0    0  501  0.00000000000E+00  0.00000000000E+00 -0.20328260614E+04  0.20328260614E+04  0.25500000920E-02 0.  1.
    10030    2    1    2    0    0  0.00000000000E+00  0.00000000000E+00 -0.56280815871E+02  0.40093713069E+04  0.40089762717E+04 0.  0.
        1    1    3    3  502    0 -0.75665374960E+03 -0.53213539014E+03  0.17503148079E+04  0.19797209139E+04  0.50400001928E-02 0. -1.
       -1    1    3    3    0  502  0.75665374960E+03  0.53213539014E+03 -0.18065956237E+04  0.20296503930E+04  0.50400001928E-02 0.  1.
</event>
<event>
 5   0  0.5888700E-08  0.4001184E+04  0.7818609E-02  0.8004308E-01
       -2   -1    0    0    0  501  0.00000000000E+00  0.00000000000E+00  0.14959431051E+04  0.14959431051E+04  0.25500000920E-02 0. -1.
        2   -1    0    0  501    0  0.00000000000E+00  0.00000000000E+00 -0.26754822617E+04  0.26754822617E+04  0.25500000920E-02 0.  1.
    10030    2    1    2    0    0  0.00000000000E+00  0.00000000000E+00 -0.11795391566E+04  0.41714253668E+04  0.40011844458E+04 0.  0.
        5    1    3    3  502    0 -0.14380093119E+04  0.68174498151E+03  0.67412332521E+03  0.17283261696E+04  0.46999998093E+01 0. -1.
       -5    1    3    3    0  502  0.14380093119E+04 -0.68174498151E+03 -0.18536624818E+04  0.24430991972E+04  0.46999998093E+01 0.  1.
</event>
<event>
 5   0  0.5945387E-08  0.3931131E+04  0.7818609E-02  0.8018585E-01
        2   -1    0    0  501    0  0.00000000000E+00  0.00000000000E+00  0.18413777897E+04  0.18413777897E+04  0.25500000920E-02 0. -1.
       -2   -1    0    0    0  501  0.00000000000E+00  0.00000000000E+00 -0.20981290514E+04  0.20981290514E+04  0.25500000920E-02 0.  1.
    10030    2    1    2    0    0  0.00000000000E+00  0.00000000000E+00 -0.25675126169E+03  0.39395068411E+04  0.39311312546E+04 0.  0.
        3    1    3    3  502    0 -0.39072607413E+03 -0.17568363180E+04  0.66343913212E+03  0.19181481188E+04  0.10100000352E+00 0.  1.
       -3    1    3    3    0  502  0.39072607413E+03  0.17568363180E+04 -0.92019039382E+03  0.20213587224E+04  0.10100000352E+00 0. -1.
</event>
<event>
 5   0  0.1879500E-08  0.3957121E+04  0.7818609E-02  0.8013253E-01
        1   -1    0    0  501    0  0.00000000000E+00  0.00000000000E+00  0.21450272505E+04  0.21450272505E+04  0.50400001928E-02 0. -1.
       -1   -1    0    0    0  501  0.00000000000E+00  0.00000000000E+00 -0.18250120948E+04  0.18250120948E+04  0.50400001928E-02 0.  1.
    10030    2    1    2    0    0  0.00000000000E+00  0.00000000000E+00  0.32001515564E+03  0.39700393453E+04  0.39571205066E+04 0.  0.
        1    1    3    3  502    0 -0.15245199165E+04 -0.12264163989E+04  0.45497852047E+03  0.20087965585E+04  0.50400001928E-02 0. -1.
       -1    1    3    3    0  502  0.15245199165E+04  0.12264163989E+04 -0.13496336484E+03  0.19612427869E+04  0.50400001928E-02 0.  1.
</event>
<event>
 5   0  0.1879500E-08  0.4003492E+04  0.7818609E-02  0.8003842E-01
       -1   -1    0    0    0  501  0.00000000000E+00  0.00000000000E+00  0.17017901753E+04  0.17017901753E+04  0.50400001928E-02 0. -1.
        1   -1    0    0  501    0  0.00000000000E+00  0.00000000000E+00 -0.23545719397E+04  0.23545719397E+04  0.50400001928E-02 0.  1.
    10030    2    1    2    0    0  0.00000000000E+00  0.00000000000E+00 -0.65278176444E+03  0.40563621150E+04  0.40034921726E+04 0.  0.
        1    1    3    3  502    0 -0.86292867805E+02 -0.44984382552E+03 -0.23007602778E+04  0.23459121429E+04  0.50400001928E-02 0.  1.
       -1    1    3    3    0  502  0.86292867805E+02  0.44984382552E+03  0.16479785134E+04  0.17104499721E+04  0.50400001928E-02 0. -1.
</event>
<event>
 5   0  0.1879500E-08  0.3992516E+04  0.7818609E-02  0.8006058E-01
       -1   -1    0    0    0  501  0.00000000000E+00  0.00000000000E+00  0.16883475363E+04  0.16883475363E+04  0.50400001928E-02 0.  1.
        1   -1    0    0  501    0  0.00000000000E+00  0.00000000000E+00 -0.23603237548E+04  0.23603237548E+04  0.50400001928E-02 0. -1.
    10030    2    1    2    0    0  0.00000000000E+00  0.00000000000E+00 -0.67197621845E+03  0.40486712911E+04  0.39925163977E+04 0.  0.
        3    1    3    3  502    0 -0.12994344972E+04  0.36511166043E+03  0.11554841346E+04  0.17767892763E+04  0.10100000352E+00 0.  1.
       -3    1    3    3    0  502  0.12994344972E+04 -0.36511166043E+03 -0.18274603531E+04  0.22718820148E+04  0.10100000352E+00 0. -1.
</event>
<event>
 5   0  0.5888700E-08  0.4012437E+04  0.7818609E-02  0.8002042E-01
        2   -1    0    0  501    0  0.00000000000E+00  0.00000000000E+00  0.14317917203E+04  0.14317917203E+04  0.25500000920E-02 0.  1.
       -2   -1    0    0    0  501  0.00000000000E+00  0.00000000000E+00 -0.28111014426E+04  0.28111014426E+04  0.25500000920E-02 0. -1.
    10030    2    1    2    0    0  0.00000000000E+00  0.00000000000E+00 -0.13793097223E+04  0.42428931629E+04  0.40124365517E+04 0.  0.
        5    1    3    3  502    0 -0.15534906456E+04 -0.12721279354E+03 -0.20252815588E+04  0.25556415561E+04  0.46999998093E+01 0. -1.
       -5    1    3    3    0  502  0.15534906456E+04  0.12721279354E+03  0.64597183654E+03  0.16872516067E+04  0.46999998093E+01 0.  1.
</event>
<event>
 5   0  0.6161563E-08  0.4014609E+04  0.7818609E-02  0.8001606E-01
        2   -1    0    0  501    0  0.00000000000E+00  0.00000000000E+00  0.13004624567E+04  0.13004624567E+04  0.25500000920E-02 0.  1.
       -2   -1    0    0    0  501  0.00000000000E+00  0.00000000000E+00 -0.30983369497E+04  0.30983369497E+04  0.25500000920E-02 0. -1.
    10030    2    1    2    0    0  0.00000000000E+00  0.00000000000E+00 -0.17978744930E+04  0.43987994065E+04  0.40146087637E+04 0.  0.
        1    1    3    3  502    0 -0.34498060048E+03  0.17415280163E+04 -0.19252382530E+04  0.26188687973E+04  0.50400001928E-02 0. -1.
       -1    1    3    3    0  502  0.34498060048E+03 -0.17415280163E+04  0.12736376005E+03  0.17799306092E+04  0.50400001928E-02 0.  1.
</event>
<event>
 5   0  0.1879500E-08  0.4006113E+04  0.7818609E-02  0.8003314E-01
       -1   -1    0    0    0  501  0.00000000000E+00  0.00000000000E+00  0.26094869605E+04  0.26094869605E+04  0.50400001928E-02 0. -1.
        1   -1    0    0  501    0  0.00000000000E+00  0.00000000000E+00 -0.15375573992E+04  0.15375573992E+04  0.50400001928E-02 0.  1.
    10030    2    1    2    0    0  0.00000000000E+00  0.00000000000E+00  0.10719295612E+04  0.41470443597E+04  0.40061133205E+04 0.  0.
        5    1    3    3  502    0 -0.16192139775E+04 -0.19459673787E+03 -0.66791416511E+03  0.17623431043E+04  0.46999998093E+01 0.  1.
       -5    1    3    3    0  502  0.16192139775E+04  0.19459673787E+03  0.17398437264E+04  0.23847012554E+04  0.46999998093E+01 0. -1.
</event>
<event>
 5   0  0.1879500E-08  0.3995323E+04  0.7818609E-02  0.8005491E-01
        1   -1    0    0  501    0  0.00000000000E+00  0.00000000000E+00  0.14697780277E+04  0.14697780277E+04  0.50400001928E-02 0.  1.
       -1   -1    0    0    0  501  0.00000000000E+00  0.00000000000E+00 -0.27151385206E+04  0.27151385206E+04  0.50400001928E-02 0. -1.
    10030    2    1    2    0    0  0.00000000000E+00  0.00000000000E+00 -0.12453604930E+04  0.41849165483E+04  0.39953227353E+04 0.  0.
        5    1    3    3  502    0  0.14732115095E+04 -0.52224378526E+03  0.68035335260E+03  0.17046974797E+04  0.46999998093E+01 0.  1.
       -5    1    3    3    0  502 -0.14732115095E+04  0.52224378526E+03 -0.19257138456E+04  0.24802190686E+04  0.46999998093E+01 0. -1.
</event>
<event>
 5   0  0.6161563E-08  0.3996765E+04  0.7818609E-02  0.8005200E-01
        2   -1    0    0  501    0  0.00000000000E+00  0.00000000000E+00  0.20127376776E+04  0.20127376776E+04  0.25500000920E-02 0.  1.
       -2   -1    0    0    0  501  0.00000000000E+00  0.00000000000E+00 -0.19841292890E+04  0.19841292890E+04  0.25500000920E-02 0. -1.
    10030    2    1    2    0    0  0.00000000000E+00  0.00000000000E+00  0.28608388599E+02  0.39968669665E+04  0.39967645800E+04 0.  0.
        1    1    3    3  502    0 -0.11000849496E+04 -0.15330610773E+04  0.67240054151E+03  0.20031439418E+04  0.50400001928E-02 0.  1.
       -1    1    3    3    0  502  0.11000849496E+04  0.15330610773E+04 -0.64379215292E+03  0.19937230247E+04  0.50400001928E-02 0. -1.
</event>
<event>
 5   0  0.1879500E-08  0.3998501E+04  0.7818609E-02  0.8004849E-01
       -1   -1    0    0    0  501  0.00000000000E+00  0.00000000000E+00  0.22846990183E+04  0.22846990183E+04  0.50400001928E-02 0.  1.
        1   -1    0    0  501    0  0.00000000000E+00  0.00000000000E+00 -0.17494658997E+04  0.17494658997E+04  0.50400001928E-02 0. -1.
    10030    2    1    2    0    0  0.00000000000E+00  0.00000000000E+00  0.53523311863E+03  0.40341649180E+04  0.39985012310E+04 0.  0.
        3    1    3    3  502    0  0.50699899869E+03 -0.38085717416E+03  0.21805505888E+04  0.22708811180E+04  0.10100000352E+00 0.  1.
       -3    1    3    3    0  502 -0.50699899869E+03  0.38085717416E+03 -0.16453174701E+04  0.17632838000E+04  0.10100000352E+00 0. -1.
</event>
<event>
 5   0  0.1879500E-08  0.3984863E+04  0.7818609E-02  0.8007607E-01
        1   -1    0    0  501    0  0.00000000000E+00  0.00000000000E+00  0.16976467022E+04  0.16976467022E+04  0.50400001928E-02 0.  1.
       -1   -1    0    0    0  501  0.00000000000E+00  0.00000000000E+00 -0.23384041504E+04  0.23384041504E+04  0.50400001928E-02 0. -1.
    10030    2    1    2    0    0  0.00000000000E+00  0.00000000000E+00 -0.64075744817E+03  0.40360508527E+04  0.39848634077E+04 0.  0.
        2    1    3    3  502    0  0.19664418935E+04 -0.13483370113E+03 -0.61516764933E+03  0.20648256789E+04  0.25500000920E-02 0. -1.
       -2    1    3    3    0  502 -0.19664418935E+04  0.13483370113E+03 -0.25589798840E+02  0.19712251737E+04  0.25500000920E-02 0.  1.
</event>
<event>
 5   0  0.1879500E-08  0.3988871E+04  0.7818609E-02  0.8006795E-01
        1   -1    0    0  501    0  0.00000000000E+00  0.00000000000E+00  0.14021076137E+04  0.14021076137E+04  0.50400001928E-02 0.  1.
       -1   -1    0    0    0  501  0.00000000000E+00  0.00000000000E+00 -0.28369950978E+04  0.28369950978E+04  0.50400001928E-02 0. -1.
    10030    2    1    2    0    0  0.00000000000E+00  0.00000000000E+00 -0.14348874840E+04  0.42391027115E+04  0.39888707308E+04 0.  0.
        4    1    3    3  502    0  0.14621225925E+04  0.12256997972E+04 -0.13349529354E+04  0.23285711114E+04  0.12699999809E+01 0.  1.
       -4    1    3    3    0  502 -0.14621225925E+04 -0.12256997972E+04 -0.99934548676E+02  0.19105316001E+04  0.12699999809E+01 0. -1.
</event>
<event>
 5   0  0.1879500E-08  0.3818637E+04  0.7818609E-02  0.8042167E-01
       -1   -1    0    0    0  501  0.00000000000E+00  0.00000000000E+00  0.13678187574E+04  0.13678187574E+04  0.50400001928E-02 0.  1.
        1   -1    0    0  501    0  0.00000000000E+00  0.00000000000E+00 -0.26651907899E+04  0.26651907899E+04  0.50400001928E-02 0. -1.
    10030    2    1    2    0    0  0.00000000000E+00  0.00000000000E+00 -0.12973720325E+04  0.40330095473E+04  0.38186374295E+04 0.  0.
        4    1    3    3  502    0  0.67861875737E+02  0.97718264888E+03 -0.23795950629E+04  0.25733179826E+04  0.12699999809E+01 0. -1.
       -4    1    3    3    0  502 -0.67861875737E+02 -0.97718264888E+03  0.10822230304E+04  0.14596915646E+04  0.12699999809E+01 0.  1.
</event>
<event>
 5   0  0.1879500E-08  0.3994805E+04  0.7818609E-02  0.8005595E-01
        1   -1    0    0  501    0  0.00000000000E+00  0.00000000000E+00  0.12600028543E+04  0.12600028543E+04  0.50400001928E-02 0. -1.
       -1   -1    0    0    0  501  0.00000000000E+00  0.00000000000E+00 -0.31663550484E+04  0.31663550484E+04  0.50400001928E-02 0.  1.
    10030    2    1    2    0    0  0.00000000000E+00  0.00000000000E+00 -0.19063521941E+04  0.44263579027E+04  0.39948048257E+04 0.  0.
        1    1    3    3  502    0 -0.18904897440E+03  0.13647322759E+04 -0.25555642173E+04  0.29032984979E+04  0.50400001928E-02 0.  1.
       -1    1    3    3    0  502  0.18904897440E+03 -0.13647322759E+04  0.64921202320E+03  0.15230594048E+04  0.50400001928E-02 0. -1.
</event>
<event>
 5   0  0.1879500E-08  0.3992397E+04  0.7818609E-02  0.8006082E-01
       -1   -1    0    0    0  501  0.00000000000E+00  0.00000000000E+00  0.12773782126E+04  0.12773782127E+04  0.50400001928E-02 0.  1.
        1   -1    0    0  501    0  0.00000000000E+00  0.00000000000E+00 -0.31195209996E+04  0.31195209996E+04  0.50400001928E-02 0. -1.
    10030    2    1    2    0    0  0.00000000000E+00  0.00000000000E+00 -0.18421427870E+04  0.43968992123E+04  0.39923968534E+04 0.  0.
        3    1    3    3  502    0  0.18377091535E+04 -0.42294174143E+03 -0.16422065101E+04  0.25005793093E+04  0.10100000352E+00 0. -1.
       -3    1    3    3    0  502 -0.18377091535E+04  0.42294174143E+03 -0.19993627685E+03  0.18963199030E+04  0.10100000352E+00 0.  1.
</event>
<event>
 5   0  0.1879500E-08  0.3986710E+04  0.7818609E-02  0.8007233E-01
       -1   -1    0    0    0  501  0.00000000000E+00  0.00000000000E+00  0.21278175652E+04  0.21278175652E+04  0.50400001928E-02 0.  1.
        1   -1    0    0  501    0  0.00000000000E+00  0.00000000000E+00 -0.18673890850E+04  0.18673890851E+04  0.50400001928E-02 0. -1.
    10030    2    1    2    0    0  0.00000000000E+00  0.00000000000E+00  0.26042848012E+03  0.39952066502E+04  0.39867095686E+04 0.  0.
        4    1    3    3  502    0  0.13315935794E+04  0.56527565908E+03 -0.12441253903E+04  0.19080166748E+04  0.12699999809E+01 0. -1.
       -4    1    3    3    0  502 -0.13315935794E+04 -0.56527565908E+03  0.15045538705E+04  0.20871899754E+04  0.12699999809E+01 0.  1.
</event>
<event>
 5   0  0.5945387E-08  0.3990798E+04  0.7818609E-02  0.8006406E-01
       -2   -1    0    0    0  501  0.00000000000E+00  0.00000000000E+00  0.30839280710E+04  0.30839280710E+04  0.25500000920E-02 0.  1.
        2   -1    0    0  501    0  0.00000000000E+00  0.00000000000E+00 -0.12910859823E+04  0.12910859823E+04  0.25500000920E-02 0. -1.
    10030    2    1    2    0    0  0.00000000000E+00  0.00000000000E+00  0.17928420886E+04  0.43750140533E+04  0.39907975659E+04 0.  0.
        3    1    3    3  502    0  0.17946708853E+04 -0.60704889758E+03  0.15830295345E+04  0.24688731171E+04  0.10100000352E+00 0.  1.
       -3    1    3    3    0  502 -0.17946708853E+04  0.60704889758E+03  0.20981255410E+03  0.19061409362E+04  0.10100000352E+00 0. -1.
</event>
<event>
 5   0  0.1879500E-08  0.4016247E+04  0.7818609E-02  0.8001277E-01
        1   -1    0    0  501    0  0.00000000000E+00  0.00000000000E+00  0.26022112807E+04  0.26022112807E+04  0.50400001928E-02 0. -1.
       -1   -1    0    0    0  501  0.00000000000E+00  0.00000000000E+00 -0.15496664659E+04  0.15496664659E+04  0.50400001928E-02 0.  1.
    10030    2    1    2    0    0  0.00000000000E+00  0.00000000000E+00  0.10525448148E+04  0.41518777467E+04  0.40162467848E+04 0.  0.
        2    1    3    3  502    0  0.13989374370E+04  0.92649348544E+03 -0.61422695125E+03  0.17868102526E+04  0.25500000920E-02 0.  1.
       -2    1    3    3    0  502 -0.13989374370E+04 -0.92649348544E+03  0.16667717660E+04  0.23650674940E+04  0.25500000920E-02 0. -1.
</event>
<event>
 5   0  0.1879500E-08  0.4001234E+04  0.7818609E-02  0.8004298E-01
        1   -1    0    0  501    0  0.00000000000E+00  0.00000000000E+00  0.28111280808E+04  0.28111280808E+04  0.50400001928E-02 0. -1.
       -1   -1    0    0    0  501  0.00000000000E+00  0.00000000000E+00 -0.14237941059E+04  0.14237941059E+04  0.50400001928E-02 0.  1.
    10030    2    1    2    0    0  0.00000000000E+00  0.00000000000E+00  0.13873339748E+04  0.42349221867E+04  0.40012336060E+04 0.  0.
        3    1    3    3  502    0 -0.10025232076E+04 -0.48552514463E+03 -0.10652211308E+04  0.15412603660E+04  0.10100000352E+00 0.  1.
       -3    1    3    3    0  502  0.10025232076E+04  0.48552514463E+03  0.24525551057E+04  0.26936618207E+04  0.10100000352E+00 0. -1.
</event>
<event>
 5   0  0.1879500E-08  0.4000008E+04  0.7818609E-02  0.8004545E-01
       -1   -1    0    0    0  501  0.00000000000E+00  0.00000000000E+00  0.29131313975E+04  0.29131313976E+04  0.50400001928E-02 0. -1.
        1   -1    0    0  501    0  0.00000000000E+00  0.00000000000E+00 -0.13730981357E+04  0.13730981357E+04  0.50400001928E-02 0.  1.
    10030    2    1    2    0    0  0.00000000000E+00  0.00000000000E+00  0.15400332619E+04  0.42862295332E+04  0.40000076455E+04 0.  0.
        2    1    3    3  502    0 -0.56995108985E+03 -0.41233734740E+03 -0.12361538802E+04  0.14223019188E+04  0.25500000920E-02 0.  1.
       -2    1    3    3    0  502  0.56995108985E+03  0.41233734740E+03  0.27761871420E+04  0.28639276144E+04  0.25500000920E-02 0. -1.
</event>
<event>
 5   0  0.6161563E-08  0.4003614E+04  0.7818609E-02  0.8003818E-01
        2   -1    0    0  501    0  0.00000000000E+00  0.00000000000E+00  0.22514512706E+04  0.22514512706E+04  0.25500000920E-02 0. -1.
       -2   -1    0    0    0  501  0.00000000000E+00  0.00000000000E+00 -0.17798433869E+04  0.17798433869E+04  0.25500000920E-02 0.  1.
    10030    2    1    2    0    0  0.00000000000E+00  0.00000000000E+00  0.47160788363E+03  0.40312946575E+04  0.40036136951E+04 0.  0.
        1    1    3    3  502    0  0.38303625826E+03 -0.12695763583E+04 -0.12741272160E+04  0.18390054560E+04  0.50400001928E-02 0.  1.
       -1    1    3    3    0  502 -0.38303625826E+03  0.12695763583E+04  0.17457350997E+04  0.21922892015E+04  0.50400001928E-02 0. -1.
</event>
<event>
 5   0  0.1879500E-08  0.3998949E+04  0.7818609E-02  0.8004759E-01
       -1   -1    0    0    0  501  0.00000000000E+00  0.00000000000E+00  0.16130308115E+04  0.16130308115E+04  0.50400001928E-02 0.  1.
        1   -1    0    0  501    0  0.00000000000E+00  0.00000000000E+00 -0.24785011380E+04  0.24785011380E+04  0.50400001928E-02 0. -1.
    10030    2    1    2    0    0  0.00000000000E+00  0.00000000000E+00 -0.86547032652E+03  0.40915319495E+04  0.39989492129E+04 0.  0.
        1    1    3    3  502    0 -0.14570186506E+03  0.30577517952E+02 -0.24728224783E+04  0.24772999470E+04  0.50400001928E-02 0. -1.
       -1    1    3    3    0  502  0.14570186506E+03 -0.30577517952E+02  0.16073521518E+04  0.16142320025E+04  0.50400001928E-02 0.  1.
</event>
<event>
 5   0  0.5951623E-08  0.4029942E+04  0.7818609E-02  0.7998533E-01
       -2   -1    0    0    0  501  0.00000000000E+00  0.00000000000E+00  0.28021602379E+04  0.28021602379E+04  0.25500000920E-02 0. -1.
        2   -1    0    0  501    0  0.00000000000E+00  0.00000000000E+00 -0.14489205875E+04  0.14489205875E+04  0.25500000920E-02 0.  1.
    10030    2    1    2    0    0  0.00000000000E+00  0.00000000000E+00  0.13532396504E+04  0.42510808255E+04  0.40299417655E+04 0.  0.
        2    1    3    3  502    0 -0.13419731745E+03 -0.19753247666E+04  0.10715864112E+04  0.22512694842E+04  0.25500000920E-02 0. -1.
       -2    1    3    3    0  502  0.13419731745E+03  0.19753247666E+04  0.28165323917E+03  0.19998113413E+04  0.25500000920E-02 0.  1.
</event>
<event>
 5   0  0.1879500E-08  0.3898536E+04  0.7818609E-02  0.8025334E-01
       -1   -1    0    0    0  501  0.00000000000E+00  0.00000000000E+00  0.13329693588E+04  0.13329693588E+04  0.50400001928E-02 0.  1.
        1   -1    0    0  501    0  0.00000000000E+00  0.00000000000E+00 -0.28505118028E+04  0.28505118028E+04  0.50400001928E-02 0. -1.
    10030    2    1    2    0    0  0.00000000000E+00  0.00000000000E+00 -0.15175424440E+04  0.41834811617E+04  0.38985355662E+04 0.  0.
        1    1    3    3  502    0 -0.37118789809E+03  0.18417401093E+04 -0.20132393219E+03  0.18895286215E+04  0.50400001928E-02 0. -1.
       -1    1    3    3    0  502  0.37118789809E+03 -0.18417401093E+04 -0.13162185118E+04  0.22939525402E+04  0.50400001928E-02 0.  1.
</event>
<event>
 5   0  0.1879500E-08  0.3998844E+04  0.7818609E-02  0.8004780E-01
        1   -1    0    0  501    0  0.00000000000E+00  0.00000000000E+00  0.25098128948E+04  0.25098128948E+04  0.50400001928E-02 0. -1.
       -1   -1    0    0    0  501  0.00000000000E+00  0.00000000000E+00 -0.15928228572E+04  0.15928228572E+04  0.50400001928E-02 0.  1.
    10030    2    1    2    0    0  0.00000000000E+00  0.00000000000E+00  0.91699003761E+03  0.41026357520E+04  0.39988435059E+04 0.  0.
        3    1    3    3  502    0 -0.31420532690E+03  0.24664492711E+03  0.24684591836E+04  0.25005698268E+04  0.10100000352E+00 0. -1.
       -3    1    3    3    0  502  0.31420532690E+03 -0.24664492711E+03 -0.15514691460E+04  0.16020659252E+04  0.10100000352E+00 0.  1.
</event>
<event>
 5   0  0.5945387E-08  0.3995880E+04  0.7818609E-02  0.8005378E-01
       -2   -1    0    0    0  501  0.00000000000E+00  0.00000000000E+00  0.19245420387E+04  0.19245420387E+04  0.25500000920E-02 0. -1.
        2   -1    0    0  501    0  0.00000000000E+00  0.00000000000E+00 -0.20741374916E+04  0.20741374916E+04  0.25500000920E-02 0.  1.
    10030    2    1    2    0    0  0.00000000000E+00  0.00000000000E+00 -0.14959545298E+03  0.39986795303E+04  0.39958802768E+04 0.  0.
        3    1    3    3  502    0 -0.54420049313E+03  0.94134803447E+03 -0.17521206340E+04  0.20620904503E+04  0.10100000352E+00 0.  1.
       -3    1    3    3    0  502  0.54420049313E+03 -0.94134803447E+03  0.16025251811E+04  0.19365890800E+04  0.10100000352E+00 0. -1.
</event>
<event>
 5   0  0.5846812E-08  0.4020637E+04  0.7818609E-02  0.8000396E-01
        2   -1    0    0  501    0  0.00000000000E+00  0.00000000000E+00  0.19351602764E+04  0.19351602764E+04  0.25500000920E-02 0.  1.
       -2   -1    0    0    0  501  0.00000000000E+00  0.00000000000E+00 -0.20883954013E+04  0.20883954013E+04  0.25500000920E-02 0. -1.
    10030    2    1    2    0    0  0.00000000000E+00  0.00000000000E+00 -0.15323512489E+03  0.40235556776E+04  0.40206366769E+04 0.  0.
        4    1    3    3  502    0 -0.29868609566E+03  0.36712918263E+03  0.18786128263E+04  0.19373138580E+04  0.12699999809E+01 0.  1.
       -4    1    3    3    0  502  0.29868609566E+03 -0.36712918263E+03 -0.20318479512E+04  0.20862418196E+04  0.12699999809E+01 0. -1.
</event>
<event>
 5   0  0.1879500E-08  0.3993294E+04  0.7818609E-02  0.8005901E-01
       -1   -1    0    0    0  501  0.00000000000E+00  0.00000000000E+00  0.28317665541E+04  0.28317665541E+04  0.50400001928E-02 0.  1.
        1   -1    0    0  501    0  0.00000000000E+00  0.00000000000E+00 -0.14078138305E+04  0.14078138305E+04  0.50400001928E-02 0. -1.
    10030    2    1    2    0    0  0.00000000000E+00  0.00000000000E+00  0.14239527236E+04  0.42395803847E+04  0.39932944393E+04 0.  0.
        1    1    3    3  502    0 -0.17166614693E+04 -0.94659301250E+03  0.11143430000E+04  0.22549335363E+04  0.50400001928E-02 0.  1.
       -1    1    3    3    0  502  0.17166614693E+04  0.94659301250E+03  0.30960972361E+03  0.19846468483E+04  0.50400001928E-02 0. -1.
</event>
<event>
 5   0  0.1879500E-08  0.3995291E+04  0.7818609E-02  0.8005497E-01
        1   -1    0    0  501    0  0.00000000000E+00  0.00000000000E+00  0.22808892743E+04  0.22808892743E+04  0.50400001928E-02 0.  1.
       -1   -1    0    0    0  501  0.00000000000E+00  0.00000000000E+00 -0.17495750848E+04  0.17495750848E+04  0.50400001928E-02 0. -1.
    10030    2    1    2    0    0  0.00000000000E+00  0.00000000000E+00  0.53131418947E+03  0.40304643592E+04  0.39952907507E+04 0.  0.
        5    1    3    3  502    0  0.16748783264E+04 -0.93997429027E+03  0.81985304693E+03  0.20882888170E+04  0.46999998093E+01 0.  1.
       -5    1    3    3    0  502 -0.16748783264E+04  0.93997429027E+03 -0.28853885746E+03  0.19421755422E+04  0.46999998093E+01 0. -1.
</event>
<event>
 5   0  0.5945387E-08  0.4024904E+04  0.7818609E-02  0.7999541E-01
       -2   -1    0    0    0  501  0.00000000000E+00  0.00000000000E+00  0.15521694833E+04  0.15521694833E+04  0.25500000920E-02 0.  1.
        2   -1    0    0  501    0  0.00000000000E+00  0.00000000000E+00 -0.26092268527E+04  0.26092268527E+04  0.25500000920E-02 0. -1.
    10030    2    1    2    0    0  0.00000000000E+00  0.00000000000E+00 -0.10570573694E+04  0.41613963360E+04  0.40249036241E+04 0.  0.
        3    1    3    3  502    0  0.78623753757E+03 -0.16910710302E+04  0.25347497473E+03  0.18820574560E+04  0.10100000352E+00 0. -1.
       -3    1    3    3    0  502 -0.78623753757E+03  0.16910710302E+04 -0.13105323442E+04  0.22793388800E+04  0.10100000352E+00 0.  1.
</event>
<event>
 5   0  0.1879500E-08  0.3997218E+04  0.7818609E-02  0.8005108E-01
        1   -1    0    0  501    0  0.00000000000E+00  0.00000000000E+00  0.15104684672E+04  0.15104684672E+04  0.50400001928E-02 0. -1.
       -1   -1    0    0    0  501  0.00000000000E+00  0.00000000000E+00 -0.26445027326E+04  0.26445027326E+04  0.50400001928E-02 0.  1.
    10030    2    1    2    0    0  0.00000000000E+00  0.00000000000E+00 -0.11340342654E+04  0.41549711998E+04  0.39972180270E+04 0.  0.
        4    1    3    3  502    0 -0.10266268716E+04 -0.33135166028E+03  0.11818448908E+04  0.16001611216E+04  0.12699999809E+01 0. -1.
       -4    1    3    3    0  502  0.10266268716E+04  0.33135166028E+03 -0.23158791563E+04  0.25548100782E+04  0.12699999809E+01 0.  1.
</event>
<event>
 5   0  0.5945387E-08  0.4003414E+04  0.7818609E-02  0.8003858E-01
       -2   -1    0    0    0  501  0.00000000000E+00  0.00000000000E+00  0.23586405132E+04  0.23586405132E+04  0.25500000920E-02 0. -1.
        2   -1    0    0  501    0  0.00000000000E+00  0.00000000000E+00 -0.16987886668E+04  0.16987886668E+04  0.25500000920E-02 0.  1.
    10030    2    1    2    0    0  0.00000000000E+00  0.00000000000E+00  0.65985184639E+03  0.40574291801E+04  0.40034144292E+04 0.  0.
        3    1    3    3  502    0  0.49426651526E+02  0.74021321600E+02 -0.16967821247E+04  0.16991149869E+04  0.10100000352E+00 0.  1.
       -3    1    3    3    0  502 -0.49426651526E+02 -0.74021321600E+02  0.23566339711E+04  0.23583141932E+04  0.10100000352E+00 0. -1.
</event>
<event>
 5   0  0.1879500E-08  0.3999343E+04  0.7818609E-02  0.8004679E-01
       -1   -1    0    0    0  501  0.00000000000E+00  0.00000000000E+00  0.17316390288E+04  0.17316390288E+04  0.50400001928E-02 0. -1.
        1   -1    0    0  501    0  0.00000000000E+00  0.00000000000E+00 -0.23091915477E+04  0.23091915478E+04  0.50400001928E-02 0.  1.
    10030    2    1    2    0    0  0.00000000000E+00  0.00000000000E+00 -0.57755251893E+03  0.40408305766E+04  0.39993430506E+04 0.  0.
        2    1    3    3  502    0  0.45923122583E+03  0.12076183168E+04 -0.18308628592E+04  0.22408244302E+04  0.25500000920E-02 0.  1.
       -2    1    3    3    0  502 -0.45923122583E+03 -0.12076183168E+04  0.12533103403E+04  0.18000061464E+04  0.25500000920E-02 0. -1.
</event>
<event>
 5   0  0.5888700E-08  0.4012527E+04  0.7818609E-02  0.8002024E-01
        2   -1    0    0  501    0  0.00000000000E+00  0.00000000000E+00  0.27982115441E+04  0.27982115441E+04  0.25500000920E-02 0. -1.
       -2   -1    0    0    0  501  0.00000000000E+00  0.00000000000E+00 -0.14384517824E+04  0.14384517824E+04  0.25500000920E-02 0.  1.
    10030    2    1    2    0    0  0.00000000000E+00  0.00000000000E+00  0.13597597616E+04  0.42366633265E+04  0.40125265772E+04 0.  0.
        5    1    3    3  502    0  0.15521596930E+04  0.10668276960E+04  0.14096835412E+04  0.23525626075E+04  0.46999998093E+01 0. -1.
       -5    1    3    3    0  502 -0.15521596930E+04 -0.10668276960E+04 -0.49923779598E+02  0.18841007190E+04  0.46999998093E+01 0.  1.
</event>
<event>
 5   0  0.1879500E-08  0.4012897E+04  0.7818609E-02  0.8001950E-01
        1   -1    0    0  501    0  0.00000000000E+00  0.00000000000E+00  0.31448743771E+04  0.31448743771E+04  0.50400001928E-02 0.  1.
       -1   -1    0    0    0  501  0.00000000000E+00  0.00000000000E+00 -0.12801263333E+04  0.12801263333E+04  0.50400001928E-02 0. -1.
    10030    2    1    2    0    0  0.00000000000E+00  0.00000000000E+00  0.18647480438E+04  0.44250007104E+04  0.40128974595E+04 0.  0.
        1    1    3    3  502    0 -0.21375773482E+03  0.30653338557E+03 -0.12414121302E+04  0.12964409600E+04  0.50400001928E-02 0. -1.
       -1    1    3    3    0  502  0.21375773482E+03 -0.30653338557E+03  0.31061601740E+04  0.31285597505E+04  0.50400001928E-02 0.  1.
</event>
<event>
 5   0  0.1879500E-08  0.4009446E+04  0.7818609E-02  0.8002644E-01
       -1   -1    0    0    0  501  0.00000000000E+00  0.00000000000E+00  0.31830265985E+04  0.31830265985E+04  0.50400001928E-02 0. -1.
        1   -1    0    0  501    0  0.00000000000E+00  0.00000000000E+00 -0.12626075343E+04  0.12626075343E+04  0.50400001928E-02 0.  1.
    10030    2    1    2    0    0  0.00000000000E+00  0.00000000000E+00  0.19204190642E+04  0.44456341328E+04  0.40094455303E+04 0.  0.
        1    1    3    3  502    0  0.65391280118E+03  0.13382028376E+04 -0.52760544965E+03  0.15801127480E+04  0.50400001928E-02 0.  1.
       -1    1    3    3    0  502 -0.65391280118E+03 -0.13382028376E+04  0.24480245139E+04  0.28655213848E+04  0.50400001928E-02 0. -1.
</event>
<event>
 5   0  0.5945387E-08  0.3997643E+04  0.7818609E-02  0.8005022E-01
        2   -1    0    0  501    0  0.00000000000E+00  0.00000000000E+00  0.20524465496E+04  0.20524465496E+04  0.25500000920E-02 0. -1.
       -2   -1    0    0    0  501  0.00000000000E+00  0.00000000000E+00 -0.19465970496E+04  0.19465970496E+04  0.25500000920E-02 0.  1.
    10030    2    1    2    0    0  0.00000000000E+00  0.00000000000E+00  0.10584950003E+03  0.39990435991E+04  0.39976425042E+04 0.  0.
        3    1    3    3  502    0 -0.15692926520E+04  0.85995031569E+03  0.94379423451E+03  0.20231019600E+04  0.10100000352E+00 0.  1.
       -3    1    3    3    0  502  0.15692926520E+04 -0.85995031569E+03 -0.83794473448E+03  0.19759416392E+04  0.10100000352E+00 0. -1.
</event>
<event>
 5   0  0.1879500E-08  0.4003324E+04  0.7818609E-02  0.8003876E-01
       -1   -1    0    0    0  501  0.00000000000E+00  0.00000000000E+00  0.27140457024E+04  0.27140457024E+04  0.50400001928E-02 0. -1.
        1   -1    0    0  501    0  0.00000000000E+00  0.00000000000E+00 -0.14762651027E+04  0.14762651028E+04  0.50400001928E-02 0.  1.
    10030    2    1    2    0    0  0.00000000000E+00  0.00000000000E+00  0.12377805997E+04  0.41903108052E+04  0.40033240977E+04 0.  0.
        4    1    3    3  502    0 -0.66172322414E+03  0.14382726255E+04 -0.66312113557E+03  0.17164606095E+04  0.12699999809E+01 0. -1.
       -4    1    3    3    0  502  0.66172322414E+03 -0.14382726255E+04  0.19009017352E+04  0.24738501957E+04  0.12699999809E+01 0.  1.
</event>
<event>
 5   0  0.1879500E-08  0.3991565E+04  0.7818609E-02  0.8006250E-01
       -1   -1    0    0    0  501  0.00000000000E+00  0.00000000000E+00  0.26651971770E+04  0.26651971770E+04  0.50400001928E-02 0. -1.
        1   -1    0    0  501    0  0.00000000000E+00  0.00000000000E+00 -0.14945037718E+04  0.14945037718E+04  0.50400001928E-02 0.  1.
    10030    2    1    2    0    0  0.00000000000E+00  0.00000000000E+00  0.11706934052E+04  0.41597009488E+04  0.39915647226E+04 0.  0.
        1    1    3    3  502    0  0.11078299079E+04 -0.73160269146E+03 -0.96759740549E+03  0.16427946744E+04  0.50400001928E-02 0.  1.
       -1    1    3    3    0  502 -0.11078299079E+04  0.73160269146E+03  0.21382908107E+04  0.25169062744E+04  0.50400001928E-02 0. -1.
</event>
<event>
 5   0  0.5888700E-08  0.3977622E+04  0.7818609E-02  0.8009076E-01
        2   -1    0    0  501    0  0.00000000000E+00  0.00000000000E+00  0.26044837038E+04  0.26044837038E+04  0.25500000920E-02 0. -1.
       -2   -1    0    0    0  501  0.00000000000E+00  0.00000000000E+00 -0.15186765640E+04  0.15186765640E+04  0.25500000920E-02 0.  1.
    10030    2    1    2    0    0  0.00000000000E+00  0.00000000000E+00  0.10858071399E+04  0.41231602678E+04  0.39776215819E+04 0.  0.
        5    1    3    3  502    0  0.10042910604E+04 -0.55246305033E+03 -0.11418428901E+04  0.16179132337E+04  0.46999998093E+01 0.  1.
       -5    1    3    3    0  502 -0.10042910604E+04  0.55246305033E+03  0.22276500300E+04  0.25052470342E+04  0.46999998093E+01 0. -1.
</event>
<event>
 5   0  0.1879500E-08  0.4013651E+04  0.7818609E-02  0.8001798E-01
       -1   -1    0    0    0  501  0.00000000000E+00  0.00000000000E+00  0.28372835377E+04  0.28372835377E+04  0.50400001928E-02 0. -1.
        1   -1    0    0  501    0  0.00000000000E+00  0.00000000000E+00 -0.14194378843E+04  0.14194378843E+04  0.50400001928E-02 0.  1.
    10030    2    1    2    0    0  0.00000000000E+00  0.00000000000E+00  0.14178456534E+04  0.42567214220E+04  0.40136505787E+04 0.  0.
        5    1    3    3  502    0 -0.18340545698E+04 -0.65925634896E+03  0.12163883203E+04  0.22973893302E+04  0.46999998093E+01 0. -1.
       -5    1    3    3    0  502  0.18340545698E+04  0.65925634896E+03  0.20145733312E+03  0.19593320918E+04  0.46999998093E+01 0.  1.
</event>
<event>
 5   0  0.5945387E-08  0.3994830E+04  0.7818609E-02  0.8005590E-01
       -2   -1    0    0    0  501  0.00000000000E+00  0.00000000000E+00  0.28470016046E+04  0.28470016046E+04  0.25500000920E-02 0.  1.
        2   -1    0    0  501    0  0.00000000000E+00  0.00000000000E+00 -0.14013576790E+04  0.14013576790E+04  0.25500000920E-02 0. -1.
    10030    2    1    2    0    0  0.00000000000E+00  0.00000000000E+00  0.14456439256E+04  0.42483592836E+04  0.39948304399E+04 0.  0.
        3    1    3    3  502    0 -0.16425129759E+04  0.11315628620E+04  0.83628997807E+03  0.21627908647E+04  0.10100000352E+00 0. -1.
       -3    1    3    3    0  502  0.16425129759E+04 -0.11315628620E+04  0.60935394753E+03  0.20855684190E+04  0.10100000352E+00 0.  1.
</event>
<event>
 5   0  0.1879500E-08  0.3992117E+04  0.7818609E-02  0.8006139E-01
       -1   -1    0    0    0  501  0.00000000000E+00  0.00000000000E+00  0.25574970891E+04  0.25574970891E+04  0.50400001928E-02 0. -1.
        1   -1    0    0  501    0  0.00000000000E+00  0.00000000000E+00 -0.15578704878E+04  0.15578704878E+04  0.50400001928E-02 0.  1.
    10030    2    1    2    0    0  0.00000000000E+00  0.00000000000E+00  0.99962660125E+03  0.41153675769E+04  0.39921168509E+04 0.  0.
        2    1    3    3  502    0 -0.18077268993E+04 -0.29913435957E+03 -0.31639596153E+03  0.18594258017E+04  0.25500000920E-02 0. -1.
       -2    1    3    3    0  502  0.18077268993E+04  0.29913435957E+03  0.13160225628E+04  0.22559417752E+04  0.25500000920E-02 0.  1.
</event>
<event>
 5   0  0.1879500E-08  0.4002951E+04  0.7818609E-02  0.8003952E-01
        1   -1    0    0  501    0  0.00000000000E+00  0.00000000000E+00  0.29599056807E+04  0.29599056807E+04  0.50400001928E-02 0.  1.
       -1   -1    0    0    0  501  0.00000000000E+00  0.00000000000E+00 -0.13533890106E+04  0.13533890106E+04  0.50400001928E-02 0. -1.
    10030    2    1    2    0    0  0.00000000000E+00  0.00000000000E+00  0.16065166701E+04  0.43132946913E+04  0.40029508219E+04 0.  0.
        4    1    3    3  502    0 -0.10964969834E+04  0.11818426477E+04  0.20813203555E+04  0.26326704529E+04  0.12699999809E+01 0.  1.
       -4    1    3    3    0  502  0.10964969834E+04 -0.11818426477E+04 -0.47480368532E+03  0.16806242385E+04  0.12699999809E+01 0. -1.
</event>
<event>
 5   0  0.1879500E-08  0.4003069E+04  0.7818609E-02  0.8003928E-01
       -1   -1    0    0    0  501  0.00000000000E+00  0.00000000000E+00  0.15819885223E+04  0.15819885223E+04  0.50400001928E-02 0.  1.
        1   -1    0    0  501    0  0.00000000000E+00  0.00000000000E+00 -0.25323446322E+04  0.25323446322E+04  0.50400001928E-02 0. -1.
    10030    2    1    2    0    0  0.00000000000E+00  0.00000000000E+00 -0.95035610990E+03  0.41143331545E+04  0.40030688941E+04 0.  0.
        1    1    3    3  502    0  0.96718389662E+03 -0.13016538085E+04  0.73062835833E+03  0.17786413706E+04  0.50400001928E-02 0.  1.
       -1    1    3    3    0  502 -0.96718389662E+03  0.13016538085E+04 -0.16809844682E+04  0.23356917839E+04  0.50400001928E-02 0. -1.
</event>
<event>
 5   0  0.1879500E-08  0.4017855E+04  0.7818609E-02  0.8000954E-01
        1   -1    0    0  501    0  0.00000000000E+00  0.00000000000E+00  0.25714257297E+04  0.25714257297E+04  0.50400001928E-02 0. -1.
       -1   -1    0    0    0  501  0.00000000000E+00  0.00000000000E+00 -0.15694758767E+04  0.15694758767E+04  0.50400001928E-02 0.  1.
    10030    2    1    2    0    0  0.00000000000E+00  0.00000000000E+00  0.10019498530E+04  0.41409016064E+04  0.40178554735E+04 0.  0.
        4    1    3    3  502    0 -0.84837444805E+03  0.13825553489E+04 -0.72047444488E+03  0.17749038102E+04  0.12699999809E+01 0. -1.
       -4    1    3    3    0  502  0.84837444805E+03 -0.13825553489E+04  0.17224242978E+04  0.23659977962E+04  0.12699999809E+01 0.  1.
</event>
<event>
 5   0  0.5951623E-08  0.3999302E+04  0.7818609E-02  0.8004687E-01
       -2   -1    0    0    0  501  0.00000000000E+00  0.00000000000E+00  0.16629806643E+04  0.16629806643E+04  0.25500000920E-02 0. -1.
        2   -1    0    0  501    0  0.00000000000E+00  0.00000000000E+00 -0.24044798913E+04  0.24044798913E+04  0.25500000920E-02 0.  1.
    10030    2    1    2    0    0  0.00000000000E+00  0.00000000000E+00 -0.74149922702E+03  0.40674605556E+04  0.39993017225E+04 0.  0.
        2    1    3    3  502    0  0.13649614435E+04 -0.50319689322E+03  0.10245931818E+04  0.17793588856E+04  0.25500000920E-02 0. -1.
       -2    1    3    3    0  502 -0.13649614435E+04  0.50319689322E+03 -0.17660924088E+04  0.22881016700E+04  0.25500000920E-02 0.  1.
</event>
<event>
 5   0  0.6161563E-08  0.4010348E+04  0.7818609E-02  0.8002462E-01
       -2   -1    0    0    0  501  0.00000000000E+00  0.00000000000E+00  0.29576664545E+04  0.29576664545E+04  0.25500000920E-02 0.  1.
        2   -1    0    0  501    0  0.00000000000E+00  0.00000000000E+00 -0.13594237470E+04  0.13594237470E+04  0.25500000920E-02 0. -1.
    10030    2    1    2    0    0  0.00000000000E+00  0.00000000000E+00  0.15982427076E+04  0.43170902015E+04  0.40103476228E+04 0.  0.
        1    1    3    3  502    0  0.93635861152E+03 -0.17669124300E+04  0.95869965377E+03  0.22176230543E+04  0.50400001928E-02 0.  1.
       -1    1    3    3    0  502 -0.93635861152E+03  0.17669124300E+04  0.63954305381E+03  0.20994671472E+04  0.50400001928E-02 0. -1.
</event>
<event>
 5   0  0.5945387E-08  0.4015795E+04  0.7818609E-02  0.8001368E-01
        2   -1    0    0  501    0  0.00000000000E+00  0.00000000000E+00  0.22849428609E+04  0.22849428609E+04  0.25500000920E-02 0.  1.
       -2   -1    0    0    0  501  0.00000000000E+00  0.00000000000E+00 -0.17644438420E+04  0.17644438420E+04  0.25500000920E-02 0. -1.
    10030    2    1    2    0    0  0.00000000000E+00  0.00000000000E+00  0.52049901889E+03  0.40493867029E+04  0.40157954929E+04 0.  0.
        3    1    3    3  502    0  0.30794805732E+03  0.80573303778E+03  0.20885946498E+04  0.22597047054E+04  0.10100000352E+00 0.  1.
       -3    1    3    3    0  502 -0.30794805732E+03 -0.80573303778E+03 -0.15680956309E+04  0.17896819975E+04  0.10100000352E+00 0. -1.
</event>
<event>
 5   0  0.6161563E-08  0.4000529E+04  0.7818609E-02  0.8004440E-01
        2   -1    0    0  501    0  0.00000000000E+00  0.00000000000E+00  0.15320487378E+04  0.15320487378E+04  0.25500000920E-02 0.  1.
       -2   -1    0    0    0  501  0.00000000000E+00  0.00000000000E+00 -0.26115738904E+04  0.26115738904E+04  0.25500000920E-02 0. -1.
    10030    2    1    2    0    0  0.00000000000E+00  0.00000000000E+00 -0.10795251525E+04  0.41436226282E+04  0.40005292063E+04 0.  0.
        1    1    3    3  502    0 -0.49037538832E+03  0.44993884422E+02  0.14682842765E+04  0.15486610952E+04  0.50400001928E-02 0.  1.
       -1    1    3    3    0  502  0.49037538832E+03 -0.44993884422E+02 -0.25478094290E+04  0.25949615330E+04  0.50400001928E-02 0. -1.
</event>
<event>
 5   0  0.5846812E-08  0.4005836E+04  0.7818609E-02  0.8003370E-01
        2   -1    0    0  501    0  0.00000000000E+00  0.00000000000E+00  0.14156544415E+04  0.14156544415E+04  0.25500000920E-02 0. -1.
       -2   -1    0    0    0  501  0.00000000000E+00  0.00000000000E+00 -0.28337993572E+04  0.28337993572E+04  0.25500000920E-02 0.  1.
    10030    2    1    2    0    0  0.00000000000E+00  0.00000000000E+00 -0.14181449157E+04  0.42494537987E+04  0.40058360657E+04 0.  0.
        4    1    3    3  502    0 -0.13403708895E+04 -0.14708504373E+04 -0.95023929715E+03  0.22052100728E+04  0.12699999809E+01 0.  1.
       -4    1    3    3    0  502  0.13403708895E+04  0.14708504373E+04 -0.46790561859E+03  0.20442437259E+04  0.12699999809E+01 0. -1.
</event>
<event>
 5   0  0.1879500E-08  0.4048698E+04  0.7818609E-02  0.7994794E-01
        1   -1    0    0  501    0  0.00000000000E+00  0.00000000000E+00  0.27083690392E+04  0.27083690392E+04  0.50400001928E-02 0. -1.
       -1   -1    0    0    0  501  0.00000000000E+00  0.00000000000E+00 -0.15130833244E+04  0.15130833244E+04  0.50400001928E-02 0.  1.
    10030    2    1    2    0    0  0.00000000000E+00  0.00000000000E+00  0.11952857149E+04  0.42214523636E+04  0.40486975829E+04 0.  0.
        3    1    3    3  502    0  0.10231715176E+04 -0.17425076687E+04  0.72438224774E+03  0.21466118841E+04  0.10100000352E+00 0.  1.
       -3    1    3    3    0  502 -0.10231715176E+04  0.17425076687E+04  0.47090346714E+03  0.20748404795E+04  0.10100000352E+00 0. -1.
</event>
<event>
 5   0  0.1879500E-08  0.3990568E+04  0.7818609E-02  0.8006452E-01
       -1   -1    0    0    0  501  0.00000000000E+00  0.00000000000E+00  0.13516096485E+04  0.13516096485E+04  0.50400001928E-02 0. -1.
        1   -1    0    0  501    0  0.00000000000E+00  0.00000000000E+00 -0.29454934783E+04  0.29454934783E+04  0.50400001928E-02 0.  1.
    10030    2    1    2    0    0  0.00000000000E+00  0.00000000000E+00 -0.15938838298E+04  0.42971031269E+04  0.39905675812E+04 0.  0.
        1    1    3    3  502    0  0.19143614654E+04  0.50859963360E+03 -0.10556107193E+04  0.22444971371E+04  0.50400001928E-02 0. -1.
       -1    1    3    3    0  502 -0.19143614654E+04 -0.50859963360E+03 -0.53827311057E+03  0.20526059898E+04  0.50400001928E-02 0.  1.
</event>
<event>
 5   0  0.1879500E-08  0.4001514E+04  0.7818609E-02  0.8004241E-01
        1   -1    0    0  501    0  0.00000000000E+00  0.00000000000E+00  0.16023362736E+04  0.16023362736E+04  0.50400001928E-02 0. -1.
       -1   -1    0    0    0  501  0.00000000000E+00  0.00000000000E+00 -0.24982445870E+04  0.24982445870E+04  0.50400001928E-02 0.  1.
    10030    2    1    2    0    0  0.00000000000E+00  0.00000000000E+00 -0.89590831333E+03  0.41005808606E+04  0.40015136746E+04 0.  0.
        1    1    3    3  502    0 -0.58158414546E+01  0.99657827074E+03 -0.22257904129E+04  0.24387179082E+04  0.50400001928E-02 0.  1.
       -1    1    3    3    0  502  0.58158414546E+01 -0.99657827074E+03  0.13298820996E+04  0.16618629524E+04  0.50400001928E-02 0. -1.
</event>
<event>
 5   0  0.1879500E-08  0.3992001E+04  0.7818609E-02  0.8006162E-01
       -1   -1    0    0    0  501  0.00000000000E+00  0.00000000000E+00  0.20534765730E+04  0.20534765730E+04  0.50400001928E-02 0. -1.
        1   -1    0    0  501    0  0.00000000000E+00  0.00000000000E+00 -0.19401330246E+04  0.19401330246E+04  0.50400001928E-02 0.  1.
    10030    2    1    2    0    0  0.00000000000E+00  0.00000000000E+00  0.11334354838E+03  0.39936095976E+04  0.39920008589E+04 0.  0.
        4    1    3    3  502    0  0.30139990781E+02  0.13306795873E+04 -0.14313413406E+04  0.19545731579E+04  0.12699999809E+01 0.  1.
       -4    1    3    3    0  502 -0.30139990781E+02 -0.13306795873E+04  0.15446848890E+04  0.20390364397E+04  0.12699999809E+01 0. -1.
</event>
<event>
 5   0  0.1879500E-08  0.3998300E+04  0.7818609E-02  0.8004890E-01
       -1   -1    0    0    0  501  0.00000000000E+00  0.00000000000E+00  0.14163148691E+04  0.14163148691E+04  0.50400001928E-02 0. -1.
        1   -1    0    0  501    0  0.00000000000E+00  0.00000000000E+00 -0.28218305234E+04  0.28218305234E+04  0.50400001928E-02 0.  1.
    10030    2    1    2    0    0  0.00000000000E+00  0.00000000000E+00 -0.14055156543E+04  0.42381453925E+04  0.39982999029E+04 0.  0.
        3    1    3    3  502    0  0.21866303847E+02 -0.36411921413E+03  0.13807405568E+04  0.14281125420E+04  0.10100000352E+00 0. -1.
       -3    1    3    3    0  502 -0.21866303847E+02  0.36411921413E+03 -0.27862562110E+04  0.28100328505E+04  0.10100000352E+00 0.  1.
</event>
<event>
 5   0  0.5846812E-08  0.3986649E+04  0.7818609E-02  0.8007245E-01
        2   -1    0    0  501    0  0.00000000000E+00  0.00000000000E+00  0.27528355417E+04  0.27528355417E+04  0.25500000920E-02 0.  1.
       -2   -1    0    0    0  501  0.00000000000E+00  0.00000000000E+00 -0.14433636319E+04  0.14433636319E+04  0.25500000920E-02 0. -1.
    10030    2    1    2    0    0  0.00000000000E+00  0.00000000000E+00  0.13094719098E+04  0.41961991737E+04  0.39866490719E+04 0.  0.
        4    1    3    3  502    0 -0.38658582934E+02  0.10484561277E+04 -0.11292220731E+04  0.15413950957E+04  0.12699999809E+01 0. -1.
       -4    1    3    3    0  502  0.38658582934E+02 -0.10484561277E+04  0.24386939829E+04  0.26548040780E+04  0.12699999809E+01 0.  1.
</event>
<event>
 5   0  0.1879500E-08  0.4023611E+04  0.7818609E-02  0.7999800E-01
        1   -1    0    0  501    0  0.00000000000E+00  0.00000000000E+00  0.15552659062E+04  0.15552659062E+04  0.50400001928E-02 0. -1.
       -1   -1    0    0    0  501  0.00000000000E+00  0.00000000000E+00 -0.26023591293E+04  0.26023591293E+04  0.50400001928E-02 0.  1.
    10030    2    1    2    0    0  0.00000000000E+00  0.00000000000E+00 -0.10470932231E+04  0.41576250355E+04  0.40236105326E+04 0.  0.
        2    1    3    3  502    0 -0.67866032151E+03 -0.11822778269E+04 -0.20523521148E+04  0.24638404768E+04  0.25500000920E-02 0.  1.
       -2    1    3    3    0  502  0.67866032151E+03  0.11822778269E+04  0.10052588917E+04  0.16937845587E+04  0.25500000920E-02 0. -1.
</event>
<event>
 5   0  0.1879500E-08  0.3988638E+04  0.7818609E-02  0.8006843E-01
       -1   -1    0    0    0  501  0.00000000000E+00  0.00000000000E+00  0.18599399807E+04  0.18599399807E+04  0.50400001928E-02 0.  1.
        1   -1    0    0  501    0  0.00000000000E+00  0.00000000000E+00 -0.21384062769E+04  0.21384062769E+04  0.50400001928E-02 0. -1.
    10030    2    1    2    0    0  0.00000000000E+00  0.00000000000E+00 -0.27846629628E+03  0.39983462576E+04  0.39886375265E+04 0.  0.
        3    1    3    3  502    0 -0.16151156597E+04  0.95832010701E+03  0.53346757706E+03  0.19523226393E+04  0.10100000352E+00 0.  1.
       -3    1    3    3    0  502  0.16151156597E+04 -0.95832010701E+03 -0.81193387334E+03  0.20460236183E+04  0.10100000352E+00 0. -1.
</event>
<event>
 5   0  0.5888700E-08  0.4156685E+04  0.7818609E-02  0.7973663E-01
       -2   -1    0    0    0  501  0.00000000000E+00  0.00000000000E+00  0.20905383557E+04  0.20905383557E+04  0.25500000920E-02 0.  1.
        2   -1    0    0  501    0  0.00000000000E+00  0.00000000000E+00 -0.20662177435E+04  0.20662177435E+04  0.25500000920E-02 0. -1.
    10030    2    1    2    0    0  0.00000000000E+00  0.00000000000E+00  0.24320612235E+02  0.41567560992E+04  0.41566849503E+04 0.  0.
        5    1    3    3  502    0 -0.11074243510E+04  0.29249039875E+03  0.17464177804E+04  0.20885249532E+04  0.46999998093E+01 0.  1.
       -5    1    3    3    0  502  0.11074243510E+04 -0.29249039875E+03 -0.17220971682E+04  0.20682311460E+04  0.46999998093E+01 0. -1.
</event>
<event>
 5   0  0.1879500E-08  0.4010368E+04  0.7818609E-02  0.8002458E-01
       -1   -1    0    0    0  501  0.00000000000E+00  0.00000000000E+00  0.31540502585E+04  0.31540502585E+04  0.50400001928E-02 0.  1.
        1   -1    0    0  501    0  0.00000000000E+00  0.00000000000E+00 -0.12747935242E+04  0.12747935242E+04  0.50400001928E-02 0. -1.
    10030    2    1    2    0    0  0.00000000000E+00  0.00000000000E+00  0.18792567342E+04  0.44288437827E+04  0.40103679854E+04 0.  0.
        2    1    3    3  502    0 -0.13234430701E+04 -0.93315707611E+03  0.22456011798E+04  0.27685751475E+04  0.25500000920E-02 0.  1.
       -2    1    3    3    0  502  0.13234430701E+04  0.93315707611E+03 -0.36634444552E+03  0.16602686353E+04  0.25500000920E-02 0. -1.
</event>
<event>
 5   0  0.1879500E-08  0.3995007E+04  0.7818609E-02  0.8005555E-01
       -1   -1    0    0    0  501  0.00000000000E+00  0.00000000000E+00  0.19426012875E+04  0.19426012875E+04  0.50400001928E-02 0. -1.
        1   -1    0    0  501    0  0.00000000000E+00  0.00000000000E+00 -0.20539569862E+04  0.20539569862E+04  0.50400001928E-02 0.  1.
    10030    2    1    2    0    0  0.00000000000E+00  0.00000000000E+00 -0.11135569874E+03  0.39965582737E+04  0.39950066262E+04 0.  0.
        5    1    3    3  502    0  0.83577136307E+03 -0.13173910439E+04  0.11921896755E+04  0.19635099303E+04  0.46999998093E+01 0. -1.
       -5    1    3    3    0  502 -0.83577136307E+03  0.13173910439E+04 -0.13035453743E+04  0.20330483434E+04  0.46999998093E+01 0.  1.
</event>
<event>
 5   0  0.1879500E-08  0.4009973E+04  0.7818609E-02  0.8002538E-01
       -1   -1    0    0    0  501  0.00000000000E+00  0.00000000000E+00  0.19102068628E+04  0.19102068628E+04  0.50400001928E-02 0.  1.
        1   -1    0    0  501    0  0.00000000000E+00  0.00000000000E+00 -0.21044684254E+04  0.21044684254E+04  0.50400001928E-02 0. -1.
    10030    2    1    2    0    0  0.00000000000E+00  0.00000000000E+00 -0.19426156265E+03  0.40146752882E+04  0.40099725828E+04 0.  0.
        5    1    3    3  502    0 -0.79858315703E+03 -0.18374832673E+04 -0.20437273008E+02  0.20036266090E+04  0.46999998093E+01 0. -1.
       -5    1    3    3    0  502  0.79858315703E+03  0.18374832673E+04 -0.17382428964E+03  0.20110486792E+04  0.46999998093E+01 0.  1.
</event>
<event>
 5   0  0.5951623E-08  0.3996504E+04  0.7818609E-02  0.8005252E-01
        2   -1    0    0  501    0  0.00000000000E+00  0.00000000000E+00  0.19704338370E+04  0.19704338370E+04  0.25500000920E-02 0.  1.
       -2   -1    0    0    0  501  0.00000000000E+00  0.00000000000E+00 -0.20264625687E+04  0.20264625687E+04  0.25500000920E-02 0. -1.
    10030    2    1    2    0    0  0.00000000000E+00  0.00000000000E+00 -0.56028731737E+02  0.39968964057E+04  0.39965036794E+04 0.  0.
        2    1    3    3  502    0 -0.13809924344E+04  0.10772323294E+04  0.93407851425E+03  0.19849615276E+04  0.25500000920E-02 0.  1.
       -2    1    3    3    0  502  0.13809924344E+04 -0.10772323294E+04 -0.99010724598E+03  0.20119348781E+04  0.25500000920E-02 0. -1.
</event>
<event>
 5   0  0.5951623E-08  0.4005842E+04  0.7818609E-02  0.8003369E-01
        2   -1    0    0  501    0  0.00000000000E+00  0.00000000000E+00  0.15895613249E+04  0.15895613249E+04  0.25500000920E-02 0.  1.
       -2   -1    0    0    0  501  0.00000000000E+00  0.00000000000E+00 -0.25237729881E+04  0.25237729881E+04  0.25500000920E-02 0. -1.
    10030    2    1    2    0    0  0.00000000000E+00  0.00000000000E+00 -0.93421166328E+03  0.41133343130E+04  0.40058417017E+04 0.  0.
        2    1    3    3  502    0  0.14550176887E+04  0.78169560689E+03  0.69624196262E+03  0.17924501016E+04  0.25500000920E-02 0. -1.
       -2    1    3    3    0  502 -0.14550176887E+04 -0.78169560689E+03 -0.16304536259E+04  0.23208842114E+04  0.25500000920E-02 0.  1.
</event>
<event>
 5   0  0.5945387E-08  0.3998196E+04  0.7818609E-02  0.8004911E-01
        2   -1    0    0  501    0  0.00000000000E+00  0.00000000000E+00  0.15535660396E+04  0.15535660396E+04  0.25500000920E-02 0.  1.
       -2   -1    0    0    0  501  0.00000000000E+00  0.00000000000E+00 -0.25723996353E+04  0.25723996353E+04  0.25500000920E-02 0. -1.
    10030    2    1    2    0    0  0.00000000000E+00  0.00000000000E+00 -0.10188335957E+04  0.41259656749E+04  0.39981959501E+04 0.  0.
        3    1    3    3  502    0 -0.85728634238E+02  0.15236507036E+04  0.82317950204E+03  0.17339219614E+04  0.10100000352E+00 0.  1.
       -3    1    3    3    0  502  0.85728634238E+02 -0.15236507036E+04 -0.18420130977E+04  0.23920437136E+04  0.10100000352E+00 0. -1.
</event>
<event>
 5   0  0.5846812E-08  0.4003587E+04  0.7818609E-02  0.8003823E-01
       -2   -1    0    0    0  501  0.00000000000E+00  0.00000000000E+00  0.24253073547E+04  0.24253073547E+04  0.25500000920E-02 0. -1.
        2   -1    0    0  501    0  0.00000000000E+00  0.00000000000E+00 -0.16522345825E+04  0.16522345825E+04  0.25500000920E-02 0.  1.
    10030    2    1    2    0    0  0.00000000000E+00  0.00000000000E+00  0.77307277223E+03  0.40775419372E+04  0.40035867343E+04 0.  0.
        4    1    3    3  502    0 -0.12085910808E+04 -0.47272504271E+03  0.19388343251E+04  0.23330755495E+04  0.12699999809E+01 0. -1.
       -4    1    3    3    0  502  0.12085910808E+04  0.47272504271E+03 -0.11657615529E+04  0.17444663877E+04  0.12699999809E+01 0.  1.
</event>
<event>
 5   0  0.1879500E-08  0.3998937E+04  0.7818609E-02  0.8004761E-01
       -1   -1    0    0    0  501  0.00000000000E+00  0.00000000000E+00  0.24554789642E+04  0.24554789642E+04  0.50400001928E-02 0. -1.
        1   -1    0    0  501    0  0.00000000000E+00  0.00000000000E+00 -0.16281443761E+04  0.16281443761E+04  0.50400001928E-02 0.  1.
    10030    2    1    2    0    0  0.00000000000E+00  0.00000000000E+00  0.82733458809E+03  0.40836233402E+04  0.39989369918E+04 0.  0.
        1    1    3    3  502    0 -0.53157999766E+03 -0.96216769770E+01 -0.15546380517E+04  0.16430366224E+04  0.50400001928E-02 0.  1.
       -1    1    3    3    0  502  0.53157999766E+03  0.96216769770E+01  0.23819726398E+04  0.24405867179E+04  0.50400001928E-02 0. -1.
</event>
<event>
 5   0  0.5846812E-08  0.4001539E+04  0.7818609E-02  0.8004236E-01
       -2   -1    0    0    0  501  0.00000000000E+00  0.00000000000E+00  0.20479432373E+04  0.20479432373E+04  0.25500000920E-02 0.  1.
        2   -1    0    0  501    0  0.00000000000E+00  0.00000000000E+00 -0.19546823067E+04  0.19546823067E+04  0.25500000920E-02 0. -1.
    10030    2    1    2    0    0  0.00000000000E+00  0.00000000000E+00  0.93260930591E+02  0.40026255441E+04  0.40015389096E+04 0.  0.
        4    1    3    3  502    0 -0.10097847940E+04 -0.17125348569E+04 -0.17845471126E+03  0.19960683012E+04  0.12699999809E+01 0.  1.
       -4    1    3    3    0  502  0.10097847940E+04  0.17125348569E+04  0.27171564185E+03  0.20065572429E+04  0.12699999809E+01 0. -1.
</event>
<event>
 5   0  0.1879500E-08  0.4002551E+04  0.7818609E-02  0.8004032E-01
        1   -1    0    0  501    0  0.00000000000E+00  0.00000000000E+00  0.19474681573E+04  0.19474681573E+04  0.50400001928E-02 0. -1.
       -1   -1    0    0    0  501  0.00000000000E+00  0.00000000000E+00 -0.20565690982E+04  0.20565690982E+04  0.50400001928E-02 0.  1.
    10030    2    1    2    0    0  0.00000000000E+00  0.00000000000E+00 -0.10910094088E+03  0.40040372554E+04  0.40025506028E+04 0.  0.
        4    1    3    3  502    0 -0.24724834568E+03 -0.56195183002E+03  0.18509351156E+04  0.19500984639E+04  0.12699999809E+01 0. -1.
       -4    1    3    3    0  502  0.24724834568E+03  0.56195183002E+03 -0.19600360565E+04  0.20539387915E+04  0.12699999809E+01 0.  1.
</event>
<event>
 5   0  0.6161563E-08  0.3975736E+04  0.7818609E-02  0.8009459E-01
       -2   -1    0    0    0  501  0.00000000000E+00  0.00000000000E+00  0.19781712131E+04  0.19781712131E+04  0.25500000920E-02 0.  1.
        2   -1    0    0  501    0  0.00000000000E+00  0.00000000000E+00 -0.19976119994E+04  0.19976119994E+04  0.25500000920E-02 0. -1.
    10030    2    1    2    0    0  0.00000000000E+00  0.00000000000E+00 -0.19440786288E+02  0.39757832125E+04  0.39757356815E+04 0.  0.
        1    1    3    3  502    0 -0.18440654719E+04  0.70900939592E+03 -0.22960199735E+03  0.19889667834E+04  0.50400001928E-02 0.  1.
       -1    1    3    3    0  502  0.18440654719E+04 -0.70900939592E+03  0.21016121106E+03  0.19868164291E+04  0.50400001928E-02 0. -1.
</event>
<event>
 5   0  0.1879500E-08  0.3994528E+04  0.7818609E-02  0.8005651E-01
       -1   -1    0    0    0  501  0.00000000000E+00  0.00000000000E+00  0.22206022070E+04  0.22206022070E+04  0.50400001928E-02 0.  1.
        1   -1    0    0  501    0  0.00000000000E+00  0.00000000000E+00 -0.17963880767E+04  0.17963880767E+04  0.50400001928E-02 0. -1.
    10030    2    1    2    0    0  0.00000000000E+00  0.00000000000E+00  0.42421413031E+03  0.40169902836E+04  0.39945279209E+04 0.  0.
        3    1    3    3  502    0  0.17739211459E+04 -0.90740321049E+03  0.35030802233E+03  0.20230898495E+04  0.10100000352E+00 0.  1.
       -3    1    3    3    0  502 -0.17739211459E+04  0.90740321049E+03  0.73906107981E+02  0.19939004342E+04  0.10100000352E+00 0. -1.
</event>
<event>
 5   0  0.5945387E-08  0.4001504E+04  0.7818609E-02  0.8004243E-01
       -2   -1    0    0    0  501  0.00000000000E+00  0.00000000000E+00  0.22368898970E+04  0.22368898970E+04  0.25500000920E-02 0.  1.
        2   -1    0    0  501    0  0.00000000000E+00  0.00000000000E+00 -0.17895425011E+04  0.17895425011E+04  0.25500000920E-02 0. -1.
    10030    2    1    2    0    0  0.00000000000E+00  0.00000000000E+00  0.44734739594E+03  0.40264323981E+04  0.40015044875E+04 0.  0.
        3    1    3    3  502    0  0.43381020074E+03 -0.19528950575E+04  0.19155093308E+03  0.20096472740E+04  0.10100000352E+00 0.  1.
       -3    1    3    3    0  502 -0.43381020074E+03  0.19528950575E+04  0.25579646286E+03  0.20167851240E+04  0.10100000352E+00 0. -1.
</event>
<event>
 5   0  0.1879500E-08  0.3997396E+04  0.7818609E-02  0.8005072E-01
        1   -1    0    0  501    0  0.00000000000E+00  0.00000000000E+00  0.21463544709E+04  0.21463544709E+04  0.50400001928E-02 0. -1.
       -1   -1    0    0    0  501  0.00000000000E+00  0.00000000000E+00 -0.18611995062E+04  0.18611995062E+04  0.50400001928E-02 0.  1.
    10030    2    1    2    0    0  0.00000000000E+00  0.00000000000E+00  0.28515496470E+03  0.40075539771E+04  0.39973960931E+04 0.  0.
        5    1    3    3  502    0  0.90003872532E+01 -0.16999037204E+04 -0.91129216801E+03  0.19287895611E+04  0.46999998093E+01 0.  1.
       -5    1    3    3    0  502 -0.90003872532E+01  0.16999037204E+04  0.11964471327E+04  0.20787644159E+04  0.46999998093E+01 0. -1.
</event>
<event>
 5   0  0.6161563E-08  0.4011849E+04  0.7818609E-02  0.8002161E-01
        2   -1    0    0  501    0  0.00000000000E+00  0.00000000000E+00  0.17581904414E+04  0.17581904414E+04  0.25500000920E-02 0.  1.
       -2   -1    0    0    0  501  0.00000000000E+00  0.00000000000E+00 -0.22885648405E+04  0.22885648405E+04  0.25500000920E-02 0. -1.
    10030    2    1    2    0    0  0.00000000000E+00  0.00000000000E+00 -0.53037439913E+03  0.40467552819E+04  0.40118488640E+04 0.  0.
        1    1    3    3  502    0  0.19797429448E+03  0.69924756404E+03  0.16207305048E+04  0.17762061666E+04  0.50400001928E-02 0.  1.
       -1    1    3    3    0  502 -0.19797429448E+03 -0.69924756404E+03 -0.21511049039E+04  0.22705491153E+04  0.50400001928E-02 0. -1.
</event>
<event>
 5   0  0.5945387E-08  0.3993684E+04  0.7818609E-02  0.8005822E-01
       -2   -1    0    0    0  501  0.00000000000E+00  0.00000000000E+00  0.20985682106E+04  0.20985682106E+04  0.25500000920E-02 0. -1.
        2   -1    0    0  501    0  0.00000000000E+00  0.00000000000E+00 -0.19000464089E+04  0.19000464089E+04  0.25500000920E-02 0.  1.
    10030    2    1    2    0    0  0.00000000000E+00  0.00000000000E+00  0.19852180173E+03  0.39986146194E+04  0.39936835089E+04 0.  0.
        3    1    3    3  502    0 -0.16214507214E+04 -0.10438668159E+04 -0.41966140250E+03  0.19735440391E+04  0.10100000352E+00 0. -1.
       -3    1    3    3    0  502  0.16214507214E+04  0.10438668159E+04  0.61818320423E+03  0.20250705804E+04  0.10100000352E+00 0.  1.
</event>
<event>
 5   0  0.1879500E-08  0.3993318E+04  0.7818609E-02  0.8005896E-01
       -1   -1    0    0    0  501  0.00000000000E+00  0.00000000000E+00  0.17507632188E+04  0.17507632188E+04  0.50400001928E-02 0. -1.
        1   -1    0    0  501    0  0.00000000000E+00  0.00000000000E+00 -0.22770904283E+04  0.22770904283E+04  0.50400001928E-02 0.  1.
    10030    2    1    2    0    0  0.00000000000E+00  0.00000000000E+00 -0.52632720946E+03  0.40278536471E+04  0.39933175019E+04 0.  0.
        4    1    3    3  502    0  0.14218939045E+04 -0.13978875377E+04 -0.36785291810E+03  0.20276067730E+04  0.12699999809E+01 0. -1.
       -4    1    3    3    0  502 -0.14218939045E+04  0.13978875377E+04 -0.15847429136E+03  0.20002468741E+04  0.12699999809E+01 0.  1.
</event>
<event>
 5   0  0.1879500E-08  0.4014190E+04  0.7818609E-02  0.8001690E-01
        1   -1    0    0  501    0  0.00000000000E+00  0.00000000000E+00  0.27178813241E+04  0.27178813241E+04  0.50400001928E-02 0. -1.
       -1   -1    0    0    0  501  0.00000000000E+00  0.00000000000E+00 -0.14821951598E+04  0.14821951598E+04  0.50400001928E-02 0.  1.
    10030    2    1    2    0    0  0.00000000000E+00  0.00000000000E+00  0.12356861643E+04  0.42000764839E+04  0.40141901019E+04 0.  0.
        2    1    3    3  502    0  0.19468975725E+04  0.16046839206E+02  0.10765384336E+03  0.19499376936E+04  0.25500000920E-02 0.  1.
       -2    1    3    3    0  502 -0.19468975725E+04 -0.16046839206E+02  0.11280323209E+04  0.22501387903E+04  0.25500000920E-02 0. -1.
</event>
<event>
 5   0  0.5846812E-08  0.3994874E+04  0.7818609E-02  0.8005582E-01
       -2   -1    0    0    0  501  0.00000000000E+00  0.00000000000E+00  0.13732949143E+04  0.13732949143E+04  0.25500000920E-02 0. -1.
        2   -1    0    0  501    0  0.00000000000E+00  0.00000000000E+00 -0.29052416510E+04  0.29052416510E+04  0.25500000920E-02 0.  1.
    10030    2    1    2    0    0  0.00000000000E+00  0.00000000000E+00 -0.15319467367E+04  0.42785365653E+04  0.39948735070E+04 0.  0.
        4    1    3    3  502    0  0.17674265224E+04 -0.35815704570E+03 -0.16858422400E+04  0.24686309268E+04  0.12699999809E+01 0.  1.
       -4    1    3    3    0  502 -0.17674265224E+04  0.35815704570E+03  0.15389550333E+03  0.18099056385E+04  0.12699999809E+01 0. -1.
</event>
<event>
 5   0  0.6161563E-08  0.3996599E+04  0.7818609E-02  0.8005233E-01
       -2   -1    0    0    0  501  0.00000000000E+00  0.00000000000E+00  0.29431114118E+04  0.29431114118E+04  0.25500000920E-02 0.  1.
        2   -1    0    0  501    0  0.00000000000E+00  0.00000000000E+00 -0.13567957099E+04  0.13567957099E+04  0.25500000920E-02 0. -1.
    10030    2    1    2    0    0  0.00000000000E+00  0.00000000000E+00  0.15863157018E+04  0.42999071217E+04  0.39965990229E+04 0.  0.
        1    1    3    3  502    0  0.74152557935E+03 -0.61322980981E+02 -0.12022019565E+04  0.14138282205E+04  0.50400001928E-02 0. -1.
       -1    1    3    3    0  502 -0.74152557935E+03  0.61322980981E+02  0.27885176584E+04  0.28860789012E+04  0.50400001928E-02 0.  1.
</event>
<event>
 5   0  0.1879500E-08  0.4009549E+04  0.7818609E-02  0.8002623E-01
       -1   -1    0    0    0  501  0.00000000000E+00  0.00000000000E+00  0.16358882128E+04  0.16358882128E+04  0.50400001928E-02 0.  1.
        1   -1    0    0  501    0  0.00000000000E+00  0.00000000000E+00 -0.24568429704E+04  0.24568429704E+04  0.50400001928E-02 0. -1.
    10030    2    1    2    0    0  0.00000000000E+00  0.00000000000E+00 -0.82095475758E+03  0.40927311832E+04  0.40095488305E+04 0.  0.
        1    1    3    3  502    0  0.15803847977E+04  0.11830153335E+04 -0.76697806409E+03  0.21178755249E+04  0.50400001928E-02 0. -1.
       -1    1    3    3    0  502 -0.15803847977E+04 -0.11830153335E+04 -0.53976693484E+02  0.19748556584E+04  0.50400001928E-02 0.  1.
</event>
<event>
 5   0  0.5888700E-08  0.4005258E+04  0.7818609E-02  0.8003487E-01
        2   -1    0    0  501    0  0.00000000000E+00  0.00000000000E+00  0.19866326113E+04  0.19866326113E+04  0.25500000920E-02 0. -1.
       -2   -1    0    0    0  501  0.00000000000E+00  0.00000000000E+00 -0.20187545896E+04  0.20187545896E+04  0.25500000920E-02 0.  1.
    10030    2    1    2    0    0  0.00000000000E+00  0.00000000000E+00 -0.32121978243E+02  0.40053872009E+04  0.40052583946E+04 0.  0.
        5    1    3    3  502    0  0.14098157399E+04  0.13449180468E+03 -0.14320278306E+04  0.20140492207E+04  0.46999998093E+01 0.  1.
       -5    1    3    3    0  502 -0.14098157399E+04 -0.13449180468E+03  0.13999058524E+04  0.19913379802E+04  0.46999998093E+01 0. -1.
</event>
<event>
 5   0  0.1879500E-08  0.3909235E+04  0.7818609E-02  0.8023111E-01
        1   -1    0    0  501    0  0.00000000000E+00  0.00000000000E+00  0.24907229028E+04  0.24907229028E+04  0.50400001928E-02 0. -1.
       -1   -1    0    0    0  501  0.00000000000E+00  0.00000000000E+00 -0.15339035865E+04  0.15339035865E+04  0.50400001928E-02 0.  1.
    10030    2    1    2    0    0  0.00000000000E+00  0.00000000000E+00  0.95681931631E+03  0.40246264894E+04  0.39092346022E+04 0.  0.
        4    1    3    3  502    0 -0.10093070640E+04 -0.16122639223E+04  0.94161426283E+03  0.21224360385E+04  0.12699999809E+01 0. -1.
       -4    1    3    3    0  502  0.10093070640E+04  0.16122639223E+04  0.15205053479E+02  0.19021904508E+04  0.12699999809E+01 0.  1.
</event>
<event>
 5   0  0.1879500E-08  0.3995045E+04  0.7818609E-02  0.8005547E-01
        1   -1    0    0  501    0  0.00000000000E+00  0.00000000000E+00  0.12746361633E+04  0.12746361633E+04  0.50400001928E-02 0.  1.
       -1   -1    0    0    0  501  0.00000000000E+00  0.00000000000E+00 -0.31303809972E+04  0.31303809972E+04  0.50400001928E-02 0. -1.
    10030    2    1    2    0    0  0.00000000000E+00  0.00000000000E+00 -0.18557448339E+04  0.44050171604E+04  0.39950453433E+04 0.  0.
        5    1    3    3  502    0  0.77679378395E+03  0.53362022424E+03 -0.28698351023E+04  0.30206182696E+04  0.46999998093E+01 0. -1.
       -5    1    3    3    0  502 -0.77679378395E+03 -0.53362022424E+03  0.10140902684E+04  0.13843988908E+04  0.46999998093E+01 0.  1.
</event>
<event>
 5   0  0.1879500E-08  0.3965897E+04  0.7818609E-02  0.8011462E-01
       -1   -1    0    0    0  501  0.00000000000E+00  0.00000000000E+00  0.17503943738E+04  0.17503943738E+04  0.50400001928E-02 0. -1.
        1   -1    0    0  501    0  0.00000000000E+00  0.00000000000E+00 -0.22463997984E+04  0.22463997984E+04  0.50400001928E-02 0.  1.
    10030    2    1    2    0    0  0.00000000000E+00  0.00000000000E+00 -0.49600542461E+03  0.39967941723E+04  0.39658974110E+04 0.  0.
        2    1    3    3  502    0 -0.14828340447E+04  0.92920352064E+03  0.69193133165E+03  0.18817505028E+04  0.25500000920E-02 0. -1.
       -2    1    3    3    0  502  0.14828340447E+04 -0.92920352064E+03 -0.11879367563E+04  0.21150436695E+04  0.25500000920E-02 0.  1.
</event>
<event>
 5   0  0.5846812E-08  0.3866279E+04  0.7818609E-02  0.8032079E-01
       -2   -1    0    0    0  501  0.00000000000E+00  0.00000000000E+00  0.16049797134E+04  0.16049797134E+04  0.25500000920E-02 0.  1.
        2   -1    0    0  501    0  0.00000000000E+00  0.00000000000E+00 -0.23283957122E+04  0.23283957122E+04  0.25500000920E-02 0. -1.
    10030    2    1    2    0    0  0.00000000000E+00  0.00000000000E+00 -0.72341599881E+03  0.39333754257E+04  0.38662787706E+04 0.  0.
        4    1    3    3  502    0  0.66835773516E+02 -0.61351179519E+03  0.15020680535E+04  0.16239069536E+04  0.12699999809E+01 0.  1.
       -4    1    3    3    0  502 -0.66835773516E+02  0.61351179519E+03 -0.22254840523E+04  0.23094684721E+04  0.12699999809E+01 0. -1.
</event>
<event>
 5   0  0.1879500E-08  0.3985112E+04  0.7818609E-02  0.8007557E-01
       -1   -1    0    0    0  501  0.00000000000E+00  0.00000000000E+00  0.19000001534E+04  0.19000001534E+04  0.50400001928E-02 0.  1.
        1   -1    0    0  501    0  0.00000000000E+00  0.00000000000E+00 -0.20896210936E+04  0.20896210936E+04  0.50400001928E-02 0. -1.
    10030    2    1    2    0    0  0.00000000000E+00  0.00000000000E+00 -0.18962094023E+03  0.39896212470E+04  0.39851124945E+04 0.  0.
        1    1    3    3  502    0 -0.13210090981E+04 -0.14069293268E+04 -0.59111850177E+03  0.20183994280E+04  0.50400001928E-02 0. -1.
       -1    1    3    3    0  502  0.13210090981E+04  0.14069293268E+04  0.40149756154E+03  0.19712218190E+04  0.50400001928E-02 0.  1.
</event>
<event>
 5   0  0.1879500E-08  0.4011799E+04  0.7818609E-02  0.8002171E-01
        1   -1    0    0  501    0  0.00000000000E+00  0.00000000000E+00  0.20580760364E+04  0.20580760364E+04  0.50400001928E-02 0. -1.
       -1   -1    0    0    0  501  0.00000000000E+00  0.00000000000E+00 -0.19550453197E+04  0.19550453197E+04  0.50400001928E-02 0.  1.
    10030    2    1    2    0    0  0.00000000000E+00  0.00000000000E+00  0.10303071671E+03  0.40131213560E+04  0.40117985605E+04 0.  0.
        5    1    3    3  502    0 -0.13140056363E+04 -0.83339876246E+03 -0.12147794075E+04  0.19740505081E+04  0.46999998093E+01 0.  1.
       -5    1    3    3    0  502  0.13140056363E+04  0.83339876246E+03  0.13178101243E+04  0.20390708480E+04  0.46999998093E+01 0. -1.
</event>
<event>
 5   0  0.5951623E-08  0.3994673E+04  0.7818609E-02  0.8005622E-01
        2   -1    0    0  501    0  0.00000000000E+00  0.00000000000E+00  0.23196412344E+04  0.23196412344E+04  0.25500000920E-02 0. -1.
       -2   -1    0    0    0  501  0.00000000000E+00  0.00000000000E+00 -0.17198143110E+04  0.17198143110E+04  0.25500000920E-02 0.  1.
    10030    2    1    2    0    0  0.00000000000E+00  0.00000000000E+00  0.59982692338E+03  0.40394555454E+04  0.39946725479E+04 0.  0.
        2    1    3    3  502    0 -0.66965609481E+03 -0.13627701967E+04  0.16120622084E+04  0.22145713938E+04  0.25500000920E-02 0. -1.
       -2    1    3    3    0  502  0.66965609481E+03  0.13627701967E+04 -0.10122352851E+04  0.18248841516E+04  0.25500000920E-02 0.  1.
</event>
<event>
 5   0  0.5846812E-08  0.4003689E+04  0.7818609E-02  0.8003803E-01
       -2   -1    0    0    0  501  0.00000000000E+00  0.00000000000E+00  0.13796337116E+04  0.13796337116E+04  0.25500000920E-02 0. -1.
        2   -1    0    0  501    0  0.00000000000E+00  0.00000000000E+00 -0.29046708688E+04  0.29046708688E+04  0.25500000920E-02 0.  1.
    10030    2    1    2    0    0  0.00000000000E+00  0.00000000000E+00 -0.15250371571E+04  0.42843045804E+04  0.40036892246E+04 0.  0.
        4    1    3    3  502    0  0.28710401012E+03 -0.68427025326E+03 -0.27520575069E+04  0.28503467554E+04  0.12699999809E+01 0.  1.
       -4    1    3    3    0  502 -0.28710401012E+03  0.68427025326E+03  0.12270203498E+04  0.14339578250E+04  0.12699999809E+01 0. -1.
</event>
<event>
 5   0  0.1879500E-08  0.4009459E+04  0.7818609E-02  0.8002641E-01
       -1   -1    0    0    0  501  0.00000000000E+00  0.00000000000E+00  0.15087177728E+04  0.15087177728E+04  0.50400001928E-02 0. -1.
        1   -1    0    0  501    0  0.00000000000E+00  0.00000000000E+00 -0.26638116828E+04  0.26638116828E+04  0.50400001928E-02 0.  1.
    10030    2    1    2    0    0  0.00000000000E+00  0.00000000000E+00 -0.11550939100E+04  0.41725294556E+04  0.40094588310E+04 0.  0.
        5    1    3    3  502    0  0.14008174597E+04 -0.12583462369E+04  0.13832091253E+03  0.18880888676E+04  0.46999998093E+01 0. -1.
       -5    1    3    3    0  502 -0.14008174597E+04  0.12583462369E+04 -0.12934148225E+04  0.22844405880E+04  0.46999998093E+01 0.  1.
</event>
<event>
 5   0  0.5846812E-08  0.3989459E+04  0.7818609E-02  0.8006676E-01
       -2   -1    0    0    0  501  0.00000000000E+00  0.00000000000E+00  0.11718485126E+04  0.11718485126E+04  0.25500000920E-02 0.  1.
        2   -1    0    0  501    0  0.00000000000E+00  0.00000000000E+00 -0.33954444371E+04  0.33954444371E+04  0.25500000920E-02 0. -1.
    10030    2    1    2    0    0  0.00000000000E+00  0.00000000000E+00 -0.22235959245E+04  0.45672929497E+04  0.39894593685E+04 0.  0.
        4    1    3    3  502    0 -0.12964094603E+04 -0.90394811119E+03  0.28149884991E+03  0.16053170690E+04  0.12699999809E+01 0.  1.
       -4    1    3    3    0  502  0.12964094603E+04  0.90394811119E+03 -0.25050947744E+04  0.29619758808E+04  0.12699999809E+01 0. -1.
</event>
<event>
 5   0  0.1879500E-08  0.3987417E+04  0.7818609E-02  0.8007090E-01
       -1   -1    0    0    0  501  0.00000000000E+00  0.00000000000E+00  0.19700400023E+04  0.19700400023E+04  0.50400001928E-02 0. -1.
        1   -1    0    0  501    0  0.00000000000E+00  0.00000000000E+00 -0.20176609152E+04  0.20176609152E+04  0.50400001928E-02 0.  1.
    10030    2    1    2    0    0  0.00000000000E+00  0.00000000000E+00 -0.47620912901E+02  0.39877009176E+04  0.39874165642E+04 0.  0.
        2    1    3    3  502    0  0.19889972468E+03 -0.87975738706E+03  0.17543316798E+04  0.19726159797E+04  0.25500000920E-02 0. -1.
       -2    1    3    3    0  502 -0.19889972468E+03  0.87975738706E+03 -0.18019525927E+04  0.20150849379E+04  0.25500000920E-02 0.  1.
</event>
<event>
 5   0  0.5888700E-08  0.3998898E+04  0.7818609E-02  0.8004769E-01
       -2   -1    0    0    0  501  0.00000000000E+00  0.00000000000E+00  0.23931358429E+04  0.23931358429E+04  0.25500000920E-02 0. -1.
        2   -1    0    0  501    0  0.00000000000E+00  0.00000000000E+00 -0.16705260969E+04  0.16705260969E+04  0.25500000920E-02 0.  1.
    10030    2    1    2    0    0  0.00000000000E+00  0.00000000000E+00  0.72260974603E+03  0.40636619398E+04  0.39988977877E+04 0.  0.
        5    1    3    3  502    0 -0.10342029120E+04  0.17103555532E+04  0.30675109568E+03  0.20221300913E+04  0.46999998093E+01 0. -1.
       -5    1    3    3    0  502  0.10342029120E+04 -0.17103555532E+04  0.41585865035E+03  0.20415318485E+04  0.46999998093E+01 0.  1.
</event>
<event>
 5   0  0.1879500E-08  0.3997370E+04  0.7818609E-02  0.8005077E-01
        1   -1    0    0  501    0  0.00000000000E+00  0.00000000000E+00  0.15381436983E+04  0.15381436983E+04  0.50400001928E-02 0. -1.
       -1   -1    0    0    0  501  0.00000000000E+00  0.00000000000E+00 -0.25971188933E+04  0.25971188933E+04  0.50400001928E-02 0.  1.
    10030    2    1    2    0    0  0.00000000000E+00  0.00000000000E+00 -0.10589751950E+04  0.41352625916E+04  0.39973701652E+04 0.  0.
        4    1    3    3  502    0  0.56056977446E+03 -0.25766346461E+02 -0.25139509359E+04  0.25758208978E+04  0.12699999809E+01 0.  1.
       -4    1    3    3    0  502 -0.56056977446E+03  0.25766346461E+02  0.14549757409E+04  0.15594416937E+04  0.12699999809E+01 0. -1.
</event>
<event>
 5   0  0.5945387E-08  0.3941673E+04  0.7818609E-02  0.8016418E-01
        2   -1    0    0  501    0  0.00000000000E+00  0.00000000000E+00  0.21012307604E+04  0.21012307604E+04  0.25500000920E-02 0.  1.
       -2   -1    0    0    0  501  0.00000000000E+00  0.00000000000E+00 -0.18485335348E+04  0.18485335348E+04  0.25500000920E-02 0. -1.
    10030    2    1    2    0    0  0.00000000000E+00  0.00000000000E+00  0.25269722559E+03  0.39497642953E+04  0.39416725004E+04 0.  0.
        3    1    3    3  502    0  0.11552028462E+04 -0.45868724875E+03  0.16589680760E+04  0.20729357674E+04  0.10100000352E+00 0.  1.
       -3    1    3    3    0  502 -0.11552028462E+04  0.45868724875E+03 -0.14062708504E+04  0.18768285279E+04  0.10100000352E+00 0. -1.
</event>
<event>
 5   0  0.1879500E-08  0.4018013E+04  0.7818609E-02  0.8000923E-01
       -4   -1    0    0    0  501  0.00000000000E+00  0.00000000000E+00  0.21659543199E+04  0.21659546922E+04  0.12699999809E+01 0. -1.
        4   -1    0    0  501    0  0.00000000000E+00  0.00000000000E+00 -0.18634301809E+04  0.18634306136E+04  0.12699999809E+01 0.  1.
    10030    2    1    2    0    0  0.00000000000E+00  0.00000000000E+00  0.30252413905E+03  0.40293853059E+04  0.40180125794E+04 0.  0.
        4    1    3    3  502    0 -0.19509606680E+04 -0.17495858218E+03  0.59889599507E+03  0.20483007737E+04  0.12699999809E+01 0.  1.
       -4    1    3    3    0  502  0.19509606680E+04  0.17495858218E+03 -0.29637185602E+03  0.19810845322E+04  0.12699999809E+01 0. -1.
</event>
<event>
 5   0  0.5951623E-08  0.3999898E+04  0.7818609E-02  0.8004567E-01
       -2   -1    0    0    0  501  0.00000000000E+00  0.00000000000E+00  0.14533260420E+04  0.14533260420E+04  0.25500000920E-02 0.  1.
        2   -1    0    0  501    0  0.00000000000E+00  0.00000000000E+00 -0.27521676301E+04  0.27521676301E+04  0.25500000920E-02 0. -1.
    10030    2    1    2    0    0  0.00000000000E+00  0.00000000000E+00 -0.12988415881E+04  0.42054936721E+04  0.39998984431E+04 0.  0.
        2    1    3    3  502    0  0.14043124618E+04  0.44847782195E+03  0.77155376717E+03  0.16638873347E+04  0.25500000920E-02 0.  1.
       -2    1    3    3    0  502 -0.14043124618E+04 -0.44847782195E+03 -0.20703953552E+04  0.25416063373E+04  0.25500000920E-02 0. -1.
</event>
<event>
 5   0  0.5846812E-08  0.4015684E+04  0.7818609E-02  0.8001390E-01
       -2   -1    0    0    0  501  0.00000000000E+00  0.00000000000E+00  0.32969986136E+04  0.32969986136E+04  0.25500000920E-02 0.  1.
        2   -1    0    0  501    0  0.00000000000E+00  0.00000000000E+00 -0.12227575694E+04  0.12227575694E+04  0.25500000920E-02 0. -1.
    10030    2    1    2    0    0  0.00000000000E+00  0.00000000000E+00  0.20742410442E+04  0.45197561830E+04  0.40156842560E+04 0.  0.
        4    1    3    3  502    0 -0.78621290552E+03  0.44875710600E+03 -0.98002603289E+03  0.13341537809E+04  0.12699999809E+01 0. -1.
       -4    1    3    3    0  502  0.78621290552E+03 -0.44875710600E+03  0.30542670771E+04  0.31856024021E+04  0.12699999809E+01 0.  1.
</event>
<event>
 5   0  0.5888700E-08  0.3983671E+04  0.7818609E-02  0.8007849E-01
        2   -1    0    0  501    0  0.00000000000E+00  0.00000000000E+00  0.23120729686E+04  0.23120729686E+04  0.25500000920E-02 0.  1.
       -2   -1    0    0    0  501  0.00000000000E+00  0.00000000000E+00 -0.17159526817E+04  0.17159526817E+04  0.25500000920E-02 0. -1.
    10030    2    1    2    0    0  0.00000000000E+00  0.00000000000E+00  0.59612028695E+03  0.40280256503E+04  0.39836705741E+04 0.  0.
        5    1    3    3  502    0 -0.13995617840E+04 -0.12874554805E+04 -0.30104940032E+03  0.19253487043E+04  0.46999998093E+01 0. -1.
       -5    1    3    3    0  502  0.13995617840E+04  0.12874554805E+04  0.89716968727E+03  0.21026769460E+04  0.46999998093E+01 0.  1.
</event>
<event>
 5   0  0.1879500E-08  0.4031714E+04  0.7818609E-02  0.7998179E-01
        1   -1    0    0  501    0  0.00000000000E+00  0.00000000000E+00  0.26915711281E+04  0.26915711282E+04  0.50400001928E-02 0.  1.
       -1   -1    0    0    0  501  0.00000000000E+00  0.00000000000E+00 -0.15097800057E+04  0.15097800057E+04  0.50400001928E-02 0. -1.
    10030    2    1    2    0    0  0.00000000000E+00  0.00000000000E+00  0.11817911224E+04  0.42013511339E+04  0.40317144112E+04 0.  0.
        1    1    3    3  502    0 -0.14530217815E+04  0.33385678355E+03  0.20047996005E+04  0.24983902993E+04  0.50400001928E-02 0.  1.
       -1    1    3    3    0  502  0.14530217815E+04 -0.33385678355E+03 -0.82300847806E+03  0.17029608346E+04  0.50400001928E-02 0. -1.
</event>
<event>
 5   0  0.1879500E-08  0.4001223E+04  0.7818609E-02  0.8004300E-01
        1   -1    0    0  501    0  0.00000000000E+00  0.00000000000E+00  0.16504432177E+04  0.16504432177E+04  0.50400001928E-02 0. -1.
       -1   -1    0    0    0  501  0.00000000000E+00  0.00000000000E+00 -0.24250735201E+04  0.24250735201E+04  0.50400001928E-02 0.  1.
    10030    2    1    2    0    0  0.00000000000E+00  0.00000000000E+00 -0.77463030245E+03  0.40755167379E+04  0.40012228849E+04 0.  0.
        2    1    3    3  502    0  0.55864138014E+03  0.72151692952E+00 -0.23440168577E+04  0.24096671432E+04  0.25500000920E-02 0.  1.
       -2    1    3    3    0  502 -0.55864138014E+03 -0.72151692952E+00  0.15693865552E+04  0.16658495946E+04  0.25500000920E-02 0. -1.
</event>
<event>
 5   0  0.5888700E-08  0.3941408E+04  0.7818609E-02  0.8016472E-01
       -2   -1    0    0    0  501  0.00000000000E+00  0.00000000000E+00  0.21489929357E+04  0.21489929357E+04  0.25500000920E-02 0.  1.
        2   -1    0    0  501    0  0.00000000000E+00  0.00000000000E+00 -0.18072063712E+04  0.18072063712E+04  0.25500000920E-02 0. -1.
    10030    2    1    2    0    0  0.00000000000E+00  0.00000000000E+00  0.34178656448E+03  0.39561993069E+04  0.39414077308E+04 0.  0.
        5    1    3    3  502    0 -0.14568541456E+03  0.13307872779E+04 -0.12807126580E+04  0.18526915613E+04  0.46999998093E+01 0. -1.
       -5    1    3    3    0  502  0.14568541456E+03 -0.13307872779E+04  0.16224992225E+04  0.21035077456E+04  0.46999998093E+01 0.  1.
</event>
<event>
 5   0  0.1879500E-08  0.4002461E+04  0.7818609E-02  0.8004050E-01
        1   -1    0    0  501    0  0.00000000000E+00  0.00000000000E+00  0.22554286654E+04  0.22554286654E+04  0.50400001928E-02 0. -1.
       -1   -1    0    0    0  501  0.00000000000E+00  0.00000000000E+00 -0.17756819995E+04  0.17756819995E+04  0.50400001928E-02 0.  1.
    10030    2    1    2    0    0  0.00000000000E+00  0.00000000000E+00  0.47974666592E+03  0.40311106650E+04  0.40024612840E+04 0.  0.
        3    1    3    3  502    0  0.82283085318E+03  0.10500130991E+04 -0.12625639397E+04  0.18367487126E+04  0.10100000352E+00 0.  1.
       -3    1    3    3    0  502 -0.82283085318E+03 -0.10500130991E+04  0.17423106056E+04  0.21943619524E+04  0.10100000352E+00 0. -1.
</event>
<event>
 5   0  0.6161563E-08  0.3980702E+04  0.7818609E-02  0.8008451E-01
        2   -1    0    0  501    0  0.00000000000E+00  0.00000000000E+00  0.14211309896E+04  0.14211309896E+04  0.25500000920E-02 0. -1.
       -2   -1    0    0    0  501  0.00000000000E+00  0.00000000000E+00 -0.27875659817E+04  0.27875659817E+04  0.25500000920E-02 0.  1.
    10030    2    1    2    0    0  0.00000000000E+00  0.00000000000E+00 -0.13664349921E+04  0.42086969713E+04  0.39807016478E+04 0.  0.
        1    1    3    3  502    0 -0.92624138891E+03 -0.16237489877E+04 -0.14057415150E+04  0.23389299033E+04  0.50400001928E-02 0.  1.
       -1    1    3    3    0  502  0.92624138891E+03  0.16237489877E+04  0.39306522900E+02  0.18697670680E+04  0.50400001928E-02 0. -1.
</event>
<event>
 5   0  0.1879500E-08  0.4007241E+04  0.7818609E-02  0.8003087E-01
       -1   -1    0    0    0  501  0.00000000000E+00  0.00000000000E+00  0.24919506203E+04  0.24919506203E+04  0.50400001928E-02 0. -1.
        1   -1    0    0  501    0  0.00000000000E+00  0.00000000000E+00 -0.16109850567E+04  0.16109850567E+04  0.50400001928E-02 0.  1.
    10030    2    1    2    0    0  0.00000000000E+00  0.00000000000E+00  0.88096556357E+03  0.41029356771E+04  0.40072410516E+04 0.  0.
        1    1    3    3  502    0 -0.12905925673E+04  0.11830624223E+04  0.14380331144E+04  0.22656577650E+04  0.50400001928E-02 0. -1.
       -1    1    3    3    0  502  0.12905925673E+04 -0.11830624223E+04 -0.55706755083E+03  0.18372779121E+04  0.50400001928E-02 0.  1.
</event>
<event>
 5   0  0.6161563E-08  0.3998629E+04  0.7818609E-02  0.8004823E-01
       -2   -1    0    0    0  501  0.00000000000E+00  0.00000000000E+00  0.27860847557E+04  0.27860847557E+04  0.25500000920E-02 0.  1.
        2   -1    0    0  501    0  0.00000000000E+00  0.00000000000E+00 -0.14347226533E+04  0.14347226533E+04  0.25500000920E-02 0. -1.
    10030    2    1    2    0    0  0.00000000000E+00  0.00000000000E+00  0.13513621024E+04  0.42208074091E+04  0.39986292217E+04 0.  0.
        1    1    3    3  502    0 -0.55480988647E+03 -0.59112973227E+03 -0.12534348445E+04  0.14927649781E+04  0.50400001928E-02 0. -1.
       -1    1    3    3    0  502  0.55480988647E+03  0.59112973227E+03  0.26047969469E+04  0.27280424310E+04  0.50400001928E-02 0.  1.
</event>
<event>
 5   0  0.6161563E-08  0.4001653E+04  0.7818609E-02  0.8004213E-01
        2   -1    0    0  501    0  0.00000000000E+00  0.00000000000E+00  0.14279248088E+04  0.14279248088E+04  0.25500000920E-02 0. -1.
       -2   -1    0    0    0  501  0.00000000000E+00  0.00000000000E+00 -0.28035840754E+04  0.28035840754E+04  0.25500000920E-02 0.  1.
    10030    2    1    2    0    0  0.00000000000E+00  0.00000000000E+00 -0.13756592665E+04  0.42315088842E+04  0.40016532858E+04 0.  0.
        1    1    3    3  502    0 -0.73530153347E+02  0.18755401806E+04  0.44976855881E+02  0.18775197922E+04  0.50400001928E-02 0. -1.
       -1    1    3    3    0  502  0.73530153347E+02 -0.18755401806E+04 -0.14206361224E+04  0.23539890920E+04  0.50400001928E-02 0.  1.
</event>
<event>
 5   0  0.5888700E-08  0.3996451E+04  0.7818609E-02  0.8005263E-01
       -2   -1    0    0    0  501  0.00000000000E+00  0.00000000000E+00  0.26063494101E+04  0.26063494101E+04  0.25500000920E-02 0. -1.
        2   -1    0    0  501    0  0.00000000000E+00  0.00000000000E+00 -0.15319912324E+04  0.15319912324E+04  0.25500000920E-02 0.  1.
    10030    2    1    2    0    0  0.00000000000E+00  0.00000000000E+00  0.10743581777E+04  0.41383406424E+04  0.39964506476E+04 0.  0.
        5    1    3    3  502    0  0.46601569032E+03 -0.45635393586E+03 -0.14186499992E+04  0.15614158475E+04  0.46999998093E+01 0.  1.
       -5    1    3    3    0  502 -0.46601569032E+03  0.45635393586E+03  0.24930081769E+04  0.25769247949E+04  0.46999998093E+01 0. -1.
</event>
<event>
 5   0  0.5945387E-08  0.3963675E+04  0.7818609E-02  0.8011915E-01
        2   -1    0    0  501    0  0.00000000000E+00  0.00000000000E+00  0.30275862497E+04  0.30275862497E+04  0.25500000920E-02 0. -1.
       -2   -1    0    0    0  501  0.00000000000E+00  0.00000000000E+00 -0.12972975620E+04  0.12972975620E+04  0.25500000920E-02 0.  1.
    10030    2    1    2    0    0  0.00000000000E+00  0.00000000000E+00  0.17302886876E+04  0.43248838117E+04  0.39636751938E+04 0.  0.
        3    1    3    3  502    0  0.10453265389E+04 -0.91953560125E+03 -0.67386191109E+03  0.15467201364E+04  0.10100000352E+00 0.  1.
       -3    1    3    3    0  502 -0.10453265389E+04  0.91953560125E+03  0.24041505987E+04  0.27781636753E+04  0.10100000352E+00 0. -1.
</event>
<event>
 5   0  0.1879500E-08  0.3989844E+04  0.7818609E-02  0.8006598E-01
        1   -1    0    0  501    0  0.00000000000E+00  0.00000000000E+00  0.30621670253E+04  0.30621670253E+04  0.50400001928E-02 0. -1.
       -1   -1    0    0    0  501  0.00000000000E+00  0.00000000000E+00 -0.12996399107E+04  0.12996399107E+04  0.50400001928E-02 0.  1.
    10030    2    1    2    0    0  0.00000000000E+00  0.00000000000E+00  0.17625271146E+04  0.43618069361E+04  0.39898443476E+04 0.  0.
        2    1    3    3  502    0  0.15525218522E+04 -0.62635564786E+02  0.22490946348E+04  0.27336192112E+04  0.25500000920E-02 0. -1.
       -2    1    3    3    0  502 -0.15525218522E+04  0.62635564786E+02 -0.48656752022E+03  0.16281877248E+04  0.25500000920E-02 0.  1.
</event>
<event>
 5   0  0.1879500E-08  0.3985071E+04  0.7818609E-02  0.8007565E-01
       -1   -1    0    0    0  501  0.00000000000E+00  0.00000000000E+00  0.15177306262E+04  0.15177306262E+04  0.50400001928E-02 0. -1.
        1   -1    0    0  501    0  0.00000000000E+00  0.00000000000E+00 -0.26158781035E+04  0.26158781035E+04  0.50400001928E-02 0.  1.
    10030    2    1    2    0    0  0.00000000000E+00  0.00000000000E+00 -0.10981474773E+04  0.41336087298E+04  0.39850712979E+04 0.  0.
        3    1    3    3  502    0  0.16166595436E+04 -0.42180504220E+03 -0.16752158620E+04  0.23659788182E+04  0.10100000352E+00 0.  1.
       -3    1    3    3    0  502 -0.16166595436E+04  0.42180504220E+03  0.57706838468E+03  0.17676299116E+04  0.10100000352E+00 0. -1.
</event>
<event>
 5   0  0.1879500E-08  0.4008876E+04  0.7818609E-02  0.8002758E-01
        1   -1    0    0  501    0  0.00000000000E+00  0.00000000000E+00  0.14758196859E+04  0.14758196860E+04  0.50400001928E-02 0.  1.
       -1   -1    0    0    0  501  0.00000000000E+00  0.00000000000E+00 -0.27223995991E+04  0.27223995991E+04  0.50400001928E-02 0. -1.
    10030    2    1    2    0    0  0.00000000000E+00  0.00000000000E+00 -0.12465799131E+04  0.41982192850E+04  0.40088756136E+04 0.  0.
        2    1    3    3  502    0 -0.15064692708E+04  0.10531398107E+04  0.21398281280E+03  0.18504977085E+04  0.25500000920E-02 0.  1.
       -2    1    3    3    0  502  0.15064692708E+04 -0.10531398107E+04 -0.14605627259E+04  0.23477215766E+04  0.25500000920E-02 0. -1.
</event>
<event>
 5   0  0.1879500E-08  0.3988344E+04  0.7818609E-02  0.8006902E-01
       -1   -1    0    0    0  501  0.00000000000E+00  0.00000000000E+00  0.17265857253E+04  0.17265857253E+04  0.50400001928E-02 0.  1.
        1   -1    0    0  501    0  0.00000000000E+00  0.00000000000E+00 -0.23032293451E+04  0.23032293451E+04  0.50400001928E-02 0. -1.
    10030    2    1    2    0    0  0.00000000000E+00  0.00000000000E+00 -0.57664361982E+03  0.40298150704E+04  0.39883444732E+04 0.  0.
        1    1    3    3  502    0  0.13472659264E+04  0.14186995437E+04  0.10155177982E+03  0.19591188416E+04  0.50400001928E-02 0. -1.
       -1    1    3    3    0  502 -0.13472659264E+04 -0.14186995437E+04 -0.67819539964E+03  0.20706962287E+04  0.50400001928E-02 0.  1.
</event>
<event>
 5   0  0.5846812E-08  0.3988824E+04  0.7818609E-02  0.8006805E-01
       -2   -1    0    0    0  501  0.00000000000E+00  0.00000000000E+00  0.24393823248E+04  0.24393823248E+04  0.25500000920E-02 0. -1.
        2   -1    0    0  501    0  0.00000000000E+00  0.00000000000E+00 -0.16306091480E+04  0.16306091480E+04  0.25500000920E-02 0.  1.
    10030    2    1    2    0    0  0.00000000000E+00  0.00000000000E+00  0.80877317679E+03  0.40699914729E+04  0.39888239542E+04 0.  0.
        4    1    3    3  502    0  0.19310431634E+04  0.48943737360E+03  0.50225968035E+03  0.20544447038E+04  0.12699999809E+01 0. -1.
       -4    1    3    3    0  502 -0.19310431634E+04 -0.48943737360E+03  0.30651349643E+03  0.20155467690E+04  0.12699999809E+01 0.  1.
</event>
<event>
 5   0  0.1879500E-08  0.4006680E+04  0.7818609E-02  0.8003200E-01
       -1   -1    0    0    0  501  0.00000000000E+00  0.00000000000E+00  0.19459949864E+04  0.19459949864E+04  0.50400001928E-02 0.  1.
        1   -1    0    0  501    0  0.00000000000E+00  0.00000000000E+00 -0.20623748567E+04  0.20623748567E+04  0.50400001928E-02 0. -1.
    10030    2    1    2    0    0  0.00000000000E+00  0.00000000000E+00 -0.11637987025E+03  0.40083698431E+04  0.40066799878E+04 0.  0.
        3    1    3    3  502    0 -0.60668715569E+02  0.16999465296E+04  0.10004965422E+04  0.19734467912E+04  0.10100000352E+00 0.  1.
       -3    1    3    3    0  502  0.60668715569E+02 -0.16999465296E+04 -0.11168764124E+04  0.20349230519E+04  0.10100000352E+00 0. -1.
</event>
<event>
 5   0  0.5951623E-08  0.4042683E+04  0.7818609E-02  0.7995991E-01
        2   -1    0    0  501    0  0.00000000000E+00  0.00000000000E+00  0.24783856877E+04  0.24783856877E+04  0.25500000920E-02 0. -1.
       -2   -1    0    0    0  501  0.00000000000E+00  0.00000000000E+00 -0.16485820577E+04  0.16485820577E+04  0.25500000920E-02 0.  1.
    10030    2    1    2    0    0  0.00000000000E+00  0.00000000000E+00  0.82980363001E+03  0.41269677454E+04  0.40426833548E+04 0.  0.
        2    1    3    3  502    0 -0.24803369213E+03  0.11843356794E+04 -0.12380064159E+04  0.17311359275E+04  0.25500000920E-02 0.  1.
       -2    1    3    3    0  502  0.24803369213E+03 -0.11843356794E+04  0.20678100459E+04  0.23958318179E+04  0.25500000920E-02 0. -1.
</event>
<event>
 5   0  0.1879500E-08  0.3990399E+04  0.7818609E-02  0.8006486E-01
       -1   -1    0    0    0  501  0.00000000000E+00  0.00000000000E+00  0.21851535638E+04  0.21851535638E+04  0.50400001928E-02 0.  1.
        1   -1    0    0  501    0  0.00000000000E+00  0.00000000000E+00 -0.18217581854E+04  0.18217581854E+04  0.50400001928E-02 0. -1.
    10030    2    1    2    0    0  0.00000000000E+00  0.00000000000E+00  0.36339537835E+03  0.40069117492E+04  0.39903991736E+04 0.  0.
        5    1    3    3  502    0  0.64203180902E+03  0.16488426272E+04  0.11074195731E+04  0.20874115680E+04  0.46999998093E+01 0.  1.
       -5    1    3    3    0  502 -0.64203180902E+03 -0.16488426272E+04 -0.74402419477E+03  0.19195001812E+04  0.46999998093E+01 0. -1.
</event>
<event>
 5   0  0.5846812E-08  0.4002936E+04  0.7818609E-02  0.8003954E-01
       -2   -1    0    0    0  501  0.00000000000E+00  0.00000000000E+00  0.17211807608E+04  0.17211807608E+04  0.25500000920E-02 0. -1.
        2   -1    0    0  501    0  0.00000000000E+00  0.00000000000E+00 -0.23273990529E+04  0.23273990529E+04  0.25500000920E-02 0.  1.
    10030    2    1    2    0    0  0.00000000000E+00  0.00000000000E+00 -0.60621829218E+03  0.40485798137E+04  0.40029361586E+04 0.  0.
        4    1    3    3  502    0 -0.64685218842E+03 -0.82137106801E+03 -0.20292638778E+04  0.22827574737E+04  0.12699999809E+01 0.  1.
       -4    1    3    3    0  502  0.64685218842E+03  0.82137106801E+03  0.14230455856E+04  0.17658223400E+04  0.12699999809E+01 0. -1.
</event>
<event>
 5   0  0.6161563E-08  0.4006054E+04  0.7818609E-02  0.8003326E-01
       -2   -1    0    0    0  501  0.00000000000E+00  0.00000000000E+00  0.17293360294E+04  0.17293360294E+04  0.25500000920E-02 0. -1.
        2   -1    0    0  501    0  0.00000000000E+00  0.00000000000E+00 -0.23200328685E+04  0.23200328685E+04  0.25500000920E-02 0.  1.
    10030    2    1    2    0    0  0.00000000000E+00  0.00000000000E+00 -0.59069683909E+03  0.40493688980E+04  0.40060536337E+04 0.  0.
        1    1    3    3  502    0 -0.74319150978E+03 -0.17650111251E+03 -0.21670254230E+04  0.22977130906E+04  0.50400001928E-02 0.  1.
       -1    1    3    3    0  502  0.74319150978E+03  0.17650111251E+03  0.15763285839E+04  0.17516558073E+04  0.50400001928E-02 0. -1.
</event>
<event>
 5   0  0.6161563E-08  0.4004092E+04  0.7818609E-02  0.8003721E-01
       -2   -1    0    0    0  501  0.00000000000E+00  0.00000000000E+00  0.22249804391E+04  0.22249804391E+04  0.25500000920E-02 0.  1.
        2   -1    0    0  501    0  0.00000000000E+00  0.00000000000E+00 -0.18014491777E+04  0.18014491777E+04  0.25500000920E-02 0. -1.
    10030    2    1    2    0    0  0.00000000000E+00  0.00000000000E+00  0.42353126135E+03  0.40264296168E+04  0.40040924976E+04 0.  0.
        1    1    3    3  502    0 -0.18604401828E+04 -0.48554974024E+03  0.77272433482E+03  0.20722208187E+04  0.50400001928E-02 0. -1.
       -1    1    3    3    0  502  0.18604401828E+04  0.48554974024E+03 -0.34919307347E+03  0.19542087981E+04  0.50400001928E-02 0.  1.
</event>
<event>
 5   0  0.1879500E-08  0.3833459E+04  0.7818609E-02  0.8039012E-01
       -1   -1    0    0    0  501  0.00000000000E+00  0.00000000000E+00  0.31829097231E+04  0.31829097231E+04  0.50400001928E-02 0.  1.
        1   -1    0    0  501    0  0.00000000000E+00  0.00000000000E+00 -0.11542434629E+04  0.11542434629E+04  0.50400001928E-02 0. -1.
    10030    2    1    2    0    0  0.00000000000E+00  0.00000000000E+00  0.20286662602E+04  0.43371531860E+04  0.38334593989E+04 0.  0.
        4    1    3    3  502    0 -0.17737934576E+04 -0.66284827095E+03  0.13502258436E+04  0.23256875332E+04  0.12699999809E+01 0.  1.
       -4    1    3    3    0  502  0.17737934576E+04  0.66284827095E+03  0.67844041655E+03  0.20114656527E+04  0.12699999809E+01 0. -1.
</event>
<event>
 5   0  0.5846812E-08  0.3981761E+04  0.7818609E-02  0.8008236E-01
        2   -1    0    0  501    0  0.00000000000E+00  0.00000000000E+00  0.11930672424E+04  0.11930672424E+04  0.25500000920E-02 0.  1.
       -2   -1    0    0    0  501  0.00000000000E+00  0.00000000000E+00 -0.33221970423E+04  0.33221970423E+04  0.25500000920E-02 0. -1.
    10030    2    1    2    0    0  0.00000000000E+00  0.00000000000E+00 -0.21291297999E+04  0.45152642847E+04  0.39817606478E+04 0.  0.
        4    1    3    3  502    0  0.14238908868E+03 -0.17687766277E+04 -0.20881458452E+04  0.27402919726E+04  0.12699999809E+01 0.  1.
       -4    1    3    3    0  502 -0.14238908868E+03  0.17687766277E+04 -0.40983954732E+02  0.17749723121E+04  0.12699999809E+01 0. -1.
</event>
<event>
 5   0  0.5846812E-08  0.4002760E+04  0.7818609E-02  0.8003990E-01
        2   -1    0    0  501    0  0.00000000000E+00  0.00000000000E+00  0.27017621533E+04  0.27017621533E+04  0.25500000920E-02 0.  1.
       -2   -1    0    0    0  501  0.00000000000E+00  0.00000000000E+00 -0.14825593770E+04  0.14825593770E+04  0.25500000920E-02 0. -1.
    10030    2    1    2    0    0  0.00000000000E+00  0.00000000000E+00  0.12192027763E+04  0.41843215303E+04  0.40027604549E+04 0.  0.
        4    1    3    3  502    0 -0.34148531371E+02  0.10210875791E+04 -0.11894292706E+04  0.15679698878E+04  0.12699999809E+01 0. -1.
       -4    1    3    3    0  502  0.34148531371E+02 -0.10210875791E+04  0.24086320470E+04  0.26163516425E+04  0.12699999809E+01 0.  1.
</event>
<event>
 5   0  0.1879500E-08  0.3993548E+04  0.7818609E-02  0.8005849E-01
       -1   -1    0    0    0  501  0.00000000000E+00  0.00000000000E+00  0.19140857799E+04  0.19140857800E+04  0.50400001928E-02 0. -1.
        1   -1    0    0  501    0  0.00000000000E+00  0.00000000000E+00 -0.20830347222E+04  0.20830347223E+04  0.50400001928E-02 0.  1.
    10030    2    1    2    0    0  0.00000000000E+00  0.00000000000E+00 -0.16894894230E+03  0.39971205022E+04  0.39935483676E+04 0.  0.
        2    1    3    3  502    0  0.29184960676E+03 -0.30264085114E+03  0.18692806387E+04  0.19159795886E+04  0.25500000920E-02 0. -1.
       -2    1    3    3    0  502 -0.29184960676E+03  0.30264085114E+03 -0.20382295810E+04  0.20811409136E+04  0.25500000920E-02 0.  1.
</event>
<event>
 5   0  0.5846812E-08  0.4018064E+04  0.7818609E-02  0.8000912E-01
       -2   -1    0    0    0  501  0.00000000000E+00  0.00000000000E+00  0.21460110831E+04  0.21460110831E+04  0.25500000920E-02 0.  1.
        2   -1    0    0  501    0  0.00000000000E+00  0.00000000000E+00 -0.18807959957E+04  0.18807959957E+04  0.25500000920E-02 0. -1.
    10030    2    1    2    0    0  0.00000000000E+00  0.00000000000E+00  0.26521508737E+03  0.40268070789E+04  0.40180637386E+04 0.  0.
        4    1    3    3  502    0 -0.14891164045E+04 -0.11112347908E+04  0.89840184170E+03  0.20638405725E+04  0.12699999809E+01 0.  1.
       -4    1    3    3    0  502  0.14891164045E+04  0.11112347908E+04 -0.63318675433E+03  0.19629665064E+04  0.12699999809E+01 0. -1.
</event>
<event>
 5   0  0.1879500E-08  0.3998939E+04  0.7818609E-02  0.8004761E-01
        1   -1    0    0  501    0  0.00000000000E+00  0.00000000000E+00  0.23854142891E+04  0.23854142891E+04  0.50400001928E-02 0.  1.
       -1   -1    0    0    0  501  0.00000000000E+00  0.00000000000E+00 -0.16759677114E+04  0.16759677114E+04  0.50400001928E-02 0. -1.
    10030    2    1    2    0    0  0.00000000000E+00  0.00000000000E+00  0.70944657775E+03  0.40613820005E+04  0.39989385226E+04 0.  0.
        5    1    3    3  502    0 -0.71100647309E+03 -0.10592086015E+03 -0.15401829418E+04  0.16996867410E+04  0.46999998093E+01 0. -1.
       -5    1    3    3    0  502  0.71100647309E+03  0.10592086015E+03  0.22496295196E+04  0.23616952595E+04  0.46999998093E+01 0.  1.
</event>
<event>
 5   0  0.1879500E-08  0.3893114E+04  0.7818609E-02  0.8026463E-01
        1   -1    0    0  501    0  0.00000000000E+00  0.00000000000E+00  0.20855561862E+04  0.20855561862E+04  0.50400001928E-02 0.  1.
       -1   -1    0    0    0  501  0.00000000000E+00  0.00000000000E+00 -0.18168220271E+04  0.18168220271E+04  0.50400001928E-02 0. -1.
    10030    2    1    2    0    0  0.00000000000E+00  0.00000000000E+00  0.26873415911E+03  0.39023782133E+04  0.38931141355E+04 0.  0.
        5    1    3    3  502    0  0.39841641532E+03  0.11244964702E+04 -0.14074199617E+04  0.18450151734E+04  0.46999998093E+01 0. -1.
       -5    1    3    3    0  502 -0.39841641532E+03 -0.11244964702E+04  0.16761541208E+04  0.20573630399E+04  0.46999998093E+01 0.  1.
</event>
<event>
 5   0  0.1879500E-08  0.4011315E+04  0.7818609E-02  0.8002268E-01
        1   -1    0    0  501    0  0.00000000000E+00  0.00000000000E+00  0.26876169966E+04  0.26876169966E+04  0.50400001928E-02 0.  1.
       -1   -1    0    0    0  501  0.00000000000E+00  0.00000000000E+00 -0.14967393943E+04  0.14967393943E+04  0.50400001928E-02 0. -1.
    10030    2    1    2    0    0  0.00000000000E+00  0.00000000000E+00  0.11908776024E+04  0.41843563909E+04  0.40113151138E+04 0.  0.
        5    1    3    3  502    0 -0.16192592572E+04  0.33225013368E+03 -0.58945309464E+03  0.17549551943E+04  0.46999998093E+01 0. -1.
       -5    1    3    3    0  502  0.16192592572E+04 -0.33225013368E+03  0.17803306970E+04  0.24294011966E+04  0.46999998093E+01 0.  1.
</event>
<event>
 5   0  0.1879500E-08  0.3990046E+04  0.7818609E-02  0.8006558E-01
        1   -1    0    0  501    0  0.00000000000E+00  0.00000000000E+00  0.23514343161E+04  0.23514343161E+04  0.50400001928E-02 0. -1.
       -1   -1    0    0    0  501  0.00000000000E+00  0.00000000000E+00 -0.16926339719E+04  0.16926339719E+04  0.50400001928E-02 0.  1.
    10030    2    1    2    0    0  0.00000000000E+00  0.00000000000E+00  0.65880034413E+03  0.40440682880E+04  0.39900464188E+04 0.  0.
        2    1    3    3  502    0  0.16622872708E+04 -0.93590111509E+03 -0.26246481547E+03  0.19256161734E+04  0.25500000920E-02 0. -1.
       -2    1    3    3    0  502 -0.16622872708E+04  0.93590111509E+03  0.92126515959E+03  0.21184521146E+04  0.25500000920E-02 0.  1.
</event>
<event>
 5   0  0.5945387E-08  0.4000323E+04  0.7818609E-02  0.8004481E-01
       -2   -1    0    0    0  501  0.00000000000E+00  0.00000000000E+00  0.23585675770E+04  0.23585675770E+04  0.25500000920E-02 0.  1.
        2   -1    0    0  501    0  0.00000000000E+00  0.00000000000E+00 -0.16962185311E+04  0.16962185311E+04  0.25500000920E-02 0. -1.
    10030    2    1    2    0    0  0.00000000000E+00  0.00000000000E+00  0.66234904590E+03  0.40547861081E+04  0.40003230024E+04 0.  0.
        3    1    3    3  502    0  0.10957810400E+04  0.30152502221E+03 -0.13371356550E+04  0.17548746954E+04  0.10100000352E+00 0. -1.
       -3    1    3    3    0  502 -0.10957810400E+04 -0.30152502221E+03  0.19994847009E+04  0.22999114126E+04  0.10100000352E+00 0.  1.
</event>
<event>
 5   0  0.5888700E-08  0.3954049E+04  0.7818609E-02  0.8013881E-01
       -2   -1    0    0    0  501  0.00000000000E+00  0.00000000000E+00  0.18110123512E+04  0.18110123512E+04  0.25500000920E-02 0.  1.
        2   -1    0    0  501    0  0.00000000000E+00  0.00000000000E+00 -0.21582549336E+04  0.21582549336E+04  0.25500000920E-02 0. -1.
    10030    2    1    2    0    0  0.00000000000E+00  0.00000000000E+00 -0.34724258246E+03  0.39692672848E+04  0.39540492368E+04 0.  0.
        5    1    3    3  502    0 -0.10777625098E+04  0.93013786125E+03  0.12034732239E+04  0.18641615700E+04  0.46999998093E+01 0.  1.
       -5    1    3    3    0  502  0.10777625098E+04 -0.93013786125E+03 -0.15507158063E+04  0.21051057148E+04  0.46999998093E+01 0. -1.
</event>
<event>
 5   0  0.5951623E-08  0.4019715E+04  0.7818609E-02  0.8000581E-01
        2   -1    0    0  501    0  0.00000000000E+00  0.00000000000E+00  0.18838131393E+04  0.18838131393E+04  0.25500000920E-02 0.  1.
       -2   -1    0    0    0  501  0.00000000000E+00  0.00000000000E+00 -0.21443356107E+04  0.21443356107E+04  0.25500000920E-02 0. -1.
    10030    2    1    2    0    0  0.00000000000E+00  0.00000000000E+00 -0.26052247134E+03  0.40281487500E+04  0.40197152130E+04 0.  0.
        2    1    3    3  502    0 -0.17226087270E+04  0.92828070751E+03 -0.58996294151E+03  0.20438058055E+04  0.25500000920E-02 0.  1.
       -2    1    3    3    0  502  0.17226087270E+04 -0.92828070751E+03  0.32944047017E+03  0.19843429445E+04  0.25500000920E-02 0. -1.
</event>
<event>
 5   0  0.1879500E-08  0.4018077E+04  0.7818609E-02  0.8000910E-01
       -1   -1    0    0    0  501  0.00000000000E+00  0.00000000000E+00  0.13332193114E+04  0.13332193114E+04  0.50400001928E-02 0. -1.
        1   -1    0    0  501    0  0.00000000000E+00  0.00000000000E+00 -0.30274361144E+04  0.30274361144E+04  0.50400001928E-02 0.  1.
    10030    2    1    2    0    0  0.00000000000E+00  0.00000000000E+00 -0.16942168030E+04  0.43606554259E+04  0.40180772974E+04 0.  0.
        4    1    3    3  502    0 -0.43013530096E+03 -0.96107525843E+03 -0.27039969610E+04  0.29017724251E+04  0.12699999809E+01 0.  1.
       -4    1    3    3    0  502  0.43013530096E+03  0.96107525843E+03  0.10097801580E+04  0.14588830007E+04  0.12699999809E+01 0. -1.
</event>
<event>
 5   0  0.6161563E-08  0.4002012E+04  0.7818609E-02  0.8004141E-01
        2   -1    0    0  501    0  0.00000000000E+00  0.00000000000E+00  0.26009048351E+04  0.26009048351E+04  0.25500000920E-02 0.  1.
       -2   -1    0    0    0  501  0.00000000000E+00  0.00000000000E+00 -0.15394740353E+04  0.15394740353E+04  0.25500000920E-02 0. -1.
    10030    2    1    2    0    0  0.00000000000E+00  0.00000000000E+00  0.10614307997E+04  0.41403788704E+04  0.40020122249E+04 0.  0.
        1    1    3    3  502    0 -0.13791303041E+04  0.12490591291E+04  0.12922888133E+04  0.22654269974E+04  0.50400001928E-02 0.  1.
       -1    1    3    3    0  502  0.13791303041E+04 -0.12490591291E+04 -0.23085801357E+03  0.18749518730E+04  0.50400001928E-02 0. -1.
</event>
<event>
 5   0  0.1879500E-08  0.3992694E+04  0.7818609E-02  0.8006022E-01
       -1   -1    0    0    0  501  0.00000000000E+00  0.00000000000E+00  0.25762504198E+04  0.25762504198E+04  0.50400001928E-02 0.  1.
        1   -1    0    0  501    0  0.00000000000E+00  0.00000000000E+00 -0.15469772413E+04  0.15469772413E+04  0.50400001928E-02 0. -1.
    10030    2    1    2    0    0  0.00000000000E+00  0.00000000000E+00  0.10292731785E+04  0.41232276611E+04  0.39926937109E+04 0.  0.
        2    1    3    3  502    0 -0.76110174900E+03 -0.79585449361E+03  0.22342306386E+04  0.24908726973E+04  0.25500000920E-02 0.  1.
       -2    1    3    3    0  502  0.76110174900E+03  0.79585449361E+03 -0.12049574601E+04  0.16323549639E+04  0.25500000920E-02 0. -1.
</event>
<event>
 5   0  0.1879500E-08  0.4000430E+04  0.7818609E-02  0.8004460E-01
        1   -1    0    0  501    0  0.00000000000E+00  0.00000000000E+00  0.16241687167E+04  0.16241687167E+04  0.50400001928E-02 0.  1.
       -1   -1    0    0    0  501  0.00000000000E+00  0.00000000000E+00 -0.24633280709E+04  0.24633280709E+04  0.50400001928E-02 0. -1.
    10030    2    1    2    0    0  0.00000000000E+00  0.00000000000E+00 -0.83915935419E+03  0.40874967876E+04  0.40004301727E+04 0.  0.
        1    1    3    3  502    0 -0.18555119951E+04  0.37292678456E+03  0.24170097734E+03  0.19079880799E+04  0.50400001928E-02 0.  1.
       -1    1    3    3    0  502  0.18555119951E+04 -0.37292678456E+03 -0.10808603315E+04  0.21795087077E+04  0.50400001928E-02 0. -1.
</event>
<event>
 5   0  0.1879500E-08  0.4063075E+04  0.7818609E-02  0.7991942E-01
        1   -1    0    0  501    0  0.00000000000E+00  0.00000000000E+00  0.15747672169E+04  0.15747672169E+04  0.50400001928E-02 0.  1.
       -1   -1    0    0    0  501  0.00000000000E+00  0.00000000000E+00 -0.26207961861E+04  0.26207961861E+04  0.50400001928E-02 0. -1.
    10030    2    1    2    0    0  0.00000000000E+00  0.00000000000E+00 -0.10460289693E+04  0.41955634030E+04  0.40630746565E+04 0.  0.
        3    1    3    3  502    0 -0.16221045074E+04  0.57872975050E+03  0.58961416816E+03  0.18203834856E+04  0.10100000352E+00 0.  1.
       -3    1    3    3    0  502  0.16221045074E+04 -0.57872975050E+03 -0.16356431374E+04  0.23751799175E+04  0.10100000352E+00 0. -1.
</event>
<event>
 5   0  0.1879500E-08  0.3997804E+04  0.7818609E-02  0.8004990E-01
        1   -1    0    0  501    0  0.00000000000E+00  0.00000000000E+00  0.19983132868E+04  0.19983132868E+04  0.50400001928E-02 0. -1.
       -1   -1    0    0    0  501  0.00000000000E+00  0.00000000000E+00 -0.19994905915E+04  0.19994905915E+04  0.50400001928E-02 0.  1.
    10030    2    1    2    0    0  0.00000000000E+00  0.00000000000E+00 -0.11773047233E+01  0.39978038784E+04  0.39978037050E+04 0.  0.
        2    1    3    3  502    0  0.16098333917E+04 -0.96699351505E+02 -0.11815604654E+04  0.19992497210E+04  0.25500000920E-02 0.  1.
       -2    1    3    3    0  502 -0.16098333917E+04  0.96699351505E+02  0.11803831607E+04  0.19985541573E+04  0.25500000920E-02 0. -1.
</event>
<event>
 5   0  0.1879500E-08  0.3999916E+04  0.7818609E-02  0.8004564E-01
       -1   -1    0    0    0  501  0.00000000000E+00  0.00000000000E+00  0.30107119607E+04  0.30107119607E+04  0.50400001928E-02 0.  1.
        1   -1    0    0  501    0  0.00000000000E+00  0.00000000000E+00 -0.13285335622E+04  0.13285335622E+04  0.50400001928E-02 0. -1.
    10030    2    1    2    0    0  0.00000000000E+00  0.00000000000E+00  0.16821783985E+04  0.43392455229E+04  0.39999159421E+04 0.  0.
        3    1    3    3  502    0  0.61044283798E+03 -0.14257540530E+04 -0.52873328322E+03  0.16385890189E+04  0.10100000352E+00 0. -1.
       -3    1    3    3    0  502 -0.61044283798E+03  0.14257540530E+04  0.22109116817E+04  0.27006565040E+04  0.10100000352E+00 0.  1.
</event>
<event>
 5   0  0.1879500E-08  0.4007361E+04  0.7818609E-02  0.8003063E-01
       -1   -1    0    0    0  501  0.00000000000E+00  0.00000000000E+00  0.18655617230E+04  0.18655617230E+04  0.50400001928E-02 0. -1.
        1   -1    0    0  501    0  0.00000000000E+00  0.00000000000E+00 -0.21520248952E+04  0.21520248952E+04  0.50400001928E-02 0.  1.
    10030    2    1    2    0    0  0.00000000000E+00  0.00000000000E+00 -0.28646317215E+03  0.40175866182E+04  0.40073608629E+04 0.  0.
        1    1    3    3  502    0 -0.16893395118E+04  0.79332155657E+02  0.93402119899E+03  0.19319827063E+04  0.50400001928E-02 0. -1.
       -1    1    3    3    0  502  0.16893395118E+04 -0.79332155657E+02 -0.12204843711E+04  0.20856039119E+04  0.50400001928E-02 0.  1.
</event>
<event>
 5   0  0.1879500E-08  0.3999174E+04  0.7818609E-02  0.8004713E-01
        1   -1    0    0  501    0  0.00000000000E+00  0.00000000000E+00  0.15471943216E+04  0.15471943216E+04  0.50400001928E-02 0.  1.
       -1   -1    0    0    0  501  0.00000000000E+00  0.00000000000E+00 -0.25842567356E+04  0.25842567356E+04  0.50400001928E-02 0. -1.
    10030    2    1    2    0    0  0.00000000000E+00  0.00000000000E+00 -0.10370624140E+04  0.41314510572E+04  0.39991735881E+04 0.  0.
        2    1    3    3  502    0  0.18352559189E+04  0.40250094239E+03 -0.12253969805E+04  0.22431605061E+04  0.25500000920E-02 0. -1.
       -2    1    3    3    0  502 -0.18352559189E+04 -0.40250094239E+03  0.18833456654E+03  0.18882905511E+04  0.25500000920E-02 0.  1.
</event>
<event>
 5   0  0.5951623E-08  0.3990321E+04  0.7818609E-02  0.8006502E-01
       -2   -1    0    0    0  501  0.00000000000E+00  0.00000000000E+00  0.17097352010E+04  0.17097352010E+04  0.25500000920E-02 0. -1.
        2   -1    0    0  501    0  0.00000000000E+00  0.00000000000E+00 -0.23282347676E+04  0.23282347676E+04  0.25500000920E-02 0.  1.
    10030    2    1    2    0    0  0.00000000000E+00  0.00000000000E+00 -0.61849956662E+03  0.40379699687E+04  0.39903207583E+04 0.  0.
        2    1    3    3  502    0  0.14181692754E+04 -0.92003730145E+01 -0.17293520465E+04  0.22365033515E+04  0.25500000920E-02 0.  1.
       -2    1    3    3    0  502 -0.14181692754E+04  0.92003730145E+01  0.11108524799E+04  0.18014666171E+04  0.25500000920E-02 0. -1.
</event>
<event>
 5   0  0.1879500E-08  0.4017831E+04  0.7818609E-02  0.8000959E-01
        1   -1    0    0  501    0  0.00000000000E+00  0.00000000000E+00  0.17032633237E+04  0.17032633237E+04  0.50400001928E-02 0.  1.
       -1   -1    0    0    0  501  0.00000000000E+00  0.00000000000E+00 -0.23694174791E+04  0.23694174791E+04  0.50400001928E-02 0. -1.
    10030    2    1    2    0    0  0.00000000000E+00  0.00000000000E+00 -0.66615415546E+03  0.40726808028E+04  0.40178312014E+04 0.  0.
        2    1    3    3  502    0 -0.85691971346E+03 -0.13913440766E+04 -0.15176156115E+04  0.22300912267E+04  0.25500000920E-02 0. -1.
       -2    1    3    3    0  502  0.85691971346E+03  0.13913440766E+04  0.85146145608E+03  0.18425895762E+04  0.25500000920E-02 0.  1.
</event>
<event>
 5   0  0.1879500E-08  0.4010552E+04  0.7818609E-02  0.8002421E-01
        1   -1    0    0  501    0  0.00000000000E+00  0.00000000000E+00  0.18149396304E+04  0.18149396304E+04  0.50400001928E-02 0. -1.
       -1   -1    0    0    0  501  0.00000000000E+00  0.00000000000E+00 -0.22155730528E+04  0.22155730528E+04  0.50400001928E-02 0.  1.
    10030    2    1    2    0    0  0.00000000000E+00  0.00000000000E+00 -0.40063342239E+03  0.40305126832E+04  0.40105517514E+04 0.  0.
        5    1    3    3  502    0  0.22910842544E+03 -0.57365181272E+03  0.17169368165E+04  0.18246811213E+04  0.46999998093E+01 0. -1.
       -5    1    3    3    0  502 -0.22910842544E+03  0.57365181272E+03 -0.21175702389E+04  0.22058315619E+04  0.46999998093E+01 0.  1.
</event>
<event>
 5   0  0.5945387E-08  0.3997988E+04  0.7818609E-02  0.8004952E-01
       -2   -1    0    0    0  501  0.00000000000E+00  0.00000000000E+00  0.17906856188E+04  0.17906856188E+04  0.25500000920E-02 0.  1.
        2   -1    0    0  501    0  0.00000000000E+00  0.00000000000E+00 -0.22315349962E+04  0.22315349962E+04  0.25500000920E-02 0. -1.
    10030    2    1    2    0    0  0.00000000000E+00  0.00000000000E+00 -0.44084937737E+03  0.40222206150E+04  0.39979883069E+04 0.  0.
        3    1    3    3  502    0 -0.72646610374E+03  0.98378198327E+03 -0.18112734964E+04  0.21854728732E+04  0.10100000352E+00 0. -1.
       -3    1    3    3    0  502  0.72646610374E+03 -0.98378198327E+03  0.13704241191E+04  0.18367477418E+04  0.10100000352E+00 0.  1.
</event>
<event>
 5   0  0.5945387E-08  0.4000649E+04  0.7818609E-02  0.8004416E-01
        2   -1    0    0  501    0  0.00000000000E+00  0.00000000000E+00  0.19107807357E+04  0.19107807357E+04  0.25500000920E-02 0. -1.
       -2   -1    0    0    0  501  0.00000000000E+00  0.00000000000E+00 -0.20940646681E+04  0.20940646681E+04  0.25500000920E-02 0.  1.
    10030    2    1    2    0    0  0.00000000000E+00  0.00000000000E+00 -0.18328393234E+03  0.40048454038E+04  0.40006491609E+04 0.  0.
        3    1    3    3  502    0 -0.16977949080E+04  0.11527578762E+03 -0.11441735230E+04  0.20505923822E+04  0.10100000352E+00 0.  1.
       -3    1    3    3    0  502  0.16977949080E+04 -0.11527578762E+03  0.96088959071E+03  0.19542530216E+04  0.10100000352E+00 0. -1.
</event>
<event>
 5   0  0.5846812E-08  0.3985191E+04  0.7818609E-02  0.8007541E-01
        2   -1    0    0  501    0  0.00000000000E+00  0.00000000000E+00  0.26790708790E+04  0.26790708790E+04  0.25500000920E-02 0.  1.
       -2   -1    0    0    0  501  0.00000000000E+00  0.00000000000E+00 -0.14820198946E+04  0.14820198946E+04  0.25500000920E-02 0. -1.
    10030    2    1    2    0    0  0.00000000000E+00  0.00000000000E+00  0.11970509843E+04  0.41610907736E+04  0.39851907567E+04 0.  0.
        4    1    3    3  502    0  0.19313031090E+04 -0.36019883443E+03  0.25102996782E+03  0.19805788439E+04  0.12699999809E+01 0. -1.
       -4    1    3    3    0  502 -0.19313031090E+04  0.36019883443E+03  0.94602101650E+03  0.21805119297E+04  0.12699999809E+01 0.  1.
</event>
<event>
 5   0  0.5945387E-08  0.4001639E+04  0.7818609E-02  0.8004216E-01
       -2   -1    0    0    0  501  0.00000000000E+00  0.00000000000E+00  0.16423510303E+04  0.16423510303E+04  0.25500000920E-02 0. -1.
        2   -1    0    0  501    0  0.00000000000E+00  0.00000000000E+00 -0.24375290425E+04  0.24375290425E+04  0.25500000920E-02 0.  1.
    10030    2    1    2    0    0  0.00000000000E+00  0.00000000000E+00 -0.79517801219E+03  0.40798800729E+04  0.40016388315E+04 0.  0.
        3    1    3    3  502    0  0.11768808520E+04 -0.98473642068E+03 -0.17066417375E+04  0.22950774253E+04  0.10100000352E+00 0.  1.
       -3    1    3    3    0  502 -0.11768808520E+04  0.98473642068E+03  0.91146372531E+03  0.17848026475E+04  0.10100000352E+00 0. -1.
</event>
<event>
 5   0  0.6161563E-08  0.3993312E+04  0.7818609E-02  0.8005897E-01
        2   -1    0    0  501    0  0.00000000000E+00  0.00000000000E+00  0.26921027545E+04  0.26921027545E+04  0.25500000920E-02 0. -1.
       -2   -1    0    0    0  501  0.00000000000E+00  0.00000000000E+00 -0.14808630532E+04  0.14808630532E+04  0.25500000920E-02 0.  1.
    10030    2    1    2    0    0  0.00000000000E+00  0.00000000000E+00  0.12112397014E+04  0.41729658077E+04  0.39933121613E+04 0.  0.
        1    1    3    3  502    0  0.14148855901E+04  0.37815225575E+03 -0.81253989242E+03  0.16748496763E+04  0.50400001928E-02 0.  1.
       -1    1    3    3    0  502 -0.14148855901E+04 -0.37815225575E+03  0.20237795938E+04  0.24981161314E+04  0.50400001928E-02 0. -1.
</event>
<event>
 5   0  0.5945387E-08  0.4043430E+04  0.7818609E-02  0.7995842E-01
        2   -1    0    0  501    0  0.00000000000E+00  0.00000000000E+00  0.16370051640E+04  0.16370051640E+04  0.25500000920E-02 0.  1.
       -2   -1    0    0    0  501  0.00000000000E+00  0.00000000000E+00 -0.24968350475E+04  0.24968350475E+04  0.25500000920E-02 0. -1.
    10030    2    1    2    0    0  0.00000000000E+00  0.00000000000E+00 -0.85982988348E+03  0.41338402114E+04  0.40434301608E+04 0.  0.
        3    1    3    3  502    0  0.32401630492E+03  0.12541014201E+04 -0.20169040867E+04  0.23970104386E+04  0.10100000352E+00 0. -1.
       -3    1    3    3    0  502 -0.32401630492E+03 -0.12541014201E+04  0.11570742032E+04  0.17368297728E+04  0.10100000352E+00 0.  1.
</event>
<event>
 5   0  0.5888700E-08  0.3973940E+04  0.7818609E-02  0.8009824E-01
        2   -1    0    0  501    0  0.00000000000E+00  0.00000000000E+00  0.20160627790E+04  0.20160627790E+04  0.25500000920E-02 0.  1.
       -2   -1    0    0    0  501  0.00000000000E+00  0.00000000000E+00 -0.19582967112E+04  0.19582967113E+04  0.25500000920E-02 0. -1.
    10030    2    1    2    0    0  0.00000000000E+00  0.00000000000E+00  0.57766067789E+02  0.39743594903E+04  0.39739396623E+04 0.  0.
        5    1    3    3  502    0 -0.16793140350E+04 -0.95338951349E+03 -0.43911920750E+03  0.19803774795E+04  0.46999998093E+01 0. -1.
       -5    1    3    3    0  502  0.16793140350E+04  0.95338951349E+03  0.49688527529E+03  0.19939820108E+04  0.46999998093E+01 0.  1.
</event>
<event>
 5   0  0.1879500E-08  0.4017659E+04  0.7818609E-02  0.8000994E-01
       -1   -1    0    0    0  501  0.00000000000E+00  0.00000000000E+00  0.15501124911E+04  0.15501124911E+04  0.50400001928E-02 0. -1.
        1   -1    0    0  501    0  0.00000000000E+00  0.00000000000E+00 -0.26032921302E+04  0.26032921302E+04  0.50400001928E-02 0.  1.
    10030    2    1    2    0    0  0.00000000000E+00  0.00000000000E+00 -0.10531796391E+04  0.41534046214E+04  0.40176588452E+04 0.  0.
        5    1    3    3  502    0 -0.11569199905E+03  0.47608965887E+03 -0.25405728982E+04  0.25873884020E+04  0.46999998093E+01 0.  1.
       -5    1    3    3    0  502  0.11569199905E+03 -0.47608965887E+03  0.14873932591E+04  0.15660162193E+04  0.46999998093E+01 0. -1.
</event>
<event>
 5   0  0.1879500E-08  0.4000274E+04  0.7818609E-02  0.8004491E-01
        1   -1    0    0  501    0  0.00000000000E+00  0.00000000000E+00  0.16831314028E+04  0.16831314028E+04  0.50400001928E-02 0.  1.
       -1   -1    0    0    0  501  0.00000000000E+00  0.00000000000E+00 -0.23768482097E+04  0.23768482097E+04  0.50400001928E-02 0. -1.
    10030    2    1    2    0    0  0.00000000000E+00  0.00000000000E+00 -0.69371680689E+03  0.40599796125E+04  0.40002739213E+04 0.  0.
        1    1    3    3  502    0 -0.79919334934E+03  0.71869247675E+03 -0.20588420109E+04  0.23225114233E+04  0.50400001928E-02 0. -1.
       -1    1    3    3    0  502  0.79919334934E+03 -0.71869247675E+03  0.13651252040E+04  0.17374681892E+04  0.50400001928E-02 0.  1.
</event>
<event>
 5   0  0.1879500E-08  0.3991025E+04  0.7818609E-02  0.8006360E-01
       -1   -1    0    0    0  501  0.00000000000E+00  0.00000000000E+00  0.13269478202E+04  0.13269478202E+04  0.50400001928E-02 0. -1.
        1   -1    0    0  501    0  0.00000000000E+00  0.00000000000E+00 -0.30009246906E+04  0.30009246906E+04  0.50400001928E-02 0.  1.
    10030    2    1    2    0    0  0.00000000000E+00  0.00000000000E+00 -0.16739768704E+04  0.43278725108E+04  0.39910251700E+04 0.  0.
        3    1    3    3  502    0  0.73601056721E+03 -0.13231650180E+04  0.57256347591E+03  0.16187359772E+04  0.10100000352E+00 0. -1.
       -3    1    3    3    0  502 -0.73601056721E+03  0.13231650180E+04 -0.22465403463E+04  0.27091365336E+04  0.10100000352E+00 0.  1.
</event>
<event>
 5   0  0.1879500E-08  0.3978176E+04  0.7818609E-02  0.8008964E-01
       -1   -1    0    0    0  501  0.00000000000E+00  0.00000000000E+00  0.29233472236E+04  0.29233472236E+04  0.50400001928E-02 0.  1.
        1   -1    0    0  501    0  0.00000000000E+00  0.00000000000E+00 -0.13534045741E+04  0.13534045741E+04  0.50400001928E-02 0. -1.
    10030    2    1    2    0    0  0.00000000000E+00  0.00000000000E+00  0.15699426495E+04  0.42767517977E+04  0.39781762173E+04 0.  0.
        1    1    3    3  502    0 -0.12858993064E+04 -0.91031618541E+03 -0.52034843396E+03  0.16592091720E+04  0.50400001928E-02 0. -1.
       -1    1    3    3    0  502  0.12858993064E+04  0.91031618541E+03  0.20902910834E+04  0.26175426257E+04  0.50400001928E-02 0.  1.
</event>
<event>
 5   0  0.1879500E-08  0.4027396E+04  0.7818609E-02  0.7999043E-01
        1   -1    0    0  501    0  0.00000000000E+00  0.00000000000E+00  0.28256457048E+04  0.28256457048E+04  0.50400001928E-02 0. -1.
       -1   -1    0    0    0  501  0.00000000000E+00  0.00000000000E+00 -0.14350630349E+04  0.14350630349E+04  0.50400001928E-02 0.  1.
    10030    2    1    2    0    0  0.00000000000E+00  0.00000000000E+00  0.13905826699E+04  0.42607087398E+04  0.40273960326E+04 0.  0.
        4    1    3    3  502    0  0.66114145451E+03 -0.12335379867E+03  0.27033147865E+04  0.27857201278E+04  0.12699999809E+01 0. -1.
       -4    1    3    3    0  502 -0.66114145451E+03  0.12335379867E+03 -0.13127321166E+04  0.14749886120E+04  0.12699999809E+01 0.  1.
</event>
<event>
 5   0  0.5846812E-08  0.3926591E+04  0.7818609E-02  0.8019521E-01
        2   -1    0    0  501    0  0.00000000000E+00  0.00000000000E+00  0.27580855507E+04  0.27580855507E+04  0.25500000920E-02 0.  1.
       -2   -1    0    0    0  501  0.00000000000E+00  0.00000000000E+00 -0.13975381211E+04  0.13975381211E+04  0.25500000920E-02 0. -1.
    10030    2    1    2    0    0  0.00000000000E+00  0.00000000000E+00  0.13605474297E+04  0.41556236718E+04  0.39265912434E+04 0.  0.
        4    1    3    3  502    0  0.40991809657E+03  0.58137310312E+03  0.26168994794E+04  0.27118613587E+04  0.12699999809E+01 0.  1.
       -4    1    3    3    0  502 -0.40991809657E+03 -0.58137310312E+03 -0.12563520497E+04  0.14437623131E+04  0.12699999809E+01 0. -1.
</event>
<event>
 5   0  0.5888700E-08  0.4001819E+04  0.7818609E-02  0.8004180E-01
       -2   -1    0    0    0  501  0.00000000000E+00  0.00000000000E+00  0.17921919047E+04  0.17921919047E+04  0.25500000920E-02 0. -1.
        2   -1    0    0  501    0  0.00000000000E+00  0.00000000000E+00 -0.22339337054E+04  0.22339337054E+04  0.25500000920E-02 0.  1.
    10030    2    1    2    0    0  0.00000000000E+00  0.00000000000E+00 -0.44174180071E+03  0.40261256101E+04  0.40018185379E+04 0.  0.
        5    1    3    3  502    0 -0.18272786820E+04  0.86767104260E+02  0.59469460223E+03  0.19235799104E+04  0.46999998093E+01 0. -1.
       -5    1    3    3    0  502  0.18272786820E+04 -0.86767104260E+02 -0.10364364029E+04  0.21025456997E+04  0.46999998093E+01 0.  1.
</event>
<event>
 5   0  0.1879500E-08  0.3992600E+04  0.7818609E-02  0.8006041E-01
       -1   -1    0    0    0  501  0.00000000000E+00  0.00000000000E+00  0.14386751883E+04  0.14386751883E+04  0.50400001928E-02 0. -1.
        1   -1    0    0  501    0  0.00000000000E+00  0.00000000000E+00 -0.27700573371E+04  0.27700573371E+04  0.50400001928E-02 0.  1.
    10030    2    1    2    0    0  0.00000000000E+00  0.00000000000E+00 -0.13313821488E+04  0.42087325254E+04  0.39925995346E+04 0.  0.
        1    1    3    3  502    0  0.19861055555E+04 -0.16541697211E+03 -0.54442124419E+03  0.20660040037E+04  0.50400001928E-02 0. -1.
       -1    1    3    3    0  502 -0.19861055555E+04  0.16541697211E+03 -0.78696090459E+03  0.21427285217E+04  0.50400001928E-02 0.  1.
</event>
<event>
 5   0  0.5945387E-08  0.4002856E+04  0.7818609E-02  0.8003971E-01
        2   -1    0    0  501    0  0.00000000000E+00  0.00000000000E+00  0.32372553491E+04  0.32372553491E+04  0.25500000920E-02 0.  1.
       -2   -1    0    0    0  501  0.00000000000E+00  0.00000000000E+00 -0.12373793932E+04  0.12373793932E+04  0.25500000920E-02 0. -1.
    10030    2    1    2    0    0  0.00000000000E+00  0.00000000000E+00  0.19998759559E+04  0.44746347423E+04  0.40028555105E+04 0.  0.
        3    1    3    3  502    0 -0.12695158565E+04  0.70052619794E+03 -0.54226642077E+03  0.15480504983E+04  0.10100000352E+00 0. -1.
       -3    1    3    3    0  502  0.12695158565E+04 -0.70052619794E+03  0.25421423767E+04  0.29265842440E+04  0.10100000352E+00 0.  1.
</event>
<event>
 5   0  0.6161563E-08  0.4005088E+04  0.7818609E-02  0.8003521E-01
       -2   -1    0    0    0  501  0.00000000000E+00  0.00000000000E+00  0.24012874797E+04  0.24012874797E+04  0.25500000920E-02 0. -1.
        2   -1    0    0  501    0  0.00000000000E+00  0.00000000000E+00 -0.16700134285E+04  0.16700134285E+04  0.25500000920E-02 0.  1.
    10030    2    1    2    0    0  0.00000000000E+00  0.00000000000E+00  0.73127405116E+03  0.40713009082E+04  0.40050879326E+04 0.  0.
        1    1    3    3  502    0 -0.68607249097E+03 -0.27250562571E+03  0.22579241151E+04  0.23755370106E+04  0.50400001928E-02 0. -1.
       -1    1    3    3    0  502  0.68607249097E+03  0.27250562571E+03 -0.15266500640E+04  0.16957638977E+04  0.50400001928E-02 0.  1.
</event>
<event>
 5   0  0.5951623E-08  0.4002659E+04  0.7818609E-02  0.8004010E-01
        2   -1    0    0  501    0  0.00000000000E+00  0.00000000000E+00  0.15700793218E+04  0.15700793218E+04  0.25500000920E-02 0. -1.
       -2   -1    0    0    0  501  0.00000000000E+00  0.00000000000E+00 -0.25510307685E+04  0.25510307685E+04  0.25500000920E-02 0.  1.
    10030    2    1    2    0    0  0.00000000000E+00  0.00000000000E+00 -0.98095144677E+03  0.41211100903E+04  0.40026594453E+04 0.  0.
        2    1    3    3  502    0  0.92156323607E+03 -0.13319416789E+03  0.13334740925E+04  0.16263986719E+04  0.25500000920E-02 0. -1.
       -2    1    3    3    0  502 -0.92156323607E+03  0.13319416789E+03 -0.23144255393E+04  0.24947114184E+04  0.25500000920E-02 0.  1.
</event>
<event>
 5   0  0.1879500E-08  0.4021145E+04  0.7818609E-02  0.8000294E-01
        1   -1    0    0  501    0  0.00000000000E+00  0.00000000000E+00  0.14383478016E+04  0.14383478016E+04  0.50400001928E-02 0.  1.
       -1   -1    0    0    0  501  0.00000000000E+00  0.00000000000E+00 -0.28104483678E+04  0.28104483678E+04  0.50400001928E-02 0. -1.
    10030    2    1    2    0    0  0.00000000000E+00  0.00000000000E+00 -0.13721005662E+04  0.42487961694E+04  0.40211452255E+04 0.  0.
        2    1    3    3  502    0 -0.25392991515E+03  0.11999990196E+04 -0.23693267844E+04  0.26679931522E+04  0.25500000920E-02 0. -1.
       -2    1    3    3    0  502  0.25392991515E+03 -0.11999990196E+04  0.99722621816E+03  0.15808030172E+04  0.25500000920E-02 0.  1.
</event>
<event>
 5   0  0.1879500E-08  0.3770963E+04  0.7818609E-02  0.8052415E-01
       -1   -1    0    0    0  501  0.00000000000E+00  0.00000000000E+00  0.17219159558E+04  0.17219159558E+04  0.50400001928E-02 0. -1.
        1   -1    0    0  501    0  0.00000000000E+00  0.00000000000E+00 -0.20645843196E+04  0.20645843196E+04  0.50400001928E-02 0.  1.
    10030    2    1    2    0    0  0.00000000000E+00  0.00000000000E+00 -0.34266836385E+03  0.37865002754E+04  0.37709631035E+04 0.  0.
        4    1    3    3  502    0  0.14549964585E+04  0.50048933075E+03  0.92289648734E+03  0.17942251263E+04  0.12699999809E+01 0. -1.
       -4    1    3    3    0  502 -0.14549964585E+04 -0.50048933075E+03 -0.12655648512E+04  0.19922751491E+04  0.12699999809E+01 0.  1.
</event>
<event>
 5   0  0.5888700E-08  0.3974675E+04  0.7818609E-02  0.8009675E-01
        2   -1    0    0  501    0  0.00000000000E+00  0.00000000000E+00  0.18750117853E+04  0.18750117853E+04  0.25500000920E-02 0.  1.
       -2   -1    0    0    0  501  0.00000000000E+00  0.00000000000E+00 -0.21063918985E+04  0.21063918985E+04  0.25500000920E-02 0. -1.
    10030    2    1    2    0    0  0.00000000000E+00  0.00000000000E+00 -0.23138011322E+03  0.39814036838E+04  0.39746746454E+04 0.  0.
        5    1    3    3  502    0 -0.19462701588E+04  0.15282138793E+03 -0.48802573211E+03  0.20123402081E+04  0.46999998093E+01 0. -1.
       -5    1    3    3    0  502  0.19462701588E+04 -0.15282138793E+03  0.25664561889E+03  0.19690634757E+04  0.46999998093E+01 0.  1.
</event>
<event>
 5   0  0.1879500E-08  0.3873625E+04  0.7818609E-02  0.8030537E-01
        4   -1    0    0  501    0  0.00000000000E+00  0.00000000000E+00  0.16435020234E+04  0.16435025141E+04  0.12699999809E+01 0. -1.
       -4   -1    0    0    0  501  0.00000000000E+00  0.00000000000E+00 -0.22824676343E+04  0.22824679877E+04  0.12699999809E+01 0.  1.
    10030    2    1    2    0    0  0.00000000000E+00  0.00000000000E+00 -0.63896561091E+03  0.39259705018E+04  0.38736245726E+04 0.  0.
        2    1    3    3  502    0  0.11617890629E+04 -0.67088368945E+03 -0.17352863597E+04  0.21934122963E+04  0.25500000920E-02 0.  1.
       -2    1    3    3    0  502 -0.11617890629E+04  0.67088368945E+03  0.10963207487E+04  0.17325582055E+04  0.25500000920E-02 0. -1.
</event>
<event>
 5   0  0.1879500E-08  0.4001019E+04  0.7818609E-02  0.8004341E-01
       -1   -1    0    0    0  501  0.00000000000E+00  0.00000000000E+00  0.19157253524E+04  0.19157253524E+04  0.50400001928E-02 0. -1.
        1   -1    0    0  501    0  0.00000000000E+00  0.00000000000E+00 -0.20890461402E+04  0.20890461402E+04  0.50400001928E-02 0.  1.
    10030    2    1    2    0    0  0.00000000000E+00  0.00000000000E+00 -0.17332078773E+03  0.40047714926E+04  0.40010191967E+04 0.  0.
        5    1    3    3  502    0  0.19190147249E+04 -0.27525571872E+03  0.40739479333E+03  0.19810037438E+04  0.46999998093E+01 0. -1.
       -5    1    3    3    0  502 -0.19190147249E+04  0.27525571872E+03 -0.58071558106E+03  0.20237677489E+04  0.46999998093E+01 0.  1.
</event>
<event>
 5   0  0.1879500E-08  0.3992489E+04  0.7818609E-02  0.8006064E-01
       -1   -1    0    0    0  501  0.00000000000E+00  0.00000000000E+00  0.24163760678E+04  0.24163760678E+04  0.50400001928E-02 0. -1.
        1   -1    0    0  501    0  0.00000000000E+00  0.00000000000E+00 -0.16491602640E+04  0.16491602640E+04  0.50400001928E-02 0.  1.
    10030    2    1    2    0    0  0.00000000000E+00  0.00000000000E+00  0.76721580378E+03  0.40655363317E+04  0.39924886443E+04 0.  0.
        4    1    3    3  502    0  0.13778385521E+04  0.92150738599E+03  0.15163337161E+04  0.22465272065E+04  0.12699999809E+01 0. -1.
       -4    1    3    3    0  502 -0.13778385521E+04 -0.92150738599E+03 -0.74911791229E+03  0.18190091252E+04  0.12699999809E+01 0.  1.
</event>
<event>
 5   0  0.1879500E-08  0.3995678E+04  0.7818609E-02  0.8005419E-01
       -1   -1    0    0    0  501  0.00000000000E+00  0.00000000000E+00  0.16179408979E+04  0.16179408979E+04  0.50400001928E-02 0.  1.
        1   -1    0    0  501    0  0.00000000000E+00  0.00000000000E+00 -0.24669384807E+04  0.24669384808E+04  0.50400001928E-02 0. -1.
    10030    2    1    2    0    0  0.00000000000E+00  0.00000000000E+00 -0.84899758289E+03  0.40848793786E+04  0.39956779953E+04 0.  0.
        3    1    3    3  502    0  0.12735921326E+04  0.48217673392E+03  0.10699246552E+04  0.17318400910E+04  0.10100000352E+00 0.  1.
       -3    1    3    3    0  502 -0.12735921326E+04 -0.48217673392E+03 -0.19189222381E+04  0.23530392876E+04  0.10100000352E+00 0. -1.
</event>
<event>
 5   0  0.1879500E-08  0.3988142E+04  0.7818609E-02  0.8006943E-01
        1   -1    0    0  501    0  0.00000000000E+00  0.00000000000E+00  0.21580413234E+04  0.21580413234E+04  0.50400001928E-02 0.  1.
       -1   -1    0    0    0  501  0.00000000000E+00  0.00000000000E+00 -0.18425596389E+04  0.18425596389E+04  0.50400001928E-02 0. -1.
    10030    2    1    2    0    0  0.00000000000E+00  0.00000000000E+00  0.31548168448E+03  0.40006009622E+04  0.39881423452E+04 0.  0.
        5    1    3    3  502    0 -0.58702656383E+03  0.11770150342E+04  0.16612001209E+04  0.21188611349E+04  0.46999998093E+01 0.  1.
       -5    1    3    3    0  502  0.58702656383E+03 -0.11770150342E+04 -0.13457184364E+04  0.18817398273E+04  0.46999998093E+01 0. -1.
</event>
<event>
 5   0  0.1879500E-08  0.4039043E+04  0.7818609E-02  0.7996716E-01
       -1   -1    0    0    0  501  0.00000000000E+00  0.00000000000E+00  0.27228392396E+04  0.27228392396E+04  0.50400001928E-02 0.  1.
        1   -1    0    0  501    0  0.00000000000E+00  0.00000000000E+00 -0.14978729753E+04  0.14978729753E+04  0.50400001928E-02 0. -1.
    10030    2    1    2    0    0  0.00000000000E+00  0.00000000000E+00  0.12249662643E+04  0.42207122149E+04  0.40390431110E+04 0.  0.
        1    1    3    3  502    0 -0.93832761659E+02  0.83780673973E+03  0.25301655981E+04  0.26669200727E+04  0.50400001928E-02 0.  1.
       -1    1    3    3    0  502  0.93832761659E+02 -0.83780673973E+03 -0.13051993338E+04  0.15537921422E+04  0.50400001928E-02 0. -1.
</event>
<event>
 5   0  0.6161563E-08  0.4009267E+04  0.7818609E-02  0.8002680E-01
        2   -1    0    0  501    0  0.00000000000E+00  0.00000000000E+00  0.19547813416E+04  0.19547813416E+04  0.25500000920E-02 0.  1.
       -2   -1    0    0    0  501  0.00000000000E+00  0.00000000000E+00 -0.20557566640E+04  0.20557566640E+04  0.25500000920E-02 0. -1.
    10030    2    1    2    0    0  0.00000000000E+00  0.00000000000E+00 -0.10097532239E+03  0.40105380056E+04  0.40092666510E+04 0.  0.
        1    1    3    3  502    0  0.95045776809E+03  0.24535629060E+03  0.16979181540E+04  0.19612485146E+04  0.50400001928E-02 0.  1.
       -1    1    3    3    0  502 -0.95045776809E+03 -0.24535629060E+03 -0.17988934764E+04  0.20492894910E+04  0.50400001928E-02 0. -1.
</event>
<event>
 5   0  0.1879500E-08  0.3983640E+04  0.7818609E-02  0.8007855E-01
        1   -1    0    0  501    0  0.00000000000E+00  0.00000000000E+00  0.17819985412E+04  0.17819985413E+04  0.50400001928E-02 0. -1.
       -1   -1    0    0    0  501  0.00000000000E+00  0.00000000000E+00 -0.22263466533E+04  0.22263466533E+04  0.50400001928E-02 0.  1.
    10030    2    1    2    0    0  0.00000000000E+00  0.00000000000E+00 -0.44434811207E+03  0.40083451946E+04  0.39836397872E+04 0.  0.
        1    1    3    3  502    0  0.84363733203E+03  0.13263289628E+04  0.10087170832E+04  0.18677212371E+04  0.50400001928E-02 0. -1.
       -1    1    3    3    0  502 -0.84363733203E+03 -0.13263289628E+04 -0.14530651953E+04  0.21406239575E+04  0.50400001928E-02 0.  1.
</event>
<event>
 5   0  0.5846812E-08  0.4005700E+04  0.7818609E-02  0.8003398E-01
        2   -1    0    0  501    0  0.00000000000E+00  0.00000000000E+00  0.26812123276E+04  0.26812123276E+04  0.25500000920E-02 0. -1.
       -2   -1    0    0    0  501  0.00000000000E+00  0.00000000000E+00 -0.14961172265E+04  0.14961172265E+04  0.25500000920E-02 0.  1.
    10030    2    1    2    0    0  0.00000000000E+00  0.00000000000E+00  0.11850951011E+04  0.41773295541E+04  0.40056999145E+04 0.  0.
        4    1    3    3  502    0 -0.71304897639E+03 -0.13627305895E+04 -0.74536085459E+03  0.17091044201E+04  0.12699999809E+01 0. -1.
       -4    1    3    3    0  502  0.71304897639E+03  0.13627305895E+04  0.19304559557E+04  0.24682251340E+04  0.12699999809E+01 0.  1.
</event>
<event>
 5   0  0.5888700E-08  0.4000682E+04  0.7818609E-02  0.8004409E-01
        2   -1    0    0  501    0  0.00000000000E+00  0.00000000000E+00  0.24880030406E+04  0.24880030406E+04  0.25500000920E-02 0. -1.
       -2   -1    0    0    0  501  0.00000000000E+00  0.00000000000E+00 -0.16082634787E+04  0.16082634787E+04  0.25500000920E-02 0.  1.
    10030    2    1    2    0    0  0.00000000000E+00  0.00000000000E+00  0.87973956187E+03  0.40962665193E+04  0.40006821543E+04 0.  0.
        5    1    3    3  502    0 -0.92872052967E+02  0.14122095353E+04 -0.10075461230E+04  0.17372772577E+04  0.46999998093E+01 0.  1.
       -5    1    3    3    0  502  0.92872052967E+02 -0.14122095353E+04  0.18872856849E+04  0.23589892616E+04  0.46999998093E+01 0. -1.
</event>
<event>
 5   0  0.1879500E-08  0.4017607E+04  0.7818609E-02  0.8001004E-01
       -1   -1    0    0    0  501  0.00000000000E+00  0.00000000000E+00  0.35643032414E+04  0.35643032414E+04  0.50400001928E-02 0.  1.
        1   -1    0    0  501    0  0.00000000000E+00  0.00000000000E+00 -0.11321405327E+04  0.11321405327E+04  0.50400001928E-02 0. -1.
    10030    2    1    2    0    0  0.00000000000E+00  0.00000000000E+00  0.24321627087E+04  0.46964437741E+04  0.40176073330E+04 0.  0.
        2    1    3    3  502    0  0.89769783407E+03 -0.66317477778E+03  0.31685089637E+04  0.33593319634E+04  0.25500000920E-02 0.  1.
       -2    1    3    3    0  502 -0.89769783407E+03  0.66317477778E+03 -0.73634625498E+03  0.13371118107E+04  0.25500000920E-02 0. -1.
</event>
<event>
 5   0  0.1879500E-08  0.4003545E+04  0.7818609E-02  0.8003832E-01
        1   -1    0    0  501    0  0.00000000000E+00  0.00000000000E+00  0.20241309200E+04  0.20241309200E+04  0.50400001928E-02 0.  1.
       -1   -1    0    0    0  501  0.00000000000E+00  0.00000000000E+00 -0.19796607816E+04  0.19796607816E+04  0.50400001928E-02 0. -1.
    10030    2    1    2    0    0  0.00000000000E+00  0.00000000000E+00  0.44470138364E+02  0.40037917016E+04  0.40035447289E+04 0.  0.
        1    1    3    3  502    0 -0.82580365774E+03  0.15484857624E+04 -0.94080552013E+03  0.19911993532E+04  0.50400001928E-02 0. -1.
       -1    1    3    3    0  502  0.82580365774E+03 -0.15484857624E+04  0.98527565849E+03  0.20125923484E+04  0.50400001928E-02 0.  1.
</event>
<event>
 5   0  0.5951623E-08  0.4002830E+04  0.7818609E-02  0.8003976E-01
       -2   -1    0    0    0  501  0.00000000000E+00  0.00000000000E+00  0.14877090228E+04  0.14877090228E+04  0.25500000920E-02 0.  1.
        2   -1    0    0  501    0  0.00000000000E+00  0.00000000000E+00 -0.26925041773E+04  0.26925041773E+04  0.25500000920E-02 0. -1.
    10030    2    1    2    0    0  0.00000000000E+00  0.00000000000E+00 -0.12047951545E+04  0.41802132001E+04  0.40028303778E+04 0.  0.
        2    1    3    3  502    0 -0.99873205259E+03  0.17141354930E+04 -0.87857194628E+03  0.21697038659E+04  0.25500000920E-02 0. -1.
       -2    1    3    3    0  502  0.99873205259E+03 -0.17141354930E+04 -0.32622320826E+03  0.20105093341E+04  0.25500000920E-02 0.  1.
</event>
<event>
 5   0  0.1879500E-08  0.3968283E+04  0.7818609E-02  0.8010976E-01
       -1   -1    0    0    0  501  0.00000000000E+00  0.00000000000E+00  0.18024753168E+04  0.18024753168E+04  0.50400001928E-02 0.  1.
        1   -1    0    0  501    0  0.00000000000E+00  0.00000000000E+00 -0.21841168761E+04  0.21841168761E+04  0.50400001928E-02 0. -1.
    10030    2    1    2    0    0  0.00000000000E+00  0.00000000000E+00 -0.38164155938E+03  0.39865921929E+04  0.39682826301E+04 0.  0.
        3    1    3    3  502    0  0.91239091178E+03 -0.20712699525E+03  0.15669545600E+04  0.18250220194E+04  0.10100000352E+00 0.  1.
       -3    1    3    3    0  502 -0.91239091178E+03  0.20712699525E+03 -0.19485961194E+04  0.21615701735E+04  0.10100000352E+00 0. -1.
</event>
<event>
 5   0  0.1879500E-08  0.3997074E+04  0.7818609E-02  0.8005137E-01
       -1   -1    0    0    0  501  0.00000000000E+00  0.00000000000E+00  0.23923723947E+04  0.23923723947E+04  0.50400001928E-02 0.  1.
        1   -1    0    0  501    0  0.00000000000E+00  0.00000000000E+00 -0.16695353885E+04  0.16695353885E+04  0.50400001928E-02 0. -1.
    10030    2    1    2    0    0  0.00000000000E+00  0.00000000000E+00  0.72283700622E+03  0.40619077832E+04  0.39970741176E+04 0.  0.
        3    1    3    3  502    0  0.14051815404E+03 -0.14588950269E+04 -0.10193067632E+04  0.17852468566E+04  0.10100000352E+00 0. -1.
       -3    1    3    3    0  502 -0.14051815404E+03  0.14588950269E+04  0.17421437695E+04  0.22766609266E+04  0.10100000352E+00 0.  1.
</event>
<event>
 5   0  0.5951623E-08  0.4003403E+04  0.7818609E-02  0.8003860E-01
        2   -1    0    0  501    0  0.00000000000E+00  0.00000000000E+00  0.18904481453E+04  0.18904481453E+04  0.25500000920E-02 0. -1.
       -2   -1    0    0    0  501  0.00000000000E+00  0.00000000000E+00 -0.21195025198E+04  0.21195025198E+04  0.25500000920E-02 0.  1.
    10030    2    1    2    0    0  0.00000000000E+00  0.00000000000E+00 -0.22905437450E+03  0.40099506650E+04  0.40034033558E+04 0.  0.
        2    1    3    3  502    0 -0.19077451333E+04  0.41624076287E+03  0.32671765549E+03  0.19797707677E+04  0.25500000920E-02 0. -1.
       -2    1    3    3    0  502  0.19077451333E+04 -0.41624076287E+03 -0.55577202999E+03  0.20301798973E+04  0.25500000920E-02 0.  1.
</event>
<event>
 5   0  0.1879500E-08  0.3979453E+04  0.7818609E-02  0.8008704E-01
       -1   -1    0    0    0  501  0.00000000000E+00  0.00000000000E+00  0.14609620350E+04  0.14609620350E+04  0.50400001928E-02 0.  1.
        1   -1    0    0  501    0  0.00000000000E+00  0.00000000000E+00 -0.27098663598E+04  0.27098663598E+04  0.50400001928E-02 0. -1.
    10030    2    1    2    0    0  0.00000000000E+00  0.00000000000E+00 -0.12489043248E+04  0.41708283949E+04  0.39794531643E+04 0.  0.
        5    1    3    3  502    0  0.12619814343E+04 -0.14457750014E+04 -0.11752009965E+04  0.22503293020E+04  0.46999998093E+01 0. -1.
       -5    1    3    3    0  502 -0.12619814343E+04  0.14457750014E+04 -0.73703328310E+02  0.19204990929E+04  0.46999998093E+01 0.  1.
</event>
<event>
 5   0  0.5945387E-08  0.4002388E+04  0.7818609E-02  0.8004065E-01
       -2   -1    0    0    0  501  0.00000000000E+00  0.00000000000E+00  0.16752225973E+04  0.16752225973E+04  0.25500000920E-02 0. -1.
        2   -1    0    0  501    0  0.00000000000E+00  0.00000000000E+00 -0.23905938459E+04  0.23905938459E+04  0.25500000920E-02 0.  1.
    10030    2    1    2    0    0  0.00000000000E+00  0.00000000000E+00 -0.71537124864E+03  0.40658164433E+04  0.40023877032E+04 0.  0.
        3    1    3    3  502    0 -0.12679436119E+04 -0.98083618086E+03  0.85923728711E+03  0.18187933754E+04  0.10100000352E+00 0. -1.
       -3    1    3    3    0  502  0.12679436119E+04  0.98083618086E+03 -0.15746085358E+04  0.22470230679E+04  0.10100000352E+00 0.  1.
</event>
<event>
 5   0  0.5945387E-08  0.4004601E+04  0.7818609E-02  0.8003619E-01
        2   -1    0    0  501    0  0.00000000000E+00  0.00000000000E+00  0.32254518245E+04  0.32254518245E+04  0.25500000920E-02 0. -1.
       -2   -1    0    0    0  501  0.00000000000E+00  0.00000000000E+00 -0.12429909565E+04  0.12429909565E+04  0.25500000920E-02 0.  1.
    10030    2    1    2    0    0  0.00000000000E+00  0.00000000000E+00  0.19824608680E+04  0.44684427810E+04  0.40046010780E+04 0.  0.
        3    1    3    3  502    0  0.13676976111E+04  0.46652817948E+03 -0.55529242617E+03  0.15480939850E+04  0.10100000352E+00 0.  1.
       -3    1    3    3    0  502 -0.13676976111E+04 -0.46652817948E+03  0.25377532942E+04  0.29203487959E+04  0.10100000352E+00 0. -1.
</event>
<event>
 5   0  0.5951623E-08  0.3977878E+04  0.7818609E-02  0.8009024E-01
       -2   -1    0    0    0  501  0.00000000000E+00  0.00000000000E+00  0.27800395856E+04  0.27800395856E+04  0.25500000920E-02 0.  1.
        2   -1    0    0  501    0  0.00000000000E+00  0.00000000000E+00 -0.14229577290E+04  0.14229577290E+04  0.25500000920E-02 0. -1.
    10030    2    1    2    0    0  0.00000000000E+00  0.00000000000E+00  0.13570818566E+04  0.42029973146E+04  0.39778782361E+04 0.  0.
        2    1    3    3  502    0  0.17146684942E+04  0.14871243120E+03  0.17317871087E+04  0.24415753157E+04  0.25500000920E-02 0.  1.
       -2    1    3    3    0  502 -0.17146684942E+04 -0.14871243120E+03 -0.37470525212E+03  0.17614219989E+04  0.25500000920E-02 0. -1.
</event>
<event>
 5   0  0.1879500E-08  0.3917300E+04  0.7818609E-02  0.8021441E-01
        1   -1    0    0  501    0  0.00000000000E+00  0.00000000000E+00  0.30102929757E+04  0.30102929757E+04  0.50400001928E-02 0.  1.
       -1   -1    0    0    0  501  0.00000000000E+00  0.00000000000E+00 -0.12743973257E+04  0.12743973257E+04  0.50400001928E-02 0. -1.
    10030    2    1    2    0    0  0.00000000000E+00  0.00000000000E+00  0.17358956500E+04  0.42846903015E+04  0.39172997424E+04 0.  0.
        4    1    3    3  502    0 -0.22585707720E+03 -0.33135574383E+03  0.29649111058E+04  0.29919070050E+04  0.12699999809E+01 0.  1.
       -4    1    3    3    0  502  0.22585707720E+03  0.33135574383E+03 -0.12290154558E+04  0.12927832965E+04  0.12699999809E+01 0. -1.
</event>
<event>
 5   0  0.6161563E-08  0.3965274E+04  0.7818609E-02  0.8011589E-01
       -2   -1    0    0    0  501  0.00000000000E+00  0.00000000000E+00  0.27604558730E+04  0.27604558730E+04  0.25500000920E-02 0. -1.
        2   -1    0    0  501    0  0.00000000000E+00  0.00000000000E+00 -0.14239855693E+04  0.14239855693E+04  0.25500000920E-02 0.  1.
    10030    2    1    2    0    0  0.00000000000E+00  0.00000000000E+00  0.13364703037E+04  0.41844414424E+04  0.39652739265E+04 0.  0.
        1    1    3    3  502    0  0.12366737789E+04  0.46435871487E+03  0.22284172863E+04  0.25905278716E+04  0.50400001928E-02 0. -1.
       -1    1    3    3    0  502 -0.12366737789E+04 -0.46435871487E+03 -0.89194698259E+03  0.15939135708E+04  0.50400001928E-02 0.  1.
</event>
<event>
 5   0  0.5951623E-08  0.3999457E+04  0.7818609E-02  0.8004656E-01
        2   -1    0    0  501    0  0.00000000000E+00  0.00000000000E+00  0.21548073950E+04  0.21548073950E+04  0.25500000920E-02 0.  1.
       -2   -1    0    0    0  501  0.00000000000E+00  0.00000000000E+00 -0.18558101890E+04  0.18558101890E+04  0.25500000920E-02 0. -1.
    10030    2    1    2    0    0  0.00000000000E+00  0.00000000000E+00  0.29899720603E+03  0.40106175840E+04  0.39994567226E+04 0.  0.
        2    1    3    3  502    0  0.18659138906E+04 -0.51821751925E+03  0.64961820630E+03  0.20425934149E+04  0.25500000920E-02 0.  1.
       -2    1    3    3    0  502 -0.18659138906E+04  0.51821751925E+03 -0.35062100027E+03  0.19680241691E+04  0.25500000920E-02 0. -1.
</event>
<event>
 5   0  0.5846812E-08  0.3979880E+04  0.7818609E-02  0.8008618E-01
        2   -1    0    0  501    0  0.00000000000E+00  0.00000000000E+00  0.20891438842E+04  0.20891438842E+04  0.25500000920E-02 0. -1.
       -2   -1    0    0    0  501  0.00000000000E+00  0.00000000000E+00 -0.18954468988E+04  0.18954468988E+04  0.25500000920E-02 0.  1.
    10030    2    1    2    0    0  0.00000000000E+00  0.00000000000E+00  0.19369698536E+03  0.39845907830E+04  0.39798800467E+04 0.  0.
        4    1    3    3  502    0  0.16724699863E+04 -0.89513292799E+03 -0.50506263548E+03  0.19630355811E+04  0.12699999809E+01 0. -1.
       -4    1    3    3    0  502 -0.16724699863E+04  0.89513292799E+03  0.69875962083E+03  0.20215552019E+04  0.12699999809E+01 0.  1.
</event>
<event>
 5   0  0.5945387E-08  0.4024534E+04  0.7818609E-02  0.7999615E-01
       -2   -1    0    0    0  501  0.00000000000E+00  0.00000000000E+00  0.20053673403E+04  0.20053673403E+04  0.25500000920E-02 0.  1.
        2   -1    0    0  501    0  0.00000000000E+00  0.00000000000E+00 -0.20191908061E+04  0.20191908061E+04  0.25500000920E-02 0. -1.
    10030    2    1    2    0    0  0.00000000000E+00  0.00000000000E+00 -0.13823465807E+02  0.40245581464E+04  0.40245344061E+04 0.  0.
        3    1    3    3  502    0  0.81123467881E+03 -0.16757077283E+04  0.75671649531E+03  0.20096561794E+04  0.10100000352E+00 0.  1.
       -3    1    3    3    0  502 -0.81123467881E+03  0.16757077283E+04 -0.77053996112E+03  0.20149019670E+04  0.10100000352E+00 0. -1.
</event>
<event>
 5   0  0.1879500E-08  0.4002362E+04  0.7818609E-02  0.8004070E-01
        1   -1    0    0  501    0  0.00000000000E+00  0.00000000000E+00  0.21610452044E+04  0.21610452044E+04  0.50400001928E-02 0.  1.
       -1   -1    0    0    0  501  0.00000000000E+00  0.00000000000E+00 -0.18531424738E+04  0.18531424738E+04  0.50400001928E-02 0. -1.
    10030    2    1    2    0    0  0.00000000000E+00  0.00000000000E+00  0.30790273062E+03  0.40141876782E+04  0.40023616308E+04 0.  0.
        2    1    3    3  502    0  0.58678181009E+03  0.10790921085E+04  0.17384840438E+04  0.21286332332E+04  0.25500000920E-02 0.  1.
       -2    1    3    3    0  502 -0.58678181009E+03 -0.10790921085E+04 -0.14305813131E+04  0.18855544449E+04  0.25500000920E-02 0. -1.
</event>
<event>
 5   0  0.6161563E-08  0.4025337E+04  0.7818609E-02  0.7999455E-01
       -2   -1    0    0    0  501  0.00000000000E+00  0.00000000000E+00  0.17822692675E+04  0.17822692675E+04  0.25500000920E-02 0.  1.
        2   -1    0    0  501    0  0.00000000000E+00  0.00000000000E+00 -0.22728518316E+04  0.22728518316E+04  0.25500000920E-02 0. -1.
    10030    2    1    2    0    0  0.00000000000E+00  0.00000000000E+00 -0.49058256408E+03  0.40551210992E+04  0.40253367408E+04 0.  0.
        1    1    3    3  502    0 -0.19392291036E+04 -0.31327396195E+03 -0.68680791406E+03  0.20809745799E+04  0.50400001928E-02 0.  1.
       -1    1    3    3    0  502  0.19392291036E+04  0.31327396195E+03  0.19622534998E+03  0.19741465192E+04  0.50400001928E-02 0. -1.
</event>
<event>
 5   0  0.5846812E-08  0.3943933E+04  0.7818609E-02  0.8015953E-01
       -2   -1    0    0    0  501  0.00000000000E+00  0.00000000000E+00  0.15907257132E+04  0.15907257132E+04  0.25500000920E-02 0. -1.
        2   -1    0    0  501    0  0.00000000000E+00  0.00000000000E+00 -0.24445775541E+04  0.24445775541E+04  0.25500000920E-02 0.  1.
    10030    2    1    2    0    0  0.00000000000E+00  0.00000000000E+00 -0.85385184085E+03  0.40353032673E+04  0.39439332516E+04 0.  0.
        4    1    3    3  502    0 -0.13868112848E+04 -0.13693485292E+04 -0.73436992710E+03  0.20827053889E+04  0.12699999809E+01 0.  1.
       -4    1    3    3    0  502  0.13868112848E+04  0.13693485292E+04 -0.11948191375E+03  0.19525978784E+04  0.12699999809E+01 0. -1.
</event>
<event>
 5   0  0.1879500E-08  0.3993825E+04  0.7818609E-02  0.8005793E-01
        1   -1    0    0  501    0  0.00000000000E+00  0.00000000000E+00  0.17137198387E+04  0.17137198387E+04  0.50400001928E-02 0.  1.
       -1   -1    0    0    0  501  0.00000000000E+00  0.00000000000E+00 -0.23269028170E+04  0.23269028170E+04  0.50400001928E-02 0. -1.
    10030    2    1    2    0    0  0.00000000000E+00  0.00000000000E+00 -0.61318297835E+03  0.40406226557E+04  0.39938249937E+04 0.  0.
        1    1    3    3  502    0 -0.81270714769E+03 -0.17839447988E+04  0.78270380355E+02  0.19619067780E+04  0.50400001928E-02 0.  1.
       -1    1    3    3    0  502  0.81270714769E+03  0.17839447988E+04 -0.69145335870E+03  0.20787158777E+04  0.50400001928E-02 0. -1.
</event>
<event>
 5   0  0.1879500E-08  0.4008966E+04  0.7818609E-02  0.8002740E-01
       -1   -1    0    0    0  501  0.00000000000E+00  0.00000000000E+00  0.20561293279E+04  0.20561293279E+04  0.50400001928E-02 0.  1.
        1   -1    0    0  501    0  0.00000000000E+00  0.00000000000E+00 -0.19541339026E+04  0.19541339026E+04  0.50400001928E-02 0. -1.
    10030    2    1    2    0    0  0.00000000000E+00  0.00000000000E+00  0.10199542527E+03  0.40102632305E+04  0.40089659654E+04 0.  0.
        2    1    3    3  502    0  0.75435598386E+03 -0.37421981375E+02 -0.18063472183E+04  0.19578926498E+04  0.25500000920E-02 0. -1.
       -2    1    3    3    0  502 -0.75435598386E+03  0.37421981375E+02  0.19083426436E+04  0.20523705807E+04  0.25500000920E-02 0.  1.
</event>
<event>
 5   0  0.1879500E-08  0.4025429E+04  0.7818609E-02  0.7999436E-01
        1   -1    0    0  501    0  0.00000000000E+00  0.00000000000E+00  0.15031177489E+04  0.15031177489E+04  0.50400001928E-02 0.  1.
       -1   -1    0    0    0  501  0.00000000000E+00  0.00000000000E+00 -0.26950776683E+04  0.26950776683E+04  0.50400001928E-02 0. -1.
    10030    2    1    2    0    0  0.00000000000E+00  0.00000000000E+00 -0.11919599194E+04  0.41981954172E+04  0.40254287116E+04 0.  0.
        5    1    3    3  502    0 -0.18499037339E+04 -0.79300260806E+03 -0.59580941874E+03  0.20990492883E+04  0.46999998093E+01 0.  1.
       -5    1    3    3    0  502  0.18499037339E+04  0.79300260806E+03 -0.59615050062E+03  0.20991461289E+04  0.46999998093E+01 0. -1.
</event>
<event>
 5   0  0.1879500E-08  0.4012326E+04  0.7818609E-02  0.8002065E-01
        1   -1    0    0  501    0  0.00000000000E+00  0.00000000000E+00  0.14284851899E+04  0.14284851899E+04  0.50400001928E-02 0.  1.
       -1   -1    0    0    0  501  0.00000000000E+00  0.00000000000E+00 -0.28174527821E+04  0.28174527821E+04  0.50400001928E-02 0. -1.
    10030    2    1    2    0    0  0.00000000000E+00  0.00000000000E+00 -0.13889675922E+04  0.42459379720E+04  0.40123257956E+04 0.  0.
        3    1    3    3  502    0 -0.11234080029E+04  0.13965144856E+04 -0.16482898855E+04  0.24349862025E+04  0.10100000352E+00 0. -1.
       -3    1    3    3    0  502  0.11234080029E+04 -0.13965144856E+04  0.25932229339E+03  0.18109517695E+04  0.10100000352E+00 0.  1.
</event>
<event>
 5   0  0.5846812E-08  0.4022594E+04  0.7818609E-02  0.8000004E-01
       -2   -1    0    0    0  501  0.00000000000E+00  0.00000000000E+00  0.15944344608E+04  0.15944344608E+04  0.25500000920E-02 0. -1.
        2   -1    0    0  501    0  0.00000000000E+00  0.00000000000E+00 -0.25371470594E+04  0.25371470594E+04  0.25500000920E-02 0.  1.
    10030    2    1    2    0    0  0.00000000000E+00  0.00000000000E+00 -0.94271259859E+03  0.41315815202E+04  0.40225935433E+04 0.  0.
        4    1    3    3  502    0 -0.13786927300E+04 -0.14099159480E+04 -0.87787856517E+03  0.21585478943E+04  0.12699999809E+01 0.  1.
       -4    1    3    3    0  502  0.13786927300E+04  0.14099159480E+04 -0.64834033420E+02  0.19730336259E+04  0.12699999809E+01 0. -1.
</event>
<event>
 5   0  0.1879500E-08  0.4266491E+04  0.7818609E-02  0.7952843E-01
       -1   -1    0    0    0  501  0.00000000000E+00  0.00000000000E+00  0.19495439140E+04  0.19495439140E+04  0.50400001928E-02 0.  1.
        1   -1    0    0  501    0  0.00000000000E+00  0.00000000000E+00 -0.23342565910E+04  0.23342565910E+04  0.50400001928E-02 0. -1.
    10030    2    1    2    0    0  0.00000000000E+00  0.00000000000E+00 -0.38471267700E+03  0.42838005050E+04  0.42664907035E+04 0.  0.
        1    1    3    3  502    0  0.11431860938E+04 -0.73947553935E+03  0.14565724614E+04  0.19938159026E+04  0.50400001928E-02 0.  1.
       -1    1    3    3    0  502 -0.11431860938E+04  0.73947553935E+03 -0.18412851384E+04  0.22899846024E+04  0.50400001928E-02 0. -1.
</event>
<event>
 5   0  0.5888700E-08  0.3980957E+04  0.7818609E-02  0.8008399E-01
       -2   -1    0    0    0  501  0.00000000000E+00  0.00000000000E+00  0.18589498002E+04  0.18589498002E+04  0.25500000920E-02 0. -1.
        2   -1    0    0  501    0  0.00000000000E+00  0.00000000000E+00 -0.21313132464E+04  0.21313132464E+04  0.25500000920E-02 0.  1.
    10030    2    1    2    0    0  0.00000000000E+00  0.00000000000E+00 -0.27236344620E+03  0.39902630466E+04  0.39809568366E+04 0.  0.
        5    1    3    3  502    0 -0.86501345246E+03  0.10840791303E+04 -0.15672821068E+04  0.20928141642E+04  0.46999998093E+01 0.  1.
       -5    1    3    3    0  502  0.86501345246E+03 -0.10840791303E+04  0.12949186606E+04  0.18974488824E+04  0.46999998093E+01 0. -1.
</event>
<event>
 5   0  0.5888700E-08  0.3989648E+04  0.7818609E-02  0.8006638E-01
       -2   -1    0    0    0  501  0.00000000000E+00  0.00000000000E+00  0.18172573199E+04  0.18172573199E+04  0.25500000920E-02 0.  1.
        2   -1    0    0  501    0  0.00000000000E+00  0.00000000000E+00 -0.21897409005E+04  0.21897409005E+04  0.25500000920E-02 0. -1.
    10030    2    1    2    0    0  0.00000000000E+00  0.00000000000E+00 -0.37248358057E+03  0.40069982204E+04  0.39896479444E+04 0.  0.
        5    1    3    3  502    0  0.18755401741E+04  0.24507433793E+03  0.45022398433E+03  0.19443343595E+04  0.46999998093E+01 0. -1.
       -5    1    3    3    0  502 -0.18755401741E+04 -0.24507433793E+03 -0.82270756490E+03  0.20626638609E+04  0.46999998093E+01 0.  1.
</event>
<event>
 5   0  0.5888700E-08  0.3990083E+04  0.7818609E-02  0.8006550E-01
        2   -1    0    0  501    0  0.00000000000E+00  0.00000000000E+00  0.27711555437E+04  0.27711555437E+04  0.25500000920E-02 0.  1.
       -2   -1    0    0    0  501  0.00000000000E+00  0.00000000000E+00 -0.14362928916E+04  0.14362928916E+04  0.25500000920E-02 0. -1.
    10030    2    1    2    0    0  0.00000000000E+00  0.00000000000E+00  0.13348626521E+04  0.42074484353E+04  0.39900832116E+04 0.  0.
        5    1    3    3  502    0 -0.52763885545E+03  0.89629167214E+03  0.24626529149E+04  0.26732794452E+04  0.46999998093E+01 0.  1.
       -5    1    3    3    0  502  0.52763885545E+03 -0.89629167214E+03 -0.11277902627E+04  0.15341689900E+04  0.46999998093E+01 0. -1.
</event>
<event>
 5   0  0.5951623E-08  0.4000896E+04  0.7818609E-02  0.8004366E-01
       -2   -1    0    0    0  501  0.00000000000E+00  0.00000000000E+00  0.28221887354E+04  0.28221887354E+04  0.25500000920E-02 0. -1.
        2   -1    0    0  501    0  0.00000000000E+00  0.00000000000E+00 -0.14179749882E+04  0.14179749883E+04  0.25500000920E-02 0.  1.
    10030    2    1    2    0    0  0.00000000000E+00  0.00000000000E+00  0.14042137471E+04  0.42401637236E+04  0.40008964190E+04 0.  0.
        2    1    3    3  502    0  0.10293038819E+04  0.29401703750E+01 -0.11157936560E+04  0.15180482893E+04  0.25500000920E-02 0.  1.
       -2    1    3    3    0  502 -0.10293038819E+04 -0.29401703750E+01  0.25200074031E+04  0.27221154343E+04  0.25500000920E-02 0. -1.
</event>
<event>
 5   0  0.1879500E-08  0.3994322E+04  0.7818609E-02  0.8005693E-01
        1   -1    0    0  501    0  0.00000000000E+00  0.00000000000E+00  0.12981384096E+04  0.12981384096E+04  0.50400001928E-02 0. -1.
       -1   -1    0    0    0  501  0.00000000000E+00  0.00000000000E+00 -0.30725932339E+04  0.30725932339E+04  0.50400001928E-02 0.  1.
    10030    2    1    2    0    0  0.00000000000E+00  0.00000000000E+00 -0.17744548243E+04  0.43707316435E+04  0.39943216164E+04 0.  0.
        4    1    3    3  502    0 -0.11145961535E+04 -0.15002404820E+04 -0.11689471143E+03  0.18726217119E+04  0.12699999809E+01 0. -1.
       -4    1    3    3    0  502  0.11145961535E+04  0.15002404820E+04 -0.16575601129E+04  0.24981099316E+04  0.12699999809E+01 0.  1.
</event>
<event>
 5   0  0.6161563E-08  0.4003067E+04  0.7818609E-02  0.8003928E-01
        2   -1    0    0  501    0  0.00000000000E+00  0.00000000000E+00  0.19237995525E+04  0.19237995525E+04  0.25500000920E-02 0. -1.
       -2   -1    0    0    0  501  0.00000000000E+00  0.00000000000E+00 -0.20824085528E+04  0.20824085528E+04  0.25500000920E-02 0.  1.
    10030    2    1    2    0    0  0.00000000000E+00  0.00000000000E+00 -0.15860900025E+03  0.40062081053E+04  0.40030671451E+04 0.  0.
        1    1    3    3  502    0 -0.11561084599E+04 -0.16109529357E+04 -0.35224639752E+03  0.20139100418E+04  0.50400001928E-02 0.  1.
       -1    1    3    3    0  502  0.11561084599E+04  0.16109529357E+04  0.19363739727E+03  0.19922980635E+04  0.50400001928E-02 0. -1.
</event>
<event>
 5   0  0.5888700E-08  0.4009296E+04  0.7818609E-02  0.8002674E-01
       -2   -1    0    0    0  501  0.00000000000E+00  0.00000000000E+00  0.17792365316E+04  0.17792365316E+04  0.25500000920E-02 0. -1.
        2   -1    0    0  501    0  0.00000000000E+00  0.00000000000E+00 -0.22586174040E+04  0.22586174040E+04  0.25500000920E-02 0.  1.
    10030    2    1    2    0    0  0.00000000000E+00  0.00000000000E+00 -0.47938087236E+03  0.40378539356E+04  0.40092964949E+04 0.  0.
        5    1    3    3  502    0 -0.17252222599E+04 -0.15026832857E+03 -0.12566451702E+04  0.21396615598E+04  0.46999998093E+01 0.  1.
       -5    1    3    3    0  502  0.17252222599E+04  0.15026832857E+03  0.77726429785E+03  0.18981923758E+04  0.46999998093E+01 0. -1.
</event>
<event>
 5   0  0.5846812E-08  0.3993077E+04  0.7818609E-02  0.8005945E-01
        2   -1    0    0  501    0  0.00000000000E+00  0.00000000000E+00  0.25179989478E+04  0.25179989478E+04  0.25500000920E-02 0.  1.
       -2   -1    0    0    0  501  0.00000000000E+00  0.00000000000E+00 -0.15830690204E+04  0.15830690204E+04  0.25500000920E-02 0. -1.
    10030    2    1    2    0    0  0.00000000000E+00  0.00000000000E+00  0.93492992734E+03  0.41010679682E+04  0.39930770730E+04 0.  0.
        4    1    3    3  502    0  0.16010602765E+03  0.10248689124E+04  0.22195241531E+04  0.24499549601E+04  0.12699999809E+01 0.  1.
       -4    1    3    3    0  502 -0.16010602765E+03 -0.10248689124E+04 -0.12845942257E+04  0.16511130081E+04  0.12699999809E+01 0. -1.
</event>
<event>
 5   0  0.5945387E-08  0.3998520E+04  0.7818609E-02  0.8004845E-01
       -2   -1    0    0    0  501  0.00000000000E+00  0.00000000000E+00  0.14646466517E+04  0.14646466517E+04  0.25500000920E-02 0.  1.
        2   -1    0    0  501    0  0.00000000000E+00  0.00000000000E+00 -0.27290131195E+04  0.27290131195E+04  0.25500000920E-02 0. -1.
    10030    2    1    2    0    0  0.00000000000E+00  0.00000000000E+00 -0.12643664677E+04  0.41936597712E+04  0.39985196901E+04 0.  0.
        3    1    3    3  502    0 -0.15623236409E+04 -0.11045707555E+04 -0.12402251399E+04  0.22801513373E+04  0.10100000352E+00 0. -1.
       -3    1    3    3    0  502  0.15623236409E+04  0.11045707555E+04 -0.24141327791E+02  0.19135084339E+04  0.10100000352E+00 0.  1.
</event>
<event>
 5   0  0.5888700E-08  0.4011148E+04  0.7818609E-02  0.8002301E-01
       -2   -1    0    0    0  501  0.00000000000E+00  0.00000000000E+00  0.20036083642E+04  0.20036083642E+04  0.25500000920E-02 0. -1.
        2   -1    0    0  501    0  0.00000000000E+00  0.00000000000E+00 -0.20075414980E+04  0.20075414980E+04  0.25500000920E-02 0.  1.
    10030    2    1    2    0    0  0.00000000000E+00  0.00000000000E+00 -0.39331338019E+01  0.40111498622E+04  0.40111479339E+04 0.  0.
        5    1    3    3  502    0  0.15560142298E+04  0.36535948610E+03  0.12094947080E+04  0.20043870325E+04  0.46999998093E+01 0. -1.
       -5    1    3    3    0  502 -0.15560142298E+04 -0.36535948610E+03 -0.12134278418E+04  0.20067628297E+04  0.46999998093E+01 0.  1.
</event>
<event>
 5   0  0.1879500E-08  0.4009563E+04  0.7818609E-02  0.8002620E-01
        1   -1    0    0  501    0  0.00000000000E+00  0.00000000000E+00  0.18469561334E+04  0.18469561334E+04  0.50400001928E-02 0.  1.
       -1   -1    0    0    0  501  0.00000000000E+00  0.00000000000E+00 -0.21760928928E+04  0.21760928928E+04  0.50400001928E-02 0. -1.
    10030    2    1    2    0    0  0.00000000000E+00  0.00000000000E+00 -0.32913675933E+03  0.40230490262E+04  0.40095626271E+04 0.  0.
        4    1    3    3  502    0 -0.14025063235E+04  0.10706317032E+04  0.79040513570E+03  0.19333954905E+04  0.12699999809E+01 0.  1.
       -4    1    3    3    0  502  0.14025063235E+04 -0.10706317032E+04 -0.11195418950E+04  0.20896535356E+04  0.12699999809E+01 0. -1.
</event>
<event>
 5   0  0.1879500E-08  0.3997325E+04  0.7818609E-02  0.8005086E-01
        1   -1    0    0  501    0  0.00000000000E+00  0.00000000000E+00  0.36690596337E+04  0.36690596337E+04  0.50400001928E-02 0.  1.
       -1   -1    0    0    0  501  0.00000000000E+00  0.00000000000E+00 -0.10887401255E+04  0.10887401255E+04  0.50400001928E-02 0. -1.
    10030    2    1    2    0    0  0.00000000000E+00  0.00000000000E+00  0.25803195082E+04  0.47577997592E+04  0.39973253288E+04 0.  0.
        3    1    3    3  502    0 -0.18992176330E+04  0.62205071670E+03  0.12591739249E+04  0.23620951918E+04  0.10100000352E+00 0.  1.
       -3    1    3    3    0  502  0.18992176330E+04 -0.62205071670E+03  0.13211455832E+04  0.23957045673E+04  0.10100000352E+00 0. -1.
</event>
<event>
 5   0  0.1879500E-08  0.4047043E+04  0.7818609E-02  0.7995123E-01
        3   -1    0    0  501    0  0.00000000000E+00  0.00000000000E+00  0.26744641923E+04  0.26744641942E+04  0.10100000352E+00 0. -1.
       -3   -1    0    0    0  501  0.00000000000E+00  0.00000000000E+00 -0.15310131813E+04  0.15310131846E+04  0.10100000352E+00 0.  1.
    10030    2    1    2    0    0  0.00000000000E+00  0.00000000000E+00  0.11434510110E+04  0.42054773788E+04  0.40470433367E+04 0.  0.
        4    1    3    3  502    0 -0.35555217572E+03 -0.12695433326E+04 -0.10234533726E+04  0.16690164894E+04  0.12699999809E+01 0.  1.
       -4    1    3    3    0  502  0.35555217572E+03  0.12695433326E+04  0.21669043836E+04  0.25364608894E+04  0.12699999809E+01 0. -1.
</event>
<event>
 5   0  0.6161563E-08  0.3998359E+04  0.7818609E-02  0.8004878E-01
        2   -1    0    0  501    0  0.00000000000E+00  0.00000000000E+00  0.15267257315E+04  0.15267257315E+04  0.25500000920E-02 0.  1.
       -2   -1    0    0    0  501  0.00000000000E+00  0.00000000000E+00 -0.26178366742E+04  0.26178366742E+04  0.25500000920E-02 0. -1.
    10030    2    1    2    0    0  0.00000000000E+00  0.00000000000E+00 -0.10911109427E+04  0.41445624056E+04  0.39983589690E+04 0.  0.
        1    1    3    3  502    0  0.26866072151E+02  0.56757989031E+03  0.14412603292E+04  0.15492256305E+04  0.50400001928E-02 0.  1.
       -1    1    3    3    0  502 -0.26866072151E+02 -0.56757989031E+03 -0.25323712719E+04  0.25953367751E+04  0.50400001928E-02 0. -1.
</event>
<event>
 5   0  0.5888700E-08  0.4027766E+04  0.7818609E-02  0.7998969E-01
       -2   -1    0    0    0  501  0.00000000000E+00  0.00000000000E+00  0.17473184546E+04  0.17473184547E+04  0.25500000920E-02 0. -1.
        2   -1    0    0  501    0  0.00000000000E+00  0.00000000000E+00 -0.23211140259E+04  0.23211140259E+04  0.25500000920E-02 0.  1.
    10030    2    1    2    0    0  0.00000000000E+00  0.00000000000E+00 -0.57379557127E+03  0.40684324806E+04  0.40277663154E+04 0.  0.
        5    1    3    3  502    0 -0.96168775304E+03  0.67571917465E+03 -0.19387262646E+04  0.22671835736E+04  0.46999998093E+01 0.  1.
       -5    1    3    3    0  502  0.96168775304E+03 -0.67571917465E+03  0.13649306933E+04  0.18012489070E+04  0.46999998093E+01 0. -1.
</event>
<event>
 5   0  0.1879500E-08  0.4000658E+04  0.7818609E-02  0.8004414E-01
        3   -1    0    0  501    0  0.00000000000E+00  0.00000000000E+00  0.19977134861E+04  0.19977134887E+04  0.10100000352E+00 0.  1.
       -3   -1    0    0    0  501  0.00000000000E+00  0.00000000000E+00 -0.20029483021E+04  0.20029483046E+04  0.10100000352E+00 0. -1.
    10030    2    1    2    0    0  0.00000000000E+00  0.00000000000E+00 -0.52348160017E+01  0.40006617933E+04  0.40006583685E+04 0.  0.
        4    1    3    3  502    0 -0.15764762657E+04  0.88106221648E+03 -0.86271534047E+03  0.20014563241E+04  0.12699999809E+01 0. -1.
       -4    1    3    3    0  502  0.15764762657E+04 -0.88106221648E+03  0.85748052447E+03  0.19992054692E+04  0.12699999809E+01 0.  1.
</event>
<event>
 5   0  0.1879500E-08  0.3787150E+04  0.7818609E-02  0.8048918E-01
        1   -1    0    0  501    0  0.00000000000E+00  0.00000000000E+00  0.19612045396E+04  0.19612045396E+04  0.50400001928E-02 0. -1.
       -1   -1    0    0    0  501  0.00000000000E+00  0.00000000000E+00 -0.18282780485E+04  0.18282780486E+04  0.50400001928E-02 0.  1.
    10030    2    1    2    0    0  0.00000000000E+00  0.00000000000E+00  0.13292649103E+03  0.37894825881E+04  0.37871504900E+04 0.  0.
        1    1    3    3  502    0  0.15985417726E+04  0.93597351560E+03 -0.32651895748E+03  0.18809563659E+04  0.50400001928E-02 0.  1.
       -1    1    3    3    0  502 -0.15985417726E+04 -0.93597351560E+03  0.45944544851E+03  0.19085262222E+04  0.50400001928E-02 0. -1.
</event>
<event>
 5   0  0.5951623E-08  0.4022204E+04  0.7818609E-02  0.8000082E-01
       -2   -1    0    0    0  501  0.00000000000E+00  0.00000000000E+00  0.18304499381E+04  0.18304499381E+04  0.25500000920E-02 0.  1.
        2   -1    0    0  501    0  0.00000000000E+00  0.00000000000E+00 -0.22095825590E+04  0.22095825590E+04  0.25500000920E-02 0. -1.
    10030    2    1    2    0    0  0.00000000000E+00  0.00000000000E+00 -0.37913262090E+03  0.40400324970E+04  0.40222035047E+04 0.  0.
        2    1    3    3  502    0  0.26217863243E+03 -0.19816325923E+04  0.32603864215E+02  0.19991669210E+04  0.25500000920E-02 0.  1.
       -2    1    3    3    0  502 -0.26217863243E+03  0.19816325923E+04 -0.41173648512E+03  0.20408655760E+04  0.25500000920E-02 0. -1.
</event>
<event>
 5   0  0.1879500E-08  0.3982345E+04  0.7818609E-02  0.8008118E-01
       -1   -1    0    0    0  501  0.00000000000E+00  0.00000000000E+00  0.20050768908E+04  0.20050768908E+04  0.50400001928E-02 0.  1.
        1   -1    0    0  501    0  0.00000000000E+00  0.00000000000E+00 -0.19773649059E+04  0.19773649059E+04  0.50400001928E-02 0. -1.
    10030    2    1    2    0    0  0.00000000000E+00  0.00000000000E+00  0.27711984919E+02  0.39824417967E+04  0.39823453780E+04 0.  0.
        1    1    3    3  502    0  0.66751826098E+03  0.16986139464E+04 -0.78234084599E+03  0.19856805299E+04  0.50400001928E-02 0. -1.
       -1    1    3    3    0  502 -0.66751826098E+03 -0.16986139464E+04  0.81005283091E+03  0.19967612668E+04  0.50400001928E-02 0.  1.
</event>
<event>
 5   0  0.5846812E-08  0.4021192E+04  0.7818609E-02  0.8000285E-01
        2   -1    0    0  501    0  0.00000000000E+00  0.00000000000E+00  0.27495088452E+04  0.27495088452E+04  0.25500000920E-02 0.  1.
       -2   -1    0    0    0  501  0.00000000000E+00  0.00000000000E+00 -0.14702614126E+04  0.14702614126E+04  0.25500000920E-02 0. -1.
    10030    2    1    2    0    0  0.00000000000E+00  0.00000000000E+00  0.12792474326E+04  0.42197702578E+04  0.40211922404E+04 0.  0.
        4    1    3    3  502    0  0.61772175677E+03  0.13630301866E+04 -0.76946878723E+03  0.16827106958E+04  0.12699999809E+01 0. -1.
       -4    1    3    3    0  502 -0.61772175677E+03 -0.13630301866E+04  0.20487162198E+04  0.25370595619E+04  0.12699999809E+01 0.  1.
</event>
<event>
 5   0  0.6161563E-08  0.3855030E+04  0.7818609E-02  0.8034448E-01
        2   -1    0    0  501    0  0.00000000000E+00  0.00000000000E+00  0.24655952890E+04  0.24655952890E+04  0.25500000920E-02 0. -1.
       -2   -1    0    0    0  501  0.00000000000E+00  0.00000000000E+00 -0.15068632207E+04  0.15068632207E+04  0.25500000920E-02 0.  1.
    10030    2    1    2    0    0  0.00000000000E+00  0.00000000000E+00  0.95873206835E+03  0.39724585097E+04  0.38550304062E+04 0.  0.
        1    1    3    3  502    0  0.13854095933E+04 -0.13206153762E+04  0.71418941163E+03  0.20429026479E+04  0.50400001928E-02 0.  1.
       -1    1    3    3    0  502 -0.13854095933E+04  0.13206153762E+04  0.24454265672E+03  0.19295558618E+04  0.50400001928E-02 0. -1.
</event>
<event>
 5   0  0.5888700E-08  0.4013497E+04  0.7818609E-02  0.8001829E-01
       -2   -1    0    0    0  501  0.00000000000E+00  0.00000000000E+00  0.14034707996E+04  0.14034707996E+04  0.25500000920E-02 0. -1.
        2   -1    0    0  501    0  0.00000000000E+00  0.00000000000E+00 -0.28693427228E+04  0.28693427228E+04  0.25500000920E-02 0.  1.
    10030    2    1    2    0    0  0.00000000000E+00  0.00000000000E+00 -0.14658719232E+04  0.42728135225E+04  0.40134965931E+04 0.  0.
        5    1    3    3  502    0  0.15367531442E+04  0.31765017050E+03 -0.20645534425E+04  0.25932440811E+04  0.46999998093E+01 0.  1.
       -5    1    3    3    0  502 -0.15367531442E+04 -0.31765017050E+03  0.59868151933E+03  0.16795694414E+04  0.46999998093E+01 0. -1.
</event>
<event>
 5   0  0.1879500E-08  0.4004003E+04  0.7818609E-02  0.8003739E-01
        1   -1    0    0  501    0  0.00000000000E+00  0.00000000000E+00  0.14653173226E+04  0.14653173226E+04  0.50400001928E-02 0.  1.
       -1   -1    0    0    0  501  0.00000000000E+00  0.00000000000E+00 -0.27352508024E+04  0.27352508024E+04  0.50400001928E-02 0. -1.
    10030    2    1    2    0    0  0.00000000000E+00  0.00000000000E+00 -0.12699334798E+04  0.42005681251E+04  0.40040031881E+04 0.  0.
        1    1    3    3  502    0  0.10592277409E+04 -0.71042872517E+03 -0.22538820835E+04  0.25897213802E+04  0.50400001928E-02 0. -1.
       -1    1    3    3    0  502 -0.10592277409E+04  0.71042872517E+03  0.98394860372E+03  0.16108467449E+04  0.50400001928E-02 0.  1.
</event>
<event>
 5   0  0.5846812E-08  0.3996023E+04  0.7818609E-02  0.8005349E-01
       -2   -1    0    0    0  501  0.00000000000E+00  0.00000000000E+00  0.26151560725E+04  0.26151560725E+04  0.25500000920E-02 0. -1.
        2   -1    0    0  501    0  0.00000000000E+00  0.00000000000E+00 -0.15265056147E+04  0.15265056147E+04  0.25500000920E-02 0.  1.
    10030    2    1    2    0    0  0.00000000000E+00  0.00000000000E+00  0.10886504578E+04  0.41416616872E+04  0.39960232372E+04 0.  0.
        4    1    3    3  502    0 -0.28812994560E+03  0.16951582067E+04  0.15989915630E+04  0.23480536286E+04  0.12699999809E+01 0. -1.
       -4    1    3    3    0  502  0.28812994560E+03 -0.16951582067E+04 -0.51034110523E+03  0.17936080586E+04  0.12699999809E+01 0.  1.
</event>
<event>
 5   0  0.1879500E-08  0.4019274E+04  0.7818609E-02  0.8000670E-01
       -1   -1    0    0    0  501  0.00000000000E+00  0.00000000000E+00  0.12053832101E+04  0.12053832101E+04  0.50400001928E-02 0.  1.
        1   -1    0    0  501    0  0.00000000000E+00  0.00000000000E+00 -0.33505033501E+04  0.33505033501E+04  0.50400001928E-02 0. -1.
    10030    2    1    2    0    0  0.00000000000E+00  0.00000000000E+00 -0.21451201400E+04  0.45558865602E+04  0.40192738068E+04 0.  0.
        4    1    3    3  502    0 -0.52342275295E+03  0.16021329543E+04 -0.23131385964E+04  0.28620644927E+04  0.12699999809E+01 0. -1.
       -4    1    3    3    0  502  0.52342275295E+03 -0.16021329543E+04  0.16801845643E+03  0.16938220674E+04  0.12699999809E+01 0.  1.
</event>
<event>
 5   0  0.5846812E-08  0.3986084E+04  0.7818609E-02  0.8007360E-01
       -2   -1    0    0    0  501  0.00000000000E+00  0.00000000000E+00  0.14665799040E+04  0.14665799040E+04  0.25500000920E-02 0.  1.
        2   -1    0    0  501    0  0.00000000000E+00  0.00000000000E+00 -0.27084901313E+04  0.27084901313E+04  0.25500000920E-02 0. -1.
    10030    2    1    2    0    0  0.00000000000E+00  0.00000000000E+00 -0.12419102273E+04  0.41750700353E+04  0.39860843929E+04 0.  0.
        4    1    3    3  502    0  0.46567066870E+03 -0.18992167069E+04 -0.10243680290E+04  0.22075336335E+04  0.12699999809E+01 0.  1.
       -4    1    3    3    0  502 -0.46567066870E+03  0.18992167069E+04 -0.21754219829E+03  0.19675364018E+04  0.12699999809E+01 0. -1.
</event>
<event>
 5   0  0.1879500E-08  0.3993655E+04  0.7818609E-02  0.8005828E-01
        1   -1    0    0  501    0  0.00000000000E+00  0.00000000000E+00  0.25133629516E+04  0.25133629516E+04  0.50400001928E-02 0. -1.
       -1   -1    0    0    0  501  0.00000000000E+00  0.00000000000E+00 -0.15864479577E+04  0.15864479577E+04  0.50400001928E-02 0.  1.
    10030    2    1    2    0    0  0.00000000000E+00  0.00000000000E+00  0.92691499385E+03  0.40998109093E+04  0.39936547280E+04 0.  0.
        2    1    3    3  502    0 -0.67019675088E+03  0.16438083374E+03 -0.14601526614E+04  0.16150017146E+04  0.25500000920E-02 0.  1.
       -2    1    3    3    0  502  0.67019675088E+03 -0.16438083374E+03  0.23870676553E+04  0.24848091947E+04  0.25500000920E-02 0. -1.
</event>
<event>
 5   0  0.6161563E-08  0.4007484E+04  0.7818609E-02  0.8003039E-01
        2   -1    0    0  501    0  0.00000000000E+00  0.00000000000E+00  0.18095538453E+04  0.18095538453E+04  0.25500000920E-02 0.  1.
       -2   -1    0    0    0  501  0.00000000000E+00  0.00000000000E+00 -0.22187688930E+04  0.22187688930E+04  0.25500000920E-02 0. -1.
    10030    2    1    2    0    0  0.00000000000E+00  0.00000000000E+00 -0.40921504771E+03  0.40283227382E+04  0.40074838899E+04 0.  0.
        1    1    3    3  502    0  0.65571777791E+03  0.16690462578E+04  0.69407755934E+03  0.19228689174E+04  0.50400001928E-02 0.  1.
       -1    1    3    3    0  502 -0.65571777791E+03 -0.16690462578E+04 -0.11032926071E+04  0.21054538209E+04  0.50400001928E-02 0. -1.
</event>
<event>
 5   0  0.1879500E-08  0.3991402E+04  0.7818609E-02  0.8006283E-01
       -1   -1    0    0    0  501  0.00000000000E+00  0.00000000000E+00  0.19312523780E+04  0.19312523780E+04  0.50400001928E-02 0.  1.
        1   -1    0    0  501    0  0.00000000000E+00  0.00000000000E+00 -0.20623005545E+04  0.20623005545E+04  0.50400001928E-02 0. -1.
    10030    2    1    2    0    0  0.00000000000E+00  0.00000000000E+00 -0.13104817647E+03  0.39935529325E+04  0.39914021847E+04 0.  0.
        3    1    3    3  502    0  0.45425794683E+03 -0.41714138437E+03  0.18335148823E+04  0.19344596275E+04  0.10100000352E+00 0.  1.
       -3    1    3    3    0  502 -0.45425794683E+03  0.41714138437E+03 -0.19645630587E+04  0.20590933050E+04  0.10100000352E+00 0. -1.
</event>
<event>
 5   0  0.1879500E-08  0.4008758E+04  0.7818609E-02  0.8002782E-01
       -1   -1    0    0    0  501  0.00000000000E+00  0.00000000000E+00  0.14290157761E+04  0.14290157761E+04  0.50400001928E-02 0. -1.
        1   -1    0    0  501    0  0.00000000000E+00  0.00000000000E+00 -0.28114001682E+04  0.28114001682E+04  0.50400001928E-02 0.  1.
    10030    2    1    2    0    0  0.00000000000E+00  0.00000000000E+00 -0.13823843921E+04  0.42404159443E+04  0.40087580088E+04 0.  0.
        1    1    3    3  502    0  0.18689992850E+04  0.52256520811E+03 -0.12214621210E+04  0.22930770674E+04  0.50400001928E-02 0.  1.
       -1    1    3    3    0  502 -0.18689992850E+04 -0.52256520811E+03 -0.16092227110E+03  0.19473388769E+04  0.50400001928E-02 0. -1.
</event>
<event>
 5   0  0.1879500E-08  0.3992773E+04  0.7818609E-02  0.8006006E-01
       -1   -1    0    0    0  501  0.00000000000E+00  0.00000000000E+00  0.16526718366E+04  0.16526718366E+04  0.50400001928E-02 0. -1.
        1   -1    0    0  501    0  0.00000000000E+00  0.00000000000E+00 -0.24115849654E+04  0.24115849654E+04  0.50400001928E-02 0.  1.
    10030    2    1    2    0    0  0.00000000000E+00  0.00000000000E+00 -0.75891312879E+03  0.40642568020E+04  0.39927727478E+04 0.  0.
        3    1    3    3  502    0  0.22109745231E+03  0.28763356402E+03  0.16188361346E+04  0.16589899311E+04  0.10100000352E+00 0. -1.
       -3    1    3    3    0  502 -0.22109745231E+03 -0.28763356402E+03 -0.23777492634E+04  0.24052668709E+04  0.10100000352E+00 0.  1.
</event>
<event>
 5   0  0.5945387E-08  0.4048679E+04  0.7818609E-02  0.7994798E-01
       -2   -1    0    0    0  501  0.00000000000E+00  0.00000000000E+00  0.17701561743E+04  0.17701561743E+04  0.25500000920E-02 0.  1.
        2   -1    0    0  501    0  0.00000000000E+00  0.00000000000E+00 -0.23150216617E+04  0.23150216617E+04  0.25500000920E-02 0. -1.
    10030    2    1    2    0    0  0.00000000000E+00  0.00000000000E+00 -0.54486548742E+03  0.40851778360E+04  0.40486787416E+04 0.  0.
        3    1    3    3  502    0 -0.53015648843E+03  0.16617958114E+03 -0.22365858100E+04  0.23045601861E+04  0.10100000352E+00 0. -1.
       -3    1    3    3    0  502  0.53015648843E+03 -0.16617958114E+03  0.16917203226E+04  0.17806176500E+04  0.10100000352E+00 0.  1.
</event>
<event>
 5   0  0.5951623E-08  0.4040130E+04  0.7818609E-02  0.7996500E-01
       -2   -1    0    0    0  501  0.00000000000E+00  0.00000000000E+00  0.27417582184E+04  0.27417582184E+04  0.25500000920E-02 0. -1.
        2   -1    0    0  501    0  0.00000000000E+00  0.00000000000E+00 -0.14883376649E+04  0.14883376649E+04  0.25500000920E-02 0.  1.
    10030    2    1    2    0    0  0.00000000000E+00  0.00000000000E+00  0.12534205534E+04  0.42300958833E+04  0.40401297130E+04 0.  0.
        2    1    3    3  502    0  0.26705166059E+03 -0.44583045182E+02 -0.14692544149E+04  0.14939922265E+04  0.25500000920E-02 0.  1.
       -2    1    3    3    0  502 -0.26705166059E+03  0.44583045182E+02  0.27226749683E+04  0.27361036568E+04  0.25500000920E-02 0. -1.
</event>
<event>
 5   0  0.1879500E-08  0.4010194E+04  0.7818609E-02  0.8002493E-01
        1   -1    0    0  501    0  0.00000000000E+00  0.00000000000E+00  0.23834949190E+04  0.23834949190E+04  0.50400001928E-02 0.  1.
       -1   -1    0    0    0  501  0.00000000000E+00  0.00000000000E+00 -0.16867727364E+04  0.16867727364E+04  0.50400001928E-02 0. -1.
    10030    2    1    2    0    0  0.00000000000E+00  0.00000000000E+00  0.69672218260E+03  0.40702676554E+04  0.40101941334E+04 0.  0.
        4    1    3    3  502    0  0.54923178653E+02 -0.19838987534E+04  0.63819404156E+03  0.20847455640E+04  0.12699999809E+01 0.  1.
       -4    1    3    3    0  502 -0.54923178653E+02  0.19838987534E+04  0.58528141045E+02  0.19855220914E+04  0.12699999809E+01 0. -1.
</event>
<event>
 5   0  0.5846812E-08  0.3984338E+04  0.7818609E-02  0.8007714E-01
       -2   -1    0    0    0  501  0.00000000000E+00  0.00000000000E+00  0.16250184965E+04  0.16250184965E+04  0.25500000920E-02 0.  1.
        2   -1    0    0  501    0  0.00000000000E+00  0.00000000000E+00 -0.24422718109E+04  0.24422718109E+04  0.25500000920E-02 0. -1.
    10030    2    1    2    0    0  0.00000000000E+00  0.00000000000E+00 -0.81725331441E+03  0.40672903075E+04  0.39843377700E+04 0.  0.
        4    1    3    3  502    0 -0.16397621047E+03 -0.57999317109E+02 -0.24345057310E+04  0.24407113483E+04  0.12699999809E+01 0. -1.
       -4    1    3    3    0  502  0.16397621047E+03  0.57999317109E+02  0.16172524166E+04  0.16265789592E+04  0.12699999809E+01 0.  1.
</event>
<event>
 5   0  0.5888700E-08  0.4003160E+04  0.7818609E-02  0.8003909E-01
       -2   -1    0    0    0  501  0.00000000000E+00  0.00000000000E+00  0.16669744614E+04  0.16669744614E+04  0.25500000920E-02 0. -1.
        2   -1    0    0  501    0  0.00000000000E+00  0.00000000000E+00 -0.24033497567E+04  0.24033497567E+04  0.25500000920E-02 0.  1.
    10030    2    1    2    0    0  0.00000000000E+00  0.00000000000E+00 -0.73637529535E+03  0.40703242181E+04  0.40031600848E+04 0.  0.
        5    1    3    3  502    0  0.17555935921E+04 -0.54690866401E+03 -0.11720741953E+04  0.21805957802E+04  0.46999998093E+01 0.  1.
       -5    1    3    3    0  502 -0.17555935921E+04  0.54690866401E+03  0.43569889998E+03  0.18897284378E+04  0.46999998093E+01 0. -1.
</event>
<event>
 5   0  0.1879500E-08  0.3998853E+04  0.7818609E-02  0.8004778E-01
       -1   -1    0    0    0  501  0.00000000000E+00  0.00000000000E+00  0.21872292382E+04  0.21872292382E+04  0.50400001928E-02 0.  1.
        1   -1    0    0  501    0  0.00000000000E+00  0.00000000000E+00 -0.18277489166E+04  0.18277489166E+04  0.50400001928E-02 0. -1.
    10030    2    1    2    0    0  0.00000000000E+00  0.00000000000E+00  0.35948032162E+03  0.40149781548E+04  0.39988527707E+04 0.  0.
        4    1    3    3  502    0 -0.19296291984E+04  0.23409421939E+03 -0.29058805008E+03  0.19653783286E+04  0.12699999809E+01 0.  1.
       -4    1    3    3    0  502  0.19296291984E+04 -0.23409421939E+03  0.65006837170E+03  0.20495998262E+04  0.12699999809E+01 0. -1.
</event>
<event>
 5   0  0.6161563E-08  0.3988820E+04  0.7818609E-02  0.8006806E-01
       -2   -1    0    0    0  501  0.00000000000E+00  0.00000000000E+00  0.23720930394E+04  0.23720930394E+04  0.25500000920E-02 0. -1.
        2   -1    0    0  501    0  0.00000000000E+00  0.00000000000E+00 -0.16768615214E+04  0.16768615214E+04  0.25500000920E-02 0.  1.
    10030    2    1    2    0    0  0.00000000000E+00  0.00000000000E+00  0.69523151803E+03  0.40489545608E+04  0.39888201478E+04 0.  0.
        1    1    3    3  502    0 -0.11266151445E+04  0.21643656777E+02  0.20180065230E+04  0.23112941091E+04  0.50400001928E-02 0. -1.
       -1    1    3    3    0  502  0.11266151445E+04 -0.21643656777E+02 -0.13227750050E+04  0.17376604517E+04  0.50400001928E-02 0.  1.
</event>
<event>
 5   0  0.1879500E-08  0.3972361E+04  0.7818609E-02  0.8010146E-01
       -1   -1    0    0    0  501  0.00000000000E+00  0.00000000000E+00  0.14958332883E+04  0.14958332883E+04  0.50400001928E-02 0.  1.
        1   -1    0    0  501    0  0.00000000000E+00  0.00000000000E+00 -0.26372673581E+04  0.26372673581E+04  0.50400001928E-02 0. -1.
    10030    2    1    2    0    0  0.00000000000E+00  0.00000000000E+00 -0.11414340698E+04  0.41331006464E+04  0.39723606606E+04 0.  0.
        1    1    3    3  502    0 -0.19388123794E+03 -0.39163109004E+03  0.14451941929E+04  0.15098182342E+04  0.50400001928E-02 0.  1.
       -1    1    3    3    0  502  0.19388123794E+03  0.39163109004E+03 -0.25866282627E+04  0.26232824123E+04  0.50400001928E-02 0. -1.
</event>
<event>
 5   0  0.6161563E-08  0.3959113E+04  0.7818609E-02  0.8012846E-01
       -2   -1    0    0    0  501  0.00000000000E+00  0.00000000000E+00  0.18843516377E+04  0.18843516377E+04  0.25500000920E-02 0.  1.
        2   -1    0    0  501    0  0.00000000000E+00  0.00000000000E+00 -0.20795712388E+04  0.20795712388E+04  0.25500000920E-02 0. -1.
    10030    2    1    2    0    0  0.00000000000E+00  0.00000000000E+00 -0.19521960108E+03  0.39639228765E+04  0.39591127640E+04 0.  0.
        1    1    3    3  502    0 -0.80438913855E+03  0.83686599718E+03  0.15078523023E+04  0.19028938880E+04  0.50400001928E-02 0.  1.
       -1    1    3    3    0  502  0.80438913855E+03 -0.83686599718E+03 -0.17030719033E+04  0.20610289885E+04  0.50400001928E-02 0. -1.
</event>
<event>
 5   0  0.1879500E-08  0.3971856E+04  0.7818609E-02  0.8010248E-01
       -1   -1    0    0    0  501  0.00000000000E+00  0.00000000000E+00  0.15554319794E+04  0.15554319794E+04  0.50400001928E-02 0. -1.
        1   -1    0    0  501    0  0.00000000000E+00  0.00000000000E+00 -0.25355724802E+04  0.25355724802E+04  0.50400001928E-02 0.  1.
    10030    2    1    2    0    0  0.00000000000E+00  0.00000000000E+00 -0.98014050083E+03  0.40910044595E+04  0.39718562520E+04 0.  0.
        4    1    3    3  502    0  0.85814829221E+03  0.13391168352E+04 -0.17149699420E+04  0.23389689832E+04  0.12699999809E+01 0.  1.
       -4    1    3    3    0  502 -0.85814829221E+03 -0.13391168352E+04  0.73482944117E+03  0.17520354763E+04  0.12699999809E+01 0. -1.
</event>
<event>
 5   0  0.5951623E-08  0.3996827E+04  0.7818609E-02  0.8005187E-01
        2   -1    0    0  501    0  0.00000000000E+00  0.00000000000E+00  0.17768505453E+04  0.17768505453E+04  0.25500000920E-02 0.  1.
       -2   -1    0    0    0  501  0.00000000000E+00  0.00000000000E+00 -0.22476043031E+04  0.22476043031E+04  0.25500000920E-02 0. -1.
    10030    2    1    2    0    0  0.00000000000E+00  0.00000000000E+00 -0.47075375778E+03  0.40244548484E+04  0.39968272075E+04 0.  0.
        2    1    3    3  502    0 -0.10290362445E+03  0.45319950738E+03  0.17216831802E+04  0.17833036540E+04  0.25500000920E-02 0.  1.
       -2    1    3    3    0  502  0.10290362445E+03 -0.45319950738E+03 -0.21924369380E+04  0.22411511944E+04  0.25500000920E-02 0. -1.
</event>
<event>
 5   0  0.5951623E-08  0.4023243E+04  0.7818609E-02  0.7999874E-01
       -2   -1    0    0    0  501  0.00000000000E+00  0.00000000000E+00  0.24731818319E+04  0.24731818319E+04  0.25500000920E-02 0.  1.
        2   -1    0    0  501    0  0.00000000000E+00  0.00000000000E+00 -0.16362007334E+04  0.16362007334E+04  0.25500000920E-02 0. -1.
    10030    2    1    2    0    0  0.00000000000E+00  0.00000000000E+00  0.83698109850E+03  0.41093825654E+04  0.40232434315E+04 0.  0.
        2    1    3    3  502    0  0.18461866797E+03  0.75118297795E+03 -0.14782170830E+04  0.16683781536E+04  0.25500000920E-02 0. -1.
       -2    1    3    3    0  502 -0.18461866797E+03 -0.75118297795E+03  0.23151981815E+04  0.24410044118E+04  0.25500000920E-02 0.  1.
</event>
<event>
 5   0  0.1879500E-08  0.4034522E+04  0.7818609E-02  0.7997618E-01
        1   -1    0    0  501    0  0.00000000000E+00  0.00000000000E+00  0.16153628901E+04  0.16153628901E+04  0.50400001928E-02 0.  1.
       -1   -1    0    0    0  501  0.00000000000E+00  0.00000000000E+00 -0.25191499046E+04  0.25191499046E+04  0.50400001928E-02 0. -1.
    10030    2    1    2    0    0  0.00000000000E+00  0.00000000000E+00 -0.90378701454E+03  0.41345127947E+04  0.40345216671E+04 0.  0.
        4    1    3    3  502    0  0.11517511234E+04 -0.16196934766E+04 -0.80600349671E+03  0.21446633437E+04  0.12699999809E+01 0. -1.
       -4    1    3    3    0  502 -0.11517511234E+04  0.16196934766E+04 -0.97783517829E+02  0.19898494510E+04  0.12699999809E+01 0.  1.
</event>
<event>
 5   0  0.1879500E-08  0.4008538E+04  0.7818609E-02  0.8002826E-01
        1   -1    0    0  501    0  0.00000000000E+00  0.00000000000E+00  0.24715560148E+04  0.24715560148E+04  0.50400001928E-02 0.  1.
       -1   -1    0    0    0  501  0.00000000000E+00  0.00000000000E+00 -0.16253300548E+04  0.16253300548E+04  0.50400001928E-02 0. -1.
    10030    2    1    2    0    0  0.00000000000E+00  0.00000000000E+00  0.84622595996E+03  0.40968860696E+04  0.40085380243E+04 0.  0.
        5    1    3    3  502    0  0.98577272321E+03  0.14345002158E+04  0.14387623120E+04  0.22582289103E+04  0.46999998093E+01 0.  1.
       -5    1    3    3    0  502 -0.98577272321E+03 -0.14345002158E+04 -0.59253635203E+03  0.18386571593E+04  0.46999998093E+01 0. -1.
</event>
<event>
 5   0  0.1879500E-08  0.4021183E+04  0.7818609E-02  0.8000287E-01
        1   -1    0    0  501    0  0.00000000000E+00  0.00000000000E+00  0.17652975454E+04  0.17652975454E+04  0.50400001928E-02 0.  1.
       -1   -1    0    0    0  501  0.00000000000E+00  0.00000000000E+00 -0.22899700632E+04  0.22899700632E+04  0.50400001928E-02 0. -1.
    10030    2    1    2    0    0  0.00000000000E+00  0.00000000000E+00 -0.52467251773E+03  0.40552676086E+04  0.40211831749E+04 0.  0.
        2    1    3    3  502    0 -0.40292800100E+02  0.74938357703E+03  0.16187569136E+04  0.17842570445E+04  0.25500000920E-02 0.  1.
       -2    1    3    3    0  502  0.40292800100E+02 -0.74938357703E+03 -0.21434294314E+04  0.22710105641E+04  0.25500000920E-02 0. -1.
</event>
<event>
 5   0  0.5945387E-08  0.4022932E+04  0.7818609E-02  0.7999936E-01
        2   -1    0    0  501    0  0.00000000000E+00  0.00000000000E+00  0.22334590601E+04  0.22334590601E+04  0.25500000920E-02 0.  1.
       -2   -1    0    0    0  501  0.00000000000E+00  0.00000000000E+00 -0.18115373728E+04  0.18115373728E+04  0.25500000920E-02 0. -1.
    10030    2    1    2    0    0  0.00000000000E+00  0.00000000000E+00  0.42192168721E+03  0.40449964329E+04  0.40229315470E+04 0.  0.
        3    1    3    3  502    0  0.84262416037E+03 -0.14357610444E+03  0.20417619772E+04  0.22134637009E+04  0.10100000352E+00 0.  1.
       -3    1    3    3    0  502 -0.84262416037E+03  0.14357610444E+03 -0.16198402900E+04  0.18315327321E+04  0.10100000352E+00 0. -1.
</event>
<event>
 5   0  0.1879500E-08  0.4006656E+04  0.7818609E-02  0.8003205E-01
        1   -1    0    0  501    0  0.00000000000E+00  0.00000000000E+00  0.21738384733E+04  0.21738384733E+04  0.50400001928E-02 0. -1.
       -1   -1    0    0    0  501  0.00000000000E+00  0.00000000000E+00 -0.18461923098E+04  0.18461923098E+04  0.50400001928E-02 0.  1.
    10030    2    1    2    0    0  0.00000000000E+00  0.00000000000E+00  0.32764616353E+03  0.40200307831E+04  0.40066563976E+04 0.  0.
        2    1    3    3  502    0  0.53365296191E+03  0.15621492553E+04 -0.97496696226E+03  0.19172001349E+04  0.25500000920E-02 0.  1.
       -2    1    3    3    0  502 -0.53365296191E+03 -0.15621492553E+04  0.13026131258E+04  0.21028306482E+04  0.25500000920E-02 0. -1.
</event>
<event>
 5   0  0.1879500E-08  0.4019972E+04  0.7818609E-02  0.8000530E-01
       -1   -1    0    0    0  501  0.00000000000E+00  0.00000000000E+00  0.22011213994E+04  0.22011213994E+04  0.50400001928E-02 0. -1.
        1   -1    0    0  501    0  0.00000000000E+00  0.00000000000E+00 -0.18354476542E+04  0.18354476542E+04  0.50400001928E-02 0.  1.
    10030    2    1    2    0    0  0.00000000000E+00  0.00000000000E+00  0.36567374521E+03  0.40365690536E+04  0.40199716960E+04 0.  0.
        1    1    3    3  502    0  0.60379601785E+03 -0.48220448084E+03 -0.16803434764E+04  0.18494985783E+04  0.50400001928E-02 0.  1.
       -1    1    3    3    0  502 -0.60379601785E+03  0.48220448084E+03  0.20460172216E+04  0.21870704752E+04  0.50400001928E-02 0. -1.
</event>
<event>
 5   0  0.6161563E-08  0.4027863E+04  0.7818609E-02  0.7998949E-01
       -2   -1    0    0    0  501  0.00000000000E+00  0.00000000000E+00  0.20679585437E+04  0.20679585437E+04  0.25500000920E-02 0. -1.
        2   -1    0    0  501    0  0.00000000000E+00  0.00000000000E+00 -0.19613158168E+04  0.19613158168E+04  0.25500000920E-02 0.  1.
    10030    2    1    2    0    0  0.00000000000E+00  0.00000000000E+00  0.10664272681E+03  0.40292743605E+04  0.40278628578E+04 0.  0.
        1    1    3    3  502    0 -0.13371935922E+04  0.11877796951E+04 -0.87275274384E+03  0.19901267947E+04  0.50400001928E-02 0.  1.
       -1    1    3    3    0  502  0.13371935922E+04 -0.11877796951E+04  0.97939547065E+03  0.20391475658E+04  0.50400001928E-02 0. -1.
</event>
<event>
 5   0  0.1879500E-08  0.3999439E+04  0.7818609E-02  0.8004660E-01
       -1   -1    0    0    0  501  0.00000000000E+00  0.00000000000E+00  0.19212644408E+04  0.19212644408E+04  0.50400001928E-02 0.  1.
        1   -1    0    0  501    0  0.00000000000E+00  0.00000000000E+00 -0.20813779165E+04  0.20813779165E+04  0.50400001928E-02 0. -1.
    10030    2    1    2    0    0  0.00000000000E+00  0.00000000000E+00 -0.16011347572E+03  0.40026423573E+04  0.39994386500E+04 0.  0.
        5    1    3    3  502    0  0.73735129938E+03 -0.45524764945E+03  0.17235849758E+04  0.19291720037E+04  0.46999998093E+01 0.  1.
       -5    1    3    3    0  502 -0.73735129938E+03  0.45524764945E+03 -0.18836984515E+04  0.20734703536E+04  0.46999998093E+01 0. -1.
</event>
<event>
 5   0  0.5951623E-08  0.3971073E+04  0.7818609E-02  0.8010408E-01
        2   -1    0    0  501    0  0.00000000000E+00  0.00000000000E+00  0.29329580288E+04  0.29329580288E+04  0.25500000920E-02 0. -1.
       -2   -1    0    0    0  501  0.00000000000E+00  0.00000000000E+00 -0.13441564250E+04  0.13441564250E+04  0.25500000920E-02 0.  1.
    10030    2    1    2    0    0  0.00000000000E+00  0.00000000000E+00  0.15888016038E+04  0.42771144538E+04  0.39710725899E+04 0.  0.
        2    1    3    3  502    0 -0.15149128704E+04 -0.68588297410E+03 -0.37408519940E+03  0.17045046774E+04  0.25500000920E-02 0.  1.
       -2    1    3    3    0  502  0.15149128704E+04  0.68588297410E+03  0.19628868032E+04  0.25726097763E+04  0.25500000920E-02 0. -1.
</event>
<event>
 5   0  0.5951623E-08  0.3997687E+04  0.7818609E-02  0.8005013E-01
        2   -1    0    0  501    0  0.00000000000E+00  0.00000000000E+00  0.19345948492E+04  0.19345948492E+04  0.25500000920E-02 0. -1.
       -2   -1    0    0    0  501  0.00000000000E+00  0.00000000000E+00 -0.20652256993E+04  0.20652256993E+04  0.25500000920E-02 0.  1.
    10030    2    1    2    0    0  0.00000000000E+00  0.00000000000E+00 -0.13063085008E+03  0.39998205485E+04  0.39976868313E+04 0.  0.
        2    1    3    3  502    0  0.14543862341E+04  0.11674830918E+04  0.65417819705E+03  0.19764122042E+04  0.25500000920E-02 0. -1.
       -2    1    3    3    0  502 -0.14543862341E+04 -0.11674830918E+04 -0.78480904713E+03  0.20234083443E+04  0.25500000920E-02 0.  1.
</event>
<event>
 5   0  0.1879500E-08  0.4000157E+04  0.7818609E-02  0.8004515E-01
       -1   -1    0    0    0  501  0.00000000000E+00  0.00000000000E+00  0.24490277583E+04  0.24490277583E+04  0.50400001928E-02 0. -1.
        1   -1    0    0  501    0  0.00000000000E+00  0.00000000000E+00 -0.16334293015E+04  0.16334293015E+04  0.50400001928E-02 0.  1.
    10030    2    1    2    0    0  0.00000000000E+00  0.00000000000E+00  0.81559845673E+03  0.40824570598E+04  0.40001568472E+04 0.  0.
        3    1    3    3  502    0  0.47661724459E+03 -0.12265521226E+04 -0.11294171919E+04  0.17341214810E+04  0.10100000352E+00 0.  1.
       -3    1    3    3    0  502 -0.47661724459E+03  0.12265521226E+04  0.19450156486E+04  0.23483355788E+04  0.10100000352E+00 0. -1.
</event>
<event>
 5   0  0.5888700E-08  0.4010281E+04  0.7818609E-02  0.8002476E-01
        2   -1    0    0  501    0  0.00000000000E+00  0.00000000000E+00  0.20482259341E+04  0.20482259341E+04  0.25500000920E-02 0.  1.
       -2   -1    0    0    0  501  0.00000000000E+00  0.00000000000E+00 -0.19629617575E+04  0.19629617575E+04  0.25500000920E-02 0. -1.
    10030    2    1    2    0    0  0.00000000000E+00  0.00000000000E+00  0.85264176626E+02  0.40111876917E+04  0.40102813764E+04 0.  0.
        5    1    3    3  502    0 -0.52671181007E+03  0.10194287153E+04  0.16873597697E+04  0.20405551496E+04  0.46999998093E+01 0.  1.
       -5    1    3    3    0  502  0.52671181007E+03 -0.10194287153E+04 -0.16020955930E+04  0.19706325420E+04  0.46999998093E+01 0. -1.
</event>
<event>
 5   0  0.1879500E-08  0.4006522E+04  0.7818609E-02  0.8003232E-01
       -1   -1    0    0    0  501  0.00000000000E+00  0.00000000000E+00  0.19198706260E+04  0.19198706260E+04  0.50400001928E-02 0. -1.
        1   -1    0    0  501    0  0.00000000000E+00  0.00000000000E+00 -0.20902733736E+04  0.20902733736E+04  0.50400001928E-02 0.  1.
    10030    2    1    2    0    0  0.00000000000E+00  0.00000000000E+00 -0.17040274759E+03  0.40101439996E+04  0.40065219082E+04 0.  0.
        4    1    3    3  502    0  0.18832174598E+04 -0.68249001897E+03 -0.11265262755E+03  0.20062384839E+04  0.12699999809E+01 0. -1.
       -4    1    3    3    0  502 -0.18832174598E+04  0.68249001897E+03 -0.57750120042E+02  0.20039055157E+04  0.12699999809E+01 0.  1.
</event>
<event>
 5   0  0.5951623E-08  0.4002284E+04  0.7818609E-02  0.8004086E-01
        2   -1    0    0  501    0  0.00000000000E+00  0.00000000000E+00  0.29225557709E+04  0.29225557709E+04  0.25500000920E-02 0. -1.
       -2   -1    0    0    0  501  0.00000000000E+00  0.00000000000E+00 -0.13702283482E+04  0.13702283482E+04  0.25500000920E-02 0.  1.
    10030    2    1    2    0    0  0.00000000000E+00  0.00000000000E+00  0.15523274226E+04  0.42927841191E+04  0.40022837314E+04 0.  0.
        2    1    3    3  502    0 -0.16794987139E+04  0.15823603370E+03 -0.37845363617E+03  0.17288671803E+04  0.25500000920E-02 0.  1.
       -2    1    3    3    0  502  0.16794987139E+04 -0.15823603370E+03  0.19307810588E+04  0.25639169388E+04  0.25500000920E-02 0. -1.
</event>
<event>
 5   0  0.1879500E-08  0.4001469E+04  0.7818609E-02  0.8004250E-01
       -1   -1    0    0    0  501  0.00000000000E+00  0.00000000000E+00  0.17477811924E+04  0.17477811924E+04  0.50400001928E-02 0. -1.
        1   -1    0    0  501    0  0.00000000000E+00  0.00000000000E+00 -0.22902975478E+04  0.22902975478E+04  0.50400001928E-02 0.  1.
    10030    2    1    2    0    0  0.00000000000E+00  0.00000000000E+00 -0.54251635538E+03  0.40380787402E+04  0.40014692197E+04 0.  0.
        5    1    3    3  502    0  0.54177766446E+03  0.71026105393E+03 -0.20778669239E+04  0.22617574684E+04  0.46999998093E+01 0.  1.
       -5    1    3    3    0  502 -0.54177766446E+03 -0.71026105393E+03  0.15353505685E+04  0.17763212718E+04  0.46999998093E+01 0. -1.
</event>
<event>
 5   0  0.1879500E-08  0.4015210E+04  0.7818609E-02  0.8001485E-01
        1   -1    0    0  501    0  0.00000000000E+00  0.00000000000E+00  0.26500841110E+04  0.26500841110E+04  0.50400001928E-02 0.  1.
       -1   -1    0    0    0  501  0.00000000000E+00  0.00000000000E+00 -0.15208864698E+04  0.15208864698E+04  0.50400001928E-02 0. -1.
    10030    2    1    2    0    0  0.00000000000E+00  0.00000000000E+00  0.11291976413E+04  0.41709705808E+04  0.40152096175E+04 0.  0.
        2    1    3    3  502    0  0.19501035773E+04  0.67621374592E+02  0.10551471249E+04  0.22182903480E+04  0.25500000920E-02 0.  1.
       -2    1    3    3    0  502 -0.19501035773E+04 -0.67621374592E+02  0.74050516317E+02  0.19526802328E+04  0.25500000920E-02 0. -1.
</event>
<event>
 5   0  0.1879500E-08  0.4001693E+04  0.7818609E-02  0.8004205E-01
        1   -1    0    0  501    0  0.00000000000E+00  0.00000000000E+00  0.24115161227E+04  0.24115161227E+04  0.50400001928E-02 0.  1.
       -1   -1    0    0    0  501  0.00000000000E+00  0.00000000000E+00 -0.16601119425E+04  0.16601119425E+04  0.50400001928E-02 0. -1.
    10030    2    1    2    0    0  0.00000000000E+00  0.00000000000E+00  0.75140418027E+03  0.40716280652E+04  0.40016929991E+04 0.  0.
        5    1    3    3  502    0 -0.17303757403E+04 -0.94313129614E+03  0.23726172627E+02  0.19708581546E+04  0.46999998093E+01 0. -1.
       -5    1    3    3    0  502  0.17303757403E+04  0.94313129614E+03  0.72767800764E+03  0.21007699106E+04  0.46999998093E+01 0.  1.
</event>
<event>
 5   0  0.5951623E-08  0.4004095E+04  0.7818609E-02  0.8003721E-01
        2   -1    0    0  501    0  0.00000000000E+00  0.00000000000E+00  0.26869580014E+04  0.26869580014E+04  0.25500000920E-02 0.  1.
       -2   -1    0    0    0  501  0.00000000000E+00  0.00000000000E+00 -0.14917217096E+04  0.14917217096E+04  0.25500000920E-02 0. -1.
    10030    2    1    2    0    0  0.00000000000E+00  0.00000000000E+00  0.11952362918E+04  0.41786797111E+04  0.40040946960E+04 0.  0.
        2    1    3    3  502    0  0.16687047884E+04 -0.10549409351E+04  0.25036758920E+03  0.19900150696E+04  0.25500000920E-02 0.  1.
       -2    1    3    3    0  502 -0.16687047884E+04  0.10549409351E+04  0.94486870260E+03  0.21886646415E+04  0.25500000920E-02 0. -1.
</event>
<event>
 5   0  0.5951623E-08  0.4032593E+04  0.7818609E-02  0.7998004E-01
        2   -1    0    0  501    0  0.00000000000E+00  0.00000000000E+00  0.21714784212E+04  0.21714784212E+04  0.25500000920E-02 0.  1.
       -2   -1    0    0    0  501  0.00000000000E+00  0.00000000000E+00 -0.18722042646E+04  0.18722042646E+04  0.25500000920E-02 0. -1.
    10030    2    1    2    0    0  0.00000000000E+00  0.00000000000E+00  0.29927415658E+03  0.40436826858E+04  0.40325927941E+04 0.  0.
        2    1    3    3  502    0 -0.20031591213E+04 -0.11062446160E+03  0.35160329886E+03  0.20367889229E+04  0.25500000920E-02 0. -1.
       -2    1    3    3    0  502  0.20031591213E+04  0.11062446160E+03 -0.52329142280E+02  0.20068937629E+04  0.25500000920E-02 0.  1.
</event>
<event>
 5   0  0.1879500E-08  0.4007799E+04  0.7818609E-02  0.8002975E-01
        1   -1    0    0  501    0  0.00000000000E+00  0.00000000000E+00  0.27963009979E+04  0.27963009979E+04  0.50400001928E-02 0. -1.
       -1   -1    0    0    0  501  0.00000000000E+00  0.00000000000E+00 -0.14360446174E+04  0.14360446174E+04  0.50400001928E-02 0.  1.
    10030    2    1    2    0    0  0.00000000000E+00  0.00000000000E+00  0.13602563806E+04  0.42323456153E+04  0.40077988955E+04 0.  0.
        4    1    3    3  502    0  0.32276310676E+03  0.50505120300E+03 -0.13391660100E+04  0.14671809554E+04  0.12699999809E+01 0.  1.
       -4    1    3    3    0  502 -0.32276310676E+03 -0.50505120300E+03  0.26994223906E+04  0.27651646599E+04  0.12699999809E+01 0. -1.
</event>
<event>
 5   0  0.5846812E-08  0.4005152E+04  0.7818609E-02  0.8003508E-01
        2   -1    0    0  501    0  0.00000000000E+00  0.00000000000E+00  0.20095995428E+04  0.20095995429E+04  0.25500000920E-02 0.  1.
       -2   -1    0    0    0  501  0.00000000000E+00  0.00000000000E+00 -0.19955770452E+04  0.19955770452E+04  0.25500000920E-02 0. -1.
    10030    2    1    2    0    0  0.00000000000E+00  0.00000000000E+00  0.14022497688E+02  0.40051765880E+04  0.40051520409E+04 0.  0.
        4    1    3    3  502    0  0.13696412325E+04  0.99824210674E+03  0.10737439443E+04  0.20063230249E+04  0.12699999809E+01 0.  1.
       -4    1    3    3    0  502 -0.13696412325E+04 -0.99824210674E+03 -0.10597214466E+04  0.19988535631E+04  0.12699999809E+01 0. -1.
</event>
<event>
 5   0  0.1879500E-08  0.4014327E+04  0.7818609E-02  0.8001663E-01
        1   -1    0    0  501    0  0.00000000000E+00  0.00000000000E+00  0.23837267774E+04  0.23837267774E+04  0.50400001928E-02 0. -1.
       -1   -1    0    0    0  501  0.00000000000E+00  0.00000000000E+00 -0.16900869778E+04  0.16900869778E+04  0.50400001928E-02 0.  1.
    10030    2    1    2    0    0  0.00000000000E+00  0.00000000000E+00  0.69363979964E+03  0.40738137552E+04  0.40143271342E+04 0.  0.
        5    1    3    3  502    0  0.76837178248E+03  0.61990511655E+03 -0.14266480666E+04  0.17349421736E+04  0.46999998093E+01 0.  1.
       -5    1    3    3    0  502 -0.76837178248E+03 -0.61990511655E+03  0.21202878663E+04  0.23388715817E+04  0.46999998093E+01 0. -1.
</event>
<event>
 5   0  0.5951623E-08  0.4010789E+04  0.7818609E-02  0.8002374E-01
        2   -1    0    0  501    0  0.00000000000E+00  0.00000000000E+00  0.15832977069E+04  0.15832977069E+04  0.25500000920E-02 0.  1.
       -2   -1    0    0    0  501  0.00000000000E+00  0.00000000000E+00 -0.25400198128E+04  0.25400198128E+04  0.25500000920E-02 0. -1.
    10030    2    1    2    0    0  0.00000000000E+00  0.00000000000E+00 -0.95672210589E+03  0.41233175197E+04  0.40107892216E+04 0.  0.
        2    1    3    3  502    0  0.10194291890E+04 -0.62820421971E+03  0.11754143014E+04  0.16779377798E+04  0.25500000920E-02 0.  1.
       -2    1    3    3    0  502 -0.10194291890E+04  0.62820421971E+03 -0.21321364073E+04  0.24453797399E+04  0.25500000920E-02 0. -1.
</event>
<event>
 5   0  0.1879500E-08  0.4112632E+04  0.7818609E-02  0.7982203E-01
        1   -1    0    0  501    0  0.00000000000E+00  0.00000000000E+00  0.16986412346E+04  0.16986412346E+04  0.50400001928E-02 0.  1.
       -1   -1    0    0    0  501  0.00000000000E+00  0.00000000000E+00 -0.24893045136E+04  0.24893045136E+04  0.50400001928E-02 0. -1.
    10030    2    1    2    0    0  0.00000000000E+00  0.00000000000E+00 -0.79066327901E+03  0.41879457482E+04  0.41126319030E+04 0.  0.
        1    1    3    3  502    0  0.79700629541E+03  0.20530188200E+03 -0.23142684075E+04  0.24562585694E+04  0.50400001928E-02 0. -1.
       -1    1    3    3    0  502 -0.79700629541E+03 -0.20530188200E+03  0.15236051285E+04  0.17316871788E+04  0.50400001928E-02 0.  1.
</event>
<event>
 5   0  0.5951623E-08  0.3994306E+04  0.7818609E-02  0.8005696E-01
       -2   -1    0    0    0  501  0.00000000000E+00  0.00000000000E+00  0.17428064902E+04  0.17428064902E+04  0.25500000920E-02 0.  1.
        2   -1    0    0  501    0  0.00000000000E+00  0.00000000000E+00 -0.22886194628E+04  0.22886194628E+04  0.25500000920E-02 0. -1.
    10030    2    1    2    0    0  0.00000000000E+00  0.00000000000E+00 -0.54581297261E+03  0.40314259531E+04  0.39943063746E+04 0.  0.
        2    1    3    3  502    0  0.13259110846E+04 -0.61475438986E+03 -0.16466792618E+04  0.22017074636E+04  0.25500000920E-02 0. -1.
       -2    1    3    3    0  502 -0.13259110846E+04  0.61475438986E+03  0.11008662892E+04  0.18297184895E+04  0.25500000920E-02 0.  1.
</event>
<event>
 5   0  0.5951623E-08  0.3997685E+04  0.7818609E-02  0.8005014E-01
       -2   -1    0    0    0  501  0.00000000000E+00  0.00000000000E+00  0.18308456125E+04  0.18308456125E+04  0.25500000920E-02 0. -1.
        2   -1    0    0  501    0  0.00000000000E+00  0.00000000000E+00 -0.21822541537E+04  0.21822541537E+04  0.25500000920E-02 0.  1.
    10030    2    1    2    0    0  0.00000000000E+00  0.00000000000E+00 -0.35140854129E+03  0.40130997662E+04  0.39976845512E+04 0.  0.
        2    1    3    3  502    0 -0.53030104149E+03 -0.17781568590E+04  0.57033667663E+03  0.19412225361E+04  0.25500000920E-02 0.  1.
       -2    1    3    3    0  502  0.53030104149E+03  0.17781568590E+04 -0.92174521792E+03  0.20718772301E+04  0.25500000920E-02 0. -1.
</event>
<event>
 5   0  0.1879500E-08  0.3991035E+04  0.7818609E-02  0.8006358E-01
       -1   -1    0    0    0  501  0.00000000000E+00  0.00000000000E+00  0.24274168373E+04  0.24274168373E+04  0.50400001928E-02 0.  1.
        1   -1    0    0  501    0  0.00000000000E+00  0.00000000000E+00 -0.16404638767E+04  0.16404638767E+04  0.50400001928E-02 0. -1.
    10030    2    1    2    0    0  0.00000000000E+00  0.00000000000E+00  0.78695296057E+03  0.40678807140E+04  0.39910347707E+04 0.  0.
        5    1    3    3  502    0 -0.10442674208E+04 -0.15451021415E+04  0.11172423553E+04  0.21739566795E+04  0.46999998093E+01 0.  1.
       -5    1    3    3    0  502  0.10442674208E+04  0.15451021415E+04 -0.33028939474E+03  0.18939240344E+04  0.46999998093E+01 0. -1.
</event>
<event>
 5   0  0.1879500E-08  0.4006265E+04  0.7818609E-02  0.8003284E-01
       -1   -1    0    0    0  501  0.00000000000E+00  0.00000000000E+00  0.14077705852E+04  0.14077705852E+04  0.50400001928E-02 0. -1.
        1   -1    0    0  501    0  0.00000000000E+00  0.00000000000E+00 -0.28502790554E+04  0.28502790554E+04  0.50400001928E-02 0.  1.
    10030    2    1    2    0    0  0.00000000000E+00  0.00000000000E+00 -0.14425084702E+04  0.42580496406E+04  0.40062646012E+04 0.  0.
        1    1    3    3  502    0 -0.46882623111E+02 -0.95108545907E+03 -0.25943339431E+04  0.27635719891E+04  0.50400001928E-02 0.  1.
       -1    1    3    3    0  502  0.46882623111E+02  0.95108545907E+03  0.11518254729E+04  0.14944776515E+04  0.50400001928E-02 0. -1.
</event>
<event>
 5   0  0.1879500E-08  0.4013817E+04  0.7818609E-02  0.8001765E-01
       -1   -1    0    0    0  501  0.00000000000E+00  0.00000000000E+00  0.12324484402E+04  0.12324484402E+04  0.50400001928E-02 0. -1.
        1   -1    0    0  501    0  0.00000000000E+00  0.00000000000E+00 -0.32680330424E+04  0.32680330424E+04  0.50400001928E-02 0.  1.
    10030    2    1    2    0    0  0.00000000000E+00  0.00000000000E+00 -0.20355846023E+04  0.45004814826E+04  0.40138172482E+04 0.  0.
        3    1    3    3  502    0 -0.86500815717E+03 -0.81555475985E+03  0.79513429440E+03  0.14302472635E+04  0.10100000352E+00 0. -1.
       -3    1    3    3    0  502  0.86500815717E+03  0.81555475985E+03 -0.28307188967E+04  0.30702342191E+04  0.10100000352E+00 0.  1.
</event>
<event>
 5   0  0.1879500E-08  0.3993827E+04  0.7818609E-02  0.8005793E-01
       -1   -1    0    0    0  501  0.00000000000E+00  0.00000000000E+00  0.21472594618E+04  0.21472594618E+04  0.50400001928E-02 0. -1.
        1   -1    0    0  501    0  0.00000000000E+00  0.00000000000E+00 -0.18570942566E+04  0.18570942566E+04  0.50400001928E-02 0.  1.
    10030    2    1    2    0    0  0.00000000000E+00  0.00000000000E+00  0.29016520523E+03  0.40043537184E+04  0.39938268435E+04 0.  0.
        4    1    3    3  502    0  0.45882187506E+03 -0.18621768398E+04 -0.41265828568E+03  0.19617615985E+04  0.12699999809E+01 0.  1.
       -4    1    3    3    0  502 -0.45882187506E+03  0.18621768398E+04  0.70282349091E+03  0.20425921199E+04  0.12699999809E+01 0. -1.
</event>
<event>
 5   0  0.1879500E-08  0.3978359E+04  0.7818609E-02  0.8008926E-01
       -1   -1    0    0    0  501  0.00000000000E+00  0.00000000000E+00  0.15519916710E+04  0.15519916710E+04  0.50400001928E-02 0. -1.
        1   -1    0    0  501    0  0.00000000000E+00  0.00000000000E+00 -0.25495212832E+04  0.25495212832E+04  0.50400001928E-02 0.  1.
    10030    2    1    2    0    0  0.00000000000E+00  0.00000000000E+00 -0.99752961218E+03  0.41015129542E+04  0.39783593586E+04 0.  0.
        4    1    3    3  502    0  0.15122314267E+03 -0.17216613715E+04  0.51652934736E+03  0.18038266260E+04  0.12699999809E+01 0. -1.
       -4    1    3    3    0  502 -0.15122314267E+03  0.17216613715E+04 -0.15140589595E+04  0.22976863282E+04  0.12699999809E+01 0.  1.
</event>
<event>
 5   0  0.6161563E-08  0.3999637E+04  0.7818609E-02  0.8004620E-01
       -2   -1    0    0    0  501  0.00000000000E+00  0.00000000000E+00  0.19787396060E+04  0.19787396060E+04  0.25500000920E-02 0. -1.
        2   -1    0    0  501    0  0.00000000000E+00  0.00000000000E+00 -0.20211214630E+04  0.20211214630E+04  0.25500000920E-02 0.  1.
    10030    2    1    2    0    0  0.00000000000E+00  0.00000000000E+00 -0.42381856969E+02  0.39998610690E+04  0.39996365271E+04 0.  0.
        1    1    3    3  502    0 -0.15112508157E+04 -0.10799791796E+04  0.71982235041E+03  0.19920788821E+04  0.50400001928E-02 0. -1.
       -1    1    3    3    0  502  0.15112508157E+04  0.10799791796E+04 -0.76220420738E+03  0.20077821869E+04  0.50400001928E-02 0.  1.
</event>
<event>
 5   0  0.5945387E-08  0.4023783E+04  0.7818609E-02  0.7999766E-01
        2   -1    0    0  501    0  0.00000000000E+00  0.00000000000E+00  0.28554069771E+04  0.28554069771E+04  0.25500000920E-02 0.  1.
       -2   -1    0    0    0  501  0.00000000000E+00  0.00000000000E+00 -0.14175589926E+04  0.14175589926E+04  0.25500000920E-02 0. -1.
    10030    2    1    2    0    0  0.00000000000E+00  0.00000000000E+00  0.14378479845E+04  0.42729659696E+04  0.40237832137E+04 0.  0.
        3    1    3    3  502    0  0.10448709196E+04 -0.14017778105E+04 -0.33819884402E+03  0.17807624033E+04  0.10100000352E+00 0.  1.
       -3    1    3    3    0  502 -0.10448709196E+04  0.14017778105E+04  0.17760468285E+04  0.24922035663E+04  0.10100000352E+00 0. -1.
</event>
<event>
 5   0  0.5951623E-08  0.4009318E+04  0.7818609E-02  0.8002669E-01
       -2   -1    0    0    0  501  0.00000000000E+00  0.00000000000E+00  0.18866145353E+04  0.18866145353E+04  0.25500000920E-02 0. -1.
        2   -1    0    0  501    0  0.00000000000E+00  0.00000000000E+00 -0.21300899037E+04  0.21300899037E+04  0.25500000920E-02 0.  1.
    10030    2    1    2    0    0  0.00000000000E+00  0.00000000000E+00 -0.24347536836E+03  0.40167044390E+04  0.40093184328E+04 0.  0.
        2    1    3    3  502    0 -0.16005218823E+02 -0.12870764223E+04  0.14179202985E+04  0.19150247666E+04  0.25500000920E-02 0. -1.
       -2    1    3    3    0  502  0.16005218823E+02  0.12870764223E+04 -0.16613956668E+04  0.21016796724E+04  0.25500000920E-02 0.  1.
</event>
<event>
 5   0  0.5846812E-08  0.4017603E+04  0.7818609E-02  0.8001005E-01
       -2   -1    0    0    0  501  0.00000000000E+00  0.00000000000E+00  0.16192762989E+04  0.16192762989E+04  0.25500000920E-02 0.  1.
        2   -1    0    0  501    0  0.00000000000E+00  0.00000000000E+00 -0.24920288704E+04  0.24920288704E+04  0.25500000920E-02 0. -1.
    10030    2    1    2    0    0  0.00000000000E+00  0.00000000000E+00 -0.87275257156E+03  0.41113051693E+04  0.40176029102E+04 0.  0.
        4    1    3    3  502    0 -0.94839377431E+03 -0.11404454950E+04 -0.18226729521E+04  0.23499372292E+04  0.12699999809E+01 0. -1.
       -4    1    3    3    0  502  0.94839377431E+03  0.11404454950E+04  0.94992038053E+03  0.17613679401E+04  0.12699999809E+01 0.  1.
</event>
<event>
 5   0  0.1879500E-08  0.3816842E+04  0.7818609E-02  0.8042550E-01
       -1   -1    0    0    0  501  0.00000000000E+00  0.00000000000E+00  0.20147933976E+04  0.20147933976E+04  0.50400001928E-02 0.  1.
        1   -1    0    0  501    0  0.00000000000E+00  0.00000000000E+00 -0.18076644216E+04  0.18076644216E+04  0.50400001928E-02 0. -1.
    10030    2    1    2    0    0  0.00000000000E+00  0.00000000000E+00  0.20712897601E+03  0.38224578192E+04  0.38168418054E+04 0.  0.
        4    1    3    3  502    0 -0.14685628306E+04  0.10588855220E+04  0.70790362725E+03  0.19439764645E+04  0.12699999809E+01 0.  1.
       -4    1    3    3    0  502  0.14685628306E+04 -0.10588855220E+04 -0.50077465124E+03  0.18784813548E+04  0.12699999809E+01 0. -1.
</event>
<event>
 5   0  0.5888700E-08  0.4013294E+04  0.7818609E-02  0.8001870E-01
        2   -1    0    0  501    0  0.00000000000E+00  0.00000000000E+00  0.15586806116E+04  0.15586806116E+04  0.25500000920E-02 0.  1.
       -2   -1    0    0    0  501  0.00000000000E+00  0.00000000000E+00 -0.25833591595E+04  0.25833591595E+04  0.25500000920E-02 0. -1.
    10030    2    1    2    0    0  0.00000000000E+00  0.00000000000E+00 -0.10246785479E+04  0.41420397712E+04  0.40132938267E+04 0.  0.
        5    1    3    3  502    0  0.49351272595E+03 -0.24244539843E+03 -0.25040863483E+04  0.25637482544E+04  0.46999998093E+01 0. -1.
       -5    1    3    3    0  502 -0.49351272595E+03  0.24244539843E+03  0.14794078005E+04  0.15782915168E+04  0.46999998093E+01 0.  1.
</event>
<event>
 5   0  0.6161563E-08  0.4007241E+04  0.7818609E-02  0.8003087E-01
        2   -1    0    0  501    0  0.00000000000E+00  0.00000000000E+00  0.17701884996E+04  0.17701884996E+04  0.25500000920E-02 0.  1.
       -2   -1    0    0    0  501  0.00000000000E+00  0.00000000000E+00 -0.22678343084E+04  0.22678343084E+04  0.25500000920E-02 0. -1.
    10030    2    1    2    0    0  0.00000000000E+00  0.00000000000E+00 -0.49764580883E+03  0.40380228080E+04  0.40072405526E+04 0.  0.
        1    1    3    3  502    0 -0.19917545109E+04  0.15894374665E+03 -0.98867598929E+02  0.20005309167E+04  0.50400001928E-02 0.  1.
       -1    1    3    3    0  502  0.19917545109E+04 -0.15894374665E+03 -0.39877820990E+03  0.20374918913E+04  0.50400001928E-02 0. -1.
</event>
<event>
 5   0  0.1879500E-08  0.3988541E+04  0.7818609E-02  0.8006862E-01
        1   -1    0    0  501    0  0.00000000000E+00  0.00000000000E+00  0.21781967153E+04  0.21781967153E+04  0.50400001928E-02 0.  1.
       -1   -1    0    0    0  501  0.00000000000E+00  0.00000000000E+00 -0.18258748223E+04  0.18258748223E+04  0.50400001928E-02 0. -1.
    10030    2    1    2    0    0  0.00000000000E+00  0.00000000000E+00  0.35232189298E+03  0.40040715376E+04  0.39885408563E+04 0.  0.
        4    1    3    3  502    0  0.85778473916E+03 -0.15129466763E+04 -0.80350293705E+03  0.19158342535E+04  0.12699999809E+01 0.  1.
       -4    1    3    3    0  502 -0.85778473916E+03  0.15129466763E+04  0.11558248300E+04  0.20882372841E+04  0.12699999809E+01 0. -1.
</event>
<event>
 5   0  0.1879500E-08  0.4003902E+04  0.7818609E-02  0.8003760E-01
       -1   -1    0    0    0  501  0.00000000000E+00  0.00000000000E+00  0.23644248969E+04  0.23644248969E+04  0.50400001928E-02 0. -1.
        1   -1    0    0  501    0  0.00000000000E+00  0.00000000000E+00 -0.16950457085E+04  0.16950457086E+04  0.50400001928E-02 0.  1.
    10030    2    1    2    0    0  0.00000000000E+00  0.00000000000E+00  0.66937918832E+03  0.40594706054E+04  0.40039022339E+04 0.  0.
        3    1    3    3  502    0  0.19677139369E+03  0.39593916137E+03 -0.16449252133E+04  0.17033102385E+04  0.10100000352E+00 0.  1.
       -3    1    3    3    0  502 -0.19677139369E+03 -0.39593916137E+03  0.23143044017E+04  0.23561603669E+04  0.10100000352E+00 0. -1.
</event>
<event>
 5   0  0.5846812E-08  0.4020075E+04  0.7818609E-02  0.8000509E-01
        2   -1    0    0  501    0  0.00000000000E+00  0.00000000000E+00  0.24611788848E+04  0.24611788848E+04  0.25500000920E-02 0. -1.
       -2   -1    0    0    0  501  0.00000000000E+00  0.00000000000E+00 -0.16415913414E+04  0.16415913414E+04  0.25500000920E-02 0.  1.
    10030    2    1    2    0    0  0.00000000000E+00  0.00000000000E+00  0.81958754344E+03  0.41027702262E+04  0.40200745997E+04 0.  0.
        4    1    3    3  502    0  0.62281925117E+03 -0.14304816145E+04  0.17031700580E+04  0.23097556858E+04  0.12699999809E+01 0. -1.
       -4    1    3    3    0  502 -0.62281925117E+03  0.14304816145E+04 -0.88358251456E+03  0.17930145403E+04  0.12699999809E+01 0.  1.
</event>
<event>
 5   0  0.5945387E-08  0.4002823E+04  0.7818609E-02  0.8003977E-01
        2   -1    0    0  501    0  0.00000000000E+00  0.00000000000E+00  0.20980945029E+04  0.20980945029E+04  0.25500000920E-02 0.  1.
       -2   -1    0    0    0  501  0.00000000000E+00  0.00000000000E+00 -0.19091836273E+04  0.19091836273E+04  0.25500000920E-02 0. -1.
    10030    2    1    2    0    0  0.00000000000E+00  0.00000000000E+00  0.18891087561E+03  0.40072781301E+04  0.40028228406E+04 0.  0.
        3    1    3    3  502    0 -0.34074952895E+03 -0.60234748966E+03 -0.17855897798E+04  0.19150100813E+04  0.10100000352E+00 0. -1.
       -3    1    3    3    0  502  0.34074952895E+03  0.60234748966E+03  0.19745006554E+04  0.20922680488E+04  0.10100000352E+00 0.  1.
</event>
<event>
 5   0  0.5951623E-08  0.4011338E+04  0.7818609E-02  0.8002263E-01
       -2   -1    0    0    0  501  0.00000000000E+00  0.00000000000E+00  0.20674309719E+04  0.20674309719E+04  0.25500000920E-02 0.  1.
        2   -1    0    0  501    0  0.00000000000E+00  0.00000000000E+00 -0.19457517122E+04  0.19457517122E+04  0.25500000920E-02 0. -1.
    10030    2    1    2    0    0  0.00000000000E+00  0.00000000000E+00  0.12167925967E+03  0.40131826841E+04  0.40113376090E+04 0.  0.
        2    1    3    3  502    0 -0.18474281351E+04 -0.41507780025E+03  0.72252652985E+03  0.20266536164E+04  0.25500000920E-02 0.  1.
       -2    1    3    3    0  502  0.18474281351E+04  0.41507780025E+03 -0.60084727018E+03  0.19865290677E+04  0.25500000920E-02 0. -1.
</event>
<event>
 5   0  0.5951623E-08  0.3943553E+04  0.7818609E-02  0.8016032E-01
       -2   -1    0    0    0  501  0.00000000000E+00  0.00000000000E+00  0.12293718849E+04  0.12293718849E+04  0.25500000920E-02 0.  1.
        2   -1    0    0  501    0  0.00000000000E+00  0.00000000000E+00 -0.31625108135E+04  0.31625108135E+04  0.25500000920E-02 0. -1.
    10030    2    1    2    0    0  0.00000000000E+00  0.00000000000E+00 -0.19331389286E+04  0.43918826984E+04  0.39435526520E+04 0.  0.
        2    1    3    3  502    0 -0.87427904776E+03  0.41155516389E+02 -0.29343139524E+04  0.30620672758E+04  0.25500000920E-02 0. -1.
       -2    1    3    3    0  502  0.87427904776E+03 -0.41155516389E+02  0.10011750238E+04  0.13298154226E+04  0.25500000920E-02 0.  1.
</event>
<event>
 5   0  0.5846812E-08  0.4009688E+04  0.7818609E-02  0.8002595E-01
        2   -1    0    0  501    0  0.00000000000E+00  0.00000000000E+00  0.17131879530E+04  0.17131879530E+04  0.25500000920E-02 0.  1.
       -2   -1    0    0    0  501  0.00000000000E+00  0.00000000000E+00 -0.23461523745E+04  0.23461523745E+04  0.25500000920E-02 0. -1.
    10030    2    1    2    0    0  0.00000000000E+00  0.00000000000E+00 -0.63296442154E+03  0.40593403275E+04  0.40096882592E+04 0.  0.
        4    1    3    3  502    0 -0.17517347828E+04  0.79713823161E+03  0.25207182665E+03  0.19410167254E+04  0.12699999809E+01 0.  1.
       -4    1    3    3    0  502  0.17517347828E+04 -0.79713823161E+03 -0.88503624819E+03  0.21183236021E+04  0.12699999809E+01 0. -1.
</event>
<event>
 5   0  0.5888700E-08  0.4001286E+04  0.7818609E-02  0.8004287E-01
        2   -1    0    0  501    0  0.00000000000E+00  0.00000000000E+00  0.20632699909E+04  0.20632699909E+04  0.25500000920E-02 0. -1.
       -2   -1    0    0    0  501  0.00000000000E+00  0.00000000000E+00 -0.19399172373E+04  0.19399172373E+04  0.25500000920E-02 0.  1.
    10030    2    1    2    0    0  0.00000000000E+00  0.00000000000E+00  0.12335275363E+03  0.40031872281E+04  0.40012863034E+04 0.  0.
        5    1    3    3  502    0  0.17661982634E+04 -0.50560506478E+03  0.85417525283E+03  0.20260133859E+04  0.46999998093E+01 0. -1.
       -5    1    3    3    0  502 -0.17661982634E+04  0.50560506478E+03 -0.73082249920E+03  0.19771738423E+04  0.46999998093E+01 0.  1.
</event>
<event>
 5   0  0.5888700E-08  0.3992630E+04  0.7818609E-02  0.8006035E-01
       -2   -1    0    0    0  501  0.00000000000E+00  0.00000000000E+00  0.24354533930E+04  0.24354533930E+04  0.25500000920E-02 0. -1.
        2   -1    0    0  501    0  0.00000000000E+00  0.00000000000E+00 -0.16363579184E+04  0.16363579184E+04  0.25500000920E-02 0.  1.
    10030    2    1    2    0    0  0.00000000000E+00  0.00000000000E+00  0.79909547458E+03  0.40718113114E+04  0.39926299326E+04 0.  0.
        5    1    3    3  502    0 -0.17170426210E+03  0.16789508309E+04 -0.68784994524E+03  0.18225031916E+04  0.46999998093E+01 0.  1.
       -5    1    3    3    0  502  0.17170426210E+03 -0.16789508309E+04  0.14869454198E+04  0.22493081198E+04  0.46999998093E+01 0. -1.
</event>
<event>
 5   0  0.5945387E-08  0.4021112E+04  0.7818609E-02  0.8000301E-01
       -2   -1    0    0    0  501  0.00000000000E+00  0.00000000000E+00  0.19373152263E+04  0.19373152263E+04  0.25500000920E-02 0.  1.
        2   -1    0    0  501    0  0.00000000000E+00  0.00000000000E+00 -0.20865660775E+04  0.20865660775E+04  0.25500000920E-02 0. -1.
    10030    2    1    2    0    0  0.00000000000E+00  0.00000000000E+00 -0.14925085118E+03  0.40238813038E+04  0.40211123996E+04 0.  0.
        3    1    3    3  502    0  0.16586352449E+04 -0.24470045761E+03 -0.11850683383E+04  0.20531283852E+04  0.10100000352E+00 0. -1.
       -3    1    3    3    0  502 -0.16586352449E+04  0.24470045761E+03  0.10358174871E+04  0.19707529186E+04  0.10100000352E+00 0.  1.
</event>
<event>
 5   0  0.1879500E-08  0.3993202E+04  0.7818609E-02  0.8005919E-01
        1   -1    0    0  501    0  0.00000000000E+00  0.00000000000E+00  0.18997762196E+04  0.18997762196E+04  0.50400001928E-02 0.  1.
       -1   -1    0    0    0  501  0.00000000000E+00  0.00000000000E+00 -0.20983603242E+04  0.20983603242E+04  0.50400001928E-02 0. -1.
    10030    2    1    2    0    0  0.00000000000E+00  0.00000000000E+00 -0.19858410452E+03  0.39981365438E+04  0.39932017450E+04 0.  0.
        1    1    3    3  502    0 -0.13680110219E+04  0.56192555013E+03 -0.14422925050E+04  0.20657739833E+04  0.50400001928E-02 0. -1.
       -1    1    3    3    0  502  0.13680110219E+04 -0.56192555013E+03  0.12437084005E+04  0.19323625605E+04  0.50400001928E-02 0.  1.
</event>
<event>
 5   0  0.1879500E-08  0.4004518E+04  0.7818609E-02  0.8003636E-01
       -1   -1    0    0    0  501  0.00000000000E+00  0.00000000000E+00  0.20133565918E+04  0.20133565918E+04  0.50400001928E-02 0. -1.
        1   -1    0    0  501    0  0.00000000000E+00  0.00000000000E+00 -0.19912222411E+04  0.19912222411E+04  0.50400001928E-02 0.  1.
    10030    2    1    2    0    0  0.00000000000E+00  0.00000000000E+00  0.22134350758E+02  0.40045788329E+04  0.40045176612E+04 0.  0.
        1    1    3    3  502    0  0.12556044769E+04  0.21626779039E+02  0.15705877450E+04  0.20109092930E+04  0.50400001928E-02 0. -1.
       -1    1    3    3    0  502 -0.12556044769E+04 -0.21626779039E+02 -0.15484533943E+04  0.19936695399E+04  0.50400001928E-02 0.  1.
</event>
<event>
 5   0  0.5951623E-08  0.4001937E+04  0.7818609E-02  0.8004156E-01
        2   -1    0    0  501    0  0.00000000000E+00  0.00000000000E+00  0.29063106585E+04  0.29063106585E+04  0.25500000920E-02 0.  1.
       -2   -1    0    0    0  501  0.00000000000E+00  0.00000000000E+00 -0.13776483945E+04  0.13776483945E+04  0.25500000920E-02 0. -1.
    10030    2    1    2    0    0  0.00000000000E+00  0.00000000000E+00  0.15286622640E+04  0.42839590531E+04  0.40019366375E+04 0.  0.
        2    1    3    3  502    0  0.19513003412E+04  0.87292587312E+02  0.12293166345E+04  0.23079021654E+04  0.25500000920E-02 0.  1.
       -2    1    3    3    0  502 -0.19513003412E+04 -0.87292587312E+02  0.29934562946E+03  0.19760568876E+04  0.25500000920E-02 0. -1.
</event>
<event>
 5   0  0.5846812E-08  0.4003854E+04  0.7818609E-02  0.8003769E-01
       -2   -1    0    0    0  501  0.00000000000E+00  0.00000000000E+00  0.16837003142E+04  0.16837003142E+04  0.25500000920E-02 0. -1.
        2   -1    0    0  501    0  0.00000000000E+00  0.00000000000E+00 -0.23803002517E+04  0.23803002517E+04  0.25500000920E-02 0.  1.
    10030    2    1    2    0    0  0.00000000000E+00  0.00000000000E+00 -0.69659993756E+03  0.40640005659E+04  0.40038542839E+04 0.  0.
        4    1    3    3  502    0  0.87943321390E+03  0.16334168546E+04 -0.11121047837E+04  0.21629221118E+04  0.12699999809E+01 0.  1.
       -4    1    3    3    0  502 -0.87943321390E+03 -0.16334168546E+04  0.41550484615E+03  0.19010784541E+04  0.12699999809E+01 0. -1.
</event>
<event>
 5   0  0.1879500E-08  0.3994310E+04  0.7818609E-02  0.8005695E-01
       -1   -1    0    0    0  501  0.00000000000E+00  0.00000000000E+00  0.17078793090E+04  0.17078793090E+04  0.50400001928E-02 0. -1.
        1   -1    0    0  501    0  0.00000000000E+00  0.00000000000E+00 -0.23354275595E+04  0.23354275595E+04  0.50400001928E-02 0.  1.
    10030    2    1    2    0    0  0.00000000000E+00  0.00000000000E+00 -0.62754825049E+03  0.40433068685E+04  0.39943101564E+04 0.  0.
        5    1    3    3  502    0  0.89359779700E+03 -0.12199481812E+04  0.10067647337E+04  0.18166969771E+04  0.46999998093E+01 0. -1.
       -5    1    3    3    0  502 -0.89359779700E+03  0.12199481812E+04 -0.16343129842E+04  0.22266098913E+04  0.46999998093E+01 0.  1.
</event>
<event>
 5   0  0.5846812E-08  0.4002926E+04  0.7818609E-02  0.8003956E-01
       -2   -1    0    0    0  501  0.00000000000E+00  0.00000000000E+00  0.27787452816E+04  0.27787452816E+04  0.25500000920E-02 0.  1.
        2   -1    0    0  501    0  0.00000000000E+00  0.00000000000E+00 -0.14416056157E+04  0.14416056157E+04  0.25500000920E-02 0. -1.
    10030    2    1    2    0    0  0.00000000000E+00  0.00000000000E+00  0.13371396659E+04  0.42203508973E+04  0.40029263309E+04 0.  0.
        4    1    3    3  502    0  0.19172836215E+04  0.19380691210E+03  0.12385988311E+04  0.22907785318E+04  0.12699999809E+01 0.  1.
       -4    1    3    3    0  502 -0.19172836215E+04 -0.19380691210E+03  0.98540834786E+02  0.19295723655E+04  0.12699999809E+01 0. -1.
</event>
<event>
 5   0  0.1879500E-08  0.4010571E+04  0.7818609E-02  0.8002417E-01
       -1   -1    0    0    0  501  0.00000000000E+00  0.00000000000E+00  0.21885423106E+04  0.21885423106E+04  0.50400001928E-02 0.  1.
        1   -1    0    0  501    0  0.00000000000E+00  0.00000000000E+00 -0.18373738977E+04  0.18373738977E+04  0.50400001928E-02 0. -1.
    10030    2    1    2    0    0  0.00000000000E+00  0.00000000000E+00  0.35116841293E+03  0.40259162083E+04  0.40105712887E+04 0.  0.
        5    1    3    3  502    0 -0.16715288262E+04  0.22566053813E+03 -0.91310079871E+03  0.19179954259E+04  0.46999998093E+01 0. -1.
       -5    1    3    3    0  502  0.16715288262E+04 -0.22566053813E+03  0.12642692116E+04  0.21079207824E+04  0.46999998093E+01 0.  1.
</event>
<event>
 5   0  0.1879500E-08  0.3979328E+04  0.7818609E-02  0.8008730E-01
       -1   -1    0    0    0  501  0.00000000000E+00  0.00000000000E+00  0.21823681809E+04  0.21823681809E+04  0.50400001928E-02 0. -1.
        1   -1    0    0  501    0  0.00000000000E+00  0.00000000000E+00 -0.18139760954E+04  0.18139760954E+04  0.50400001928E-02 0.  1.
    10030    2    1    2    0    0  0.00000000000E+00  0.00000000000E+00  0.36839208544E+03  0.39963442763E+04  0.39793284416E+04 0.  0.
        4    1    3    3  502    0 -0.13850549205E+04 -0.69950863987E+02  0.16170033635E+04  0.21302515689E+04  0.12699999809E+01 0. -1.
       -4    1    3    3    0  502  0.13850549205E+04  0.69950863987E+02 -0.12486112781E+04  0.18660927074E+04  0.12699999809E+01 0.  1.
</event>
<event>
 5   0  0.1879500E-08  0.4006473E+04  0.7818609E-02  0.8003242E-01
       -1   -1    0    0    0  501  0.00000000000E+00  0.00000000000E+00  0.19388732372E+04  0.19388732372E+04  0.50400001928E-02 0. -1.
        1   -1    0    0  501    0  0.00000000000E+00  0.00000000000E+00 -0.20697360111E+04  0.20697360111E+04  0.50400001928E-02 0.  1.
    10030    2    1    2    0    0  0.00000000000E+00  0.00000000000E+00 -0.13086277388E+03  0.40086092482E+04  0.40064726431E+04 0.  0.
        1    1    3    3  502    0  0.31995192400E+03  0.18130648712E+04 -0.85539807070E+03  0.20300934265E+04  0.50400001928E-02 0.  1.
       -1    1    3    3    0  502 -0.31995192400E+03 -0.18130648712E+04  0.72453529682E+03  0.19785158218E+04  0.50400001928E-02 0. -1.
</event>
<event>
 5   0  0.1879500E-08  0.3980067E+04  0.7818609E-02  0.8008580E-01
       -1   -1    0    0    0  501  0.00000000000E+00  0.00000000000E+00  0.19980958807E+04  0.19980958807E+04  0.50400001928E-02 0. -1.
        1   -1    0    0  501    0  0.00000000000E+00  0.00000000000E+00 -0.19820038480E+04  0.19820038480E+04  0.50400001928E-02 0.  1.
    10030    2    1    2    0    0  0.00000000000E+00  0.00000000000E+00  0.16092032638E+02  0.39800997287E+04  0.39800671975E+04 0.  0.
        1    1    3    3  502    0  0.85750689491E+03 -0.91623784108E+03 -0.15364483549E+04  0.19838052837E+04  0.50400001928E-02 0.  1.
       -1    1    3    3    0  502 -0.85750689491E+03  0.91623784108E+03  0.15525403875E+04  0.19962944450E+04  0.50400001928E-02 0. -1.
</event>
<event>
 5   0  0.1879500E-08  0.4016020E+04  0.7818609E-02  0.8001323E-01
       -1   -1    0    0    0  501  0.00000000000E+00  0.00000000000E+00  0.25209875190E+04  0.25209875190E+04  0.50400001928E-02 0. -1.
        1   -1    0    0  501    0  0.00000000000E+00  0.00000000000E+00 -0.15994143865E+04  0.15994143865E+04  0.50400001928E-02 0.  1.
    10030    2    1    2    0    0  0.00000000000E+00  0.00000000000E+00  0.92157313250E+03  0.41204019055E+04  0.40160197739E+04 0.  0.
        1    1    3    3  502    0 -0.14939700506E+04 -0.41838435587E+03  0.17687191182E+04  0.23527344304E+04  0.50400001928E-02 0. -1.
       -1    1    3    3    0  502  0.14939700506E+04  0.41838435587E+03 -0.84714598566E+03  0.17676674750E+04  0.50400001928E-02 0.  1.
</event>
<event>
 5   0  0.1879500E-08  0.3988664E+04  0.7818609E-02  0.8006837E-01
        1   -1    0    0  501    0  0.00000000000E+00  0.00000000000E+00  0.20304186381E+04  0.20304186381E+04  0.50400001928E-02 0. -1.
       -1   -1    0    0    0  501  0.00000000000E+00  0.00000000000E+00 -0.19588867862E+04  0.19588867862E+04  0.50400001928E-02 0.  1.
    10030    2    1    2    0    0  0.00000000000E+00  0.00000000000E+00  0.71531851962E+02  0.39893054243E+04  0.39886640573E+04 0.  0.
        2    1    3    3  502    0 -0.18659741959E+04  0.29573464333E+03  0.67464995010E+03  0.20061084801E+04  0.25500000920E-02 0.  1.
       -2    1    3    3    0  502  0.18659741959E+04 -0.29573464333E+03 -0.60311809814E+03  0.19831969441E+04  0.25500000920E-02 0. -1.
</event>
<event>
 5   0  0.1879500E-08  0.4000180E+04  0.7818609E-02  0.8004510E-01
       -1   -1    0    0    0  501  0.00000000000E+00  0.00000000000E+00  0.20404206344E+04  0.20404206344E+04  0.50400001928E-02 0. -1.
        1   -1    0    0  501    0  0.00000000000E+00  0.00000000000E+00 -0.19605564775E+04  0.19605564775E+04  0.50400001928E-02 0.  1.
    10030    2    1    2    0    0  0.00000000000E+00  0.00000000000E+00  0.79864156891E+02  0.40009771119E+04  0.40001799418E+04 0.  0.
        5    1    3    3  502    0  0.13669369216E+04 -0.56434253617E+02 -0.14193433987E+04  0.19713597201E+04  0.46999998093E+01 0.  1.
       -5    1    3    3    0  502 -0.13669369216E+04  0.56434253617E+02  0.14992075556E+04  0.20296173918E+04  0.46999998093E+01 0. -1.
</event>
<event>
 5   0  0.5945387E-08  0.4058619E+04  0.7818609E-02  0.7992824E-01
       -2   -1    0    0    0  501  0.00000000000E+00  0.00000000000E+00  0.21275074762E+04  0.21275074762E+04  0.25500000920E-02 0. -1.
        2   -1    0    0  501    0  0.00000000000E+00  0.00000000000E+00 -0.19356443054E+04  0.19356443054E+04  0.25500000920E-02 0.  1.
    10030    2    1    2    0    0  0.00000000000E+00  0.00000000000E+00  0.19186317079E+03  0.40631517815E+04  0.40586193371E+04 0.  0.
        3    1    3    3  502    0  0.14273211842E+04 -0.12000582521E+04 -0.70540727736E+03  0.19937364441E+04  0.10100000352E+00 0. -1.
       -3    1    3    3    0  502 -0.14273211842E+04  0.12000582521E+04  0.89727044815E+03  0.20694153374E+04  0.10100000352E+00 0.  1.
</event>
<event>
 5   0  0.1879500E-08  0.3853271E+04  0.7818609E-02  0.8034819E-01
        1   -1    0    0  501    0  0.00000000000E+00  0.00000000000E+00  0.15959601221E+04  0.15959601221E+04  0.50400001928E-02 0.  1.
       -1   -1    0    0    0  501  0.00000000000E+00  0.00000000000E+00 -0.23258248636E+04  0.23258248636E+04  0.50400001928E-02 0. -1.
    10030    2    1    2    0    0  0.00000000000E+00  0.00000000000E+00 -0.72986474151E+03  0.39217849858E+04  0.38532706801E+04 0.  0.
        3    1    3    3  502    0  0.13570376440E+04  0.91520106651E+03 -0.13992598896E+04  0.21533862655E+04  0.10100000352E+00 0. -1.
       -3    1    3    3    0  502 -0.13570376440E+04 -0.91520106651E+03  0.66939514813E+03  0.17683987203E+04  0.10100000352E+00 0.  1.
</event>
<event>
 5   0  0.1879500E-08  0.3984877E+04  0.7818609E-02  0.8007604E-01
       -1   -1    0    0    0  501  0.00000000000E+00  0.00000000000E+00  0.21135136673E+04  0.21135136673E+04  0.50400001928E-02 0. -1.
        1   -1    0    0  501    0  0.00000000000E+00  0.00000000000E+00 -0.18782994946E+04  0.18782994946E+04  0.50400001928E-02 0.  1.
    10030    2    1    2    0    0  0.00000000000E+00  0.00000000000E+00  0.23521417264E+03  0.39918131619E+04  0.39848772393E+04 0.  0.
        2    1    3    3  502    0 -0.65958053364E+03 -0.16232565835E+04  0.10678377363E+04  0.20518981084E+04  0.25500000920E-02 0. -1.
       -2    1    3    3    0  502  0.65958053364E+03  0.16232565835E+04 -0.83262356365E+03  0.19399150535E+04  0.25500000920E-02 0.  1.
</event>
<event>
 5   0  0.5888700E-08  0.4000969E+04  0.7818609E-02  0.8004351E-01
        2   -1    0    0  501    0  0.00000000000E+00  0.00000000000E+00  0.12548585076E+04  0.12548585076E+04  0.25500000920E-02 0. -1.
       -2   -1    0    0    0  501  0.00000000000E+00  0.00000000000E+00 -0.31891552109E+04  0.31891552109E+04  0.25500000920E-02 0.  1.
    10030    2    1    2    0    0  0.00000000000E+00  0.00000000000E+00 -0.19342967033E+04  0.44440137185E+04  0.40009691568E+04 0.  0.
        5    1    3    3  502    0  0.71639804418E+03 -0.14879854424E+04  0.28684541252E+03  0.16761948619E+04  0.46999998093E+01 0.  1.
       -5    1    3    3    0  502 -0.71639804418E+03  0.14879854424E+04 -0.22211421158E+04  0.27678188566E+04  0.46999998093E+01 0. -1.
</event>
<event>
 5   0  0.5945387E-08  0.4011577E+04  0.7818609E-02  0.8002215E-01
       -2   -1    0    0    0  501  0.00000000000E+00  0.00000000000E+00  0.26597329924E+04  0.26597329924E+04  0.25500000920E-02 0. -1.
        2   -1    0    0  501    0  0.00000000000E+00  0.00000000000E+00 -0.15126281043E+04  0.15126281043E+04  0.25500000920E-02 0.  1.
    10030    2    1    2    0    0  0.00000000000E+00  0.00000000000E+00  0.11471048881E+04  0.41723610967E+04  0.40115766847E+04 0.  0.
        3    1    3    3  502    0 -0.17885118424E+04  0.74304367990E+03  0.30815620625E+02  0.19369662189E+04  0.10100000352E+00 0.  1.
       -3    1    3    3    0  502  0.17885118424E+04 -0.74304367990E+03  0.11162892675E+04  0.22353948778E+04  0.10100000352E+00 0. -1.
</event>
<event>
 5   0  0.1879500E-08  0.3974831E+04  0.7818609E-02  0.8009643E-01
       -1   -1    0    0    0  501  0.00000000000E+00  0.00000000000E+00  0.15909509995E+04  0.15909509995E+04  0.50400001928E-02 0.  1.
        1   -1    0    0  501    0  0.00000000000E+00  0.00000000000E+00 -0.24826794137E+04  0.24826794137E+04  0.50400001928E-02 0. -1.
    10030    2    1    2    0    0  0.00000000000E+00  0.00000000000E+00 -0.89172841417E+03  0.40736304132E+04  0.39748314654E+04 0.  0.
        1    1    3    3  502    0  0.10774386383E+04  0.16004294402E+04 -0.93476772283E+03  0.21438374724E+04  0.50400001928E-02 0. -1.
       -1    1    3    3    0  502 -0.10774386383E+04 -0.16004294402E+04  0.43039308659E+02  0.19297929408E+04  0.50400001928E-02 0.  1.
</event>
<event>
 5   0  0.5846812E-08  0.3995898E+04  0.7818609E-02  0.8005374E-01
       -2   -1    0    0    0  501  0.00000000000E+00  0.00000000000E+00  0.14127746495E+04  0.14127746495E+04  0.25500000920E-02 0. -1.
        2   -1    0    0  501    0  0.00000000000E+00  0.00000000000E+00 -0.28255044265E+04  0.28255044265E+04  0.25500000920E-02 0.  1.
    10030    2    1    2    0    0  0.00000000000E+00  0.00000000000E+00 -0.14127297770E+04  0.42382790760E+04  0.39958984100E+04 0.  0.
        4    1    3    3  502    0  0.23510890932E+03  0.18706098629E+04 -0.14077970620E+04  0.23529453116E+04  0.12699999809E+01 0.  1.
       -4    1    3    3    0  502 -0.23510890932E+03 -0.18706098629E+04 -0.49327149786E+01  0.18853337644E+04  0.12699999809E+01 0. -1.
</event>
<event>
 5   0  0.6161563E-08  0.4003891E+04  0.7818609E-02  0.8003762E-01
        2   -1    0    0  501    0  0.00000000000E+00  0.00000000000E+00  0.23473350445E+04  0.23473350445E+04  0.25500000920E-02 0. -1.
       -2   -1    0    0    0  501  0.00000000000E+00  0.00000000000E+00 -0.17073767753E+04  0.17073767753E+04  0.25500000920E-02 0.  1.
    10030    2    1    2    0    0  0.00000000000E+00  0.00000000000E+00  0.63995826925E+03  0.40547118198E+04  0.40038907771E+04 0.  0.
        1    1    3    3  502    0 -0.10854271646E+04  0.12845498573E+03 -0.13785494787E+04  0.17592758391E+04  0.50400001928E-02 0.  1.
       -1    1    3    3    0  502  0.10854271646E+04 -0.12845498573E+03  0.20185077479E+04  0.22954359807E+04  0.50400001928E-02 0. -1.
</event>
<event>
 5   0  0.5945387E-08  0.4015790E+04  0.7818609E-02  0.8001369E-01
        2   -1    0    0  501    0  0.00000000000E+00  0.00000000000E+00  0.25894662109E+04  0.25894662109E+04  0.25500000920E-02 0. -1.
       -2   -1    0    0    0  501  0.00000000000E+00  0.00000000000E+00 -0.15569396683E+04  0.15569396683E+04  0.25500000920E-02 0.  1.
    10030    2    1    2    0    0  0.00000000000E+00  0.00000000000E+00  0.10325265426E+04  0.41464058792E+04  0.40157901656E+04 0.  0.
        3    1    3    3  502    0  0.13193557925E+04  0.28867258474E+03 -0.10178664467E+04  0.16911781934E+04  0.10100000352E+00 0.  1.
       -3    1    3    3    0  502 -0.13193557925E+04 -0.28867258474E+03  0.20503929892E+04  0.24552276858E+04  0.10100000352E+00 0. -1.
</event>
<event>
 5   0  0.1879500E-08  0.3978227E+04  0.7818609E-02  0.8008953E-01
       -3   -1    0    0    0  501  0.00000000000E+00  0.00000000000E+00  0.27762302883E+04  0.27762302901E+04  0.10100000352E+00 0. -1.
        3   -1    0    0  501    0  0.00000000000E+00  0.00000000000E+00 -0.14251600650E+04  0.14251600686E+04  0.10100000352E+00 0.  1.
    10030    2    1    2    0    0  0.00000000000E+00  0.00000000000E+00  0.13510702233E+04  0.42013903587E+04  0.39782270169E+04 0.  0.
        2    1    3    3  502    0  0.67052641702E+03 -0.40225423526E+03  0.26071111799E+04  0.27218454860E+04  0.25500000920E-02 0. -1.
       -2    1    3    3    0  502 -0.67052641702E+03  0.40225423526E+03 -0.12560409565E+04  0.14795448727E+04  0.25500000920E-02 0.  1.
</event>
<event>
 5   0  0.1879500E-08  0.4005333E+04  0.7818609E-02  0.8003472E-01
       -1   -1    0    0    0  501  0.00000000000E+00  0.00000000000E+00  0.30237168476E+04  0.30237168476E+04  0.50400001928E-02 0.  1.
        1   -1    0    0  501    0  0.00000000000E+00  0.00000000000E+00 -0.13264050408E+04  0.13264050408E+04  0.50400001928E-02 0. -1.
    10030    2    1    2    0    0  0.00000000000E+00  0.00000000000E+00  0.16973118067E+04  0.43501218884E+04  0.40053330791E+04 0.  0.
        2    1    3    3  502    0 -0.38226904421E+03 -0.19653572032E+04  0.89618005190E+03  0.21936037116E+04  0.25500000920E-02 0.  1.
       -2    1    3    3    0  502  0.38226904421E+03  0.19653572032E+04  0.80113175484E+03  0.21565181768E+04  0.25500000920E-02 0. -1.
</event>
<event>
 5   0  0.1879500E-08  0.3987857E+04  0.7818609E-02  0.8007001E-01
        1   -1    0    0  501    0  0.00000000000E+00  0.00000000000E+00  0.22865186606E+04  0.22865186606E+04  0.50400001928E-02 0.  1.
       -1   -1    0    0    0  501  0.00000000000E+00  0.00000000000E+00 -0.17387789124E+04  0.17387789124E+04  0.50400001928E-02 0. -1.
    10030    2    1    2    0    0  0.00000000000E+00  0.00000000000E+00  0.54773974815E+03  0.40252975730E+04  0.39878567827E+04 0.  0.
        3    1    3    3  502    0 -0.37105697814E+03 -0.62745827963E+03  0.21471939367E+04  0.22675601394E+04  0.10100000352E+00 0.  1.
       -3    1    3    3    0  502  0.37105697814E+03  0.62745827963E+03 -0.15994541886E+04  0.17577374336E+04  0.10100000352E+00 0. -1.
</event>
<event>
 5   0  0.5951623E-08  0.3979153E+04  0.7818609E-02  0.8008765E-01
        2   -1    0    0  501    0  0.00000000000E+00  0.00000000000E+00  0.30214848654E+04  0.30214848654E+04  0.25500000920E-02 0. -1.
       -2   -1    0    0    0  501  0.00000000000E+00  0.00000000000E+00 -0.13100889743E+04  0.13100889743E+04  0.25500000920E-02 0.  1.
    10030    2    1    2    0    0  0.00000000000E+00  0.00000000000E+00  0.17113958911E+04  0.43315738397E+04  0.39791526777E+04 0.  0.
        2    1    3    3  502    0 -0.11541992940E+04 -0.41159391561E+03 -0.85055154632E+03  0.14916512644E+04  0.25500000920E-02 0.  1.
       -2    1    3    3    0  502  0.11541992940E+04  0.41159391561E+03  0.25619474374E+04  0.28399225753E+04  0.25500000920E-02 0. -1.
</event>
<event>
 5   0  0.5846812E-08  0.4005206E+04  0.7818609E-02  0.8003497E-01
        2   -1    0    0  501    0  0.00000000000E+00  0.00000000000E+00  0.21038314436E+04  0.21038314436E+04  0.25500000920E-02 0.  1.
       -2   -1    0    0    0  501  0.00000000000E+00  0.00000000000E+00 -0.19062451050E+04  0.19062451050E+04  0.25500000920E-02 0. -1.
    10030    2    1    2    0    0  0.00000000000E+00  0.00000000000E+00  0.19758633853E+03  0.40100765486E+04  0.40052058080E+04 0.  0.
        4    1    3    3  502    0 -0.40694981177E+03 -0.33425321340E+03 -0.18356753786E+04  0.19097222491E+04  0.12699999809E+01 0. -1.
       -4    1    3    3    0  502  0.40694981177E+03  0.33425321340E+03  0.20332617172E+04  0.21003542995E+04  0.12699999809E+01 0.  1.
</event>
<event>
 5   0  0.1879500E-08  0.3985405E+04  0.7818609E-02  0.8007497E-01
        1   -1    0    0  501    0  0.00000000000E+00  0.00000000000E+00  0.21558313350E+04  0.21558313350E+04  0.50400001928E-02 0.  1.
       -1   -1    0    0    0  501  0.00000000000E+00  0.00000000000E+00 -0.18419169979E+04  0.18419169979E+04  0.50400001928E-02 0. -1.
    10030    2    1    2    0    0  0.00000000000E+00  0.00000000000E+00  0.31391433709E+03  0.39977483329E+04  0.39854045619E+04 0.  0.
        2    1    3    3  502    0 -0.45389362976E+03 -0.16958193760E+04 -0.78885215230E+03  0.19246065835E+04  0.25500000920E-02 0. -1.
       -2    1    3    3    0  502  0.45389362976E+03  0.16958193760E+04  0.11027664894E+04  0.20731417494E+04  0.25500000920E-02 0.  1.
</event>
<event>
 5   0  0.1879500E-08  0.4006437E+04  0.7818609E-02  0.8003249E-01
        1   -1    0    0  501    0  0.00000000000E+00  0.00000000000E+00  0.13554223234E+04  0.13554223234E+04  0.50400001928E-02 0. -1.
       -1   -1    0    0    0  501  0.00000000000E+00  0.00000000000E+00 -0.29606148161E+04  0.29606148161E+04  0.50400001928E-02 0.  1.
    10030    2    1    2    0    0  0.00000000000E+00  0.00000000000E+00 -0.16051924927E+04  0.43160371395E+04  0.40064365277E+04 0.  0.
        5    1    3    3  502    0 -0.10769454693E+04 -0.14939010087E+04  0.46546927357E+02  0.18422107572E+04  0.46999998093E+01 0. -1.
       -5    1    3    3    0  502  0.10769454693E+04  0.14939010087E+04 -0.16517394200E+04  0.24738263822E+04  0.46999998093E+01 0.  1.
</event>
<event>
 5   0  0.1879500E-08  0.4001138E+04  0.7818609E-02  0.8004317E-01
        1   -1    0    0  501    0  0.00000000000E+00  0.00000000000E+00  0.25841486163E+04  0.25841486163E+04  0.50400001928E-02 0. -1.
       -1   -1    0    0    0  501  0.00000000000E+00  0.00000000000E+00 -0.15487794016E+04  0.15487794016E+04  0.50400001928E-02 0.  1.
    10030    2    1    2    0    0  0.00000000000E+00  0.00000000000E+00  0.10353692147E+04  0.41329280179E+04  0.40011379119E+04 0.  0.
        2    1    3    3  502    0 -0.87659134339E+03  0.16662719761E+04  0.12162757845E+04  0.22414730571E+04  0.25500000920E-02 0. -1.
       -2    1    3    3    0  502  0.87659134339E+03 -0.16662719761E+04 -0.18090656979E+03  0.18914549608E+04  0.25500000920E-02 0.  1.
</event>
<event>
 5   0  0.5951623E-08  0.3974633E+04  0.7818609E-02  0.8009684E-01
        2   -1    0    0  501    0  0.00000000000E+00  0.00000000000E+00  0.16995729685E+04  0.16995729685E+04  0.25500000920E-02 0. -1.
       -2   -1    0    0    0  501  0.00000000000E+00  0.00000000000E+00 -0.23237758582E+04  0.23237758582E+04  0.25500000920E-02 0.  1.
    10030    2    1    2    0    0  0.00000000000E+00  0.00000000000E+00 -0.62420288964E+03  0.40233488267E+04  0.39746328804E+04 0.  0.
        2    1    3    3  502    0  0.41789997953E+03 -0.50179649149E+03  0.15878659917E+04  0.17169037595E+04  0.25500000920E-02 0. -1.
       -2    1    3    3    0  502 -0.41789997953E+03  0.50179649149E+03 -0.22120688814E+04  0.23064450671E+04  0.25500000920E-02 0.  1.
</event>
<event>
 5   0  0.5945387E-08  0.4012093E+04  0.7818609E-02  0.8002111E-01
       -2   -1    0    0    0  501  0.00000000000E+00  0.00000000000E+00  0.26346749333E+04  0.26346749333E+04  0.25500000920E-02 0.  1.
        2   -1    0    0  501    0  0.00000000000E+00  0.00000000000E+00 -0.15274078727E+04  0.15274078727E+04  0.25500000920E-02 0. -1.
    10030    2    1    2    0    0  0.00000000000E+00  0.00000000000E+00  0.11072670606E+04  0.41620828059E+04  0.40120933364E+04 0.  0.
        3    1    3    3  502    0  0.93207444418E+03  0.17495738639E+04  0.87245289572E+03  0.21658590767E+04  0.10100000352E+00 0. -1.
       -3    1    3    3    0  502 -0.93207444418E+03 -0.17495738639E+04  0.23481416488E+03  0.19962237292E+04  0.10100000352E+00 0.  1.
</event>
<event>
 5   0  0.5951623E-08  0.3997881E+04  0.7818609E-02  0.8004974E-01
        2   -1    0    0  501    0  0.00000000000E+00  0.00000000000E+00  0.23291505682E+04  0.23291505682E+04  0.25500000920E-02 0. -1.
       -2   -1    0    0    0  501  0.00000000000E+00  0.00000000000E+00 -0.17155454367E+04  0.17155454367E+04  0.25500000920E-02 0.  1.
    10030    2    1    2    0    0  0.00000000000E+00  0.00000000000E+00  0.61360513149E+03  0.40446960048E+04  0.39978812531E+04 0.  0.
        2    1    3    3  502    0  0.31897683600E+03 -0.10492655093E+04 -0.13840123630E+04  0.17658410324E+04  0.25500000920E-02 0.  1.
       -2    1    3    3    0  502 -0.31897683600E+03  0.10492655093E+04  0.19976174945E+04  0.22788549724E+04  0.25500000920E-02 0. -1.
</event>
<event>
 5   0  0.1879500E-08  0.3990972E+04  0.7818609E-02  0.8006370E-01
       -1   -1    0    0    0  501  0.00000000000E+00  0.00000000000E+00  0.25065338591E+04  0.25065338591E+04  0.50400001928E-02 0.  1.
        1   -1    0    0  501    0  0.00000000000E+00  0.00000000000E+00 -0.15886336045E+04  0.15886336045E+04  0.50400001928E-02 0. -1.
    10030    2    1    2    0    0  0.00000000000E+00  0.00000000000E+00  0.91790025468E+03  0.40951674636E+04  0.39909717711E+04 0.  0.
        3    1    3    3  502    0 -0.76905391288E+03  0.18136450272E+04  0.13250636248E+03  0.19744138755E+04  0.10100000352E+00 0. -1.
       -3    1    3    3    0  502  0.76905391288E+03 -0.18136450272E+04  0.78539389220E+03  0.21207535881E+04  0.10100000352E+00 0.  1.
</event>
<event>
 5   0  0.1879500E-08  0.4015480E+04  0.7818609E-02  0.8001431E-01
       -1   -1    0    0    0  501  0.00000000000E+00  0.00000000000E+00  0.13387462989E+04  0.13387462989E+04  0.50400001928E-02 0. -1.
        1   -1    0    0  501    0  0.00000000000E+00  0.00000000000E+00 -0.30110410209E+04  0.30110410209E+04  0.50400001928E-02 0.  1.
    10030    2    1    2    0    0  0.00000000000E+00  0.00000000000E+00 -0.16722947220E+04  0.43497873198E+04  0.40154800573E+04 0.  0.
        5    1    3    3  502    0 -0.13357762889E+04  0.58899056624E+03  0.65693347022E+03  0.16008722171E+04  0.46999998093E+01 0. -1.
       -5    1    3    3    0  502  0.13357762889E+04 -0.58899056624E+03 -0.23292281922E+04  0.27489151028E+04  0.46999998093E+01 0.  1.
</event>
<event>
 5   0  0.5888700E-08  0.3994470E+04  0.7818609E-02  0.8005663E-01
        2   -1    0    0  501    0  0.00000000000E+00  0.00000000000E+00  0.20377619779E+04  0.20377619779E+04  0.25500000920E-02 0. -1.
       -2   -1    0    0    0  501  0.00000000000E+00  0.00000000000E+00 -0.19575137951E+04  0.19575137951E+04  0.25500000920E-02 0.  1.
    10030    2    1    2    0    0  0.00000000000E+00  0.00000000000E+00  0.80248182775E+02  0.39952757730E+04  0.39944697685E+04 0.  0.
        5    1    3    3  502    0  0.79463356073E+02  0.14551839862E+04  0.14060680764E+04  0.20250739206E+04  0.46999998093E+01 0. -1.
       -5    1    3    3    0  502 -0.79463356073E+02 -0.14551839862E+04 -0.13258198936E+04  0.19702018523E+04  0.46999998093E+01 0.  1.
</event>
<event>
 5   0  0.1879500E-08  0.4139830E+04  0.7818609E-02  0.7976918E-01
        1   -1    0    0  501    0  0.00000000000E+00  0.00000000000E+00  0.18286759384E+04  0.18286759384E+04  0.50400001928E-02 0. -1.
       -1   -1    0    0    0  501  0.00000000000E+00  0.00000000000E+00 -0.23429777873E+04  0.23429777873E+04  0.50400001928E-02 0.  1.
    10030    2    1    2    0    0  0.00000000000E+00  0.00000000000E+00 -0.51430184891E+03  0.41716537257E+04  0.41398295152E+04 0.  0.
        5    1    3    3  502    0  0.28837348379E+03  0.11023067433E+04  0.14842207059E+04  0.18711420620E+04  0.46999998093E+01 0. -1.
       -5    1    3    3    0  502 -0.28837348379E+03 -0.11023067433E+04 -0.19985225548E+04  0.23005116637E+04  0.46999998093E+01 0.  1.
</event>
<event>
 5   0  0.1879500E-08  0.3970411E+04  0.7818609E-02  0.8010542E-01
        1   -1    0    0  501    0  0.00000000000E+00  0.00000000000E+00  0.27707555279E+04  0.27707555279E+04  0.50400001928E-02 0.  1.
       -1   -1    0    0    0  501  0.00000000000E+00  0.00000000000E+00 -0.14223704705E+04  0.14223704706E+04  0.50400001928E-02 0. -1.
    10030    2    1    2    0    0  0.00000000000E+00  0.00000000000E+00  0.13483850574E+04  0.41931259985E+04  0.39704109833E+04 0.  0.
        2    1    3    3  502    0 -0.17686781421E+04 -0.38175966596E+03  0.15367554159E+04  0.23739376616E+04  0.25500000920E-02 0. -1.
       -2    1    3    3    0  502  0.17686781421E+04  0.38175966596E+03 -0.18837035851E+03  0.18191883369E+04  0.25500000920E-02 0.  1.
</event>
<event>
 5   0  0.5888700E-08  0.4007954E+04  0.7818609E-02  0.8002944E-01
       -2   -1    0    0    0  501  0.00000000000E+00  0.00000000000E+00  0.12224213865E+04  0.12224213865E+04  0.25500000920E-02 0. -1.
        2   -1    0    0  501    0  0.00000000000E+00  0.00000000000E+00 -0.32852201067E+04  0.32852201067E+04  0.25500000920E-02 0.  1.
    10030    2    1    2    0    0  0.00000000000E+00  0.00000000000E+00 -0.20627987202E+04  0.45076414932E+04  0.40079537511E+04 0.  0.
        5    1    3    3  502    0 -0.14113265794E+04  0.68480333784E+03  0.37111149883E+03  0.16120000496E+04  0.46999998093E+01 0. -1.
       -5    1    3    3    0  502  0.14113265794E+04 -0.68480333784E+03 -0.24339102191E+04  0.28956414436E+04  0.46999998093E+01 0.  1.
</event>
<event>
 5   0  0.1879500E-08  0.4035242E+04  0.7818609E-02  0.7997475E-01
        1   -1    0    0  501    0  0.00000000000E+00  0.00000000000E+00  0.17279124303E+04  0.17279124304E+04  0.50400001928E-02 0.  1.
       -1   -1    0    0    0  501  0.00000000000E+00  0.00000000000E+00 -0.23559028695E+04  0.23559028695E+04  0.50400001928E-02 0. -1.
    10030    2    1    2    0    0  0.00000000000E+00  0.00000000000E+00 -0.62799043916E+03  0.40838152999E+04  0.40352416795E+04 0.  0.
        1    1    3    3  502    0  0.52383940183E+03 -0.79425541884E+03  0.14866193099E+04  0.17650173828E+04  0.50400001928E-02 0.  1.
       -1    1    3    3    0  502 -0.52383940183E+03  0.79425541884E+03 -0.21146097490E+04  0.23187979170E+04  0.50400001928E-02 0. -1.
</event>
<event>
 5   0  0.5945387E-08  0.4005346E+04  0.7818609E-02  0.8003469E-01
       -2   -1    0    0    0  501  0.00000000000E+00  0.00000000000E+00  0.17962689686E+04  0.17962689686E+04  0.25500000920E-02 0. -1.
        2   -1    0    0  501    0  0.00000000000E+00  0.00000000000E+00 -0.22327942753E+04  0.22327942753E+04  0.25500000920E-02 0.  1.
    10030    2    1    2    0    0  0.00000000000E+00  0.00000000000E+00 -0.43652530668E+03  0.40290632439E+04  0.40053459626E+04 0.  0.
        3    1    3    3  502    0 -0.13183607708E+04  0.15041586994E+04 -0.11701605150E+03  0.20035621481E+04  0.10100000352E+00 0. -1.
       -3    1    3    3    0  502  0.13183607708E+04 -0.15041586994E+04 -0.31950925517E+03  0.20255010958E+04  0.10100000352E+00 0.  1.
</event>
<event>
 5   0  0.5846812E-08  0.3996733E+04  0.7818609E-02  0.8005206E-01
       -2   -1    0    0    0  501  0.00000000000E+00  0.00000000000E+00  0.14788600342E+04  0.14788600342E+04  0.25500000920E-02 0.  1.
        2   -1    0    0  501    0  0.00000000000E+00  0.00000000000E+00 -0.27003697356E+04  0.27003697356E+04  0.25500000920E-02 0. -1.
    10030    2    1    2    0    0  0.00000000000E+00  0.00000000000E+00 -0.12215097013E+04  0.41792297698E+04  0.39967331058E+04 0.  0.
        4    1    3    3  502    0  0.83165728867E+03 -0.11962353730E+04 -0.20409943537E+04  0.25076468010E+04  0.12699999809E+01 0. -1.
       -4    1    3    3    0  502 -0.83165728867E+03  0.11962353730E+04  0.81948465238E+03  0.16715829689E+04  0.12699999809E+01 0.  1.
</event>
<event>
 5   0  0.5945387E-08  0.3954051E+04  0.7818609E-02  0.8013881E-01
       -2   -1    0    0    0  501  0.00000000000E+00  0.00000000000E+00  0.12674553235E+04  0.12674553235E+04  0.25500000920E-02 0. -1.
        2   -1    0    0  501    0  0.00000000000E+00  0.00000000000E+00 -0.30838402375E+04  0.30838402375E+04  0.25500000920E-02 0.  1.
    10030    2    1    2    0    0  0.00000000000E+00  0.00000000000E+00 -0.18163849140E+04  0.43512955610E+04  0.39540509485E+04 0.  0.
        3    1    3    3  502    0 -0.19340333640E+04  0.39862611587E+03 -0.80239955246E+03  0.21314860744E+04  0.10100000352E+00 0.  1.
       -3    1    3    3    0  502  0.19340333640E+04 -0.39862611587E+03 -0.10139853615E+04  0.22198094866E+04  0.10100000352E+00 0. -1.
</event>
<event>
 5   0  0.1879500E-08  0.3923406E+04  0.7818609E-02  0.8020179E-01
       -1   -1    0    0    0  501  0.00000000000E+00  0.00000000000E+00  0.16271692467E+04  0.16271692467E+04  0.50400001928E-02 0. -1.
        1   -1    0    0  501    0  0.00000000000E+00  0.00000000000E+00 -0.23650145310E+04  0.23650145310E+04  0.50400001928E-02 0.  1.
    10030    2    1    2    0    0  0.00000000000E+00  0.00000000000E+00 -0.73784528423E+03  0.39921837777E+04  0.39234061288E+04 0.  0.
        2    1    3    3  502    0  0.17272289262E+04  0.66944092263E+03 -0.10258468750E+04  0.21175062511E+04  0.25500000920E-02 0.  1.
       -2    1    3    3    0  502 -0.17272289262E+04 -0.66944092263E+03  0.28800159079E+03  0.18746775266E+04  0.25500000920E-02 0. -1.
</event>
<event>
 5   0  0.5846812E-08  0.4015210E+04  0.7818609E-02  0.8001485E-01
        2   -1    0    0  501    0  0.00000000000E+00  0.00000000000E+00  0.29872833300E+04  0.29872833300E+04  0.25500000920E-02 0.  1.
       -2   -1    0    0    0  501  0.00000000000E+00  0.00000000000E+00 -0.13492114683E+04  0.13492114683E+04  0.25500000920E-02 0. -1.
    10030    2    1    2    0    0  0.00000000000E+00  0.00000000000E+00  0.16380718616E+04  0.43364947983E+04  0.40152095477E+04 0.  0.
        4    1    3    3  502    0 -0.17515495600E+04 -0.96687243414E+03  0.63926207072E+03  0.21003394423E+04  0.12699999809E+01 0. -1.
       -4    1    3    3    0  502  0.17515495600E+04  0.96687243414E+03  0.99880979092E+03  0.22361553560E+04  0.12699999809E+01 0.  1.
</event>
<event>
 5   0  0.1879500E-08  0.3997753E+04  0.7818609E-02  0.8005000E-01
        1   -1    0    0  501    0  0.00000000000E+00  0.00000000000E+00  0.12803146673E+04  0.12803146673E+04  0.50400001928E-02 0. -1.
       -1   -1    0    0    0  501  0.00000000000E+00  0.00000000000E+00 -0.31207227764E+04  0.31207227764E+04  0.50400001928E-02 0.  1.
    10030    2    1    2    0    0  0.00000000000E+00  0.00000000000E+00 -0.18404081091E+04  0.44010374437E+04  0.39977529405E+04 0.  0.
        5    1    3    3  502    0 -0.10643591414E+04  0.14034777339E+03  0.93598402576E+03  0.14243054679E+04  0.46999998093E+01 0. -1.
       -5    1    3    3    0  502  0.10643591414E+04 -0.14034777339E+03 -0.27763921349E+04  0.29767319758E+04  0.46999998093E+01 0.  1.
</event>
<event>
 5   0  0.1879500E-08  0.3995793E+04  0.7818609E-02  0.8005396E-01
       -1   -1    0    0    0  501  0.00000000000E+00  0.00000000000E+00  0.29387565891E+04  0.29387565891E+04  0.50400001928E-02 0. -1.
        1   -1    0    0  501    0  0.00000000000E+00  0.00000000000E+00 -0.13582584635E+04  0.13582584635E+04  0.50400001928E-02 0.  1.
    10030    2    1    2    0    0  0.00000000000E+00  0.00000000000E+00  0.15804981256E+04  0.42970150526E+04  0.39957932926E+04 0.  0.
        2    1    3    3  502    0  0.78519998403E+03 -0.13183462003E+04  0.21661597041E+04  0.26545853880E+04  0.25500000920E-02 0. -1.
       -2    1    3    3    0  502 -0.78519998403E+03  0.13183462003E+04 -0.58566157851E+03  0.16424296646E+04  0.25500000920E-02 0.  1.
</event>
<event>
 5   0  0.1879500E-08  0.3988723E+04  0.7818609E-02  0.8006825E-01
        1   -1    0    0  501    0  0.00000000000E+00  0.00000000000E+00  0.27646677636E+04  0.27646677636E+04  0.50400001928E-02 0. -1.
       -1   -1    0    0    0  501  0.00000000000E+00  0.00000000000E+00 -0.14386816886E+04  0.14386816886E+04  0.50400001928E-02 0.  1.
    10030    2    1    2    0    0  0.00000000000E+00  0.00000000000E+00  0.13259860750E+04  0.42033494522E+04  0.39887225456E+04 0.  0.
        2    1    3    3  502    0  0.89920156496E+03  0.22697588424E+03  0.25236127295E+04  0.26886246884E+04  0.25500000920E-02 0. -1.
       -2    1    3    3    0  502 -0.89920156496E+03 -0.22697588424E+03 -0.11976266545E+04  0.15147247638E+04  0.25500000920E-02 0.  1.
</event>
<event>
 5   0  0.1879500E-08  0.4008760E+04  0.7818609E-02  0.8002782E-01
        1   -1    0    0  501    0  0.00000000000E+00  0.00000000000E+00  0.24668331839E+04  0.24668331839E+04  0.50400001928E-02 0.  1.
       -1   -1    0    0    0  501  0.00000000000E+00  0.00000000000E+00 -0.16286222101E+04  0.16286222102E+04  0.50400001928E-02 0. -1.
    10030    2    1    2    0    0  0.00000000000E+00  0.00000000000E+00  0.83821097378E+03  0.40954553941E+04  0.40087600637E+04 0.  0.
        3    1    3    3  502    0  0.19916448005E+04  0.20153867628E+03  0.31556046876E+03  0.20265352869E+04  0.10100000352E+00 0. -1.
       -3    1    3    3    0  502 -0.19916448005E+04 -0.20153867628E+03  0.52265050502E+03  0.20689201072E+04  0.10100000352E+00 0.  1.
</event>
<event>
 5   0  0.1879500E-08  0.4002527E+04  0.7818609E-02  0.8004037E-01
       -1   -1    0    0    0  501  0.00000000000E+00  0.00000000000E+00  0.21992056573E+04  0.21992056573E+04  0.50400001928E-02 0. -1.
        1   -1    0    0  501    0  0.00000000000E+00  0.00000000000E+00 -0.18211371713E+04  0.18211371713E+04  0.50400001928E-02 0.  1.
    10030    2    1    2    0    0  0.00000000000E+00  0.00000000000E+00  0.37806848600E+03  0.40203428286E+04  0.40025267869E+04 0.  0.
        5    1    3    3  502    0  0.18028174146E+04 -0.26149060182E+03  0.10212783525E+04  0.20884347077E+04  0.46999998093E+01 0. -1.
       -5    1    3    3    0  502 -0.18028174146E+04  0.26149060182E+03 -0.64320986652E+03  0.19319081209E+04  0.46999998093E+01 0.  1.
</event>
<event>
 5   0  0.5888700E-08  0.3997615E+04  0.7818609E-02  0.8005028E-01
       -2   -1    0    0    0  501  0.00000000000E+00  0.00000000000E+00  0.15725856321E+04  0.15725856321E+04  0.25500000920E-02 0. -1.
        2   -1    0    0  501    0  0.00000000000E+00  0.00000000000E+00 -0.25405496560E+04  0.25405496560E+04  0.25500000920E-02 0.  1.
    10030    2    1    2    0    0  0.00000000000E+00  0.00000000000E+00 -0.96796402399E+03  0.41131352881E+04  0.39976152324E+04 0.  0.
        5    1    3    3  502    0 -0.16921926926E+04 -0.80638457700E+03  0.22992559020E+03  0.18885603146E+04  0.46999998093E+01 0.  1.
       -5    1    3    3    0  502  0.16921926926E+04  0.80638457700E+03 -0.11978896142E+04  0.22245749735E+04  0.46999998093E+01 0. -1.
</event>
<event>
 5   0  0.1879500E-08  0.4016536E+04  0.7818609E-02  0.8001219E-01
        1   -1    0    0  501    0  0.00000000000E+00  0.00000000000E+00  0.27139706996E+04  0.27139706996E+04  0.50400001928E-02 0.  1.
       -1   -1    0    0    0  501  0.00000000000E+00  0.00000000000E+00 -0.14860659617E+04  0.14860659617E+04  0.50400001928E-02 0. -1.
    10030    2    1    2    0    0  0.00000000000E+00  0.00000000000E+00  0.12279047379E+04  0.42000366613E+04  0.40165355608E+04 0.  0.
        3    1    3    3  502    0  0.58797566709E+03  0.17540980538E+04  0.14310371050E+04  0.23388977261E+04  0.10100000352E+00 0.  1.
       -3    1    3    3    0  502 -0.58797566709E+03 -0.17540980538E+04 -0.20313236707E+03  0.18611389352E+04  0.10100000352E+00 0. -1.
</event>
<event>
 5   0  0.1879500E-08  0.3997213E+04  0.7818609E-02  0.8005109E-01
       -1   -1    0    0    0  501  0.00000000000E+00  0.00000000000E+00  0.26905483553E+04  0.26905483553E+04  0.50400001928E-02 0. -1.
        1   -1    0    0  501    0  0.00000000000E+00  0.00000000000E+00 -0.14846145384E+04  0.14846145385E+04  0.50400001928E-02 0.  1.
    10030    2    1    2    0    0  0.00000000000E+00  0.00000000000E+00  0.12059338168E+04  0.41751628937E+04  0.39972126311E+04 0.  0.
        5    1    3    3  502    0  0.16256436262E+03  0.19634583210E+04  0.25214335031E+03  0.19862512705E+04  0.46999998093E+01 0. -1.
       -5    1    3    3    0  502 -0.16256436262E+03 -0.19634583210E+04  0.95379046651E+03  0.21889116232E+04  0.46999998093E+01 0.  1.
</event>
<event>
 5   0  0.1879500E-08  0.3970362E+04  0.7818609E-02  0.8010552E-01
        1   -1    0    0  501    0  0.00000000000E+00  0.00000000000E+00  0.23490470607E+04  0.23490470607E+04  0.50400001928E-02 0. -1.
       -1   -1    0    0    0  501  0.00000000000E+00  0.00000000000E+00 -0.16776777817E+04  0.16776777817E+04  0.50400001928E-02 0.  1.
    10030    2    1    2    0    0  0.00000000000E+00  0.00000000000E+00  0.67136927893E+03  0.40267248424E+04  0.39703622313E+04 0.  0.
        4    1    3    3  502    0  0.11668479145E+04 -0.10630196469E+04  0.15566844474E+04  0.22169377318E+04  0.12699999809E+01 0. -1.
       -4    1    3    3    0  502 -0.11668479145E+04  0.10630196469E+04 -0.88531516844E+03  0.18097871106E+04  0.12699999809E+01 0.  1.
</event>
<event>
 5   0  0.1879500E-08  0.3988831E+04  0.7818609E-02  0.8006804E-01
        1   -1    0    0  501    0  0.00000000000E+00  0.00000000000E+00  0.24411913104E+04  0.24411913104E+04  0.50400001928E-02 0.  1.
       -1   -1    0    0    0  501  0.00000000000E+00  0.00000000000E+00 -0.16294063302E+04  0.16294063302E+04  0.50400001928E-02 0. -1.
    10030    2    1    2    0    0  0.00000000000E+00  0.00000000000E+00  0.81178498021E+03  0.40705976407E+04  0.39888306931E+04 0.  0.
        2    1    3    3  502    0 -0.16888782674E+04 -0.94994433308E+03  0.88778906781E+03  0.21314017611E+04  0.25500000920E-02 0.  1.
       -2    1    3    3    0  502  0.16888782674E+04  0.94994433308E+03 -0.76004087596E+02  0.19391958796E+04  0.25500000920E-02 0. -1.
</event>
<event>
 5   0  0.5951623E-08  0.3991923E+04  0.7818609E-02  0.8006178E-01
       -2   -1    0    0    0  501  0.00000000000E+00  0.00000000000E+00  0.19801169280E+04  0.19801169280E+04  0.25500000920E-02 0. -1.
        2   -1    0    0  501    0  0.00000000000E+00  0.00000000000E+00 -0.20119328516E+04  0.20119328516E+04  0.25500000920E-02 0.  1.
    10030    2    1    2    0    0  0.00000000000E+00  0.00000000000E+00 -0.31815923558E+02  0.39920497796E+04  0.39919229939E+04 0.  0.
        2    1    3    3  502    0  0.18451173116E+04  0.49681190018E+03  0.56080987748E+03  0.19914285516E+04  0.25500000920E-02 0. -1.
       -2    1    3    3    0  502 -0.18451173116E+04 -0.49681190018E+03 -0.59262580104E+03  0.20006212279E+04  0.25500000920E-02 0.  1.
</event>
<event>
 5   0  0.5945387E-08  0.4040179E+04  0.7818609E-02  0.7996490E-01
       -2   -1    0    0    0  501  0.00000000000E+00  0.00000000000E+00  0.15770425396E+04  0.15770425396E+04  0.25500000920E-02 0.  1.
        2   -1    0    0  501    0  0.00000000000E+00  0.00000000000E+00 -0.25876034629E+04  0.25876034629E+04  0.25500000920E-02 0. -1.
    10030    2    1    2    0    0  0.00000000000E+00  0.00000000000E+00 -0.10105609233E+04  0.41646460025E+04  0.40401785785E+04 0.  0.
        3    1    3    3  502    0  0.13318419279E+04  0.13191620054E+04 -0.12813144292E+04  0.22706294269E+04  0.10100000352E+00 0. -1.
       -3    1    3    3    0  502 -0.13318419279E+04 -0.13191620054E+04  0.27075350585E+03  0.18940165756E+04  0.10100000352E+00 0.  1.
</event>
<event>
 5   0  0.5846812E-08  0.3986990E+04  0.7818609E-02  0.8007176E-01
        2   -1    0    0  501    0  0.00000000000E+00  0.00000000000E+00  0.27265469257E+04  0.27265469257E+04  0.25500000920E-02 0.  1.
       -2   -1    0    0    0  501  0.00000000000E+00  0.00000000000E+00 -0.14575294632E+04  0.14575294632E+04  0.25500000920E-02 0. -1.
    10030    2    1    2    0    0  0.00000000000E+00  0.00000000000E+00  0.12690174626E+04  0.41840763889E+04  0.39869900812E+04 0.  0.
        4    1    3    3  502    0 -0.69393383637E+03  0.94548017345E+03 -0.10571762037E+04  0.15789553718E+04  0.12699999809E+01 0. -1.
       -4    1    3    3    0  502  0.69393383637E+03 -0.94548017345E+03  0.23261936663E+04  0.26051210171E+04  0.12699999809E+01 0.  1.
</event>
<event>
 5   0  0.1879500E-08  0.4000285E+04  0.7818609E-02  0.8004489E-01
       -1   -1    0    0    0  501  0.00000000000E+00  0.00000000000E+00  0.20195542594E+04  0.20195542594E+04  0.50400001928E-02 0. -1.
        1   -1    0    0  501    0  0.00000000000E+00  0.00000000000E+00 -0.19809173547E+04  0.19809173547E+04  0.50400001928E-02 0.  1.
    10030    2    1    2    0    0  0.00000000000E+00  0.00000000000E+00  0.38636904764E+02  0.40004716141E+04  0.40002850304E+04 0.  0.
        5    1    3    3  502    0  0.23450531554E+02  0.11758373875E+04 -0.15985964627E+04  0.19846098433E+04  0.46999998093E+01 0.  1.
       -5    1    3    3    0  502 -0.23450531554E+02 -0.11758373875E+04  0.16372333675E+04  0.20158617708E+04  0.46999998093E+01 0. -1.
</event>
<event>
 5   0  0.6161563E-08  0.4002673E+04  0.7818609E-02  0.8004007E-01
        2   -1    0    0  501    0  0.00000000000E+00  0.00000000000E+00  0.17091500126E+04  0.17091500126E+04  0.25500000920E-02 0. -1.
       -2   -1    0    0    0  501  0.00000000000E+00  0.00000000000E+00 -0.23434739705E+04  0.23434739705E+04  0.25500000920E-02 0.  1.
    10030    2    1    2    0    0  0.00000000000E+00  0.00000000000E+00 -0.63432395798E+03  0.40526239831E+04  0.40026733897E+04 0.  0.
        1    1    3    3  502    0  0.25266592266E+03  0.17582209720E+04  0.61638979508E+03  0.18801907973E+04  0.50400001928E-02 0. -1.
       -1    1    3    3    0  502 -0.25266592266E+03 -0.17582209720E+04 -0.12507137531E+04  0.21724331858E+04  0.50400001928E-02 0.  1.
</event>
<event>
 5   0  0.5888700E-08  0.4001650E+04  0.7818609E-02  0.8004214E-01
       -2   -1    0    0    0  501  0.00000000000E+00  0.00000000000E+00  0.17604601350E+04  0.17604601350E+04  0.25500000920E-02 0. -1.
        2   -1    0    0  501    0  0.00000000000E+00  0.00000000000E+00 -0.22740083477E+04  0.22740083477E+04  0.25500000920E-02 0.  1.
    10030    2    1    2    0    0  0.00000000000E+00  0.00000000000E+00 -0.51354821269E+03  0.40344684828E+04  0.40016501811E+04 0.  0.
        5    1    3    3  502    0  0.87904891518E+03  0.13459400597E+04 -0.14577602401E+04  0.21701079805E+04  0.46999998093E+01 0.  1.
       -5    1    3    3    0  502 -0.87904891518E+03 -0.13459400597E+04  0.94421202745E+03  0.18643605022E+04  0.46999998093E+01 0. -1.
</event>
<event>
 5   0  0.1879500E-08  0.4012623E+04  0.7818609E-02  0.8002005E-01
        1   -1    0    0  501    0  0.00000000000E+00  0.00000000000E+00  0.22671151508E+04  0.22671151508E+04  0.50400001928E-02 0. -1.
       -1   -1    0    0    0  501  0.00000000000E+00  0.00000000000E+00 -0.17755101030E+04  0.17755101030E+04  0.50400001928E-02 0.  1.
    10030    2    1    2    0    0  0.00000000000E+00  0.00000000000E+00  0.49160504778E+03  0.40426252539E+04  0.40126230100E+04 0.  0.
        4    1    3    3  502    0  0.68388734399E+03  0.21827488927E+03  0.21332934552E+04  0.22508417104E+04  0.12699999809E+01 0. -1.
       -4    1    3    3    0  502 -0.68388734399E+03 -0.21827488927E+03 -0.16416884074E+04  0.17917835434E+04  0.12699999809E+01 0.  1.
</event>
<event>
 5   0  0.1879500E-08  0.3996479E+04  0.7818609E-02  0.8005257E-01
        1   -1    0    0  501    0  0.00000000000E+00  0.00000000000E+00  0.23031222393E+04  0.23031222393E+04  0.50400001928E-02 0.  1.
       -1   -1    0    0    0  501  0.00000000000E+00  0.00000000000E+00 -0.17337162179E+04  0.17337162179E+04  0.50400001928E-02 0. -1.
    10030    2    1    2    0    0  0.00000000000E+00  0.00000000000E+00  0.56940602135E+03  0.40368384572E+04  0.39964786390E+04 0.  0.
        2    1    3    3  502    0 -0.10540570412E+04 -0.13732821266E+04  0.12927899233E+04  0.21606123741E+04  0.25500000920E-02 0.  1.
       -2    1    3    3    0  502  0.10540570412E+04  0.13732821266E+04 -0.72338390193E+03  0.18762260831E+04  0.25500000920E-02 0. -1.
</event>
<event>
 5   0  0.1879500E-08  0.3953234E+04  0.7818609E-02  0.8014048E-01
        1   -1    0    0  501    0  0.00000000000E+00  0.00000000000E+00  0.26242545538E+04  0.26242545538E+04  0.50400001928E-02 0.  1.
       -1   -1    0    0    0  501  0.00000000000E+00  0.00000000000E+00 -0.14888095676E+04  0.14888095676E+04  0.50400001928E-02 0. -1.
    10030    2    1    2    0    0  0.00000000000E+00  0.00000000000E+00  0.11354449862E+04  0.41130641214E+04  0.39532342645E+04 0.  0.
        2    1    3    3  502    0  0.39257895605E+03  0.10047891241E+04 -0.11555313422E+04  0.15808137472E+04  0.25500000920E-02 0. -1.
       -2    1    3    3    0  502 -0.39257895605E+03 -0.10047891241E+04  0.22909763283E+04  0.25322503742E+04  0.25500000920E-02 0.  1.
</event>
<event>
 5   0  0.1879500E-08  0.4090097E+04  0.7818609E-02  0.7986614E-01
       -1   -1    0    0    0  501  0.00000000000E+00  0.00000000000E+00  0.19361525338E+04  0.19361525338E+04  0.50400001928E-02 0.  1.
        1   -1    0    0  501    0  0.00000000000E+00  0.00000000000E+00 -0.21600688769E+04  0.21600688769E+04  0.50400001928E-02 0. -1.
    10030    2    1    2    0    0  0.00000000000E+00  0.00000000000E+00 -0.22391634314E+03  0.40962214107E+04  0.40900967368E+04 0.  0.
        5    1    3    3  502    0 -0.10987050102E+04  0.17141553287E+04 -0.30386857218E+03  0.20586013187E+04  0.46999998093E+01 0. -1.
       -5    1    3    3    0  502  0.10987050102E+04 -0.17141553287E+04  0.79952229045E+02  0.20376200920E+04  0.46999998093E+01 0.  1.
</event>
<event>
 5   0  0.1879500E-08  0.4006946E+04  0.7818609E-02  0.8003147E-01
       -1   -1    0    0    0  501  0.00000000000E+00  0.00000000000E+00  0.19300586364E+04  0.19300586364E+04  0.50400001928E-02 0. -1.
        1   -1    0    0  501    0  0.00000000000E+00  0.00000000000E+00 -0.20796796954E+04  0.20796796954E+04  0.50400001928E-02 0.  1.
    10030    2    1    2    0    0  0.00000000000E+00  0.00000000000E+00 -0.14962105901E+03  0.40097383318E+04  0.40069458479E+04 0.  0.
        2    1    3    3  502    0 -0.10849415722E+04 -0.10601987294E+04  0.12348353554E+04  0.19560004897E+04  0.25500000920E-02 0. -1.
       -2    1    3    3    0  502  0.10849415722E+04  0.10601987294E+04 -0.13844564144E+04  0.20537378421E+04  0.25500000920E-02 0.  1.
</event>
<event>
 5   0  0.5951623E-08  0.3995091E+04  0.7818609E-02  0.8005538E-01
        2   -1    0    0  501    0  0.00000000000E+00  0.00000000000E+00  0.22174311655E+04  0.22174311655E+04  0.25500000920E-02 0.  1.
       -2   -1    0    0    0  501  0.00000000000E+00  0.00000000000E+00 -0.17994638551E+04  0.17994638551E+04  0.25500000920E-02 0. -1.
    10030    2    1    2    0    0  0.00000000000E+00  0.00000000000E+00  0.41796731037E+03  0.40168950206E+04  0.39950906040E+04 0.  0.
        2    1    3    3  502    0 -0.19960787438E+04  0.46063880958E+02  0.14753545025E+03  0.20020536810E+04  0.25500000920E-02 0. -1.
       -2    1    3    3    0  502  0.19960787438E+04 -0.46063880958E+02  0.27043186013E+03  0.20148413396E+04  0.25500000920E-02 0.  1.
</event>
<event>
 5   0  0.5951623E-08  0.3831485E+04  0.7818609E-02  0.8039432E-01
       -2   -1    0    0    0  501  0.00000000000E+00  0.00000000000E+00  0.13767552349E+04  0.13767552349E+04  0.25500000920E-02 0. -1.
        2   -1    0    0  501    0  0.00000000000E+00  0.00000000000E+00 -0.26657389443E+04  0.26657389443E+04  0.25500000920E-02 0.  1.
    10030    2    1    2    0    0  0.00000000000E+00  0.00000000000E+00 -0.12889837094E+04  0.40424941792E+04  0.38314853759E+04 0.  0.
        2    1    3    3  502    0  0.12364177333E+04  0.12913063753E+04 -0.13707841167E+04  0.22528315650E+04  0.25500000920E-02 0.  1.
       -2    1    3    3    0  502 -0.12364177333E+04 -0.12913063753E+04  0.81800407312E+02  0.17896626142E+04  0.25500000920E-02 0. -1.
</event>
<event>
 5   0  0.5945387E-08  0.3986181E+04  0.7818609E-02  0.8007340E-01
       -2   -1    0    0    0  501  0.00000000000E+00  0.00000000000E+00  0.20530687700E+04  0.20530687700E+04  0.25500000920E-02 0.  1.
        2   -1    0    0  501    0  0.00000000000E+00  0.00000000000E+00 -0.19348641033E+04  0.19348641033E+04  0.25500000920E-02 0. -1.
    10030    2    1    2    0    0  0.00000000000E+00  0.00000000000E+00  0.11820466669E+03  0.39879328734E+04  0.39861806606E+04 0.  0.
        3    1    3    3  502    0 -0.11692240546E+04 -0.33202338885E+03  0.16393803639E+04  0.20408068033E+04  0.10100000352E+00 0.  1.
       -3    1    3    3    0  502  0.11692240546E+04  0.33202338885E+03 -0.15211756972E+04  0.19471260701E+04  0.10100000352E+00 0. -1.
</event>
<event>
 5   0  0.1879500E-08  0.3998582E+04  0.7818609E-02  0.8004833E-01
       -1   -1    0    0    0  501  0.00000000000E+00  0.00000000000E+00  0.21511815100E+04  0.21511815100E+04  0.50400001928E-02 0. -1.
        1   -1    0    0  501    0  0.00000000000E+00  0.00000000000E+00 -0.18581250330E+04  0.18581250330E+04  0.50400001928E-02 0.  1.
    10030    2    1    2    0    0  0.00000000000E+00  0.00000000000E+00  0.29305647703E+03  0.40093065430E+04  0.39985818557E+04 0.  0.
        1    1    3    3  502    0  0.83177372151E+03  0.72896311251E+03  0.18165071200E+04  0.21267188014E+04  0.50400001928E-02 0. -1.
       -1    1    3    3    0  502 -0.83177372151E+03 -0.72896311251E+03 -0.15234506430E+04  0.18825877416E+04  0.50400001928E-02 0.  1.
</event>
<event>
 5   0  0.1879500E-08  0.4223031E+04  0.7818609E-02  0.7961006E-01
        1   -1    0    0  501    0  0.00000000000E+00  0.00000000000E+00  0.23406920920E+04  0.23406920920E+04  0.50400001928E-02 0. -1.
       -1   -1    0    0    0  501  0.00000000000E+00  0.00000000000E+00 -0.19047772334E+04  0.19047772334E+04  0.50400001928E-02 0.  1.
    10030    2    1    2    0    0  0.00000000000E+00  0.00000000000E+00  0.43591485854E+03  0.42454693254E+04  0.42230306687E+04 0.  0.
        2    1    3    3  502    0 -0.19670350628E+04  0.74719429688E+03  0.41037260853E+02  0.21045689137E+04  0.25500000920E-02 0.  1.
       -2    1    3    3    0  502  0.19670350628E+04 -0.74719429688E+03  0.39487759769E+03  0.21409004117E+04  0.25500000920E-02 0. -1.
</event>
<event>
 5   0  0.1879500E-08  0.3986963E+04  0.7818609E-02  0.8007182E-01
        1   -1    0    0  501    0  0.00000000000E+00  0.00000000000E+00  0.21209452979E+04  0.21209452979E+04  0.50400001928E-02 0.  1.
       -1   -1    0    0    0  501  0.00000000000E+00  0.00000000000E+00 -0.18736781143E+04  0.18736781143E+04  0.50400001928E-02 0. -1.
    10030    2    1    2    0    0  0.00000000000E+00  0.00000000000E+00  0.24726718367E+03  0.39946234122E+04  0.39869631482E+04 0.  0.
        2    1    3    3  502    0  0.83216605800E+03 -0.92032400603E+03  0.16869109147E+04  0.20940785702E+04  0.25500000920E-02 0.  1.
       -2    1    3    3    0  502 -0.83216605800E+03  0.92032400603E+03 -0.14396437310E+04  0.19005448420E+04  0.25500000920E-02 0. -1.
</event>
<event>
 5   0  0.5945387E-08  0.3998449E+04  0.7818609E-02  0.8004859E-01
        2   -1    0    0  501    0  0.00000000000E+00  0.00000000000E+00  0.14606635828E+04  0.14606635828E+04  0.25500000920E-02 0.  1.
       -2   -1    0    0    0  501  0.00000000000E+00  0.00000000000E+00 -0.27363583554E+04  0.27363583554E+04  0.25500000920E-02 0. -1.
    10030    2    1    2    0    0  0.00000000000E+00  0.00000000000E+00 -0.12756947726E+04  0.41970219383E+04  0.39984491991E+04 0.  0.
        3    1    3    3  502    0  0.70325316746E+03 -0.10588938935E+03  0.13233988938E+04  0.15023855106E+04  0.10100000352E+00 0.  1.
       -3    1    3    3    0  502 -0.70325316746E+03  0.10588938935E+03 -0.25990936664E+04  0.26946364276E+04  0.10100000352E+00 0. -1.
</event>
<event>
 5   0  0.5951623E-08  0.4004420E+04  0.7818609E-02  0.8003656E-01
        2   -1    0    0  501    0  0.00000000000E+00  0.00000000000E+00  0.17191760161E+04  0.17191760161E+04  0.25500000920E-02 0. -1.
       -2   -1    0    0    0  501  0.00000000000E+00  0.00000000000E+00 -0.23318403035E+04  0.23318403035E+04  0.25500000920E-02 0.  1.
    10030    2    1    2    0    0  0.00000000000E+00  0.00000000000E+00 -0.61266428743E+03  0.40510163196E+04  0.40044195200E+04 0.  0.
        2    1    3    3  502    0 -0.18087044861E+04 -0.43677177408E+03  0.44163760553E+03  0.19123873236E+04  0.25500000920E-02 0. -1.
       -2    1    3    3    0  502  0.18087044861E+04  0.43677177408E+03 -0.10543018930E+04  0.21386289960E+04  0.25500000920E-02 0.  1.
</event>
<event>
 5   0  0.5951623E-08  0.4025770E+04  0.7818609E-02  0.7999368E-01
        2   -1    0    0  501    0  0.00000000000E+00  0.00000000000E+00  0.22897876538E+04  0.22897876538E+04  0.25500000920E-02 0.  1.
       -2   -1    0    0    0  501  0.00000000000E+00  0.00000000000E+00 -0.17694679743E+04  0.17694679743E+04  0.25500000920E-02 0. -1.
    10030    2    1    2    0    0  0.00000000000E+00  0.00000000000E+00  0.52031967952E+03  0.40592556280E+04  0.40257699493E+04 0.  0.
        2    1    3    3  502    0 -0.99900084466E+03  0.11518784368E+04 -0.10648784846E+04  0.18597830002E+04  0.25500000920E-02 0. -1.
       -2    1    3    3    0  502  0.99900084466E+03 -0.11518784368E+04  0.15851981641E+04  0.21994726278E+04  0.25500000920E-02 0.  1.
</event>
<event>
 5   0  0.1879500E-08  0.4033305E+04  0.7818609E-02  0.7997861E-01
       -1   -1    0    0    0  501  0.00000000000E+00  0.00000000000E+00  0.13248522426E+04  0.13248522426E+04  0.50400001928E-02 0.  1.
        1   -1    0    0  501    0  0.00000000000E+00  0.00000000000E+00 -0.30696914007E+04  0.30696914007E+04  0.50400001928E-02 0. -1.
    10030    2    1    2    0    0  0.00000000000E+00  0.00000000000E+00 -0.17448391581E+04  0.43945436433E+04  0.40333051143E+04 0.  0.
        4    1    3    3  502    0  0.15222204833E+03 -0.18913395751E+04 -0.16166395643E+04  0.24927619289E+04  0.12699999809E+01 0. -1.
       -4    1    3    3    0  502 -0.15222204833E+03  0.18913395751E+04 -0.12819959381E+03  0.19017817144E+04  0.12699999809E+01 0.  1.
</event>
<event>
 5   0  0.6161563E-08  0.4010142E+04  0.7818609E-02  0.8002504E-01
        2   -1    0    0  501    0  0.00000000000E+00  0.00000000000E+00  0.21755914022E+04  0.21755914022E+04  0.25500000920E-02 0.  1.
       -2   -1    0    0    0  501  0.00000000000E+00  0.00000000000E+00 -0.18479159655E+04  0.18479159655E+04  0.25500000920E-02 0. -1.
    10030    2    1    2    0    0  0.00000000000E+00  0.00000000000E+00  0.32767543676E+03  0.40235073677E+04  0.40101421853E+04 0.  0.
        1    1    3    3  502    0  0.86405063006E+03 -0.12440257518E+03  0.19749162024E+04  0.21592483642E+04  0.50400001928E-02 0.  1.
       -1    1    3    3    0  502 -0.86405063006E+03  0.12440257518E+03 -0.16472407656E+04  0.18642590035E+04  0.50400001928E-02 0. -1.
</event>
<event>
 5   0  0.5945387E-08  0.4007008E+04  0.7818609E-02  0.8003134E-01
       -2   -1    0    0    0  501  0.00000000000E+00  0.00000000000E+00  0.26579234911E+04  0.26579234911E+04  0.25500000920E-02 0.  1.
        2   -1    0    0  501    0  0.00000000000E+00  0.00000000000E+00 -0.15102124157E+04  0.15102124157E+04  0.25500000920E-02 0. -1.
    10030    2    1    2    0    0  0.00000000000E+00  0.00000000000E+00  0.11477110754E+04  0.41681359068E+04  0.40070083884E+04 0.  0.
        3    1    3    3  502    0  0.16833946736E+04  0.29244257354E+03  0.16622014466E+04  0.23837478778E+04  0.10100000352E+00 0.  1.
       -3    1    3    3    0  502 -0.16833946736E+04 -0.29244257354E+03 -0.51449037111E+03  0.17843880290E+04  0.10100000352E+00 0. -1.
</event>
<event>
 5   0  0.1879500E-08  0.4081421E+04  0.7818609E-02  0.7988320E-01
        1   -1    0    0  501    0  0.00000000000E+00  0.00000000000E+00  0.20412784918E+04  0.20412784918E+04  0.50400001928E-02 0.  1.
       -1   -1    0    0    0  501  0.00000000000E+00  0.00000000000E+00 -0.20401426973E+04  0.20401426973E+04  0.50400001928E-02 0. -1.
    10030    2    1    2    0    0  0.00000000000E+00  0.00000000000E+00  0.11357944833E+01  0.40814211891E+04  0.40814210311E+04 0.  0.
        2    1    3    3  502    0 -0.76908015116E+02 -0.14967086937E+04 -0.13845125337E+04  0.20403251487E+04  0.25500000920E-02 0. -1.
       -2    1    3    3    0  502  0.76908015116E+02  0.14967086937E+04  0.13856483282E+04  0.20410960404E+04  0.25500000920E-02 0.  1.
</event>
<event>
 5   0  0.5945387E-08  0.4006433E+04  0.7818609E-02  0.8003250E-01
       -2   -1    0    0    0  501  0.00000000000E+00  0.00000000000E+00  0.13803907178E+04  0.13803907178E+04  0.25500000920E-02 0.  1.
        2   -1    0    0  501    0  0.00000000000E+00  0.00000000000E+00 -0.29070580697E+04  0.29070580697E+04  0.25500000920E-02 0. -1.
    10030    2    1    2    0    0  0.00000000000E+00  0.00000000000E+00 -0.15266673519E+04  0.42874487875E+04  0.40064328151E+04 0.  0.
        3    1    3    3  502    0  0.77790269861E+03  0.11910759149E+04 -0.22726051809E+04  0.26811431819E+04  0.10100000352E+00 0. -1.
       -3    1    3    3    0  502 -0.77790269861E+03 -0.11910759149E+04  0.74593782896E+03  0.16063056056E+04  0.10100000352E+00 0.  1.
</event>
<event>
 5   0  0.5951623E-08  0.4013916E+04  0.7818609E-02  0.8001745E-01
        2   -1    0    0  501    0  0.00000000000E+00  0.00000000000E+00  0.21706686695E+04  0.21706686695E+04  0.25500000920E-02 0.  1.
       -2   -1    0    0    0  501  0.00000000000E+00  0.00000000000E+00 -0.18555941563E+04  0.18555941563E+04  0.25500000920E-02 0. -1.
    10030    2    1    2    0    0  0.00000000000E+00  0.00000000000E+00  0.31507451321E+03  0.40262628258E+04  0.40139158429E+04 0.  0.
        2    1    3    3  502    0  0.11164727143E+04 -0.58045523245E+01  0.18304007958E+04  0.21440410649E+04  0.25500000920E-02 0.  1.
       -2    1    3    3    0  502 -0.11164727143E+04  0.58045523245E+01 -0.15153262826E+04  0.18822217609E+04  0.25500000920E-02 0. -1.
</event>
<event>
 5   0  0.5945387E-08  0.4006981E+04  0.7818609E-02  0.8003140E-01
       -2   -1    0    0    0  501  0.00000000000E+00  0.00000000000E+00  0.20650271543E+04  0.20650271543E+04  0.25500000920E-02 0. -1.
        2   -1    0    0  501    0  0.00000000000E+00  0.00000000000E+00 -0.19437874012E+04  0.19437874012E+04  0.25500000920E-02 0.  1.
    10030    2    1    2    0    0  0.00000000000E+00  0.00000000000E+00  0.12123975312E+03  0.40088145555E+04  0.40069807914E+04 0.  0.
        3    1    3    3  502    0  0.34992727630E+03 -0.19666912347E+04 -0.93236861345E+02  0.19997541434E+04  0.10100000352E+00 0.  1.
       -3    1    3    3    0  502 -0.34992727630E+03  0.19666912347E+04  0.21447661446E+03  0.20090604122E+04  0.10100000352E+00 0. -1.
</event>
<event>
 5   0  0.1879500E-08  0.3969576E+04  0.7818609E-02  0.8010712E-01
        1   -1    0    0  501    0  0.00000000000E+00  0.00000000000E+00  0.28961218911E+04  0.28961218911E+04  0.50400001928E-02 0. -1.
       -1   -1    0    0    0  501  0.00000000000E+00  0.00000000000E+00 -0.13602273953E+04  0.13602273953E+04  0.50400001928E-02 0.  1.
    10030    2    1    2    0    0  0.00000000000E+00  0.00000000000E+00  0.15358944958E+04  0.42563492864E+04  0.39695764693E+04 0.  0.
        5    1    3    3  502    0  0.94861503019E+03 -0.40851122085E+03  0.25852674239E+04  0.27839507244E+04  0.46999998093E+01 0. -1.
       -5    1    3    3    0  502 -0.94861503019E+03  0.40851122085E+03 -0.10493729281E+04  0.14723985620E+04  0.46999998093E+01 0.  1.
</event>
<event>
 5   0  0.1879500E-08  0.4115221E+04  0.7818609E-02  0.7981698E-01
       -3   -1    0    0    0  501  0.00000000000E+00  0.00000000000E+00  0.18044288355E+04  0.18044288383E+04  0.10100000352E+00 0.  1.
        3   -1    0    0  501    0  0.00000000000E+00  0.00000000000E+00 -0.23463159426E+04  0.23463159448E+04  0.10100000352E+00 0. -1.
    10030    2    1    2    0    0  0.00000000000E+00  0.00000000000E+00 -0.54188710709E+03  0.41507447831E+04  0.41152206037E+04 0.  0.
        4    1    3    3  502    0 -0.46524108917E+03 -0.10304824961E+04  0.14630287372E+04  0.18489992278E+04  0.12699999809E+01 0.  1.
       -4    1    3    3    0  502  0.46524108917E+03  0.10304824961E+04 -0.20049158443E+04  0.23017455553E+04  0.12699999809E+01 0. -1.
</event>
<event>
 5   0  0.6161563E-08  0.4040208E+04  0.7818609E-02  0.7996484E-01
        2   -1    0    0  501    0  0.00000000000E+00  0.00000000000E+00  0.13552114038E+04  0.13552114038E+04  0.25500000920E-02 0. -1.
       -2   -1    0    0    0  501  0.00000000000E+00  0.00000000000E+00 -0.30112059331E+04  0.30112059331E+04  0.25500000920E-02 0.  1.
    10030    2    1    2    0    0  0.00000000000E+00  0.00000000000E+00 -0.16559945294E+04  0.43664173369E+04  0.40402082222E+04 0.  0.
        1    1    3    3  502    0  0.21422412259E+02  0.18607290506E+04  0.21638888174E+02  0.18609781732E+04  0.50400001928E-02 0. -1.
       -1    1    3    3    0  502 -0.21422412259E+02 -0.18607290506E+04 -0.16776334175E+04  0.25054391637E+04  0.50400001928E-02 0.  1.
</event>
<event>
 5   0  0.1879500E-08  0.4014129E+04  0.7818609E-02  0.8001702E-01
        1   -1    0    0  501    0  0.00000000000E+00  0.00000000000E+00  0.12523149242E+04  0.12523149242E+04  0.50400001928E-02 0.  1.
       -1   -1    0    0    0  501  0.00000000000E+00  0.00000000000E+00 -0.32166894724E+04  0.32166894724E+04  0.50400001928E-02 0. -1.
    10030    2    1    2    0    0  0.00000000000E+00  0.00000000000E+00 -0.19643745482E+04  0.44690043966E+04  0.40141291623E+04 0.  0.
        4    1    3    3  502    0  0.81182125510E+03  0.15860367725E+04  0.46497499789E+02  0.17823383585E+04  0.12699999809E+01 0.  1.
       -4    1    3    3    0  502 -0.81182125510E+03 -0.15860367725E+04 -0.20108720480E+04  0.26866660381E+04  0.12699999809E+01 0. -1.
</event>
<event>
 5   0  0.5951623E-08  0.3995883E+04  0.7818609E-02  0.8005378E-01
        2   -1    0    0  501    0  0.00000000000E+00  0.00000000000E+00  0.21884362222E+04  0.21884362222E+04  0.25500000920E-02 0. -1.
       -2   -1    0    0    0  501  0.00000000000E+00  0.00000000000E+00 -0.18240282430E+04  0.18240282430E+04  0.25500000920E-02 0.  1.
    10030    2    1    2    0    0  0.00000000000E+00  0.00000000000E+00  0.36440797916E+03  0.40124644652E+04  0.39958826195E+04 0.  0.
        2    1    3    3  502    0 -0.69895064104E+03  0.13652681571E+04 -0.11034529312E+04  0.18894701667E+04  0.25500000920E-02 0.  1.
       -2    1    3    3    0  502  0.69895064104E+03 -0.13652681571E+04  0.14678609104E+04  0.21229942985E+04  0.25500000920E-02 0. -1.
</event>
<event>
 5   0  0.1879500E-08  0.3988203E+04  0.7818609E-02  0.8006931E-01
        1   -1    0    0  501    0  0.00000000000E+00  0.00000000000E+00  0.19672121642E+04  0.19672121642E+04  0.50400001928E-02 0.  1.
       -1   -1    0    0    0  501  0.00000000000E+00  0.00000000000E+00 -0.20213588639E+04  0.20213588639E+04  0.50400001928E-02 0. -1.
    10030    2    1    2    0    0  0.00000000000E+00  0.00000000000E+00 -0.54146699741E+02  0.39885710281E+04  0.39882034779E+04 0.  0.
        1    1    3    3  502    0 -0.11417289237E+04 -0.12396364712E+04 -0.10930975812E+04  0.20087572869E+04  0.50400001928E-02 0. -1.
       -1    1    3    3    0  502  0.11417289237E+04  0.12396364712E+04  0.10389508814E+04  0.19798137412E+04  0.50400001928E-02 0.  1.
</event>
<event>
 5   0  0.5846812E-08  0.3981055E+04  0.7818609E-02  0.8008379E-01
       -2   -1    0    0    0  501  0.00000000000E+00  0.00000000000E+00  0.13788771093E+04  0.13788771093E+04  0.25500000920E-02 0.  1.
        2   -1    0    0  501    0  0.00000000000E+00  0.00000000000E+00 -0.28734975541E+04  0.28734975541E+04  0.25500000920E-02 0. -1.
    10030    2    1    2    0    0  0.00000000000E+00  0.00000000000E+00 -0.14946204448E+04  0.42523746633E+04  0.39810551369E+04 0.  0.
        4    1    3    3  502    0 -0.80852247025E+03  0.11234326231E+04 -0.22753245264E+04  0.26632522894E+04  0.12699999809E+01 0. -1.
       -4    1    3    3    0  502  0.80852247025E+03 -0.11234326231E+04  0.78070408157E+03  0.15891223740E+04  0.12699999809E+01 0.  1.
</event>
<event>
 5   0  0.1879500E-08  0.3996783E+04  0.7818609E-02  0.8005196E-01
       -1   -1    0    0    0  501  0.00000000000E+00  0.00000000000E+00  0.16069358585E+04  0.16069358585E+04  0.50400001928E-02 0.  1.
        1   -1    0    0  501    0  0.00000000000E+00  0.00000000000E+00 -0.24852069527E+04  0.24852069527E+04  0.50400001928E-02 0. -1.
    10030    2    1    2    0    0  0.00000000000E+00  0.00000000000E+00 -0.87827109426E+03  0.40921428112E+04  0.39967827902E+04 0.  0.
        4    1    3    3  502    0 -0.18801644670E+04 -0.67541983724E+03 -0.38943695748E+03  0.20354049072E+04  0.12699999809E+01 0. -1.
       -4    1    3    3    0  502  0.18801644670E+04  0.67541983724E+03 -0.48883413678E+03  0.20567379040E+04  0.12699999809E+01 0.  1.
</event>
<event>
 5   0  0.5888700E-08  0.3997386E+04  0.7818609E-02  0.8005074E-01
       -2   -1    0    0    0  501  0.00000000000E+00  0.00000000000E+00  0.13083225154E+04  0.13083225154E+04  0.25500000920E-02 0. -1.
        2   -1    0    0  501    0  0.00000000000E+00  0.00000000000E+00 -0.30533562013E+04  0.30533562013E+04  0.25500000920E-02 0.  1.
    10030    2    1    2    0    0  0.00000000000E+00  0.00000000000E+00 -0.17450336859E+04  0.43616787167E+04  0.39973864790E+04 0.  0.
        5    1    3    3  502    0 -0.17421919177E+04 -0.16306219612E+03 -0.19264236417E+04  0.26024895956E+04  0.46999998093E+01 0.  1.
       -5    1    3    3    0  502  0.17421919177E+04  0.16306219612E+03  0.18138995578E+03  0.17591891211E+04  0.46999998093E+01 0. -1.
</event>
<event>
 5   0  0.1879500E-08  0.3990007E+04  0.7818609E-02  0.8006566E-01
        1   -1    0    0  501    0  0.00000000000E+00  0.00000000000E+00  0.14844976676E+04  0.14844976676E+04  0.50400001928E-02 0.  1.
       -1   -1    0    0    0  501  0.00000000000E+00  0.00000000000E+00 -0.26810676286E+04  0.26810676286E+04  0.50400001928E-02 0. -1.
    10030    2    1    2    0    0  0.00000000000E+00  0.00000000000E+00 -0.11965699610E+04  0.41655652962E+04  0.39900068378E+04 0.  0.
        4    1    3    3  502    0 -0.45391659433E+03 -0.16103747797E+04 -0.17326902010E+04  0.24086436331E+04  0.12699999809E+01 0. -1.
       -4    1    3    3    0  502  0.45391659433E+03  0.16103747797E+04  0.53612024003E+03  0.17569216631E+04  0.12699999809E+01 0.  1.
</event>
<event>
 5   0  0.1879500E-08  0.4044877E+04  0.7818609E-02  0.7995554E-01
        1   -1    0    0  501    0  0.00000000000E+00  0.00000000000E+00  0.22540043251E+04  0.22540043251E+04  0.50400001928E-02 0. -1.
       -1   -1    0    0    0  501  0.00000000000E+00  0.00000000000E+00 -0.18146629941E+04  0.18146629941E+04  0.50400001928E-02 0.  1.
    10030    2    1    2    0    0  0.00000000000E+00  0.00000000000E+00  0.43934133093E+03  0.40686673192E+04  0.40448773714E+04 0.  0.
        5    1    3    3  502    0 -0.85762061468E+03  0.93945769202E+03  0.18012229414E+04  0.22051122530E+04  0.46999998093E+01 0. -1.
       -5    1    3    3    0  502  0.85762061468E+03 -0.93945769202E+03 -0.13618816105E+04  0.18635550662E+04  0.46999998093E+01 0.  1.
</event>
<event>
 5   0  0.6161563E-08  0.4000932E+04  0.7818609E-02  0.8004359E-01
       -2   -1    0    0    0  501  0.00000000000E+00  0.00000000000E+00  0.19576195408E+04  0.19576195408E+04  0.25500000920E-02 0. -1.
        2   -1    0    0  501    0  0.00000000000E+00  0.00000000000E+00 -0.20442497549E+04  0.20442497549E+04  0.25500000920E-02 0.  1.
    10030    2    1    2    0    0  0.00000000000E+00  0.00000000000E+00 -0.86630214016E+02  0.40018692957E+04  0.40009315248E+04 0.  0.
        1    1    3    3  502    0 -0.96563826411E+03  0.80943870826E+03 -0.15974537258E+04  0.20345777659E+04  0.50400001928E-02 0.  1.
       -1    1    3    3    0  502  0.96563826411E+03 -0.80943870826E+03  0.15108235117E+04  0.19672915298E+04  0.50400001928E-02 0. -1.
</event>
<event>
 5   0  0.1879500E-08  0.3996947E+04  0.7818609E-02  0.8005163E-01
        1   -1    0    0  501    0  0.00000000000E+00  0.00000000000E+00  0.28609287649E+04  0.28609287649E+04  0.50400001928E-02 0.  1.
       -1   -1    0    0    0  501  0.00000000000E+00  0.00000000000E+00 -0.13960135653E+04  0.13960135653E+04  0.50400001928E-02 0. -1.
    10030    2    1    2    0    0  0.00000000000E+00  0.00000000000E+00  0.14649151995E+04  0.42569423302E+04  0.39969465171E+04 0.  0.
        5    1    3    3  502    0  0.79628301545E+03  0.12475473661E+04 -0.69781671647E+03  0.16362797228E+04  0.46999998093E+01 0. -1.
       -5    1    3    3    0  502 -0.79628301545E+03 -0.12475473661E+04  0.21627319160E+04  0.26206626074E+04  0.46999998093E+01 0.  1.
</event>
<event>
 5   0  0.6161563E-08  0.3997755E+04  0.7818609E-02  0.8005000E-01
       -2   -1    0    0    0  501  0.00000000000E+00  0.00000000000E+00  0.25995895638E+04  0.25995895638E+04  0.25500000920E-02 0.  1.
        2   -1    0    0  501    0  0.00000000000E+00  0.00000000000E+00 -0.15369774241E+04  0.15369774241E+04  0.25500000920E-02 0. -1.
    10030    2    1    2    0    0  0.00000000000E+00  0.00000000000E+00  0.10626121396E+04  0.41365669879E+04  0.39977546055E+04 0.  0.
        1    1    3    3  502    0 -0.61581815068E+03 -0.14333476074E+04 -0.76180455822E+03  0.17361058560E+04  0.50400001928E-02 0. -1.
       -1    1    3    3    0  502  0.61581815068E+03  0.14333476074E+04  0.18244166979E+04  0.24004611319E+04  0.50400001928E-02 0.  1.
</event>
<event>
 5   0  0.1879500E-08  0.4006509E+04  0.7818609E-02  0.8003235E-01
       -1   -1    0    0    0  501  0.00000000000E+00  0.00000000000E+00  0.17574163101E+04  0.17574163101E+04  0.50400001928E-02 0. -1.
        1   -1    0    0  501    0  0.00000000000E+00  0.00000000000E+00 -0.22834816618E+04  0.22834816618E+04  0.50400001928E-02 0.  1.
    10030    2    1    2    0    0  0.00000000000E+00  0.00000000000E+00 -0.52606535165E+03  0.40408979719E+04  0.40065086628E+04 0.  0.
        3    1    3    3  502    0 -0.84199672274E+03  0.59476534851E+03  0.14693611452E+04  0.17949168466E+04  0.10100000352E+00 0. -1.
       -3    1    3    3    0  502  0.84199672274E+03 -0.59476534851E+03 -0.19954264968E+04  0.22459811253E+04  0.10100000352E+00 0.  1.
</event>
<event>
 5   0  0.1879500E-08  0.3873081E+04  0.7818609E-02  0.8030651E-01
        1   -1    0    0  501    0  0.00000000000E+00  0.00000000000E+00  0.22178417052E+04  0.22178417052E+04  0.50400001928E-02 0.  1.
       -1   -1    0    0    0  501  0.00000000000E+00  0.00000000000E+00 -0.16909180178E+04  0.16909180178E+04  0.50400001928E-02 0. -1.
    10030    2    1    2    0    0  0.00000000000E+00  0.00000000000E+00  0.52692368731E+03  0.39087597230E+04  0.38730806860E+04 0.  0.
        5    1    3    3  502    0  0.79284201517E+02  0.10328491097E+04 -0.13877963359E+04  0.17317805946E+04  0.46999998093E+01 0. -1.
       -5    1    3    3    0  502 -0.79284201517E+02 -0.10328491097E+04  0.19147200232E+04  0.21769791284E+04  0.46999998093E+01 0.  1.
</event>
<event>
 5   0  0.5846812E-08  0.3969577E+04  0.7818609E-02  0.8010712E-01
        2   -1    0    0  501    0  0.00000000000E+00  0.00000000000E+00  0.16462365032E+04  0.16462365032E+04  0.25500000920E-02 0. -1.
       -2   -1    0    0    0  501  0.00000000000E+00  0.00000000000E+00 -0.23929639388E+04  0.23929639388E+04  0.25500000920E-02 0.  1.
    10030    2    1    2    0    0  0.00000000000E+00  0.00000000000E+00 -0.74672743562E+03  0.40392004421E+04  0.39695765956E+04 0.  0.
        4    1    3    3  502    0 -0.17661944315E+04  0.90534647933E+03 -0.39063063369E+03  0.20227923577E+04  0.12699999809E+01 0. -1.
       -4    1    3    3    0  502  0.17661944315E+04 -0.90534647933E+03 -0.35609680193E+03  0.20164080844E+04  0.12699999809E+01 0.  1.
</event>
<event>
 5   0  0.5951623E-08  0.4011420E+04  0.7818609E-02  0.8002247E-01
        2   -1    0    0  501    0  0.00000000000E+00  0.00000000000E+00  0.25841720904E+04  0.25841720904E+04  0.25500000920E-02 0. -1.
       -2   -1    0    0    0  501  0.00000000000E+00  0.00000000000E+00 -0.15567359267E+04  0.15567359267E+04  0.25500000920E-02 0.  1.
    10030    2    1    2    0    0  0.00000000000E+00  0.00000000000E+00  0.10274361638E+04  0.41409080171E+04  0.40114204636E+04 0.  0.
        2    1    3    3  502    0  0.12144221832E+04  0.55657133486E+03 -0.10306636912E+04  0.16872642159E+04  0.25500000920E-02 0.  1.
       -2    1    3    3    0  502 -0.12144221832E+04 -0.55657133486E+03  0.20580998550E+04  0.24536438012E+04  0.25500000920E-02 0. -1.
</event>
<event>
 5   0  0.1879500E-08  0.3992203E+04  0.7818609E-02  0.8006121E-01
       -1   -1    0    0    0  501  0.00000000000E+00  0.00000000000E+00  0.17926949104E+04  0.17926949104E+04  0.50400001928E-02 0. -1.
        1   -1    0    0  501    0  0.00000000000E+00  0.00000000000E+00 -0.22225879227E+04  0.22225879227E+04  0.50400001928E-02 0.  1.
    10030    2    1    2    0    0  0.00000000000E+00  0.00000000000E+00 -0.42989301233E+03  0.40152828331E+04  0.39922034301E+04 0.  0.
        4    1    3    3  502    0  0.21586083164E+03 -0.15391788230E+04  0.10447930791E+04  0.18727684157E+04  0.12699999809E+01 0. -1.
       -4    1    3    3    0  502 -0.21586083164E+03  0.15391788230E+04 -0.14746860914E+04  0.21425144174E+04  0.12699999809E+01 0.  1.
</event>
<event>
 5   0  0.5888700E-08  0.3992110E+04  0.7818609E-02  0.8006140E-01
        2   -1    0    0  501    0  0.00000000000E+00  0.00000000000E+00  0.16631558856E+04  0.16631558856E+04  0.25500000920E-02 0.  1.
       -2   -1    0    0    0  501  0.00000000000E+00  0.00000000000E+00 -0.23955871401E+04  0.23955871401E+04  0.25500000920E-02 0. -1.
    10030    2    1    2    0    0  0.00000000000E+00  0.00000000000E+00 -0.73243125454E+03  0.40587430257E+04  0.39921096435E+04 0.  0.
        5    1    3    3  502    0 -0.16489217105E+04  0.39457970412E+03 -0.14371621391E+04  0.22226320106E+04  0.46999998093E+01 0. -1.
       -5    1    3    3    0  502  0.16489217105E+04 -0.39457970412E+03  0.70473088451E+03  0.18361110152E+04  0.46999998093E+01 0.  1.
</event>
<event>
 5   0  0.1879500E-08  0.3993261E+04  0.7818609E-02  0.8005907E-01
        1   -1    0    0  501    0  0.00000000000E+00  0.00000000000E+00  0.30620100763E+04  0.30620100763E+04  0.50400001928E-02 0. -1.
       -1   -1    0    0    0  501  0.00000000000E+00  0.00000000000E+00 -0.13019335515E+04  0.13019335515E+04  0.50400001928E-02 0.  1.
    10030    2    1    2    0    0  0.00000000000E+00  0.00000000000E+00  0.17600765247E+04  0.43639436278E+04  0.39932611502E+04 0.  0.
        1    1    3    3  502    0 -0.18440097266E+04 -0.29670826813E+03  0.16513341534E+04  0.24930527781E+04  0.50400001928E-02 0. -1.
       -1    1    3    3    0  502  0.18440097266E+04  0.29670826813E+03  0.10874237130E+03  0.18708908497E+04  0.50400001928E-02 0.  1.
</event>
<event>
 5   0  0.5846812E-08  0.4002939E+04  0.7818609E-02  0.8003954E-01
       -2   -1    0    0    0  501  0.00000000000E+00  0.00000000000E+00  0.13550360154E+04  0.13550360154E+04  0.25500000920E-02 0. -1.
        2   -1    0    0  501    0  0.00000000000E+00  0.00000000000E+00 -0.29562898927E+04  0.29562898928E+04  0.25500000920E-02 0.  1.
    10030    2    1    2    0    0  0.00000000000E+00  0.00000000000E+00 -0.16012538773E+04  0.43113259082E+04  0.40029385590E+04 0.  0.
        4    1    3    3  502    0  0.79348214621E+03 -0.47425433492E+03 -0.27125922723E+04  0.28657790457E+04  0.12699999809E+01 0.  1.
       -4    1    3    3    0  502 -0.79348214621E+03  0.47425433492E+03  0.11113383950E+04  0.14455468624E+04  0.12699999809E+01 0. -1.
</event>
<event>
 5   0  0.1879500E-08  0.3998017E+04  0.7818609E-02  0.8004947E-01
        1   -1    0    0  501    0  0.00000000000E+00  0.00000000000E+00  0.14884216770E+04  0.14884216770E+04  0.50400001928E-02 0. -1.
       -1   -1    0    0    0  501  0.00000000000E+00  0.00000000000E+00 -0.26847469911E+04  0.26847469911E+04  0.50400001928E-02 0.  1.
    10030    2    1    2    0    0  0.00000000000E+00  0.00000000000E+00 -0.11963253141E+04  0.41731686681E+04  0.39980173180E+04 0.  0.
        2    1    3    3  502    0  0.93741360125E+03  0.37655040618E+03  0.12023713498E+04  0.15704239335E+04  0.25500000920E-02 0. -1.
       -2    1    3    3    0  502 -0.93741360125E+03 -0.37655040618E+03 -0.23986966639E+04  0.26027447346E+04  0.25500000920E-02 0.  1.
</event>
<event>
 5   0  0.1879500E-08  0.4003523E+04  0.7818609E-02  0.8003836E-01
       -1   -1    0    0    0  501  0.00000000000E+00  0.00000000000E+00  0.31447463856E+04  0.31447463856E+04  0.50400001928E-02 0.  1.
        1   -1    0    0  501    0  0.00000000000E+00  0.00000000000E+00 -0.12742045322E+04  0.12742045322E+04  0.50400001928E-02 0. -1.
    10030    2    1    2    0    0  0.00000000000E+00  0.00000000000E+00  0.18705418534E+04  0.44189509179E+04  0.40035234968E+04 0.  0.
        2    1    3    3  502    0  0.30893566605E+03  0.17814204091E+04 -0.13036518779E+02  0.18080569323E+04  0.25500000920E-02 0. -1.
       -2    1    3    3    0  502 -0.30893566605E+03 -0.17814204091E+04  0.18835783722E+04  0.26108939856E+04  0.25500000920E-02 0.  1.
</event>
<event>
 5   0  0.5951623E-08  0.4007722E+04  0.7818609E-02  0.8002991E-01
        2   -1    0    0  501    0  0.00000000000E+00  0.00000000000E+00  0.25513988365E+04  0.25513988365E+04  0.25500000920E-02 0. -1.
       -2   -1    0    0    0  501  0.00000000000E+00  0.00000000000E+00 -0.15738261735E+04  0.15738261735E+04  0.25500000920E-02 0.  1.
    10030    2    1    2    0    0  0.00000000000E+00  0.00000000000E+00  0.97757266294E+03  0.41252250100E+04  0.40077216810E+04 0.  0.
        2    1    3    3  502    0 -0.69454832056E+03 -0.10073956792E+04 -0.11446284367E+04  0.16755350436E+04  0.25500000920E-02 0.  1.
       -2    1    3    3    0  502  0.69454832056E+03  0.10073956792E+04  0.21222010997E+04  0.24496899664E+04  0.25500000920E-02 0. -1.
</event>
<event>
 5   0  0.1879500E-08  0.3974794E+04  0.7818609E-02  0.8009651E-01
        3   -1    0    0  501    0  0.00000000000E+00  0.00000000000E+00  0.21014397558E+04  0.21014397582E+04  0.10100000352E+00 0. -1.
       -3   -1    0    0    0  501  0.00000000000E+00  0.00000000000E+00 -0.18795432294E+04  0.18795432321E+04  0.10100000352E+00 0.  1.
    10030    2    1    2    0    0  0.00000000000E+00  0.00000000000E+00  0.22189652636E+03  0.39809829903E+04  0.39747940200E+04 0.  0.
        3    1    3    3  502    0  0.15002031474E+04 -0.36887890366E+03  0.13631212074E+04  0.20602865250E+04  0.10100000352E+00 0. -1.
       -3    1    3    3    0  502 -0.15002031474E+04  0.36887890366E+03 -0.11412246810E+04  0.19206964653E+04  0.10100000352E+00 0.  1.
</event>
<event>
 5   0  0.1879500E-08  0.4029175E+04  0.7818609E-02  0.7998687E-01
        1   -1    0    0  501    0  0.00000000000E+00  0.00000000000E+00  0.19478975553E+04  0.19478975553E+04  0.50400001928E-02 0.  1.
       -1   -1    0    0    0  501  0.00000000000E+00  0.00000000000E+00 -0.20835611446E+04  0.20835611446E+04  0.50400001928E-02 0. -1.
    10030    2    1    2    0    0  0.00000000000E+00  0.00000000000E+00 -0.13566358933E+03  0.40314586999E+04  0.40291754293E+04 0.  0.
        1    1    3    3  502    0  0.51638898481E+03 -0.72851415752E+03  0.17390634313E+04  0.19549250828E+04  0.50400001928E-02 0.  1.
       -1    1    3    3    0  502 -0.51638898481E+03  0.72851415752E+03 -0.18747270206E+04  0.20765336171E+04  0.50400001928E-02 0. -1.
</event>
<event>
 5   0  0.1879500E-08  0.4006722E+04  0.7818609E-02  0.8003192E-01
        1   -1    0    0  501    0  0.00000000000E+00  0.00000000000E+00  0.15403498984E+04  0.15403498984E+04  0.50400001928E-02 0. -1.
       -1   -1    0    0    0  501  0.00000000000E+00  0.00000000000E+00 -0.26055478364E+04  0.26055478364E+04  0.50400001928E-02 0.  1.
    10030    2    1    2    0    0  0.00000000000E+00  0.00000000000E+00 -0.10651979380E+04  0.41458977348E+04  0.40067220244E+04 0.  0.
        5    1    3    3  502    0 -0.16484789277E+03 -0.11173269812E+04 -0.22447154684E+04  0.25128398347E+04  0.46999998093E+01 0.  1.
       -5    1    3    3    0  502  0.16484789277E+03  0.11173269812E+04  0.11795175304E+04  0.16330579001E+04  0.46999998093E+01 0. -1.
</event>
<event>
 5   0  0.5951623E-08  0.3967495E+04  0.7818609E-02  0.8011136E-01
       -2   -1    0    0    0  501  0.00000000000E+00  0.00000000000E+00  0.19538663022E+04  0.19538663022E+04  0.25500000920E-02 0.  1.
        2   -1    0    0  501    0  0.00000000000E+00  0.00000000000E+00 -0.20140851851E+04  0.20140851851E+04  0.25500000920E-02 0. -1.
    10030    2    1    2    0    0  0.00000000000E+00  0.00000000000E+00 -0.60218882890E+02  0.39679514872E+04  0.39674945105E+04 0.  0.
        2    1    3    3  502    0  0.19425846651E+04 -0.34956508142E+03 -0.22868267113E+03  0.19869893536E+04  0.25500000920E-02 0. -1.
       -2    1    3    3    0  502 -0.19425846651E+04  0.34956508142E+03  0.16846378824E+03  0.19809621337E+04  0.25500000920E-02 0.  1.
</event>
<event>
 5   0  0.5951623E-08  0.3999348E+04  0.7818609E-02  0.8004678E-01
        2   -1    0    0  501    0  0.00000000000E+00  0.00000000000E+00  0.19930395578E+04  0.19930395578E+04  0.25500000920E-02 0.  1.
       -2   -1    0    0    0  501  0.00000000000E+00  0.00000000000E+00 -0.20063306590E+04  0.20063306590E+04  0.25500000920E-02 0. -1.
    10030    2    1    2    0    0  0.00000000000E+00  0.00000000000E+00 -0.13291101202E+02  0.39993702168E+04  0.39993481316E+04 0.  0.
        2    1    3    3  502    0 -0.86893761158E+03  0.16714860839E+04 -0.67730420855E+03  0.20019139073E+04  0.25500000920E-02 0. -1.
       -2    1    3    3    0  502  0.86893761158E+03 -0.16714860839E+04  0.66401310735E+03  0.19974563094E+04  0.25500000920E-02 0.  1.
</event>
<event>
 5   0  0.1879500E-08  0.3853165E+04  0.7818609E-02  0.8034841E-01
       -1   -1    0    0    0  501  0.00000000000E+00  0.00000000000E+00  0.21498314407E+04  0.21498314407E+04  0.50400001928E-02 0. -1.
        1   -1    0    0  501    0  0.00000000000E+00  0.00000000000E+00 -0.17265163783E+04  0.17265163783E+04  0.50400001928E-02 0.  1.
    10030    2    1    2    0    0  0.00000000000E+00  0.00000000000E+00  0.42331506246E+03  0.38763478190E+04  0.38531645140E+04 0.  0.
        1    1    3    3  502    0 -0.75179957019E+03  0.57860462953E+03  0.18985688318E+04  0.21223924048E+04  0.50400001928E-02 0. -1.
       -1    1    3    3    0  502  0.75179957019E+03 -0.57860462953E+03 -0.14752537693E+04  0.17539554142E+04  0.50400001928E-02 0.  1.
</event>
<event>
 5   0  0.5945387E-08  0.4004294E+04  0.7818609E-02  0.8003681E-01
       -2   -1    0    0    0  501  0.00000000000E+00  0.00000000000E+00  0.18889432133E+04  0.18889432133E+04  0.25500000920E-02 0. -1.
        2   -1    0    0  501    0  0.00000000000E+00  0.00000000000E+00 -0.21221346020E+04  0.21221346020E+04  0.25500000920E-02 0.  1.
    10030    2    1    2    0    0  0.00000000000E+00  0.00000000000E+00 -0.23319138866E+03  0.40110778153E+04  0.40042935728E+04 0.  0.
        3    1    3    3  502    0 -0.78622815023E+03  0.71867554839E+03 -0.18147385193E+04  0.21042635652E+04  0.10100000352E+00 0.  1.
       -3    1    3    3    0  502  0.78622815023E+03 -0.71867554839E+03  0.15815471306E+04  0.19068142502E+04  0.10100000352E+00 0. -1.
</event>
<event>
 5   0  0.5945387E-08  0.3997387E+04  0.7818609E-02  0.8005074E-01
       -2   -1    0    0    0  501  0.00000000000E+00  0.00000000000E+00  0.17362773925E+04  0.17362773925E+04  0.25500000920E-02 0.  1.
        2   -1    0    0  501    0  0.00000000000E+00  0.00000000000E+00 -0.23007709978E+04  0.23007709978E+04  0.25500000920E-02 0. -1.
    10030    2    1    2    0    0  0.00000000000E+00  0.00000000000E+00 -0.56449360531E+03  0.40370483904E+04  0.39973874813E+04 0.  0.
        3    1    3    3  502    0  0.23590297208E+03 -0.12849607188E+04  0.12453753397E+04  0.18049193910E+04  0.10100000352E+00 0.  1.
       -3    1    3    3    0  502 -0.23590297208E+03  0.12849607188E+04 -0.18098689450E+04  0.22321289993E+04  0.10100000352E+00 0. -1.
</event>
<event>
 5   0  0.5846812E-08  0.4009562E+04  0.7818609E-02  0.8002620E-01
        2   -1    0    0  501    0  0.00000000000E+00  0.00000000000E+00  0.25788946078E+04  0.25788946078E+04  0.25500000920E-02 0.  1.
       -2   -1    0    0    0  501  0.00000000000E+00  0.00000000000E+00 -0.15584767966E+04  0.15584767966E+04  0.25500000920E-02 0. -1.
    10030    2    1    2    0    0  0.00000000000E+00  0.00000000000E+00  0.10204178112E+04  0.41373714044E+04  0.40095622739E+04 0.  0.
        4    1    3    3  502    0 -0.18142815893E+04 -0.34721874155E+03  0.13141239874E+04  0.22669587572E+04  0.12699999809E+01 0.  1.
       -4    1    3    3    0  502  0.18142815893E+04  0.34721874155E+03 -0.29370617622E+03  0.18704126471E+04  0.12699999809E+01 0. -1.
</event>
<event>
 5   0  0.1879500E-08  0.4008708E+04  0.7818609E-02  0.8002792E-01
        1   -1    0    0  501    0  0.00000000000E+00  0.00000000000E+00  0.23663716293E+04  0.23663716293E+04  0.50400001928E-02 0.  1.
       -1   -1    0    0    0  501  0.00000000000E+00  0.00000000000E+00 -0.16977192063E+04  0.16977192064E+04  0.50400001928E-02 0. -1.
    10030    2    1    2    0    0  0.00000000000E+00  0.00000000000E+00  0.66865242295E+03  0.40640908357E+04  0.40087078040E+04 0.  0.
        4    1    3    3  502    0  0.51542408385E+03 -0.14371493442E+04  0.16508714591E+04  0.22486525768E+04  0.12699999809E+01 0.  1.
       -4    1    3    3    0  502 -0.51542408385E+03  0.14371493442E+04 -0.98221903616E+03  0.18154382588E+04  0.12699999809E+01 0. -1.
</event>
<event>
 5   0  0.1879500E-08  0.3986198E+04  0.7818609E-02  0.8007337E-01
       -1   -1    0    0    0  501  0.00000000000E+00  0.00000000000E+00  0.17182088220E+04  0.17182088220E+04  0.50400001928E-02 0. -1.
        1   -1    0    0  501    0  0.00000000000E+00  0.00000000000E+00 -0.23119676150E+04  0.23119676150E+04  0.50400001928E-02 0.  1.
    10030    2    1    2    0    0  0.00000000000E+00  0.00000000000E+00 -0.59375879296E+03  0.40301764370E+04  0.39861977635E+04 0.  0.
        4    1    3    3  502    0  0.87477418962E+03 -0.15355556491E+04  0.63485214120E+03  0.18778178529E+04  0.12699999809E+01 0. -1.
       -4    1    3    3    0  502 -0.87477418962E+03  0.15355556491E+04 -0.12286109342E+04  0.21523585842E+04  0.12699999809E+01 0.  1.
</event>
<event>
 5   0  0.5888700E-08  0.3999140E+04  0.7818609E-02  0.8004720E-01
       -2   -1    0    0    0  501  0.00000000000E+00  0.00000000000E+00  0.13240044224E+04  0.13240044224E+04  0.25500000920E-02 0. -1.
        2   -1    0    0  501    0  0.00000000000E+00  0.00000000000E+00 -0.30198393745E+04  0.30198393745E+04  0.25500000920E-02 0.  1.
    10030    2    1    2    0    0  0.00000000000E+00  0.00000000000E+00 -0.16958349521E+04  0.43438437969E+04  0.39991402510E+04 0.  0.
        5    1    3    3  502    0  0.93215973440E+03 -0.35371147686E+02 -0.27690038277E+04  0.29219132733E+04  0.46999998093E+01 0.  1.
       -5    1    3    3    0  502 -0.93215973440E+03  0.35371147686E+02  0.10731688756E+04  0.14219305236E+04  0.46999998093E+01 0. -1.
</event>
<event>
 5   0  0.1879500E-08  0.3974294E+04  0.7818609E-02  0.8009752E-01
       -1   -1    0    0    0  501  0.00000000000E+00  0.00000000000E+00  0.17045915564E+04  0.17045915564E+04  0.50400001928E-02 0.  1.
        1   -1    0    0  501    0  0.00000000000E+00  0.00000000000E+00 -0.23165394233E+04  0.23165394233E+04  0.50400001928E-02 0. -1.
    10030    2    1    2    0    0  0.00000000000E+00  0.00000000000E+00 -0.61194786689E+03  0.40211309797E+04  0.39742941718E+04 0.  0.
        4    1    3    3  502    0 -0.45755111979E+03 -0.16565560613E+04  0.70339040608E+03  0.18569573737E+04  0.12699999809E+01 0.  1.
       -4    1    3    3    0  502  0.45755111979E+03  0.16565560613E+04 -0.13153382730E+04  0.21641736060E+04  0.12699999809E+01 0. -1.
</event>
<event>
 5   0  0.5945387E-08  0.4023557E+04  0.7818609E-02  0.7999811E-01
        2   -1    0    0  501    0  0.00000000000E+00  0.00000000000E+00  0.17043769419E+04  0.17043769419E+04  0.25500000920E-02 0.  1.
       -2   -1    0    0    0  501  0.00000000000E+00  0.00000000000E+00 -0.23746225875E+04  0.23746225875E+04  0.25500000920E-02 0. -1.
    10030    2    1    2    0    0  0.00000000000E+00  0.00000000000E+00 -0.67024564563E+03  0.40789995294E+04  0.40235566275E+04 0.  0.
        3    1    3    3  502    0 -0.15766773085E+04 -0.72579214834E+02  0.92949269411E+03  0.18317029661E+04  0.10100000352E+00 0.  1.
       -3    1    3    3    0  502  0.15766773085E+04  0.72579214834E+02 -0.15997383397E+04  0.22472965633E+04  0.10100000352E+00 0. -1.
</event>
<event>
 5   0  0.5945387E-08  0.4011474E+04  0.7818609E-02  0.8002236E-01
        2   -1    0    0  501    0  0.00000000000E+00  0.00000000000E+00  0.26053665752E+04  0.26053665752E+04  0.25500000920E-02 0.  1.
       -2   -1    0    0    0  501  0.00000000000E+00  0.00000000000E+00 -0.15441129933E+04  0.15441129933E+04  0.25500000920E-02 0. -1.
    10030    2    1    2    0    0  0.00000000000E+00  0.00000000000E+00  0.10612535819E+04  0.41494795685E+04  0.40114737347E+04 0.  0.
        3    1    3    3  502    0 -0.13685444416E+04 -0.11288060912E+04 -0.43744561199E+03  0.18271496255E+04  0.10100000352E+00 0. -1.
       -3    1    3    3    0  502  0.13685444416E+04  0.11288060912E+04  0.14986991939E+04  0.23223299430E+04  0.10100000352E+00 0.  1.
</event>
<event>
 5   0  0.1879500E-08  0.4009681E+04  0.7818609E-02  0.8002596E-01
        1   -1    0    0  501    0  0.00000000000E+00  0.00000000000E+00  0.22736279756E+04  0.22736279756E+04  0.50400001928E-02 0.  1.
       -1   -1    0    0    0  501  0.00000000000E+00  0.00000000000E+00 -0.17678293291E+04  0.17678293291E+04  0.50400001928E-02 0. -1.
    10030    2    1    2    0    0  0.00000000000E+00  0.00000000000E+00  0.50579864649E+03  0.40414573047E+04  0.40096813932E+04 0.  0.
        4    1    3    3  502    0 -0.37530947732E+03  0.18773832458E+04  0.85255913959E+03  0.20957776014E+04  0.12699999809E+01 0.  1.
       -4    1    3    3    0  502  0.37530947732E+03 -0.18773832458E+04 -0.34676049310E+03  0.19456797033E+04  0.12699999809E+01 0. -1.
</event>
<event>
 5   0  0.1879500E-08  0.4002171E+04  0.7818609E-02  0.8004109E-01
       -1   -1    0    0    0  501  0.00000000000E+00  0.00000000000E+00  0.23462099182E+04  0.23462099182E+04  0.50400001928E-02 0. -1.
        1   -1    0    0  501    0  0.00000000000E+00  0.00000000000E+00 -0.17067288245E+04  0.17067288245E+04  0.50400001928E-02 0.  1.
    10030    2    1    2    0    0  0.00000000000E+00  0.00000000000E+00  0.63948109371E+03  0.40529387428E+04  0.40021714585E+04 0.  0.
        3    1    3    3  502    0  0.14214386615E+04 -0.12346769925E+04  0.10061504241E+04  0.21347725476E+04  0.10100000352E+00 0.  1.
       -3    1    3    3    0  502 -0.14214386615E+04  0.12346769925E+04 -0.36666933034E+03  0.19181661951E+04  0.10100000352E+00 0. -1.
</event>
<event>
 5   0  0.1879500E-08  0.3995278E+04  0.7818609E-02  0.8005500E-01
       -1   -1    0    0    0  501  0.00000000000E+00  0.00000000000E+00  0.18421217187E+04  0.18421217187E+04  0.50400001928E-02 0.  1.
        1   -1    0    0  501    0  0.00000000000E+00  0.00000000000E+00 -0.21662854148E+04  0.21662854148E+04  0.50400001928E-02 0. -1.
    10030    2    1    2    0    0  0.00000000000E+00  0.00000000000E+00 -0.32416369602E+03  0.40084071335E+04  0.39952779185E+04 0.  0.
        4    1    3    3  502    0 -0.21196618428E+03  0.13697906274E+03 -0.21502262305E+04  0.21649866933E+04  0.12699999809E+01 0. -1.
       -4    1    3    3    0  502  0.21196618428E+03 -0.13697906274E+03  0.18260625344E+04  0.18434204402E+04  0.12699999809E+01 0.  1.
</event>
<event>
 5   0  0.5888700E-08  0.3979007E+04  0.7818609E-02  0.8008795E-01
        2   -1    0    0  501    0  0.00000000000E+00  0.00000000000E+00  0.19086219380E+04  0.19086219381E+04  0.25500000920E-02 0. -1.
       -2   -1    0    0    0  501  0.00000000000E+00  0.00000000000E+00 -0.20738126326E+04  0.20738126326E+04  0.25500000920E-02 0.  1.
    10030    2    1    2    0    0  0.00000000000E+00  0.00000000000E+00 -0.16519069451E+03  0.39824345706E+04  0.39790070550E+04 0.  0.
        5    1    3    3  502    0 -0.97712937771E+03 -0.16958068666E+04  0.27486695885E+03  0.19763898109E+04  0.46999998093E+01 0. -1.
       -5    1    3    3    0  502  0.97712937771E+03  0.16958068666E+04 -0.44005765336E+03  0.20060447597E+04  0.46999998093E+01 0.  1.
</event>
<event>
 5   0  0.1879500E-08  0.4055704E+04  0.7818609E-02  0.7993403E-01
        1   -1    0    0  501    0  0.00000000000E+00  0.00000000000E+00  0.21193576958E+04  0.21193576958E+04  0.50400001928E-02 0.  1.
       -1   -1    0    0    0  501  0.00000000000E+00  0.00000000000E+00 -0.19402976172E+04  0.19402976172E+04  0.50400001928E-02 0. -1.
    10030    2    1    2    0    0  0.00000000000E+00  0.00000000000E+00  0.17906007859E+03  0.40596553130E+04  0.40557044701E+04 0.  0.
        4    1    3    3  502    0 -0.10899134986E+04  0.17100438859E+04  0.94176538159E+02  0.20300326006E+04  0.12699999809E+01 0. -1.
       -4    1    3    3    0  502  0.10899134986E+04 -0.17100438859E+04  0.84883540430E+02  0.20296227124E+04  0.12699999809E+01 0.  1.
</event>
<event>
 5   0  0.1879500E-08  0.3996792E+04  0.7818609E-02  0.8005194E-01
       -1   -1    0    0    0  501  0.00000000000E+00  0.00000000000E+00  0.18972132001E+04  0.18972132001E+04  0.50400001928E-02 0. -1.
        1   -1    0    0  501    0  0.00000000000E+00  0.00000000000E+00 -0.21049747848E+04  0.21049747849E+04  0.50400001928E-02 0.  1.
    10030    2    1    2    0    0  0.00000000000E+00  0.00000000000E+00 -0.20776158478E+03  0.40021879849E+04  0.39967916872E+04 0.  0.
        2    1    3    3  502    0  0.23695052257E+03 -0.17469528263E+04  0.83845100859E+03  0.19521756635E+04  0.25500000920E-02 0. -1.
       -2    1    3    3    0  502 -0.23695052257E+03  0.17469528263E+04 -0.10462125934E+04  0.20500123214E+04  0.25500000920E-02 0.  1.
</event>
<event>
 5   0  0.1879500E-08  0.3967621E+04  0.7818609E-02  0.8011110E-01
       -3   -1    0    0    0  501  0.00000000000E+00  0.00000000000E+00  0.13608027235E+04  0.13608027273E+04  0.10100000352E+00 0. -1.
        3   -1    0    0  501    0  0.00000000000E+00  0.00000000000E+00 -0.28920466417E+04  0.28920466435E+04  0.10100000352E+00 0.  1.
    10030    2    1    2    0    0  0.00000000000E+00  0.00000000000E+00 -0.15312439182E+04  0.42528493708E+04  0.39676214327E+04 0.  0.
        1    1    3    3  502    0  0.18842873917E+04 -0.51924210777E+03 -0.40156831531E+03  0.19953466999E+04  0.50400001928E-02 0. -1.
       -1    1    3    3    0  502 -0.18842873917E+04  0.51924210777E+03 -0.11296756029E+04  0.22575026708E+04  0.50400001928E-02 0.  1.
</event>
<event>
 5   0  0.5951623E-08  0.3999589E+04  0.7818609E-02  0.8004629E-01
        2   -1    0    0  501    0  0.00000000000E+00  0.00000000000E+00  0.23129224716E+04  0.23129224716E+04  0.25500000920E-02 0.  1.
       -2   -1    0    0    0  501  0.00000000000E+00  0.00000000000E+00 -0.17290585325E+04  0.17290585325E+04  0.25500000920E-02 0. -1.
    10030    2    1    2    0    0  0.00000000000E+00  0.00000000000E+00  0.58386393917E+03  0.40419810041E+04  0.39995891462E+04 0.  0.
        2    1    3    3  502    0 -0.46446225550E+03  0.93645021370E+03 -0.14309880107E+04  0.17721148033E+04  0.25500000920E-02 0. -1.
       -2    1    3    3    0  502  0.46446225550E+03 -0.93645021370E+03  0.20148519499E+04  0.22698662008E+04  0.25500000920E-02 0.  1.
</event>
<event>
 5   0  0.5846812E-08  0.4003616E+04  0.7818609E-02  0.8003818E-01
        2   -1    0    0  501    0  0.00000000000E+00  0.00000000000E+00  0.13505703756E+04  0.13505703756E+04  0.25500000920E-02 0. -1.
       -2   -1    0    0    0  501  0.00000000000E+00  0.00000000000E+00 -0.29670682951E+04  0.29670682951E+04  0.25500000920E-02 0.  1.
    10030    2    1    2    0    0  0.00000000000E+00  0.00000000000E+00 -0.16164979194E+04  0.43176386707E+04  0.40036156368E+04 0.  0.
        4    1    3    3  502    0  0.11927150611E+04  0.47937913589E+03  0.84666875582E+03  0.15392281078E+04  0.12699999809E+01 0. -1.
       -4    1    3    3    0  502 -0.11927150611E+04 -0.47937913589E+03 -0.24631666752E+04  0.27784105629E+04  0.12699999809E+01 0.  1.
</event>
<event>
 5   0  0.5945387E-08  0.4008779E+04  0.7818609E-02  0.8002778E-01
       -2   -1    0    0    0  501  0.00000000000E+00  0.00000000000E+00  0.15749132274E+04  0.15749132274E+04  0.25500000920E-02 0.  1.
        2   -1    0    0  501    0  0.00000000000E+00  0.00000000000E+00 -0.25509834767E+04  0.25509834767E+04  0.25500000920E-02 0. -1.
    10030    2    1    2    0    0  0.00000000000E+00  0.00000000000E+00 -0.97607024925E+03  0.41258967041E+04  0.40087791760E+04 0.  0.
        3    1    3    3  502    0 -0.13712853194E+04  0.14607352438E+04 -0.54810754097E+03  0.20771597836E+04  0.10100000352E+00 0.  1.
       -3    1    3    3    0  502  0.13712853194E+04 -0.14607352438E+04 -0.42796270828E+03  0.20487369206E+04  0.10100000352E+00 0. -1.
</event>
<event>
 5   0  0.1879500E-08  0.4009070E+04  0.7818609E-02  0.8002719E-01
       -1   -1    0    0    0  501  0.00000000000E+00  0.00000000000E+00  0.13474057071E+04  0.13474057071E+04  0.50400001928E-02 0.  1.
        1   -1    0    0  501    0  0.00000000000E+00  0.00000000000E+00 -0.29821456702E+04  0.29821456702E+04  0.50400001928E-02 0. -1.
    10030    2    1    2    0    0  0.00000000000E+00  0.00000000000E+00 -0.16347399631E+04  0.43295513773E+04  0.40090697651E+04 0.  0.
        1    1    3    3  502    0  0.13713622055E+04  0.14423747628E+04 -0.10753846893E+04  0.22621961641E+04  0.50400001928E-02 0. -1.
       -1    1    3    3    0  502 -0.13713622055E+04 -0.14423747628E+04 -0.55935527384E+03  0.20673552132E+04  0.50400001928E-02 0.  1.
</event>
<event>
 5   0  0.1879500E-08  0.4034061E+04  0.7818609E-02  0.7997710E-01
       -1   -1    0    0    0  501  0.00000000000E+00  0.00000000000E+00  0.17704785800E+04  0.17704785800E+04  0.50400001928E-02 0. -1.
        1   -1    0    0  501    0  0.00000000000E+00  0.00000000000E+00 -0.22979168940E+04  0.22979168940E+04  0.50400001928E-02 0.  1.
    10030    2    1    2    0    0  0.00000000000E+00  0.00000000000E+00 -0.52743831400E+03  0.40683954741E+04  0.40340612983E+04 0.  0.
        3    1    3    3  502    0 -0.56446269888E+03  0.27796921702E+03 -0.21964136264E+04  0.22847577229E+04  0.10100000352E+00 0.  1.
       -3    1    3    3    0  502  0.56446269888E+03 -0.27796921702E+03  0.16689753123E+04  0.17836377512E+04  0.10100000352E+00 0. -1.
</event>
<event>
 5   0  0.1879500E-08  0.4020270E+04  0.7818609E-02  0.8000470E-01
        3   -1    0    0  501    0  0.00000000000E+00  0.00000000000E+00  0.36203471102E+04  0.36203471116E+04  0.10100000352E+00 0.  1.
       -3   -1    0    0    0  501  0.00000000000E+00  0.00000000000E+00 -0.11160927642E+04  0.11160927687E+04  0.10100000352E+00 0. -1.
    10030    2    1    2    0    0  0.00000000000E+00  0.00000000000E+00  0.25042543461E+04  0.47364398804E+04  0.40202702534E+04 0.  0.
        4    1    3    3  502    0  0.12032535285E+04 -0.26068557159E+03 -0.61991622666E+03  0.13784316312E+04  0.12699999809E+01 0. -1.
       -4    1    3    3    0  502 -0.12032535285E+04  0.26068557159E+03  0.31241705727E+04  0.33580082492E+04  0.12699999809E+01 0.  1.
</event>
<event>
 5   0  0.1879500E-08  0.3755056E+04  0.7818609E-02  0.8055869E-01
       -1   -1    0    0    0  501  0.00000000000E+00  0.00000000000E+00  0.15421927688E+04  0.15421927688E+04  0.50400001928E-02 0.  1.
        1   -1    0    0  501    0  0.00000000000E+00  0.00000000000E+00 -0.22857791054E+04  0.22857791054E+04  0.50400001928E-02 0. -1.
    10030    2    1    2    0    0  0.00000000000E+00  0.00000000000E+00 -0.74358633653E+03  0.38279718742E+04  0.37550563285E+04 0.  0.
        5    1    3    3  502    0  0.72325077268E+03  0.11170384005E+04  0.97839636833E+03  0.16517106320E+04  0.46999998093E+01 0.  1.
       -5    1    3    3    0  502 -0.72325077268E+03 -0.11170384005E+04 -0.17219827049E+04  0.21762612422E+04  0.46999998093E+01 0. -1.
</event>
<event>
 5   0  0.5951623E-08  0.3994714E+04  0.7818609E-02  0.8005614E-01
        2   -1    0    0  501    0  0.00000000000E+00  0.00000000000E+00  0.18321432842E+04  0.18321432842E+04  0.25500000920E-02 0.  1.
       -2   -1    0    0    0  501  0.00000000000E+00  0.00000000000E+00 -0.21774687054E+04  0.21774687054E+04  0.25500000920E-02 0. -1.
    10030    2    1    2    0    0  0.00000000000E+00  0.00000000000E+00 -0.34532542115E+03  0.40096119896E+04  0.39947138397E+04 0.  0.
        2    1    3    3  502    0  0.42945653206E+03  0.19383848201E+04  0.46477067350E+02  0.19859327132E+04  0.25500000920E-02 0.  1.
       -2    1    3    3    0  502 -0.42945653206E+03 -0.19383848201E+04 -0.39180248850E+03  0.20236792764E+04  0.25500000920E-02 0. -1.
</event>
<event>
 5   0  0.5951623E-08  0.4001096E+04  0.7818609E-02  0.8004326E-01
       -2   -1    0    0    0  501  0.00000000000E+00  0.00000000000E+00  0.28900786298E+04  0.28900786298E+04  0.25500000920E-02 0. -1.
        2   -1    0    0  501    0  0.00000000000E+00  0.00000000000E+00 -0.13848037086E+04  0.13848037086E+04  0.25500000920E-02 0.  1.
    10030    2    1    2    0    0  0.00000000000E+00  0.00000000000E+00  0.15052749212E+04  0.42748823384E+04  0.40010956523E+04 0.  0.
        2    1    3    3  502    0 -0.15388095988E+04  0.76146285435E+02  0.21160697084E+04  0.26175340015E+04  0.25500000920E-02 0. -1.
       -2    1    3    3    0  502  0.15388095988E+04 -0.76146285435E+02 -0.61079478714E+03  0.16573483370E+04  0.25500000920E-02 0.  1.
</event>
<event>
 5   0  0.1879500E-08  0.3977617E+04  0.7818609E-02  0.8009077E-01
       -1   -1    0    0    0  501  0.00000000000E+00  0.00000000000E+00  0.18483036881E+04  0.18483036881E+04  0.50400001928E-02 0. -1.
        1   -1    0    0  501    0  0.00000000000E+00  0.00000000000E+00 -0.21399944403E+04  0.21399944403E+04  0.50400001928E-02 0.  1.
    10030    2    1    2    0    0  0.00000000000E+00  0.00000000000E+00 -0.29169075227E+03  0.39882981284E+04  0.39776171845E+04 0.  0.
        3    1    3    3  502    0  0.24883615668E+03 -0.16597881365E+04  0.92404541268E+03  0.19159008393E+04  0.10100000352E+00 0. -1.
       -3    1    3    3    0  502 -0.24883615668E+03  0.16597881365E+04 -0.12157361649E+04  0.20723972891E+04  0.10100000352E+00 0.  1.
</event>
<event>
 5   0  0.1879500E-08  0.3996481E+04  0.7818609E-02  0.8005257E-01
       -1   -1    0    0    0  501  0.00000000000E+00  0.00000000000E+00  0.15665816414E+04  0.15665816414E+04  0.50400001928E-02 0.  1.
        1   -1    0    0  501    0  0.00000000000E+00  0.00000000000E+00 -0.25488393279E+04  0.25488393279E+04  0.50400001928E-02 0. -1.
    10030    2    1    2    0    0  0.00000000000E+00  0.00000000000E+00 -0.98225768653E+03  0.41154209693E+04  0.39964809009E+04 0.  0.
        1    1    3    3  502    0 -0.36969266279E+03  0.16604581371E+04  0.58848677002E+03  0.18000307132E+04  0.50400001928E-02 0.  1.
       -1    1    3    3    0  502  0.36969266279E+03 -0.16604581371E+04 -0.15707444565E+04  0.23153902560E+04  0.50400001928E-02 0. -1.
</event>
<event>
 5   0  0.6161563E-08  0.4022919E+04  0.7818609E-02  0.7999939E-01
        2   -1    0    0  501    0  0.00000000000E+00  0.00000000000E+00  0.15010511553E+04  0.15010511553E+04  0.25500000920E-02 0.  1.
       -2   -1    0    0    0  501  0.00000000000E+00  0.00000000000E+00 -0.26954238329E+04  0.26954238329E+04  0.25500000920E-02 0. -1.
    10030    2    1    2    0    0  0.00000000000E+00  0.00000000000E+00 -0.11943726776E+04  0.41964749883E+04  0.40229188699E+04 0.  0.
        1    1    3    3  502    0  0.17285761387E+04 -0.79173779762E+03 -0.12821301825E+04  0.22931816353E+04  0.50400001928E-02 0. -1.
       -1    1    3    3    0  502 -0.17285761387E+04  0.79173779762E+03  0.87757504943E+02  0.19032933529E+04  0.50400001928E-02 0.  1.
</event>
<event>
 5   0  0.5888700E-08  0.3956375E+04  0.7818609E-02  0.8013405E-01
       -2   -1    0    0    0  501  0.00000000000E+00  0.00000000000E+00  0.22009571671E+04  0.22009571671E+04  0.25500000920E-02 0. -1.
        2   -1    0    0  501    0  0.00000000000E+00  0.00000000000E+00 -0.17779650384E+04  0.17779650384E+04  0.25500000920E-02 0.  1.
    10030    2    1    2    0    0  0.00000000000E+00  0.00000000000E+00  0.42299212870E+03  0.39789222055E+04  0.39563745496E+04 0.  0.
        5    1    3    3  502    0 -0.13094984954E+04 -0.89146344550E+03 -0.98003852956E+03  0.18627911836E+04  0.46999998093E+01 0.  1.
       -5    1    3    3    0  502  0.13094984954E+04  0.89146344550E+03  0.14030306583E+04  0.21161310220E+04  0.46999998093E+01 0. -1.
</event>
<event>
 5   0  0.1879500E-08  0.4004057E+04  0.7818609E-02  0.8003729E-01
       -1   -1    0    0    0  501  0.00000000000E+00  0.00000000000E+00  0.14363463099E+04  0.14363463099E+04  0.50400001928E-02 0.  1.
        1   -1    0    0  501    0  0.00000000000E+00  0.00000000000E+00 -0.27904959183E+04  0.27904959183E+04  0.50400001928E-02 0. -1.
    10030    2    1    2    0    0  0.00000000000E+00  0.00000000000E+00 -0.13541496083E+04  0.42268422282E+04  0.40040571999E+04 0.  0.
        2    1    3    3  502    0  0.17784191897E+03 -0.11516899204E+03 -0.27786272445E+04  0.27866935620E+04  0.25500000920E-02 0. -1.
       -2    1    3    3    0  502 -0.17784191897E+03  0.11516899204E+03  0.14244776361E+04  0.14401486662E+04  0.25500000920E-02 0.  1.
</event>
<event>
 5   0  0.1879500E-08  0.3964001E+04  0.7818609E-02  0.8011848E-01
        1   -1    0    0  501    0  0.00000000000E+00  0.00000000000E+00  0.21155748319E+04  0.21155748319E+04  0.50400001928E-02 0.  1.
       -1   -1    0    0    0  501  0.00000000000E+00  0.00000000000E+00 -0.18568599375E+04  0.18568599375E+04  0.50400001928E-02 0. -1.
    10030    2    1    2    0    0  0.00000000000E+00  0.00000000000E+00  0.25871489443E+03  0.39724347694E+04  0.39640010848E+04 0.  0.
        2    1    3    3  502    0 -0.27297132526E+03  0.93997606762E+03  0.18564677789E+04  0.20986998276E+04  0.25500000920E-02 0.  1.
       -2    1    3    3    0  502  0.27297132526E+03 -0.93997606762E+03 -0.15977528845E+04  0.18737349418E+04  0.25500000920E-02 0. -1.
</event>
<event>
 5   0  0.1879500E-08  0.3995357E+04  0.7818609E-02  0.8005484E-01
        1   -1    0    0  501    0  0.00000000000E+00  0.00000000000E+00  0.24945254939E+04  0.24945254939E+04  0.50400001928E-02 0. -1.
       -1   -1    0    0    0  501  0.00000000000E+00  0.00000000000E+00 -0.15997910560E+04  0.15997910561E+04  0.50400001928E-02 0.  1.
    10030    2    1    2    0    0  0.00000000000E+00  0.00000000000E+00  0.89473443786E+03  0.40943165500E+04  0.39953570926E+04 0.  0.
        3    1    3    3  502    0  0.85954172090E+03  0.25470937569E+03  0.22768104645E+04  0.24469480455E+04  0.10100000352E+00 0. -1.
       -3    1    3    3    0  502 -0.85954172090E+03 -0.25470937569E+03 -0.13820760266E+04  0.16473685045E+04  0.10100000352E+00 0.  1.
</event>
<event>
 5   0  0.5945387E-08  0.3966742E+04  0.7818609E-02  0.8011289E-01
       -2   -1    0    0    0  501  0.00000000000E+00  0.00000000000E+00  0.16597132252E+04  0.16597132252E+04  0.25500000920E-02 0.  1.
        2   -1    0    0  501    0  0.00000000000E+00  0.00000000000E+00 -0.23701451202E+04  0.23701451202E+04  0.25500000920E-02 0. -1.
    10030    2    1    2    0    0  0.00000000000E+00  0.00000000000E+00 -0.71043189503E+03  0.40298583454E+04  0.39667423419E+04 0.  0.
        3    1    3    3  502    0 -0.11314498757E+04  0.16010025432E+04 -0.66062062460E+03  0.20687695822E+04  0.10100000352E+00 0. -1.
       -3    1    3    3    0  502  0.11314498757E+04 -0.16010025432E+04 -0.49811270435E+02  0.19610887632E+04  0.10100000352E+00 0.  1.
</event>
<event>
 5   0  0.1879500E-08  0.3969533E+04  0.7818609E-02  0.8010721E-01
        1   -1    0    0  501    0  0.00000000000E+00  0.00000000000E+00  0.27191625371E+04  0.27191625371E+04  0.50400001928E-02 0. -1.
       -1   -1    0    0    0  501  0.00000000000E+00  0.00000000000E+00 -0.14487175157E+04  0.14487175157E+04  0.50400001928E-02 0.  1.
    10030    2    1    2    0    0  0.00000000000E+00  0.00000000000E+00  0.12704450214E+04  0.41678800528E+04  0.39695331693E+04 0.  0.
        5    1    3    3  502    0  0.13216946595E+04 -0.14674737393E+04  0.84236261159E+03  0.21470800656E+04  0.46999998093E+01 0.  1.
       -5    1    3    3    0  502 -0.13216946595E+04  0.14674737393E+04  0.42808240982E+03  0.20207999872E+04  0.46999998093E+01 0. -1.
</event>
<event>
 5   0  0.1879500E-08  0.3974267E+04  0.7818609E-02  0.8009758E-01
       -1   -1    0    0    0  501  0.00000000000E+00  0.00000000000E+00  0.16049146992E+04  0.16049146992E+04  0.50400001928E-02 0. -1.
        1   -1    0    0  501    0  0.00000000000E+00  0.00000000000E+00 -0.24603801264E+04  0.24603801264E+04  0.50400001928E-02 0.  1.
    10030    2    1    2    0    0  0.00000000000E+00  0.00000000000E+00 -0.85546542716E+03  0.40652948256E+04  0.39742673440E+04 0.  0.
        4    1    3    3  502    0  0.13043109971E+04 -0.60293512326E+03 -0.18317374753E+04  0.23280940125E+04  0.12699999809E+01 0.  1.
       -4    1    3    3    0  502 -0.13043109971E+04  0.60293512326E+03  0.97627204810E+03  0.17372008130E+04  0.12699999809E+01 0. -1.
</event>
<event>
 5   0  0.5945387E-08  0.3993714E+04  0.7818609E-02  0.8005816E-01
        2   -1    0    0  501    0  0.00000000000E+00  0.00000000000E+00  0.21352613775E+04  0.21352613775E+04  0.25500000920E-02 0.  1.
       -2   -1    0    0    0  501  0.00000000000E+00  0.00000000000E+00 -0.18674236471E+04  0.18674236471E+04  0.25500000920E-02 0. -1.
    10030    2    1    2    0    0  0.00000000000E+00  0.00000000000E+00  0.26783773046E+03  0.40026850246E+04  0.39937138551E+04 0.  0.
        3    1    3    3  502    0 -0.19174856509E+04  0.44749910654E+02  0.69076010573E+03  0.20386032743E+04  0.10100000352E+00 0.  1.
       -3    1    3    3    0  502  0.19174856509E+04 -0.44749910654E+02 -0.42292237528E+03  0.19640817503E+04  0.10100000352E+00 0. -1.
</event>
<event>
 5   0  0.5888700E-08  0.4008414E+04  0.7818609E-02  0.8002851E-01
       -2   -1    0    0    0  501  0.00000000000E+00  0.00000000000E+00  0.33145617702E+04  0.33145617702E+04  0.25500000920E-02 0.  1.
        2   -1    0    0  501    0  0.00000000000E+00  0.00000000000E+00 -0.12118781182E+04  0.12118781182E+04  0.25500000920E-02 0. -1.
    10030    2    1    2    0    0  0.00000000000E+00  0.00000000000E+00  0.21026836520E+04  0.45264398885E+04  0.40084135919E+04 0.  0.
        5    1    3    3  502    0 -0.17454764067E+04  0.93105907211E+03  0.68846560412E+03  0.20946517277E+04  0.46999998093E+01 0. -1.
       -5    1    3    3    0  502  0.17454764067E+04 -0.93105907211E+03  0.14142180478E+04  0.24317881608E+04  0.46999998093E+01 0.  1.
</event>
<event>
 5   0  0.5888700E-08  0.4001793E+04  0.7818609E-02  0.8004185E-01
       -2   -1    0    0    0  501  0.00000000000E+00  0.00000000000E+00  0.21395570003E+04  0.21395570003E+04  0.25500000920E-02 0.  1.
        2   -1    0    0  501    0  0.00000000000E+00  0.00000000000E+00 -0.18712222806E+04  0.18712222806E+04  0.25500000920E-02 0. -1.
    10030    2    1    2    0    0  0.00000000000E+00  0.00000000000E+00  0.26833471976E+03  0.40107792809E+04  0.40017929629E+04 0.  0.
        5    1    3    3  502    0 -0.15758557740E+04 -0.51458414877E+02  0.13688408571E+04  0.20879934797E+04  0.46999998093E+01 0.  1.
       -5    1    3    3    0  502  0.15758557740E+04  0.51458414877E+02 -0.11005061374E+04  0.19227858012E+04  0.46999998093E+01 0. -1.
</event>
<event>
 5   0  0.5888700E-08  0.4023715E+04  0.7818609E-02  0.7999780E-01
       -2   -1    0    0    0  501  0.00000000000E+00  0.00000000000E+00  0.19440703621E+04  0.19440703621E+04  0.25500000920E-02 0.  1.
        2   -1    0    0  501    0  0.00000000000E+00  0.00000000000E+00 -0.20820078722E+04  0.20820078722E+04  0.25500000920E-02 0. -1.
    10030    2    1    2    0    0  0.00000000000E+00  0.00000000000E+00 -0.13793751003E+03  0.40260782343E+04  0.40237146012E+04 0.  0.
        5    1    3    3  502    0  0.18937967347E+04 -0.60506605616E+03 -0.37733269525E+03  0.20236039774E+04  0.46999998093E+01 0. -1.
       -5    1    3    3    0  502 -0.18937967347E+04  0.60506605616E+03  0.23939518522E+03  0.20024742568E+04  0.46999998093E+01 0.  1.
</event>
<event>
 5   0  0.5951623E-08  0.3999483E+04  0.7818609E-02  0.8004651E-01
       -2   -1    0    0    0  501  0.00000000000E+00  0.00000000000E+00  0.18689460785E+04  0.18689460785E+04  0.25500000920E-02 0. -1.
        2   -1    0    0  501    0  0.00000000000E+00  0.00000000000E+00 -0.21396900387E+04  0.21396900387E+04  0.25500000920E-02 0.  1.
    10030    2    1    2    0    0  0.00000000000E+00  0.00000000000E+00 -0.27074396016E+03  0.40086361172E+04  0.39994826201E+04 0.  0.
        2    1    3    3  502    0  0.64430048389E+03  0.14190329667E+04 -0.13913111272E+04  0.20891444007E+04  0.25500000920E-02 0.  1.
       -2    1    3    3    0  502 -0.64430048389E+03 -0.14190329667E+04  0.11205671671E+04  0.19194917166E+04  0.25500000920E-02 0. -1.
</event>
<event>
 5   0  0.5846812E-08  0.4005222E+04  0.7818609E-02  0.8003494E-01
       -2   -1    0    0    0  501  0.00000000000E+00  0.00000000000E+00  0.17985964190E+04  0.17985964190E+04  0.25500000920E-02 0.  1.
        2   -1    0    0  501    0  0.00000000000E+00  0.00000000000E+00 -0.22297669532E+04  0.22297669533E+04  0.25500000920E-02 0. -1.
    10030    2    1    2    0    0  0.00000000000E+00  0.00000000000E+00 -0.43117053424E+03  0.40283633723E+04  0.40052220200E+04 0.  0.
        4    1    3    3  502    0 -0.15034098258E+04 -0.49321854725E+03  0.10190837305E+04  0.18820305264E+04  0.12699999809E+01 0.  1.
       -4    1    3    3    0  502  0.15034098258E+04  0.49321854725E+03 -0.14502542648E+04  0.21463328458E+04  0.12699999809E+01 0. -1.
</event>
<event>
 5   0  0.5945387E-08  0.4007309E+04  0.7818609E-02  0.8003074E-01
        2   -1    0    0  501    0  0.00000000000E+00  0.00000000000E+00  0.18478272093E+04  0.18478272093E+04  0.25500000920E-02 0.  1.
       -2   -1    0    0    0  501  0.00000000000E+00  0.00000000000E+00 -0.21726222389E+04  0.21726222389E+04  0.25500000920E-02 0. -1.
    10030    2    1    2    0    0  0.00000000000E+00  0.00000000000E+00 -0.32479502956E+03  0.40204494482E+04  0.40073085674E+04 0.  0.
        3    1    3    3  502    0 -0.16453417558E+04  0.74642853020E+03 -0.10314512990E+04  0.20804318870E+04  0.10100000352E+00 0. -1.
       -3    1    3    3    0  502  0.16453417558E+04 -0.74642853020E+03  0.70665626942E+03  0.19400175611E+04  0.10100000352E+00 0.  1.
</event>
<event>
 5   0  0.5888700E-08  0.3998929E+04  0.7818609E-02  0.8004763E-01
       -2   -1    0    0    0  501  0.00000000000E+00  0.00000000000E+00  0.29147308810E+04  0.29147308810E+04  0.25500000920E-02 0.  1.
        2   -1    0    0  501    0  0.00000000000E+00  0.00000000000E+00 -0.13716049019E+04  0.13716049019E+04  0.25500000920E-02 0. -1.
    10030    2    1    2    0    0  0.00000000000E+00  0.00000000000E+00  0.15431259791E+04  0.42863357830E+04  0.39989294388E+04 0.  0.
        5    1    3    3  502    0 -0.32574129292E+03  0.13828766268E+04  0.22795834993E+04  0.26860711411E+04  0.46999998093E+01 0.  1.
       -5    1    3    3    0  502  0.32574129292E+03 -0.13828766268E+04 -0.73645752019E+03  0.16002646418E+04  0.46999998093E+01 0. -1.
</event>
<event>
 5   0  0.5846812E-08  0.3993096E+04  0.7818609E-02  0.8005941E-01
        2   -1    0    0  501    0  0.00000000000E+00  0.00000000000E+00  0.30670402325E+04  0.30670402325E+04  0.25500000920E-02 0.  1.
       -2   -1    0    0    0  501  0.00000000000E+00  0.00000000000E+00 -0.12996906661E+04  0.12996906661E+04  0.25500000920E-02 0. -1.
    10030    2    1    2    0    0  0.00000000000E+00  0.00000000000E+00  0.17673495665E+04  0.43667308986E+04  0.39930958229E+04 0.  0.
        4    1    3    3  502    0 -0.15717694520E+04 -0.11086027201E+04  0.29808577154E+03  0.19463596640E+04  0.12699999809E+01 0. -1.
       -4    1    3    3    0  502  0.15717694520E+04  0.11086027201E+04  0.14692637949E+04  0.24203712346E+04  0.12699999809E+01 0.  1.
</event>
<event>
 5   0  0.6161563E-08  0.4019744E+04  0.7818609E-02  0.8000575E-01
        2   -1    0    0  501    0  0.00000000000E+00  0.00000000000E+00  0.24394979606E+04  0.24394979606E+04  0.25500000920E-02 0. -1.
       -2   -1    0    0    0  501  0.00000000000E+00  0.00000000000E+00 -0.16559082352E+04  0.16559082352E+04  0.25500000920E-02 0.  1.
    10030    2    1    2    0    0  0.00000000000E+00  0.00000000000E+00  0.78358972539E+03  0.40954061958E+04  0.40197436549E+04 0.  0.
        1    1    3    3  502    0 -0.11801029333E+04 -0.10513201793E+04 -0.87321529494E+03  0.18056638680E+04  0.50400001928E-02 0.  1.
       -1    1    3    3    0  502  0.11801029333E+04  0.10513201793E+04  0.16568050203E+04  0.22897423279E+04  0.50400001928E-02 0. -1.
</event>
<event>
 5   0  0.1879500E-08  0.4000089E+04  0.7818609E-02  0.8004529E-01
        1   -1    0    0  501    0  0.00000000000E+00  0.00000000000E+00  0.16138521211E+04  0.16138521211E+04  0.50400001928E-02 0.  1.
       -1   -1    0    0    0  501  0.00000000000E+00  0.00000000000E+00 -0.24786520303E+04  0.24786520303E+04  0.50400001928E-02 0. -1.
    10030    2    1    2    0    0  0.00000000000E+00  0.00000000000E+00 -0.86479990922E+03  0.40925041514E+04  0.40000889173E+04 0.  0.
        2    1    3    3  502    0 -0.13292577136E+04 -0.13553527333E+04  0.21164396417E+03  0.19101571319E+04  0.25500000920E-02 0.  1.
       -2    1    3    3    0  502  0.13292577136E+04  0.13553527333E+04 -0.10764438734E+04  0.21823470195E+04  0.25500000920E-02 0. -1.
</event>
<event>
 5   0  0.5945387E-08  0.3997593E+04  0.7818609E-02  0.8005032E-01
        2   -1    0    0  501    0  0.00000000000E+00  0.00000000000E+00  0.24152991290E+04  0.24152991290E+04  0.25500000920E-02 0.  1.
       -2   -1    0    0    0  501  0.00000000000E+00  0.00000000000E+00 -0.16541170162E+04  0.16541170162E+04  0.25500000920E-02 0. -1.
    10030    2    1    2    0    0  0.00000000000E+00  0.00000000000E+00  0.76118211278E+03  0.40694161453E+04  0.39975929701E+04 0.  0.
        3    1    3    3  502    0 -0.91395954715E+03 -0.11876544845E+03  0.21860862242E+04  0.23724249778E+04  0.10100000352E+00 0.  1.
       -3    1    3    3    0  502  0.91395954715E+03  0.11876544845E+03 -0.14249041114E+04  0.16969911675E+04  0.10100000352E+00 0. -1.
</event>
<event>
 5   0  0.1879500E-08  0.4006305E+04  0.7818609E-02  0.8003276E-01
       -1   -1    0    0    0  501  0.00000000000E+00  0.00000000000E+00  0.27720490359E+04  0.27720490359E+04  0.50400001928E-02 0. -1.
        1   -1    0    0  501    0  0.00000000000E+00  0.00000000000E+00 -0.14475283191E+04  0.14475283191E+04  0.50400001928E-02 0.  1.
    10030    2    1    2    0    0  0.00000000000E+00  0.00000000000E+00  0.13245207168E+04  0.42195773550E+04  0.40063047719E+04 0.  0.
        4    1    3    3  502    0  0.13481669997E+04  0.37579159605E+03 -0.84715486436E+03  0.16359848899E+04  0.12699999809E+01 0.  1.
       -4    1    3    3    0  502 -0.13481669997E+04 -0.37579159605E+03  0.21716755812E+04  0.25835924651E+04  0.12699999809E+01 0. -1.
</event>
<event>
 5   0  0.1879500E-08  0.3993389E+04  0.7818609E-02  0.8005882E-01
        1   -1    0    0  501    0  0.00000000000E+00  0.00000000000E+00  0.20355339998E+04  0.20355339998E+04  0.50400001928E-02 0.  1.
       -1   -1    0    0    0  501  0.00000000000E+00  0.00000000000E+00 -0.19585956491E+04  0.19585956492E+04  0.50400001928E-02 0. -1.
    10030    2    1    2    0    0  0.00000000000E+00  0.00000000000E+00  0.76938350674E+02  0.39941296490E+04  0.39933885540E+04 0.  0.
        1    1    3    3  502    0 -0.10486482164E+04 -0.15400936200E+04 -0.67946386409E+03  0.19832353826E+04  0.50400001928E-02 0. -1.
       -1    1    3    3    0  502  0.10486482164E+04  0.15400936200E+04  0.75640221476E+03  0.20108942664E+04  0.50400001928E-02 0.  1.
</event>
<event>
 5   0  0.1879500E-08  0.3973297E+04  0.7818609E-02  0.8009955E-01
        3   -1    0    0  501    0  0.00000000000E+00  0.00000000000E+00  0.22374456523E+04  0.22374456546E+04  0.10100000352E+00 0.  1.
       -3   -1    0    0    0  501  0.00000000000E+00  0.00000000000E+00 -0.17639631956E+04  0.17639631985E+04  0.10100000352E+00 0. -1.
    10030    2    1    2    0    0  0.00000000000E+00  0.00000000000E+00  0.47348245665E+03  0.40014088531E+04  0.39732967638E+04 0.  0.
        1    1    3    3  502    0 -0.57570859147E+03 -0.62591062740E+03  0.20448739089E+04  0.22146588449E+04  0.50400001928E-02 0.  1.
       -1    1    3    3    0  502  0.57570859147E+03  0.62591062740E+03 -0.15713914522E+04  0.17867500083E+04  0.50400001928E-02 0. -1.
</event>
<event>
 5   0  0.5846812E-08  0.3994969E+04  0.7818609E-02  0.8005562E-01
       -2   -1    0    0    0  501  0.00000000000E+00  0.00000000000E+00  0.16351352966E+04  0.16351352966E+04  0.25500000920E-02 0. -1.
        2   -1    0    0  501    0  0.00000000000E+00  0.00000000000E+00 -0.24401315943E+04  0.24401315943E+04  0.25500000920E-02 0.  1.
    10030    2    1    2    0    0  0.00000000000E+00  0.00000000000E+00 -0.80499629769E+03  0.40752668909E+04  0.39949694859E+04 0.  0.
        4    1    3    3  502    0  0.30196621419E+03  0.35545877330E+03 -0.23838061097E+04  0.24290054993E+04  0.12699999809E+01 0.  1.
       -4    1    3    3    0  502 -0.30196621419E+03 -0.35545877330E+03  0.15788098120E+04  0.16462613916E+04  0.12699999809E+01 0. -1.
</event>
<event>
 5   0  0.1879500E-08  0.3994118E+04  0.7818609E-02  0.8005734E-01
       -1   -1    0    0    0  501  0.00000000000E+00  0.00000000000E+00  0.15710663140E+04  0.15710663140E+04  0.50400001928E-02 0. -1.
        1   -1    0    0  501    0  0.00000000000E+00  0.00000000000E+00 -0.25385585681E+04  0.25385585681E+04  0.50400001928E-02 0.  1.
    10030    2    1    2    0    0  0.00000000000E+00  0.00000000000E+00 -0.96749225409E+03  0.41096248820E+04  0.39941176008E+04 0.  0.
        2    1    3    3  502    0  0.15128268477E+04 -0.12704835277E+04 -0.18293827428E+03  0.19839959369E+04  0.25500000920E-02 0. -1.
       -2    1    3    3    0  502 -0.15128268477E+04  0.12704835277E+04 -0.78455397982E+03  0.21256289452E+04  0.25500000920E-02 0.  1.
</event>
<event>
 5   0  0.5951623E-08  0.4017308E+04  0.7818609E-02  0.8001064E-01
        2   -1    0    0  501    0  0.00000000000E+00  0.00000000000E+00  0.22163673250E+04  0.22163673250E+04  0.25500000920E-02 0.  1.
       -2   -1    0    0    0  501  0.00000000000E+00  0.00000000000E+00 -0.18204073780E+04  0.18204073780E+04  0.25500000920E-02 0. -1.
    10030    2    1    2    0    0  0.00000000000E+00  0.00000000000E+00  0.39595994695E+03  0.40367747030E+04  0.40173082684E+04 0.  0.
        2    1    3    3  502    0  0.11521138137E+04  0.16379025388E+04  0.40374604665E+02  0.20029281253E+04  0.25500000920E-02 0.  1.
       -2    1    3    3    0  502 -0.11521138137E+04 -0.16379025388E+04  0.35558534228E+03  0.20338465778E+04  0.25500000920E-02 0. -1.
</event>
<event>
 5   0  0.6161563E-08  0.4008681E+04  0.7818609E-02  0.8002798E-01
       -2   -1    0    0    0  501  0.00000000000E+00  0.00000000000E+00  0.16075492071E+04  0.16075492071E+04  0.25500000920E-02 0. -1.
        2   -1    0    0  501    0  0.00000000000E+00  0.00000000000E+00 -0.24990715572E+04  0.24990715572E+04  0.25500000920E-02 0.  1.
    10030    2    1    2    0    0  0.00000000000E+00  0.00000000000E+00 -0.89152235017E+03  0.41066207643E+04  0.40086808305E+04 0.  0.
        1    1    3    3  502    0  0.17204695133E+04  0.53259955074E+03 -0.13468554370E+04  0.22489324569E+04  0.50400001928E-02 0.  1.
       -1    1    3    3    0  502 -0.17204695133E+04 -0.53259955074E+03  0.45533308679E+03  0.18576883074E+04  0.50400001928E-02 0. -1.
</event>
<event>
 5   0  0.5888700E-08  0.3997101E+04  0.7818609E-02  0.8005132E-01
        2   -1    0    0  501    0  0.00000000000E+00  0.00000000000E+00  0.21589007140E+04  0.21589007140E+04  0.25500000920E-02 0. -1.
       -2   -1    0    0    0  501  0.00000000000E+00  0.00000000000E+00 -0.18501100145E+04  0.18501100145E+04  0.25500000920E-02 0.  1.
    10030    2    1    2    0    0  0.00000000000E+00  0.00000000000E+00  0.30879069953E+03  0.40090107285E+04  0.39971008650E+04 0.  0.
        5    1    3    3  502    0  0.18508080006E+04  0.73714006065E+03 -0.51888180578E+01  0.19922135272E+04  0.46999998093E+01 0. -1.
       -5    1    3    3    0  502 -0.18508080006E+04 -0.73714006065E+03  0.31397951759E+03  0.20167972014E+04  0.46999998093E+01 0.  1.
</event>
<event>
 5   0  0.1879500E-08  0.3989424E+04  0.7818609E-02  0.8006684E-01
       -1   -1    0    0    0  501  0.00000000000E+00  0.00000000000E+00  0.27369549747E+04  0.27369549747E+04  0.50400001928E-02 0. -1.
        1   -1    0    0  501    0  0.00000000000E+00  0.00000000000E+00 -0.14537597693E+04  0.14537597693E+04  0.50400001928E-02 0.  1.
    10030    2    1    2    0    0  0.00000000000E+00  0.00000000000E+00  0.12831952054E+04  0.41907147440E+04  0.39894235336E+04 0.  0.
        2    1    3    3  502    0  0.11090057790E+04 -0.26469289066E+03  0.23609216480E+04  0.26218137181E+04  0.25500000920E-02 0. -1.
       -2    1    3    3    0  502 -0.11090057790E+04  0.26469289066E+03 -0.10777264426E+04  0.15689010260E+04  0.25500000920E-02 0.  1.
</event>
<event>
 5   0  0.1879500E-08  0.3995979E+04  0.7818609E-02  0.8005358E-01
        1   -1    0    0  501    0  0.00000000000E+00  0.00000000000E+00  0.25271169554E+04  0.25271169554E+04  0.50400001928E-02 0.  1.
       -1   -1    0    0    0  501  0.00000000000E+00  0.00000000000E+00 -0.15796503294E+04  0.15796503294E+04  0.50400001928E-02 0. -1.
    10030    2    1    2    0    0  0.00000000000E+00  0.00000000000E+00  0.94746662600E+03  0.41067672848E+04  0.39959785440E+04 0.  0.
        4    1    3    3  502    0 -0.59644483962E+03  0.19066128129E+04  0.50688685388E+03  0.20610324502E+04  0.12699999809E+01 0.  1.
       -4    1    3    3    0  502  0.59644483962E+03 -0.19066128129E+04  0.44057977212E+03  0.20457348346E+04  0.12699999809E+01 0. -1.
</event>
<event>
 5   0  0.5846812E-08  0.3968224E+04  0.7818609E-02  0.8010988E-01
       -2   -1    0    0    0  501  0.00000000000E+00  0.00000000000E+00  0.25559599878E+04  0.25559599878E+04  0.25500000920E-02 0. -1.
        2   -1    0    0  501    0  0.00000000000E+00  0.00000000000E+00 -0.15402043141E+04  0.15402043141E+04  0.25500000920E-02 0.  1.
    10030    2    1    2    0    0  0.00000000000E+00  0.00000000000E+00  0.10157556737E+04  0.40961643019E+04  0.39682240864E+04 0.  0.
        4    1    3    3  502    0 -0.11518137797E+04 -0.13493637530E+04  0.14249132916E+04  0.22754861068E+04  0.12699999809E+01 0. -1.
       -4    1    3    3    0  502  0.11518137797E+04  0.13493637530E+04 -0.40915761792E+03  0.18206781951E+04  0.12699999809E+01 0.  1.
</event>
<event>
 5   0  0.5945387E-08  0.3993714E+04  0.7818609E-02  0.8005816E-01
       -2   -1    0    0    0  501  0.00000000000E+00  0.00000000000E+00  0.18584517841E+04  0.18584517841E+04  0.25500000920E-02 0.  1.
        2   -1    0    0  501    0  0.00000000000E+00  0.00000000000E+00 -0.21455693194E+04  0.21455693194E+04  0.25500000920E-02 0. -1.
    10030    2    1    2    0    0  0.00000000000E+00  0.00000000000E+00 -0.28711753530E+03  0.40040211036E+04  0.39937136250E+04 0.  0.
        3    1    3    3  502    0 -0.40234129910E+03  0.16025077745E+04 -0.12678483112E+04  0.20826303174E+04  0.10100000352E+00 0. -1.
       -3    1    3    3    0  502  0.40234129910E+03 -0.16025077745E+04  0.98073077591E+03  0.19213907862E+04  0.10100000352E+00 0.  1.
</event>
<event>
 5   0  0.1879500E-08  0.4022763E+04  0.7818609E-02  0.7999970E-01
       -1   -1    0    0    0  501  0.00000000000E+00  0.00000000000E+00  0.15259817990E+04  0.15259817990E+04  0.50400001928E-02 0.  1.
        1   -1    0    0  501    0  0.00000000000E+00  0.00000000000E+00 -0.26511821651E+04  0.26511821651E+04  0.50400001928E-02 0. -1.
    10030    2    1    2    0    0  0.00000000000E+00  0.00000000000E+00 -0.11252003661E+04  0.41771639642E+04  0.40227630951E+04 0.  0.
        1    1    3    3  502    0  0.15445200816E+04 -0.53767699470E+03  0.65324553341E+03  0.17610702882E+04  0.50400001928E-02 0.  1.
       -1    1    3    3    0  502 -0.15445200816E+04  0.53767699470E+03 -0.17784458995E+04  0.24160936759E+04  0.50400001928E-02 0. -1.
</event>
<event>
 5   0  0.1879500E-08  0.4001778E+04  0.7818609E-02  0.8004188E-01
        1   -1    0    0  501    0  0.00000000000E+00  0.00000000000E+00  0.16593508027E+04  0.16593508027E+04  0.50400001928E-02 0. -1.
       -1   -1    0    0    0  501  0.00000000000E+00  0.00000000000E+00 -0.24127249538E+04  0.24127249538E+04  0.50400001928E-02 0.  1.
    10030    2    1    2    0    0  0.00000000000E+00  0.00000000000E+00 -0.75337415115E+03  0.40720757565E+04  0.40017781492E+04 0.  0.
        3    1    3    3  502    0 -0.96344194335E+03  0.77661064756E+03 -0.19766346357E+04  0.23320439467E+04  0.10100000352E+00 0.  1.
       -3    1    3    3    0  502  0.96344194335E+03 -0.77661064756E+03  0.12232604845E+04  0.17400318098E+04  0.10100000352E+00 0. -1.
</event>
<event>
 5   0  0.1879500E-08  0.4000279E+04  0.7818609E-02  0.8004490E-01
       -1   -1    0    0    0  501  0.00000000000E+00  0.00000000000E+00  0.15750981141E+04  0.15750981141E+04  0.50400001928E-02 0.  1.
        1   -1    0    0  501    0  0.00000000000E+00  0.00000000000E+00 -0.25398788121E+04  0.25398788121E+04  0.50400001928E-02 0. -1.
    10030    2    1    2    0    0  0.00000000000E+00  0.00000000000E+00 -0.96478069804E+03  0.41149769262E+04  0.40002791538E+04 0.  0.
        2    1    3    3  502    0  0.86937936014E+03  0.62608927671E+03  0.12550462589E+04  0.16501361660E+04  0.25500000920E-02 0.  1.
       -2    1    3    3    0  502 -0.86937936014E+03 -0.62608927671E+03 -0.22198269570E+04  0.24648407602E+04  0.25500000920E-02 0. -1.
</event>
<event>
 5   0  0.1879500E-08  0.3993063E+04  0.7818609E-02  0.8005947E-01
       -1   -1    0    0    0  501  0.00000000000E+00  0.00000000000E+00  0.15912148835E+04  0.15912148835E+04  0.50400001928E-02 0. -1.
        1   -1    0    0  501    0  0.00000000000E+00  0.00000000000E+00 -0.25050907747E+04  0.25050907747E+04  0.50400001928E-02 0.  1.
    10030    2    1    2    0    0  0.00000000000E+00  0.00000000000E+00 -0.91387589115E+03  0.40963056582E+04  0.39930628471E+04 0.  0.
        2    1    3    3  502    0 -0.94703858389E+03  0.11917562684E+04  0.86835174216E+03  0.17524839031E+04  0.25500000920E-02 0. -1.
       -2    1    3    3    0  502  0.94703858389E+03 -0.11917562684E+04 -0.17822276333E+04  0.23438217551E+04  0.25500000920E-02 0.  1.
</event>
<event>
 5   0  0.5888700E-08  0.4089445E+04  0.7818609E-02  0.7986742E-01
        2   -1    0    0  501    0  0.00000000000E+00  0.00000000000E+00  0.23394297946E+04  0.23394297946E+04  0.25500000920E-02 0. -1.
       -2   -1    0    0    0  501  0.00000000000E+00  0.00000000000E+00 -0.17871407862E+04  0.17871407862E+04  0.25500000920E-02 0.  1.
    10030    2    1    2    0    0  0.00000000000E+00  0.00000000000E+00  0.55228900836E+03  0.41265705808E+04  0.40894451469E+04 0.  0.
        5    1    3    3  502    0 -0.89479394521E+03 -0.11049070910E+04  0.17589721608E+04  0.22617429201E+04  0.46999998093E+01 0. -1.
       -5    1    3    3    0  502  0.89479394521E+03  0.11049070910E+04 -0.12066831524E+04  0.18648276608E+04  0.46999998093E+01 0.  1.
</event>
<event>
 5   0  0.1879500E-08  0.4053172E+04  0.7818609E-02  0.7993905E-01
        3   -1    0    0  501    0  0.00000000000E+00  0.00000000000E+00  0.23503574110E+04  0.23503574132E+04  0.10100000352E+00 0.  1.
       -3   -1    0    0    0  501  0.00000000000E+00  0.00000000000E+00 -0.17474152573E+04  0.17474152602E+04  0.10100000352E+00 0. -1.
    10030    2    1    2    0    0  0.00000000000E+00  0.00000000000E+00  0.60294215374E+03  0.40977726734E+04  0.40531718002E+04 0.  0.
        4    1    3    3  502    0  0.29523898910E+03  0.18591136838E+04 -0.45750881317E+03  0.19372107983E+04  0.12699999809E+01 0. -1.
       -4    1    3    3    0  502 -0.29523898910E+03 -0.18591136838E+04  0.10604509669E+04  0.21605618751E+04  0.12699999809E+01 0.  1.
</event>
<event>
 5   0  0.1879500E-08  0.4009403E+04  0.7818609E-02  0.8002652E-01
        1   -1    0    0  501    0  0.00000000000E+00  0.00000000000E+00  0.15837726985E+04  0.15837726985E+04  0.50400001928E-02 0. -1.
       -1   -1    0    0    0  501  0.00000000000E+00  0.00000000000E+00 -0.25375028912E+04  0.25375028912E+04  0.50400001928E-02 0.  1.
    10030    2    1    2    0    0  0.00000000000E+00  0.00000000000E+00 -0.95373019269E+03  0.41212755897E+04  0.40094028490E+04 0.  0.
        3    1    3    3  502    0 -0.18162275783E+04 -0.13500137061E+03 -0.13380486164E+04  0.22599296662E+04  0.10100000352E+00 0.  1.
       -3    1    3    3    0  502  0.18162275783E+04  0.13500137061E+03  0.38431842366E+03  0.18613459235E+04  0.10100000352E+00 0. -1.
</event>
<event>
 5   0  0.1879500E-08  0.4003390E+04  0.7818609E-02  0.8003863E-01
       -1   -1    0    0    0  501  0.00000000000E+00  0.00000000000E+00  0.15325846431E+04  0.15325846432E+04  0.50400001928E-02 0.  1.
        1   -1    0    0  501    0  0.00000000000E+00  0.00000000000E+00 -0.26143957665E+04  0.26143957665E+04  0.50400001928E-02 0. -1.
    10030    2    1    2    0    0  0.00000000000E+00  0.00000000000E+00 -0.10818111233E+04  0.41469804096E+04  0.40033899649E+04 0.  0.
        5    1    3    3  502    0 -0.14630482886E+04 -0.56283501192E+03  0.74851703441E+03  0.17371221564E+04  0.46999998093E+01 0.  1.
       -5    1    3    3    0  502  0.14630482886E+04  0.56283501192E+03 -0.18303281578E+04  0.24098582532E+04  0.46999998093E+01 0. -1.
</event>
<event>
 5   0  0.1879500E-08  0.3969894E+04  0.7818609E-02  0.8010648E-01
       -1   -1    0    0    0  501  0.00000000000E+00  0.00000000000E+00  0.21928739053E+04  0.21928739053E+04  0.50400001928E-02 0.  1.
        1   -1    0    0  501    0  0.00000000000E+00  0.00000000000E+00 -0.17967357158E+04  0.17967357158E+04  0.50400001928E-02 0. -1.
    10030    2    1    2    0    0  0.00000000000E+00  0.00000000000E+00  0.39613818957E+03  0.39896096211E+04  0.39698941376E+04 0.  0.
        1    1    3    3  502    0  0.18898013227E+04 -0.15548216392E+03  0.78791761530E+03  0.20533723265E+04  0.50400001928E-02 0. -1.
       -1    1    3    3    0  502 -0.18898013227E+04  0.15548216392E+03 -0.39177942573E+03  0.19362372946E+04  0.50400001928E-02 0.  1.
</event>
<event>
 5   0  0.5951623E-08  0.3998958E+04  0.7818609E-02  0.8004757E-01
        2   -1    0    0  501    0  0.00000000000E+00  0.00000000000E+00  0.24107950434E+04  0.24107950434E+04  0.25500000920E-02 0.  1.
       -2   -1    0    0    0  501  0.00000000000E+00  0.00000000000E+00 -0.16583395219E+04  0.16583395219E+04  0.25500000920E-02 0. -1.
    10030    2    1    2    0    0  0.00000000000E+00  0.00000000000E+00  0.75245552151E+03  0.40691345653E+04  0.39989582141E+04 0.  0.
        2    1    3    3  502    0 -0.13381062621E+04  0.52495327543E+03 -0.10380595978E+04  0.17730403376E+04  0.25500000920E-02 0. -1.
       -2    1    3    3    0  502  0.13381062621E+04 -0.52495327543E+03  0.17905151193E+04  0.22960942277E+04  0.25500000920E-02 0.  1.
</event>
<event>
 5   0  0.6161563E-08  0.3945636E+04  0.7818609E-02  0.8015604E-01
       -2   -1    0    0    0  501  0.00000000000E+00  0.00000000000E+00  0.14712568204E+04  0.14712568204E+04  0.25500000920E-02 0.  1.
        2   -1    0    0  501    0  0.00000000000E+00  0.00000000000E+00 -0.26453652937E+04  0.26453652937E+04  0.25500000920E-02 0. -1.
    10030    2    1    2    0    0  0.00000000000E+00  0.00000000000E+00 -0.11741084733E+04  0.41166221142E+04  0.39456364409E+04 0.  0.
        1    1    3    3  502    0  0.18418539075E+04 -0.70432253523E+03 -0.64891690344E+03  0.20759550087E+04  0.50400001928E-02 0. -1.
       -1    1    3    3    0  502 -0.18418539075E+04  0.70432253523E+03 -0.52519156983E+03  0.20406671055E+04  0.50400001928E-02 0.  1.
</event>
<event>
 5   0  0.1879500E-08  0.4006128E+04  0.7818609E-02  0.8003312E-01
       -1   -1    0    0    0  501  0.00000000000E+00  0.00000000000E+00  0.16807051447E+04  0.16807051447E+04  0.50400001928E-02 0.  1.
        1   -1    0    0  501    0  0.00000000000E+00  0.00000000000E+00 -0.23872510092E+04  0.23872510092E+04  0.50400001928E-02 0. -1.
    10030    2    1    2    0    0  0.00000000000E+00  0.00000000000E+00 -0.70654586450E+03  0.40679561540E+04  0.40061278327E+04 0.  0.
        2    1    3    3  502    0  0.57635428418E+03  0.17023675244E+04 -0.12512431774E+04  0.21899426792E+04  0.25500000920E-02 0.  1.
       -2    1    3    3    0  502 -0.57635428418E+03 -0.17023675244E+04  0.54469731294E+03  0.18780134748E+04  0.25500000920E-02 0. -1.
</event>
<event>
 5   0  0.1879500E-08  0.4027127E+04  0.7818609E-02  0.7999096E-01
        1   -1    0    0  501    0  0.00000000000E+00  0.00000000000E+00  0.18189892186E+04  0.18189892186E+04  0.50400001928E-02 0.  1.
       -1   -1    0    0    0  501  0.00000000000E+00  0.00000000000E+00 -0.22289510089E+04  0.22289510089E+04  0.50400001928E-02 0. -1.
    10030    2    1    2    0    0  0.00000000000E+00  0.00000000000E+00 -0.40996179027E+03  0.40479402274E+04  0.40271269431E+04 0.  0.
        3    1    3    3  502    0 -0.57314569647E+03 -0.69792630199E+03  0.16039982808E+04  0.18407627787E+04  0.10100000352E+00 0.  1.
       -3    1    3    3    0  502  0.57314569647E+03  0.69792630199E+03 -0.20139600711E+04  0.22071774488E+04  0.10100000352E+00 0. -1.
</event>
<event>
 5   0  0.5951623E-08  0.3997461E+04  0.7818609E-02  0.8005059E-01
        2   -1    0    0  501    0  0.00000000000E+00  0.00000000000E+00  0.18348026105E+04  0.18348026105E+04  0.25500000920E-02 0.  1.
       -2   -1    0    0    0  501  0.00000000000E+00  0.00000000000E+00 -0.21773040672E+04  0.21773040672E+04  0.25500000920E-02 0. -1.
    10030    2    1    2    0    0  0.00000000000E+00  0.00000000000E+00 -0.34250145669E+03  0.40121066778E+04  0.39974607873E+04 0.  0.
        2    1    3    3  502    0 -0.95066870463E+03  0.16124303389E+04  0.53218843960E+03  0.19460028569E+04  0.25500000920E-02 0.  1.
       -2    1    3    3    0  502  0.95066870463E+03 -0.16124303389E+04 -0.87468989629E+03  0.20661038209E+04  0.25500000920E-02 0. -1.
</event>
<event>
 5   0  0.6161563E-08  0.3990614E+04  0.7818609E-02  0.8006443E-01
        2   -1    0    0  501    0  0.00000000000E+00  0.00000000000E+00  0.14638938357E+04  0.14638938357E+04  0.25500000920E-02 0. -1.
       -2   -1    0    0    0  501  0.00000000000E+00  0.00000000000E+00 -0.27196299371E+04  0.27196299371E+04  0.25500000920E-02 0.  1.
    10030    2    1    2    0    0  0.00000000000E+00  0.00000000000E+00 -0.12557361014E+04  0.41835237727E+04  0.39906137373E+04 0.  0.
        1    1    3    3  502    0  0.11913697825E+04 -0.15253393455E+04 -0.11363160265E+04  0.22443787982E+04  0.50400001928E-02 0.  1.
       -1    1    3    3    0  502 -0.11913697825E+04  0.15253393455E+04 -0.11942007488E+03  0.19391449745E+04  0.50400001928E-02 0. -1.
</event>
<event>
 5   0  0.1879500E-08  0.3998149E+04  0.7818609E-02  0.8004920E-01
        1   -1    0    0  501    0  0.00000000000E+00  0.00000000000E+00  0.24080596222E+04  0.24080596222E+04  0.50400001928E-02 0.  1.
       -1   -1    0    0    0  501  0.00000000000E+00  0.00000000000E+00 -0.16595512332E+04  0.16595512332E+04  0.50400001928E-02 0. -1.
    10030    2    1    2    0    0  0.00000000000E+00  0.00000000000E+00  0.74850838900E+03  0.40676108555E+04  0.39981487295E+04 0.  0.
        1    1    3    3  502    0 -0.35523029930E+02  0.98636535319E+03 -0.13943729720E+04  0.17083484658E+04  0.50400001928E-02 0. -1.
       -1    1    3    3    0  502  0.35523029930E+02 -0.98636535319E+03  0.21428813610E+04  0.23592623896E+04  0.50400001928E-02 0.  1.
</event>
<event>
 5   0  0.5951623E-08  0.3988802E+04  0.7818609E-02  0.8006809E-01
        2   -1    0    0  501    0  0.00000000000E+00  0.00000000000E+00  0.12384503472E+04  0.12384503472E+04  0.25500000920E-02 0.  1.
       -2   -1    0    0    0  501  0.00000000000E+00  0.00000000000E+00 -0.32117846616E+04  0.32117846616E+04  0.25500000920E-02 0. -1.
    10030    2    1    2    0    0  0.00000000000E+00  0.00000000000E+00 -0.19733343145E+04  0.44502350088E+04  0.39888022409E+04 0.  0.
        2    1    3    3  502    0  0.86716547212E+03 -0.14377375745E+03  0.10106807139E+04  0.13394485264E+04  0.25500000920E-02 0.  1.
       -2    1    3    3    0  502 -0.86716547212E+03  0.14377375745E+03 -0.29840150284E+04  0.31107864824E+04  0.25500000920E-02 0. -1.
</event>
<event>
 5   0  0.1879500E-08  0.4026869E+04  0.7818609E-02  0.7999148E-01
       -1   -1    0    0    0  501  0.00000000000E+00  0.00000000000E+00  0.12649892169E+04  0.12649892169E+04  0.50400001928E-02 0.  1.
        1   -1    0    0  501    0  0.00000000000E+00  0.00000000000E+00 -0.32047053022E+04  0.32047053022E+04  0.50400001928E-02 0. -1.
    10030    2    1    2    0    0  0.00000000000E+00  0.00000000000E+00 -0.19397160853E+04  0.44696945192E+04  0.40268685853E+04 0.  0.
        4    1    3    3  502    0 -0.15955265788E+04  0.60683765466E+03 -0.21549580696E+04  0.27491458487E+04  0.12699999809E+01 0. -1.
       -4    1    3    3    0  502  0.15955265788E+04 -0.60683765466E+03  0.21524198433E+03  0.17205486705E+04  0.12699999809E+01 0.  1.
</event>
<event>
 5   0  0.1879500E-08  0.3828901E+04  0.7818609E-02  0.8039981E-01
       -1   -1    0    0    0  501  0.00000000000E+00  0.00000000000E+00  0.19400390142E+04  0.19400390142E+04  0.50400001928E-02 0. -1.
        1   -1    0    0  501    0  0.00000000000E+00  0.00000000000E+00 -0.18891995518E+04  0.18891995518E+04  0.50400001928E-02 0.  1.
    10030    2    1    2    0    0  0.00000000000E+00  0.00000000000E+00  0.50839462432E+02  0.38292385659E+04  0.38289010622E+04 0.  0.
        3    1    3    3  502    0 -0.12040876909E+04  0.12082781664E+04 -0.84376994944E+03  0.19030793553E+04  0.10100000352E+00 0.  1.
       -3    1    3    3    0  502  0.12040876909E+04 -0.12082781664E+04  0.89460941187E+03  0.19261592107E+04  0.10100000352E+00 0. -1.
</event>
<event>
 5   0  0.5888700E-08  0.4004365E+04  0.7818609E-02  0.8003667E-01
       -2   -1    0    0    0  501  0.00000000000E+00  0.00000000000E+00  0.17773524083E+04  0.17773524083E+04  0.25500000920E-02 0. -1.
        2   -1    0    0  501    0  0.00000000000E+00  0.00000000000E+00 -0.22554530204E+04  0.22554530204E+04  0.25500000920E-02 0.  1.
    10030    2    1    2    0    0  0.00000000000E+00  0.00000000000E+00 -0.47810061216E+03  0.40328054287E+04  0.40043650471E+04 0.  0.
        5    1    3    3  502    0 -0.91592194506E+03  0.72809867474E+03  0.13971956885E+04  0.18224210741E+04  0.46999998093E+01 0. -1.
       -5    1    3    3    0  502  0.91592194506E+03 -0.72809867474E+03 -0.18752963006E+04  0.22103843545E+04  0.46999998093E+01 0.  1.
</event>
<event>
 5   0  0.5951623E-08  0.3994906E+04  0.7818609E-02  0.8005575E-01
        2   -1    0    0  501    0  0.00000000000E+00  0.00000000000E+00  0.23341044827E+04  0.23341044827E+04  0.25500000920E-02 0. -1.
       -2   -1    0    0    0  501  0.00000000000E+00  0.00000000000E+00 -0.17093571799E+04  0.17093571799E+04  0.25500000920E-02 0.  1.
    10030    2    1    2    0    0  0.00000000000E+00  0.00000000000E+00  0.62474730274E+03  0.40434616626E+04  0.39949058844E+04 0.  0.
        2    1    3    3  502    0  0.61192949941E+03  0.29844912696E+03  0.22130392225E+04  0.23153989276E+04  0.25500000920E-02 0. -1.
       -2    1    3    3    0  502 -0.61192949941E+03 -0.29844912696E+03 -0.15882919198E+04  0.17280627350E+04  0.25500000920E-02 0.  1.
</event>
<event>
 5   0  0.1879500E-08  0.3999658E+04  0.7818609E-02  0.8004616E-01
       -3   -1    0    0    0  501  0.00000000000E+00  0.00000000000E+00  0.20422174598E+04  0.20422174623E+04  0.10100000352E+00 0. -1.
        3   -1    0    0  501    0  0.00000000000E+00  0.00000000000E+00 -0.19583202413E+04  0.19583202439E+04  0.10100000352E+00 0.  1.
    10030    2    1    2    0    0  0.00000000000E+00  0.00000000000E+00  0.83897218561E+02  0.40005377062E+04  0.39996578848E+04 0.  0.
        5    1    3    3  502    0 -0.87960334378E+03 -0.17738119919E+04  0.32340468736E+03  0.20061714052E+04  0.46999998093E+01 0. -1.
       -5    1    3    3    0  502  0.87960334378E+03  0.17738119919E+04 -0.23950746880E+03  0.19943663010E+04  0.46999998093E+01 0.  1.
</event>
<event>
 5   0  0.1879500E-08  0.4006984E+04  0.7818609E-02  0.8003139E-01
       -1   -1    0    0    0  501  0.00000000000E+00  0.00000000000E+00  0.19357263171E+04  0.19357263171E+04  0.50400001928E-02 0. -1.
        1   -1    0    0  501    0  0.00000000000E+00  0.00000000000E+00 -0.20736295766E+04  0.20736295766E+04  0.50400001928E-02 0.  1.
    10030    2    1    2    0    0  0.00000000000E+00  0.00000000000E+00 -0.13790325948E+03  0.40093558937E+04  0.40069835754E+04 0.  0.
        2    1    3    3  502    0  0.25093841252E+03 -0.17539264614E+04 -0.10047867204E+04  0.20368663364E+04  0.25500000920E-02 0.  1.
       -2    1    3    3    0  502 -0.25093841252E+03  0.17539264614E+04  0.86688346097E+03  0.19724895573E+04  0.25500000920E-02 0. -1.
</event>
<event>
 5   0  0.1879500E-08  0.3963951E+04  0.7818609E-02  0.8011858E-01
       -1   -1    0    0    0  501  0.00000000000E+00  0.00000000000E+00  0.14629165343E+04  0.14629165343E+04  0.50400001928E-02 0.  1.
        1   -1    0    0  501    0  0.00000000000E+00  0.00000000000E+00 -0.26852026743E+04  0.26852026743E+04  0.50400001928E-02 0. -1.
    10030    2    1    2    0    0  0.00000000000E+00  0.00000000000E+00 -0.12222861400E+04  0.41481192086E+04  0.39639512561E+04 0.  0.
        1    1    3    3  502    0 -0.17375625829E+04  0.55071427945E+03  0.20336203404E+03  0.18340572684E+04  0.50400001928E-02 0.  1.
       -1    1    3    3    0  502  0.17375625829E+04 -0.55071427945E+03 -0.14256481740E+04  0.23140619402E+04  0.50400001928E-02 0. -1.
</event>
<event>
 5   0  0.5951623E-08  0.3985281E+04  0.7818609E-02  0.8007522E-01
        2   -1    0    0  501    0  0.00000000000E+00  0.00000000000E+00  0.26673727388E+04  0.26673727388E+04  0.25500000920E-02 0. -1.
       -2   -1    0    0    0  501  0.00000000000E+00  0.00000000000E+00 -0.14885869450E+04  0.14885869450E+04  0.25500000920E-02 0.  1.
    10030    2    1    2    0    0  0.00000000000E+00  0.00000000000E+00  0.11787857938E+04  0.41559596838E+04  0.39852810373E+04 0.  0.
        2    1    3    3  502    0  0.15198539551E+04 -0.15944040456E+03 -0.74413769963E+03  0.16997406283E+04  0.25500000920E-02 0.  1.
       -2    1    3    3    0  502 -0.15198539551E+04  0.15944040456E+03  0.19229234934E+04  0.24562190556E+04  0.25500000920E-02 0. -1.
</event>
<event>
 5   0  0.1879500E-08  0.3999494E+04  0.7818609E-02  0.8004649E-01
        1   -1    0    0  501    0  0.00000000000E+00  0.00000000000E+00  0.19598860506E+04  0.19598860506E+04  0.50400001928E-02 0. -1.
       -1   -1    0    0    0  501  0.00000000000E+00  0.00000000000E+00 -0.20404187099E+04  0.20404187099E+04  0.50400001928E-02 0.  1.
    10030    2    1    2    0    0  0.00000000000E+00  0.00000000000E+00 -0.80532659327E+02  0.40003047605E+04  0.39994940515E+04 0.  0.
        1    1    3    3  502    0 -0.28072066544E+03  0.18881115319E+04  0.55585692970E+03  0.19881514468E+04  0.50400001928E-02 0. -1.
       -1    1    3    3    0  502  0.28072066544E+03 -0.18881115319E+04 -0.63638958903E+03  0.20121533137E+04  0.50400001928E-02 0.  1.
</event>
<event>
 5   0  0.5888700E-08  0.3862147E+04  0.7818609E-02  0.8032948E-01
        2   -1    0    0  501    0  0.00000000000E+00  0.00000000000E+00  0.24747584871E+04  0.24747584871E+04  0.25500000920E-02 0.  1.
       -2   -1    0    0    0  501  0.00000000000E+00  0.00000000000E+00 -0.15068321870E+04  0.15068321870E+04  0.25500000920E-02 0. -1.
    10030    2    1    2    0    0  0.00000000000E+00  0.00000000000E+00  0.96792630011E+03  0.39815906741E+04  0.38621474562E+04 0.  0.
        5    1    3    3  502    0 -0.14279071343E+04  0.67317793093E+03  0.16305354207E+04  0.22695275189E+04  0.46999998093E+01 0.  1.
       -5    1    3    3    0  502  0.14279071343E+04 -0.67317793093E+03 -0.66260912055E+03  0.17120631552E+04  0.46999998093E+01 0. -1.
</event>
<event>
 5   0  0.1879500E-08  0.4006956E+04  0.7818609E-02  0.8003145E-01
        1   -1    0    0  501    0  0.00000000000E+00  0.00000000000E+00  0.20367517622E+04  0.20367517622E+04  0.50400001928E-02 0. -1.
       -1   -1    0    0    0  501  0.00000000000E+00  0.00000000000E+00 -0.19707477602E+04  0.19707477603E+04  0.50400001928E-02 0.  1.
    10030    2    1    2    0    0  0.00000000000E+00  0.00000000000E+00  0.66004001946E+02  0.40074995225E+04  0.40069559386E+04 0.  0.
        3    1    3    3  502    0  0.12684610345E+04 -0.46995737358E+03 -0.14450586395E+04  0.19794059237E+04  0.10100000352E+00 0.  1.
       -3    1    3    3    0  502 -0.12684610345E+04  0.46995737358E+03  0.15110626414E+04  0.20280935988E+04  0.10100000352E+00 0. -1.
</event>
<event>
 5   0  0.1879500E-08  0.3984531E+04  0.7818609E-02  0.8007674E-01
       -1   -1    0    0    0  501  0.00000000000E+00  0.00000000000E+00  0.18045119326E+04  0.18045119326E+04  0.50400001928E-02 0. -1.
        1   -1    0    0  501    0  0.00000000000E+00  0.00000000000E+00 -0.21995539026E+04  0.21995539026E+04  0.50400001928E-02 0.  1.
    10030    2    1    2    0    0  0.00000000000E+00  0.00000000000E+00 -0.39504197001E+03  0.40040658352E+04  0.39845307194E+04 0.  0.
        5    1    3    3  502    0  0.16345948312E+04 -0.99240430919E+03 -0.75912821124E+03  0.20574412036E+04  0.46999998093E+01 0.  1.
       -5    1    3    3    0  502 -0.16345948312E+04  0.99240430919E+03  0.36408624123E+03  0.19466246316E+04  0.46999998093E+01 0. -1.
</event>
<event>
 5   0  0.5951623E-08  0.3960263E+04  0.7818609E-02  0.8012611E-01
       -2   -1    0    0    0  501  0.00000000000E+00  0.00000000000E+00  0.30972717078E+04  0.30972717078E+04  0.25500000920E-02 0.  1.
        2   -1    0    0  501    0  0.00000000000E+00  0.00000000000E+00 -0.12659271946E+04  0.12659271946E+04  0.25500000920E-02 0. -1.
    10030    2    1    2    0    0  0.00000000000E+00  0.00000000000E+00  0.18313445133E+04  0.43631989024E+04  0.39602628619E+04 0.  0.
        2    1    3    3  502    0 -0.67467205021E+03 -0.12600599038E+04 -0.59415515548E+03  0.15478868451E+04  0.25500000920E-02 0. -1.
       -2    1    3    3    0  502  0.67467205021E+03  0.12600599038E+04  0.24254996687E+04  0.28153120572E+04  0.25500000920E-02 0.  1.
</event>
<event>
 5   0  0.1879500E-08  0.4010220E+04  0.7818609E-02  0.8002488E-01
       -1   -1    0    0    0  501  0.00000000000E+00  0.00000000000E+00  0.14785001903E+04  0.14785001903E+04  0.50400001928E-02 0. -1.
        1   -1    0    0  501    0  0.00000000000E+00  0.00000000000E+00 -0.27192863973E+04  0.27192863973E+04  0.50400001928E-02 0.  1.
    10030    2    1    2    0    0  0.00000000000E+00  0.00000000000E+00 -0.12407862070E+04  0.41977865876E+04  0.40102196728E+04 0.  0.
        1    1    3    3  502    0  0.68238806301E+03  0.18216371358E+04 -0.11293980158E+04  0.22493455051E+04  0.50400001928E-02 0. -1.
       -1    1    3    3    0  502 -0.68238806301E+03 -0.18216371358E+04 -0.11138819120E+03  0.19484410826E+04  0.50400001928E-02 0.  1.
</event>
<event>
 5   0  0.5951623E-08  0.3984688E+04  0.7818609E-02  0.8007643E-01
       -2   -1    0    0    0  501  0.00000000000E+00  0.00000000000E+00  0.17570650118E+04  0.17570650118E+04  0.25500000920E-02 0.  1.
        2   -1    0    0  501    0  0.00000000000E+00  0.00000000000E+00 -0.22591277743E+04  0.22591277743E+04  0.25500000920E-02 0. -1.
    10030    2    1    2    0    0  0.00000000000E+00  0.00000000000E+00 -0.50206276246E+03  0.40161927861E+04  0.39846878771E+04 0.  0.
        2    1    3    3  502    0  0.74022720921E+03 -0.49201385262E+03 -0.20482223296E+04  0.22327625633E+04  0.25500000920E-02 0. -1.
       -2    1    3    3    0  502 -0.74022720921E+03  0.49201385262E+03  0.15461595672E+04  0.17834302228E+04  0.25500000920E-02 0.  1.
</event>
<event>
 5   0  0.1879500E-08  0.3996621E+04  0.7818609E-02  0.8005228E-01
        1   -1    0    0  501    0  0.00000000000E+00  0.00000000000E+00  0.14726079105E+04  0.14726079105E+04  0.50400001928E-02 0. -1.
       -1   -1    0    0    0  501  0.00000000000E+00  0.00000000000E+00 -0.27116829710E+04  0.27116829710E+04  0.50400001928E-02 0.  1.
    10030    2    1    2    0    0  0.00000000000E+00  0.00000000000E+00 -0.12390750605E+04  0.41842908815E+04  0.39966214702E+04 0.  0.
        2    1    3    3  502    0 -0.14996640281E+04 -0.34789044971E+03 -0.19534223299E+04  0.24871426902E+04  0.25500000920E-02 0.  1.
       -2    1    3    3    0  502  0.14996640281E+04  0.34789044971E+03  0.71434726946E+03  0.16971481914E+04  0.25500000920E-02 0. -1.
</event>
<event>
 5   0  0.1879500E-08  0.3996239E+04  0.7818609E-02  0.8005306E-01
       -1   -1    0    0    0  501  0.00000000000E+00  0.00000000000E+00  0.22682745019E+04  0.22682745019E+04  0.50400001928E-02 0.  1.
        1   -1    0    0  501    0  0.00000000000E+00  0.00000000000E+00 -0.17601403216E+04  0.17601403217E+04  0.50400001928E-02 0. -1.
    10030    2    1    2    0    0  0.00000000000E+00  0.00000000000E+00  0.50813418026E+03  0.40284148236E+04  0.39962389375E+04 0.  0.
        2    1    3    3  502    0  0.15096891222E+04 -0.59755996971E+03  0.14280218819E+04  0.21622871359E+04  0.25500000920E-02 0.  1.
       -2    1    3    3    0  502 -0.15096891222E+04  0.59755996971E+03 -0.91988770163E+03  0.18661276876E+04  0.25500000920E-02 0. -1.
</event>
<event>
 5   0  0.1879500E-08  0.3999346E+04  0.7818609E-02  0.8004678E-01
       -1   -1    0    0    0  501  0.00000000000E+00  0.00000000000E+00  0.27316220064E+04  0.27316220064E+04  0.50400001928E-02 0. -1.
        1   -1    0    0  501    0  0.00000000000E+00  0.00000000000E+00 -0.14638527680E+04  0.14638527680E+04  0.50400001928E-02 0.  1.
    10030    2    1    2    0    0  0.00000000000E+00  0.00000000000E+00  0.12677692384E+04  0.41954747745E+04  0.39993461642E+04 0.  0.
        4    1    3    3  502    0 -0.19473298290E+04  0.41730214549E+03  0.44489346352E+03  0.20406289105E+04  0.12699999809E+01 0. -1.
       -4    1    3    3    0  502  0.19473298290E+04 -0.41730214549E+03  0.82287577489E+03  0.21548458640E+04  0.12699999809E+01 0.  1.
</event>
<event>
 5   0  0.1879500E-08  0.3887762E+04  0.7818609E-02  0.8027579E-01
       -1   -1    0    0    0  501  0.00000000000E+00  0.00000000000E+00  0.13719882713E+04  0.13719882713E+04  0.50400001928E-02 0.  1.
        1   -1    0    0  501    0  0.00000000000E+00  0.00000000000E+00 -0.27541588495E+04  0.27541588495E+04  0.50400001928E-02 0. -1.
    10030    2    1    2    0    0  0.00000000000E+00  0.00000000000E+00 -0.13821705782E+04  0.41261471208E+04  0.38877621526E+04 0.  0.
        4    1    3    3  502    0  0.15084387871E+04  0.83556906889E+03 -0.16433820421E+04  0.23820724994E+04  0.12699999809E+01 0. -1.
       -4    1    3    3    0  502 -0.15084387871E+04 -0.83556906889E+03  0.26121146388E+03  0.17440746214E+04  0.12699999809E+01 0.  1.
</event>
<event>
 5   0  0.1879500E-08  0.3988717E+04  0.7818609E-02  0.8006827E-01
        1   -1    0    0  501    0  0.00000000000E+00  0.00000000000E+00  0.12164794021E+04  0.12164794021E+04  0.50400001928E-02 0. -1.
       -1   -1    0    0    0  501  0.00000000000E+00  0.00000000000E+00 -0.32696525467E+04  0.32696525467E+04  0.50400001928E-02 0.  1.
    10030    2    1    2    0    0  0.00000000000E+00  0.00000000000E+00 -0.20531731446E+04  0.44861319488E+04  0.39887165731E+04 0.  0.
        5    1    3    3  502    0  0.14442478079E+04  0.12362741044E+04 -0.17044188472E+04  0.25532902476E+04  0.46999998093E+01 0.  1.
       -5    1    3    3    0  502 -0.14442478079E+04 -0.12362741044E+04 -0.34875429740E+03  0.19328417012E+04  0.46999998093E+01 0. -1.
</event>
<event>
 5   0  0.1879500E-08  0.4015636E+04  0.7818609E-02  0.8001400E-01
       -1   -1    0    0    0  501  0.00000000000E+00  0.00000000000E+00  0.18017126465E+04  0.18017126465E+04  0.50400001928E-02 0.  1.
        1   -1    0    0  501    0  0.00000000000E+00  0.00000000000E+00 -0.22375002368E+04  0.22375002368E+04  0.50400001928E-02 0. -1.
    10030    2    1    2    0    0  0.00000000000E+00  0.00000000000E+00 -0.43578759032E+03  0.40392128833E+04  0.40156356772E+04 0.  0.
        3    1    3    3  502    0  0.14557904628E+04  0.93962765760E+03  0.80251123359E+03  0.19095157231E+04  0.10100000352E+00 0.  1.
       -3    1    3    3    0  502 -0.14557904628E+04 -0.93962765760E+03 -0.12382988239E+04  0.21296971602E+04  0.10100000352E+00 0. -1.
</event>
<event>
 5   0  0.5888700E-08  0.3983329E+04  0.7818609E-02  0.8007918E-01
       -2   -1    0    0    0  501  0.00000000000E+00  0.00000000000E+00  0.14378754487E+04  0.14378754487E+04  0.25500000920E-02 0.  1.
        2   -1    0    0  501    0  0.00000000000E+00  0.00000000000E+00 -0.27587418264E+04  0.27587418264E+04  0.25500000920E-02 0. -1.
    10030    2    1    2    0    0  0.00000000000E+00  0.00000000000E+00 -0.13208663777E+04  0.41966172751E+04  0.39833288297E+04 0.  0.
        5    1    3    3  502    0  0.14826461469E+04  0.13243156445E+04 -0.78796669667E+03  0.21384492345E+04  0.46999998093E+01 0.  1.
       -5    1    3    3    0  502 -0.14826461469E+04 -0.13243156445E+04 -0.53289968104E+03  0.20581680406E+04  0.46999998093E+01 0. -1.
</event>
<event>
 5   0  0.1879500E-08  0.4012646E+04  0.7818609E-02  0.8002000E-01
        1   -1    0    0  501    0  0.00000000000E+00  0.00000000000E+00  0.13844559719E+04  0.13844559719E+04  0.50400001928E-02 0. -1.
       -1   -1    0    0    0  501  0.00000000000E+00  0.00000000000E+00 -0.29075193917E+04  0.29075193917E+04  0.50400001928E-02 0.  1.
    10030    2    1    2    0    0  0.00000000000E+00  0.00000000000E+00 -0.15230634197E+04  0.42919753636E+04  0.40126463016E+04 0.  0.
        5    1    3    3  502    0  0.33941216382E+03  0.18228516828E+04  0.58186031430E+02  0.18551001532E+04  0.46999998093E+01 0. -1.
       -5    1    3    3    0  502 -0.33941216382E+03 -0.18228516828E+04 -0.15812494512E+04  0.24368752104E+04  0.46999998093E+01 0.  1.
</event>
<event>
 5   0  0.6161563E-08  0.3971980E+04  0.7818609E-02  0.8010223E-01
       -2   -1    0    0    0  501  0.00000000000E+00  0.00000000000E+00  0.15620991441E+04  0.15620991441E+04  0.25500000920E-02 0. -1.
        2   -1    0    0  501    0  0.00000000000E+00  0.00000000000E+00 -0.25249083039E+04  0.25249083039E+04  0.25500000920E-02 0.  1.
    10030    2    1    2    0    0  0.00000000000E+00  0.00000000000E+00 -0.96280915977E+03  0.40870074481E+04  0.39719804131E+04 0.  0.
        1    1    3    3  502    0  0.13310206335E+04  0.98380479198E+03  0.64795503421E+03  0.17774514119E+04  0.50400001928E-02 0. -1.
       -1    1    3    3    0  502 -0.13310206335E+04 -0.98380479198E+03 -0.16107641940E+04  0.23095560361E+04  0.50400001928E-02 0.  1.
</event>
<event>
 5   0  0.1879500E-08  0.4013011E+04  0.7818609E-02  0.8001927E-01
       -1   -1    0    0    0  501  0.00000000000E+00  0.00000000000E+00  0.22380859868E+04  0.22380859868E+04  0.50400001928E-02 0. -1.
        1   -1    0    0  501    0  0.00000000000E+00  0.00000000000E+00 -0.17988876119E+04  0.17988876119E+04  0.50400001928E-02 0.  1.
    10030    2    1    2    0    0  0.00000000000E+00  0.00000000000E+00  0.43919837496E+03  0.40369735987E+04  0.40130114159E+04 0.  0.
        3    1    3    3  502    0  0.77996505386E+03  0.16200884460E+04  0.11154406680E+04  0.21159489484E+04  0.10100000352E+00 0. -1.
       -3    1    3    3    0  502 -0.77996505386E+03 -0.16200884460E+04 -0.67624229301E+03  0.19210246503E+04  0.10100000352E+00 0.  1.
</event>
<event>
 5   0  0.1879500E-08  0.3986185E+04  0.7818609E-02  0.8007339E-01
        1   -1    0    0  501    0  0.00000000000E+00  0.00000000000E+00  0.27192740875E+04  0.27192740875E+04  0.50400001928E-02 0.  1.
       -1   -1    0    0    0  501  0.00000000000E+00  0.00000000000E+00 -0.14608373218E+04  0.14608373218E+04  0.50400001928E-02 0. -1.
    10030    2    1    2    0    0  0.00000000000E+00  0.00000000000E+00  0.12584367657E+04  0.41801114093E+04  0.39861846797E+04 0.  0.
        4    1    3    3  502    0 -0.11298854042E+04  0.98370841074E+03 -0.74930423446E+03  0.16750467792E+04  0.12699999809E+01 0. -1.
       -4    1    3    3    0  502  0.11298854042E+04 -0.98370841074E+03  0.20077410002E+04  0.25050646301E+04  0.12699999809E+01 0.  1.
</event>
<event>
 5   0  0.6161563E-08  0.4002018E+04  0.7818609E-02  0.8004139E-01
        2   -1    0    0  501    0  0.00000000000E+00  0.00000000000E+00  0.22269923555E+04  0.22269923555E+04  0.25500000920E-02 0.  1.
       -2   -1    0    0    0  501  0.00000000000E+00  0.00000000000E+00 -0.17979576164E+04  0.17979576164E+04  0.25500000920E-02 0. -1.
    10030    2    1    2    0    0  0.00000000000E+00  0.00000000000E+00  0.42903473913E+03  0.40249499718E+04  0.40020184243E+04 0.  0.
        1    1    3    3  502    0 -0.88972941728E+03  0.16852091616E+04 -0.39929894598E+03  0.19470459683E+04  0.50400001928E-02 0. -1.
       -1    1    3    3    0  502  0.88972941728E+03 -0.16852091616E+04  0.82833368510E+03  0.20779040036E+04  0.50400001928E-02 0.  1.
</event>
<event>
 5   0  0.5945387E-08  0.3998814E+04  0.7818609E-02  0.8004786E-01
       -2   -1    0    0    0  501  0.00000000000E+00  0.00000000000E+00  0.23596495312E+04  0.23596495312E+04  0.25500000920E-02 0. -1.
        2   -1    0    0  501    0  0.00000000000E+00  0.00000000000E+00 -0.16941615484E+04  0.16941615484E+04  0.25500000920E-02 0.  1.
    10030    2    1    2    0    0  0.00000000000E+00  0.00000000000E+00  0.66548798276E+03  0.40538110796E+04  0.39988135758E+04 0.  0.
        3    1    3    3  502    0  0.10951030655E+04  0.57302050809E+03  0.19259904340E+04  0.22884585180E+04  0.10100000352E+00 0. -1.
       -3    1    3    3    0  502 -0.10951030655E+04 -0.57302050809E+03 -0.12605024512E+04  0.17653525615E+04  0.10100000352E+00 0.  1.
</event>
<event>
 5   0  0.6161563E-08  0.4011718E+04  0.7818609E-02  0.8002187E-01
       -2   -1    0    0    0  501  0.00000000000E+00  0.00000000000E+00  0.22957777319E+04  0.22957777319E+04  0.25500000920E-02 0.  1.
        2   -1    0    0  501    0  0.00000000000E+00  0.00000000000E+00 -0.17525521650E+04  0.17525521650E+04  0.25500000920E-02 0. -1.
    10030    2    1    2    0    0  0.00000000000E+00  0.00000000000E+00  0.54322556690E+03  0.40483298969E+04  0.40117179534E+04 0.  0.
        1    1    3    3  502    0  0.11163933236E+04  0.68275246500E+03  0.18056789464E+04  0.22300137755E+04  0.50400001928E-02 0. -1.
       -1    1    3    3    0  502 -0.11163933236E+04 -0.68275246500E+03 -0.12624533795E+04  0.18183161213E+04  0.50400001928E-02 0.  1.
</event>
<event>
 5   0  0.5945387E-08  0.3980526E+04  0.7818609E-02  0.8008487E-01
        2   -1    0    0  501    0  0.00000000000E+00  0.00000000000E+00  0.24874454402E+04  0.24874454402E+04  0.25500000920E-02 0. -1.
       -2   -1    0    0    0  501  0.00000000000E+00  0.00000000000E+00 -0.15924556850E+04  0.15924556850E+04  0.25500000920E-02 0.  1.
    10030    2    1    2    0    0  0.00000000000E+00  0.00000000000E+00  0.89498975517E+03  0.40799011252E+04  0.39805259112E+04 0.  0.
        3    1    3    3  502    0 -0.16212074523E+04  0.74415092969E+03 -0.45719159374E+03  0.18414935170E+04  0.10100000352E+00 0.  1.
       -3    1    3    3    0  502  0.16212074523E+04 -0.74415092969E+03  0.13521813489E+04  0.22384076082E+04  0.10100000352E+00 0. -1.
</event>
<event>
 5   0  0.5951623E-08  0.4007640E+04  0.7818609E-02  0.8003007E-01
        2   -1    0    0  501    0  0.00000000000E+00  0.00000000000E+00  0.16195985974E+04  0.16195985974E+04  0.25500000920E-02 0. -1.
       -2   -1    0    0    0  501  0.00000000000E+00  0.00000000000E+00 -0.24791908365E+04  0.24791908365E+04  0.25500000920E-02 0.  1.
    10030    2    1    2    0    0  0.00000000000E+00  0.00000000000E+00 -0.85959223909E+03  0.40987894339E+04  0.40076397051E+04 0.  0.
        2    1    3    3  502    0  0.10918207449E+03 -0.17938867161E+04 -0.13361479717E+04  0.22394735269E+04  0.25500000920E-02 0.  1.
       -2    1    3    3    0  502 -0.10918207449E+03  0.17938867161E+04  0.47655573258E+03  0.18593159070E+04  0.25500000920E-02 0. -1.
</event>
<event>
 5   0  0.6161563E-08  0.3995153E+04  0.7818609E-02  0.8005525E-01
       -2   -1    0    0    0  501  0.00000000000E+00  0.00000000000E+00  0.17822583760E+04  0.17822583760E+04  0.25500000920E-02 0.  1.
        2   -1    0    0  501    0  0.00000000000E+00  0.00000000000E+00 -0.22389071755E+04  0.22389071755E+04  0.25500000920E-02 0. -1.
    10030    2    1    2    0    0  0.00000000000E+00  0.00000000000E+00 -0.45664879954E+03  0.40211655515E+04  0.39951525962E+04 0.  0.
        1    1    3    3  502    0  0.17539392519E+04 -0.81242343500E+03 -0.73556639547E+03  0.20681858377E+04  0.50400001928E-02 0. -1.
       -1    1    3    3    0  502 -0.17539392519E+04  0.81242343500E+03  0.27891759594E+03  0.19529797138E+04  0.50400001928E-02 0.  1.
</event>
<event>
 5   0  0.1879500E-08  0.3994631E+04  0.7818609E-02  0.8005631E-01
       -1   -1    0    0    0  501  0.00000000000E+00  0.00000000000E+00  0.29686240710E+04  0.29686240710E+04  0.50400001928E-02 0.  1.
        1   -1    0    0  501    0  0.00000000000E+00  0.00000000000E+00 -0.13438106009E+04  0.13438106009E+04  0.50400001928E-02 0. -1.
    10030    2    1    2    0    0  0.00000000000E+00  0.00000000000E+00  0.16248134700E+04  0.43124346719E+04  0.39946306446E+04 0.  0.
        5    1    3    3  502    0  0.99105544728E+03  0.11882719687E+04  0.21758438895E+04  0.26699250725E+04  0.46999998093E+01 0.  1.
       -5    1    3    3    0  502 -0.99105544728E+03 -0.11882719687E+04 -0.55103041946E+03  0.16425095994E+04  0.46999998093E+01 0. -1.
</event>
<event>
 5   0  0.1879500E-08  0.4020855E+04  0.7818609E-02  0.8000353E-01
        1   -1    0    0  501    0  0.00000000000E+00  0.00000000000E+00  0.15121191658E+04  0.15121191658E+04  0.50400001928E-02 0. -1.
       -1   -1    0    0    0  501  0.00000000000E+00  0.00000000000E+00 -0.26729492577E+04  0.26729492577E+04  0.50400001928E-02 0.  1.
    10030    2    1    2    0    0  0.00000000000E+00  0.00000000000E+00 -0.11608300920E+04  0.41850684235E+04  0.40208545369E+04 0.  0.
        5    1    3    3  502    0 -0.11351221925E+04 -0.16152194360E+04 -0.97587897412E+03  0.22022257106E+04  0.46999998093E+01 0.  1.
       -5    1    3    3    0  502  0.11351221925E+04  0.16152194360E+04 -0.18495111786E+03  0.19828427129E+04  0.46999998093E+01 0. -1.
</event>
<event>
 5   0  0.5951623E-08  0.3970032E+04  0.7818609E-02  0.8010619E-01
        2   -1    0    0  501    0  0.00000000000E+00  0.00000000000E+00  0.30223703791E+04  0.30223703791E+04  0.25500000920E-02 0.  1.
       -2   -1    0    0    0  501  0.00000000000E+00  0.00000000000E+00 -0.13037081385E+04  0.13037081385E+04  0.25500000920E-02 0. -1.
    10030    2    1    2    0    0  0.00000000000E+00  0.00000000000E+00  0.17186622406E+04  0.43260785176E+04  0.39700321716E+04 0.  0.
        2    1    3    3  502    0 -0.12183220446E+04  0.15647745223E+04  0.95345448813E+03  0.22004325418E+04  0.25500000920E-02 0. -1.
       -2    1    3    3    0  502  0.12183220446E+04 -0.15647745223E+04  0.76520775247E+03  0.21256459758E+04  0.25500000920E-02 0.  1.
</event>
<event>
 5   0  0.1879500E-08  0.4000765E+04  0.7818609E-02  0.8004392E-01
        1   -1    0    0  501    0  0.00000000000E+00  0.00000000000E+00  0.20907469277E+04  0.20907469277E+04  0.50400001928E-02 0. -1.
       -1   -1    0    0    0  501  0.00000000000E+00  0.00000000000E+00 -0.19139236881E+04  0.19139236881E+04  0.50400001928E-02 0.  1.
    10030    2    1    2    0    0  0.00000000000E+00  0.00000000000E+00  0.17682323965E+03  0.40046706158E+04  0.40007649622E+04 0.  0.
        3    1    3    3  502    0 -0.12199612529E+04 -0.48911924291E+03 -0.14210349638E+04  0.19356868215E+04  0.10100000352E+00 0.  1.
       -3    1    3    3    0  502  0.12199612529E+04  0.48911924291E+03  0.15978582035E+04  0.20689837943E+04  0.10100000352E+00 0. -1.
</event>
<event>
 5   0  0.1879500E-08  0.3936099E+04  0.7818609E-02  0.8017563E-01
       -1   -1    0    0    0  501  0.00000000000E+00  0.00000000000E+00  0.21370849523E+04  0.21370849523E+04  0.50400001928E-02 0. -1.
        1   -1    0    0  501    0  0.00000000000E+00  0.00000000000E+00 -0.18123838711E+04  0.18123838711E+04  0.50400001928E-02 0.  1.
    10030    2    1    2    0    0  0.00000000000E+00  0.00000000000E+00  0.32470108117E+03  0.39494688234E+04  0.39360987278E+04 0.  0.
        5    1    3    3  502    0  0.15964053816E+04  0.33113270042E+03 -0.94368095515E+03  0.18838032920E+04  0.46999998093E+01 0.  1.
       -5    1    3    3    0  502 -0.15964053816E+04 -0.33113270042E+03  0.12683820363E+04  0.20656655315E+04  0.46999998093E+01 0. -1.
</event>
<event>
 5   0  0.5888700E-08  0.4025941E+04  0.7818609E-02  0.7999334E-01
        2   -1    0    0  501    0  0.00000000000E+00  0.00000000000E+00  0.17240323268E+04  0.17240323268E+04  0.25500000920E-02 0. -1.
       -2   -1    0    0    0  501  0.00000000000E+00  0.00000000000E+00 -0.23503336233E+04  0.23503336233E+04  0.25500000920E-02 0.  1.
    10030    2    1    2    0    0  0.00000000000E+00  0.00000000000E+00 -0.62630129654E+03  0.40743659501E+04  0.40259414528E+04 0.  0.
        5    1    3    3  502    0  0.10185141783E+03  0.37320284771E+03  0.16860531951E+04  0.17298703835E+04  0.46999998093E+01 0. -1.
       -5    1    3    3    0  502 -0.10185141783E+03 -0.37320284771E+03 -0.23123544917E+04  0.23444955667E+04  0.46999998093E+01 0.  1.
</event>
<event>
 5   0  0.5945387E-08  0.3992432E+04  0.7818609E-02  0.8006075E-01
       -2   -1    0    0    0  501  0.00000000000E+00  0.00000000000E+00  0.17631160615E+04  0.17631160615E+04  0.25500000920E-02 0.  1.
        2   -1    0    0  501    0  0.00000000000E+00  0.00000000000E+00 -0.22601336802E+04  0.22601336802E+04  0.25500000920E-02 0. -1.
    10030    2    1    2    0    0  0.00000000000E+00  0.00000000000E+00 -0.49701761871E+03  0.40232497418E+04  0.39924318368E+04 0.  0.
        3    1    3    3  502    0 -0.29414906797E+03  0.34609942078E+03  0.17103502491E+04  0.17696345578E+04  0.10100000352E+00 0.  1.
       -3    1    3    3    0  502  0.29414906797E+03 -0.34609942078E+03 -0.22073678678E+04  0.22536151840E+04  0.10100000352E+00 0. -1.
</event>
<event>
 5   0  0.1879500E-08  0.4003473E+04  0.7818609E-02  0.8003846E-01
       -3   -1    0    0    0  501  0.00000000000E+00  0.00000000000E+00  0.28781791812E+04  0.28781791830E+04  0.10100000352E+00 0.  1.
        3   -1    0    0  501    0  0.00000000000E+00  0.00000000000E+00 -0.13921817098E+04  0.13921817134E+04  0.10100000352E+00 0. -1.
    10030    2    1    2    0    0  0.00000000000E+00  0.00000000000E+00  0.14859974715E+04  0.42703608964E+04  0.40034727051E+04 0.  0.
        5    1    3    3  502    0 -0.76443353724E+03 -0.14492239969E+04  0.19695778969E+04  0.25620046854E+04  0.46999998093E+01 0.  1.
       -5    1    3    3    0  502  0.76443353724E+03  0.14492239969E+04 -0.48358042541E+03  0.17083562111E+04  0.46999998093E+01 0. -1.
</event>
<event>
 5   0  0.5951623E-08  0.4025007E+04  0.7818609E-02  0.7999521E-01
       -2   -1    0    0    0  501  0.00000000000E+00  0.00000000000E+00  0.16895947397E+04  0.16895947398E+04  0.25500000920E-02 0. -1.
        2   -1    0    0  501    0  0.00000000000E+00  0.00000000000E+00 -0.23971247856E+04  0.23971247856E+04  0.25500000920E-02 0.  1.
    10030    2    1    2    0    0  0.00000000000E+00  0.00000000000E+00 -0.70753004588E+03  0.40867195254E+04  0.40250065482E+04 0.  0.
        2    1    3    3  502    0  0.12038267642E+04 -0.51479915320E+03  0.11980510090E+04  0.17746952602E+04  0.25500000920E-02 0. -1.
       -2    1    3    3    0  502 -0.12038267642E+04  0.51479915320E+03 -0.19055810548E+04  0.23120242652E+04  0.25500000920E-02 0.  1.
</event>
<event>
 5   0  0.1879500E-08  0.3991633E+04  0.7818609E-02  0.8006237E-01
        1   -1    0    0  501    0  0.00000000000E+00  0.00000000000E+00  0.24702433105E+04  0.24702433105E+04  0.50400001928E-02 0. -1.
       -1   -1    0    0    0  501  0.00000000000E+00  0.00000000000E+00 -0.16125066919E+04  0.16125066919E+04  0.50400001928E-02 0.  1.
    10030    2    1    2    0    0  0.00000000000E+00  0.00000000000E+00  0.85773661864E+03  0.40827500024E+04  0.39916331840E+04 0.  0.
        3    1    3    3  502    0  0.60801398927E+03 -0.18817715699E+04  0.15339040754E+03  0.19835004108E+04  0.10100000352E+00 0.  1.
       -3    1    3    3    0  502 -0.60801398927E+03  0.18817715699E+04  0.70434621111E+03  0.20992495916E+04  0.10100000352E+00 0. -1.
</event>
<event>
 5   0  0.6161563E-08  0.4036155E+04  0.7818609E-02  0.7997292E-01
       -2   -1    0    0    0  501  0.00000000000E+00  0.00000000000E+00  0.15167805065E+04  0.15167805065E+04  0.25500000920E-02 0.  1.
        2   -1    0    0  501    0  0.00000000000E+00  0.00000000000E+00 -0.26850539143E+04  0.26850539143E+04  0.25500000920E-02 0. -1.
    10030    2    1    2    0    0  0.00000000000E+00  0.00000000000E+00 -0.11682734078E+04  0.42018344208E+04  0.40361553172E+04 0.  0.
        1    1    3    3  502    0 -0.71916080008E+03  0.16777075211E+04 -0.14801299597E+04  0.23500381870E+04  0.50400001928E-02 0. -1.
       -1    1    3    3    0  502  0.71916080008E+03 -0.16777075211E+04  0.31185655191E+03  0.18517962338E+04  0.50400001928E-02 0.  1.
</event>
<event>
 5   0  0.1879500E-08  0.3994779E+04  0.7818609E-02  0.8005601E-01
       -1   -1    0    0    0  501  0.00000000000E+00  0.00000000000E+00  0.22018799168E+04  0.22018799168E+04  0.50400001928E-02 0.  1.
        1   -1    0    0  501    0  0.00000000000E+00  0.00000000000E+00 -0.18118904427E+04  0.18118904427E+04  0.50400001928E-02 0. -1.
    10030    2    1    2    0    0  0.00000000000E+00  0.00000000000E+00  0.38998947402E+03  0.40137703595E+04  0.39947791815E+04 0.  0.
        2    1    3    3  502    0  0.13706978422E+04 -0.31823347786E+03  0.16192951287E+04  0.21452743029E+04  0.25500000920E-02 0.  1.
       -2    1    3    3    0  502 -0.13706978422E+04  0.31823347786E+03 -0.12293056547E+04  0.18684960566E+04  0.25500000920E-02 0. -1.
</event>
<event>
 5   0  0.1879500E-08  0.3987317E+04  0.7818609E-02  0.8007110E-01
       -1   -1    0    0    0  501  0.00000000000E+00  0.00000000000E+00  0.27055409744E+04  0.27055409744E+04  0.50400001928E-02 0. -1.
        1   -1    0    0  501    0  0.00000000000E+00  0.00000000000E+00 -0.14690870126E+04  0.14690870126E+04  0.50400001928E-02 0.  1.
    10030    2    1    2    0    0  0.00000000000E+00  0.00000000000E+00  0.12364539618E+04  0.41746279871E+04  0.39873174480E+04 0.  0.
        5    1    3    3  502    0 -0.17666233431E+04  0.82903105579E+03  0.10453144973E+04  0.22138100677E+04  0.46999998093E+01 0. -1.
       -5    1    3    3    0  502  0.17666233431E+04 -0.82903105579E+03  0.19113946455E+03  0.19608179193E+04  0.46999998093E+01 0.  1.
</event>
<event>
 5   0  0.1879500E-08  0.4007526E+04  0.7818609E-02  0.8003030E-01
        1   -1    0    0  501    0  0.00000000000E+00  0.00000000000E+00  0.14953951716E+04  0.14953951716E+04  0.50400001928E-02 0. -1.
       -1   -1    0    0    0  501  0.00000000000E+00  0.00000000000E+00 -0.26849531162E+04  0.26849531162E+04  0.50400001928E-02 0.  1.
    10030    2    1    2    0    0  0.00000000000E+00  0.00000000000E+00 -0.11895579446E+04  0.41803482879E+04  0.40075258832E+04 0.  0.
        5    1    3    3  502    0  0.68982592014E+03  0.83924535945E+03  0.11615314136E+04  0.15903992858E+04  0.46999998093E+01 0. -1.
       -5    1    3    3    0  502 -0.68982592014E+03 -0.83924535945E+03 -0.23510893582E+04  0.25899490021E+04  0.46999998093E+01 0.  1.
</event>
<event>
 5   0  0.1879500E-08  0.3985884E+04  0.7818609E-02  0.8007400E-01
       -1   -1    0    0    0  501  0.00000000000E+00  0.00000000000E+00  0.14594030096E+04  0.14594030096E+04  0.50400001928E-02 0. -1.
        1   -1    0    0  501    0  0.00000000000E+00  0.00000000000E+00 -0.27215363929E+04  0.27215363929E+04  0.50400001928E-02 0.  1.
    10030    2    1    2    0    0  0.00000000000E+00  0.00000000000E+00 -0.12621333833E+04  0.41809394025E+04  0.39858842946E+04 0.  0.
        2    1    3    3  502    0  0.10180997670E+04  0.12924907157E+04  0.54858305201E+03  0.17343594641E+04  0.25500000920E-02 0. -1.
       -2    1    3    3    0  502 -0.10180997670E+04 -0.12924907157E+04 -0.18107164353E+04  0.24465799384E+04  0.25500000920E-02 0.  1.
</event>
<event>
 5   0  0.5846812E-08  0.4002502E+04  0.7818609E-02  0.8004042E-01
       -2   -1    0    0    0  501  0.00000000000E+00  0.00000000000E+00  0.22827729930E+04  0.22827729930E+04  0.25500000920E-02 0. -1.
        2   -1    0    0  501    0  0.00000000000E+00  0.00000000000E+00 -0.17544473520E+04  0.17544473520E+04  0.25500000920E-02 0.  1.
    10030    2    1    2    0    0  0.00000000000E+00  0.00000000000E+00  0.52832564098E+03  0.40372203450E+04  0.40025017340E+04 0.  0.
        4    1    3    3  502    0  0.13299085177E+04  0.15920976688E+02  0.17724911301E+04  0.22159956142E+04  0.12699999809E+01 0. -1.
       -4    1    3    3    0  502 -0.13299085177E+04 -0.15920976688E+02 -0.12441654891E+04  0.18212247308E+04  0.12699999809E+01 0.  1.
</event>
<event>
 5   0  0.1879500E-08  0.3998033E+04  0.7818609E-02  0.8004943E-01
        1   -1    0    0  501    0  0.00000000000E+00  0.00000000000E+00  0.22743768596E+04  0.22743768596E+04  0.50400001928E-02 0. -1.
       -1   -1    0    0    0  501  0.00000000000E+00  0.00000000000E+00 -0.17569942333E+04  0.17569942333E+04  0.50400001928E-02 0.  1.
    10030    2    1    2    0    0  0.00000000000E+00  0.00000000000E+00  0.51738262626E+03  0.40313710929E+04  0.39980330297E+04 0.  0.
        4    1    3    3  502    0  0.17033482891E+04  0.41689567901E+03  0.12263118860E+04  0.21398691211E+04  0.12699999809E+01 0. -1.
       -4    1    3    3    0  502 -0.17033482891E+04 -0.41689567901E+03 -0.70892925969E+03  0.18915019718E+04  0.12699999809E+01 0.  1.
</event>
<event>
 5   0  0.1879500E-08  0.3995910E+04  0.7818609E-02  0.8005372E-01
        1   -1    0    0  501    0  0.00000000000E+00  0.00000000000E+00  0.24438448969E+04  0.24438448969E+04  0.50400001928E-02 0.  1.
       -1   -1    0    0    0  501  0.00000000000E+00  0.00000000000E+00 -0.16334192203E+04  0.16334192203E+04  0.50400001928E-02 0. -1.
    10030    2    1    2    0    0  0.00000000000E+00  0.00000000000E+00  0.81042567656E+03  0.40772641172E+04  0.39959095215E+04 0.  0.
        5    1    3    3  502    0 -0.42698016817E+03 -0.19517807364E+04  0.39867703298E+03  0.20373329560E+04  0.46999998093E+01 0.  1.
       -5    1    3    3    0  502  0.42698016817E+03  0.19517807364E+04  0.41174864358E+03  0.20399311612E+04  0.46999998093E+01 0. -1.
</event>
<event>
 5   0  0.1879500E-08  0.3980532E+04  0.7818609E-02  0.8008485E-01
       -1   -1    0    0    0  501  0.00000000000E+00  0.00000000000E+00  0.20081489543E+04  0.20081489543E+04  0.50400001928E-02 0. -1.
        1   -1    0    0  501    0  0.00000000000E+00  0.00000000000E+00 -0.19725425661E+04  0.19725425661E+04  0.50400001928E-02 0.  1.
    10030    2    1    2    0    0  0.00000000000E+00  0.00000000000E+00  0.35606388197E+02  0.39806915204E+04  0.39805322717E+04 0.  0.
        2    1    3    3  502    0 -0.12337833913E+04 -0.14209472696E+04  0.66578489611E+03  0.19961418105E+04  0.25500000920E-02 0. -1.
       -2    1    3    3    0  502  0.12337833913E+04  0.14209472696E+04 -0.63017850792E+03  0.19845497100E+04  0.25500000920E-02 0.  1.
</event>
<event>
 5   0  0.6161563E-08  0.3989179E+04  0.7818609E-02  0.8006733E-01
        2   -1    0    0  501    0  0.00000000000E+00  0.00000000000E+00  0.25465906519E+04  0.25465906519E+04  0.25500000920E-02 0. -1.
       -2   -1    0    0    0  501  0.00000000000E+00  0.00000000000E+00 -0.15622409110E+04  0.15622409110E+04  0.25500000920E-02 0.  1.
    10030    2    1    2    0    0  0.00000000000E+00  0.00000000000E+00  0.98434974092E+03  0.41088315630E+04  0.39891794144E+04 0.  0.
        1    1    3    3  502    0  0.77091767072E+03 -0.17679439729E+04  0.10158012118E+04  0.21798605571E+04  0.50400001928E-02 0. -1.
       -1    1    3    3    0  502 -0.77091767072E+03  0.17679439729E+04 -0.31451470911E+02  0.19289710059E+04  0.50400001928E-02 0.  1.
</event>
<event>
 5   0  0.5945387E-08  0.3987076E+04  0.7818609E-02  0.8007159E-01
        2   -1    0    0  501    0  0.00000000000E+00  0.00000000000E+00  0.11825079699E+04  0.11825079699E+04  0.25500000920E-02 0. -1.
       -2   -1    0    0    0  501  0.00000000000E+00  0.00000000000E+00 -0.33608174870E+04  0.33608174870E+04  0.25500000920E-02 0.  1.
    10030    2    1    2    0    0  0.00000000000E+00  0.00000000000E+00 -0.21783095171E+04  0.45433254568E+04  0.39870758526E+04 0.  0.
        3    1    3    3  502    0 -0.40079066602E+03 -0.68284651174E+03  0.99565020458E+03  0.12720974242E+04  0.10100000352E+00 0. -1.
       -3    1    3    3    0  502  0.40079066602E+03  0.68284651174E+03 -0.31739597217E+04  0.32712280326E+04  0.10100000352E+00 0.  1.
</event>
<event>
 5   0  0.5945387E-08  0.3996333E+04  0.7818609E-02  0.8005287E-01
       -2   -1    0    0    0  501  0.00000000000E+00  0.00000000000E+00  0.28118129105E+04  0.28118129105E+04  0.25500000920E-02 0. -1.
        2   -1    0    0  501    0  0.00000000000E+00  0.00000000000E+00 -0.14199628305E+04  0.14199628305E+04  0.25500000920E-02 0.  1.
    10030    2    1    2    0    0  0.00000000000E+00  0.00000000000E+00  0.13918500799E+04  0.42317757410E+04  0.39963332290E+04 0.  0.
        3    1    3    3  502    0 -0.15260334755E+03 -0.65897985816E+03 -0.12950393665E+04  0.14610507199E+04  0.10100000352E+00 0.  1.
       -3    1    3    3    0  502  0.15260334755E+03  0.65897985816E+03  0.26868894464E+04  0.27707250211E+04  0.10100000352E+00 0. -1.
</event>
<event>
 5   0  0.1879500E-08  0.3995548E+04  0.7818609E-02  0.8005445E-01
        1   -1    0    0  501    0  0.00000000000E+00  0.00000000000E+00  0.16075286236E+04  0.16075286236E+04  0.50400001928E-02 0. -1.
       -1   -1    0    0    0  501  0.00000000000E+00  0.00000000000E+00 -0.24827561947E+04  0.24827561947E+04  0.50400001928E-02 0.  1.
    10030    2    1    2    0    0  0.00000000000E+00  0.00000000000E+00 -0.87522757111E+03  0.40902848183E+04  0.39955483470E+04 0.  0.
        4    1    3    3  502    0 -0.90733062772E+03 -0.46799902642E+03  0.13203174656E+04  0.16689852545E+04  0.12699999809E+01 0. -1.
       -4    1    3    3    0  502  0.90733062772E+03  0.46799902642E+03 -0.21955450367E+04  0.24212995638E+04  0.12699999809E+01 0.  1.
</event>
<event>
 5   0  0.6161563E-08  0.4003115E+04  0.7818609E-02  0.8003919E-01
       -2   -1    0    0    0  501  0.00000000000E+00  0.00000000000E+00  0.24486981799E+04  0.24486981799E+04  0.25500000920E-02 0.  1.
        2   -1    0    0  501    0  0.00000000000E+00  0.00000000000E+00 -0.16360660439E+04  0.16360660439E+04  0.25500000920E-02 0. -1.
    10030    2    1    2    0    0  0.00000000000E+00  0.00000000000E+00  0.81263213597E+03  0.40847642238E+04  0.40031147593E+04 0.  0.
        1    1    3    3  502    0  0.20350865961E+03 -0.13111954277E+04  0.19354075962E+04  0.23465830025E+04  0.50400001928E-02 0.  1.
       -1    1    3    3    0  502 -0.20350865961E+03  0.13111954277E+04 -0.11227754603E+04  0.17381812213E+04  0.50400001928E-02 0. -1.
</event>
<event>
 5   0  0.1879500E-08  0.4018857E+04  0.7818609E-02  0.8000753E-01
        1   -1    0    0  501    0  0.00000000000E+00  0.00000000000E+00  0.26278826424E+04  0.26278826424E+04  0.50400001928E-02 0.  1.
       -1   -1    0    0    0  501  0.00000000000E+00  0.00000000000E+00 -0.15365231466E+04  0.15365231466E+04  0.50400001928E-02 0. -1.
    10030    2    1    2    0    0  0.00000000000E+00  0.00000000000E+00  0.10913594958E+04  0.41644057890E+04  0.40188568059E+04 0.  0.
        2    1    3    3  502    0 -0.58662309221E+03 -0.19217465003E+04  0.57033740901E+03  0.20886648903E+04  0.25500000920E-02 0.  1.
       -2    1    3    3    0  502  0.58662309221E+03  0.19217465003E+04  0.52102208677E+03  0.20757408987E+04  0.25500000920E-02 0. -1.
</event>
<event>
 5   0  0.1879500E-08  0.3992231E+04  0.7818609E-02  0.8006116E-01
        1   -1    0    0  501    0  0.00000000000E+00  0.00000000000E+00  0.22526684269E+04  0.22526684269E+04  0.50400001928E-02 0. -1.
       -1   -1    0    0    0  501  0.00000000000E+00  0.00000000000E+00 -0.17687813071E+04  0.17687813071E+04  0.50400001928E-02 0.  1.
    10030    2    1    2    0    0  0.00000000000E+00  0.00000000000E+00  0.48388711973E+03  0.40214497340E+04  0.39922313583E+04 0.  0.
        3    1    3    3  502    0  0.98596922596E+03 -0.61699945214E+02  0.19891512003E+04  0.22209603116E+04  0.10100000352E+00 0. -1.
       -3    1    3    3    0  502 -0.98596922596E+03  0.61699945214E+02 -0.15052640806E+04  0.18004894224E+04  0.10100000352E+00 0.  1.
</event>
<event>
 5   0  0.1879500E-08  0.3997166E+04  0.7818609E-02  0.8005119E-01
       -3   -1    0    0    0  501  0.00000000000E+00  0.00000000000E+00  0.16485580856E+04  0.16485580886E+04  0.10100000352E+00 0. -1.
        3   -1    0    0  501    0  0.00000000000E+00  0.00000000000E+00 -0.24229258453E+04  0.24229258474E+04  0.10100000352E+00 0.  1.
    10030    2    1    2    0    0  0.00000000000E+00  0.00000000000E+00 -0.77436775976E+03  0.40714839361E+04  0.39971659978E+04 0.  0.
        2    1    3    3  502    0 -0.15361782167E+03  0.19592148439E+04 -0.75755510084E+03  0.21061839831E+04  0.25500000920E-02 0. -1.
       -2    1    3    3    0  502  0.15361782167E+03 -0.19592148439E+04 -0.16812658920E+02  0.19652999530E+04  0.25500000920E-02 0.  1.
</event>
<event>
 5   0  0.5951623E-08  0.4023564E+04  0.7818609E-02  0.7999810E-01
        2   -1    0    0  501    0  0.00000000000E+00  0.00000000000E+00  0.26121073915E+04  0.26121073915E+04  0.25500000920E-02 0. -1.
       -2   -1    0    0    0  501  0.00000000000E+00  0.00000000000E+00 -0.15494258758E+04  0.15494258758E+04  0.25500000920E-02 0.  1.
    10030    2    1    2    0    0  0.00000000000E+00  0.00000000000E+00  0.10626815157E+04  0.41615332674E+04  0.40235639838E+04 0.  0.
        2    1    3    3  502    0  0.16534656864E+04  0.10126528435E+04 -0.23575251494E+02  0.19390642975E+04  0.25500000920E-02 0.  1.
       -2    1    3    3    0  502 -0.16534656864E+04 -0.10126528435E+04  0.10862567672E+04  0.22224689698E+04  0.25500000920E-02 0. -1.
</event>
<event>
 5   0  0.6161563E-08  0.3967688E+04  0.7818609E-02  0.8011097E-01
       -2   -1    0    0    0  501  0.00000000000E+00  0.00000000000E+00  0.19932302094E+04  0.19932302094E+04  0.25500000920E-02 0. -1.
        2   -1    0    0  501    0  0.00000000000E+00  0.00000000000E+00 -0.19745018476E+04  0.19745018476E+04  0.25500000920E-02 0.  1.
    10030    2    1    2    0    0  0.00000000000E+00  0.00000000000E+00  0.18728361832E+02  0.39677320570E+04  0.39676878563E+04 0.  0.
        1    1    3    3  502    0  0.17992735194E+04  0.77510409153E+03  0.32156179846E+03  0.19853396537E+04  0.50400001928E-02 0.  1.
       -1    1    3    3    0  502 -0.17992735194E+04 -0.77510409153E+03 -0.30283343663E+03  0.19823924033E+04  0.50400001928E-02 0. -1.
</event>
<event>
 5   0  0.5945387E-08  0.4007136E+04  0.7818609E-02  0.8003109E-01
       -2   -1    0    0    0  501  0.00000000000E+00  0.00000000000E+00  0.17191368206E+04  0.17191368206E+04  0.25500000920E-02 0. -1.
        2   -1    0    0  501    0  0.00000000000E+00  0.00000000000E+00 -0.23350585631E+04  0.23350585631E+04  0.25500000920E-02 0.  1.
    10030    2    1    2    0    0  0.00000000000E+00  0.00000000000E+00 -0.61592174248E+03  0.40541953836E+04  0.40071362113E+04 0.  0.
        3    1    3    3  502    0 -0.10241049895E+03 -0.52245088380E+03  0.16462616591E+04  0.17302081657E+04  0.10100000352E+00 0. -1.
       -3    1    3    3    0  502  0.10241049895E+03  0.52245088380E+03 -0.22621834016E+04  0.23239872179E+04  0.10100000352E+00 0.  1.
</event>
<event>
 5   0  0.1879500E-08  0.3865971E+04  0.7818609E-02  0.8032144E-01
        4   -1    0    0  501    0  0.00000000000E+00  0.00000000000E+00  0.21717145952E+04  0.21717149666E+04  0.12699999809E+01 0.  1.
       -4   -1    0    0    0  501  0.00000000000E+00  0.00000000000E+00 -0.17204978830E+04  0.17204983518E+04  0.12699999809E+01 0. -1.
    10030    2    1    2    0    0  0.00000000000E+00  0.00000000000E+00  0.45121671219E+03  0.38922133183E+04  0.38659705113E+04 0.  0.
        1    1    3    3  502    0 -0.16002746655E+03 -0.14941425144E+04  0.14497407707E+04  0.20880179467E+04  0.50400001928E-02 0.  1.
       -1    1    3    3    0  502  0.16002746655E+03  0.14941425144E+04 -0.99852405856E+03  0.18041953716E+04  0.50400001928E-02 0. -1.
</event>
<event>
 5   0  0.5846812E-08  0.3994329E+04  0.7818609E-02  0.8005692E-01
        2   -1    0    0  501    0  0.00000000000E+00  0.00000000000E+00  0.25173126606E+04  0.25173126606E+04  0.25500000920E-02 0.  1.
       -2   -1    0    0    0  501  0.00000000000E+00  0.00000000000E+00 -0.15844934759E+04  0.15844934760E+04  0.25500000920E-02 0. -1.
    10030    2    1    2    0    0  0.00000000000E+00  0.00000000000E+00  0.93281918466E+03  0.41018061366E+04  0.39943287234E+04 0.  0.
        4    1    3    3  502    0 -0.14823518161E+04  0.53278809948E+03  0.17272219385E+04  0.23376328418E+04  0.12699999809E+01 0.  1.
       -4    1    3    3    0  502  0.14823518161E+04 -0.53278809948E+03 -0.79440275380E+03  0.17641732947E+04  0.12699999809E+01 0. -1.
</event>
<event>
 5   0  0.6161563E-08  0.3990143E+04  0.7818609E-02  0.8006538E-01
       -2   -1    0    0    0  501  0.00000000000E+00  0.00000000000E+00  0.14916443187E+04  0.14916443187E+04  0.25500000920E-02 0.  1.
        2   -1    0    0  501    0  0.00000000000E+00  0.00000000000E+00 -0.26684045925E+04  0.26684045925E+04  0.25500000920E-02 0. -1.
    10030    2    1    2    0    0  0.00000000000E+00  0.00000000000E+00 -0.11767602738E+04  0.41600489112E+04  0.39901431305E+04 0.  0.
        1    1    3    3  502    0  0.12800797375E+03  0.73970989415E+03 -0.25155358381E+04  0.26251623420E+04  0.50400001928E-02 0. -1.
       -1    1    3    3    0  502 -0.12800797375E+03 -0.73970989415E+03  0.13387755643E+04  0.15348865692E+04  0.50400001928E-02 0.  1.
</event>
<event>
 5   0  0.1879500E-08  0.4026019E+04  0.7818609E-02  0.7999318E-01
       -1   -1    0    0    0  501  0.00000000000E+00  0.00000000000E+00  0.15315513545E+04  0.15315513545E+04  0.50400001928E-02 0. -1.
        1   -1    0    0  501    0  0.00000000000E+00  0.00000000000E+00 -0.26458193529E+04  0.26458193529E+04  0.50400001928E-02 0.  1.
    10030    2    1    2    0    0  0.00000000000E+00  0.00000000000E+00 -0.11142679984E+04  0.41773707074E+04  0.40260194802E+04 0.  0.
        1    1    3    3  502    0 -0.56570098485E+03  0.18951735198E+04 -0.16819850597E+03  0.19849410600E+04  0.50400001928E-02 0.  1.
       -1    1    3    3    0  502  0.56570098485E+03 -0.18951735198E+04 -0.94606949245E+03  0.21924296474E+04  0.50400001928E-02 0. -1.
</event>
<event>
 5   0  0.1879500E-08  0.3984641E+04  0.7818609E-02  0.8007652E-01
        1   -1    0    0  501    0  0.00000000000E+00  0.00000000000E+00  0.15646255682E+04  0.15646255682E+04  0.50400001928E-02 0.  1.
       -1   -1    0    0    0  501  0.00000000000E+00  0.00000000000E+00 -0.25369267724E+04  0.25369267724E+04  0.50400001928E-02 0. -1.
    10030    2    1    2    0    0  0.00000000000E+00  0.00000000000E+00 -0.97230120416E+03  0.41015523406E+04  0.39846407581E+04 0.  0.
        5    1    3    3  502    0  0.14027141832E+04 -0.10828364570E+04 -0.14234591670E+04  0.22729716150E+04  0.46999998093E+01 0. -1.
       -5    1    3    3    0  502 -0.14027141832E+04  0.10828364570E+04  0.45115796282E+03  0.18285807256E+04  0.46999998093E+01 0.  1.
</event>
<event>
 5   0  0.5888700E-08  0.3988774E+04  0.7818609E-02  0.8006815E-01
        2   -1    0    0  501    0  0.00000000000E+00  0.00000000000E+00  0.29398446837E+04  0.29398446837E+04  0.25500000920E-02 0.  1.
       -2   -1    0    0    0  501  0.00000000000E+00  0.00000000000E+00 -0.13529894909E+04  0.13529894909E+04  0.25500000920E-02 0. -1.
    10030    2    1    2    0    0  0.00000000000E+00  0.00000000000E+00  0.15868551928E+04  0.42928341746E+04  0.39887737273E+04 0.  0.
        5    1    3    3  502    0  0.15092007254E+04  0.16966117518E+03 -0.59781862939E+03  0.16321399902E+04  0.46999998093E+01 0. -1.
       -5    1    3    3    0  502 -0.15092007254E+04 -0.16966117518E+03  0.21846738222E+04  0.26606941845E+04  0.46999998093E+01 0.  1.
</event>
<event>
 5   0  0.5888700E-08  0.4009285E+04  0.7818609E-02  0.8002676E-01
        2   -1    0    0  501    0  0.00000000000E+00  0.00000000000E+00  0.23717199391E+04  0.23717199391E+04  0.25500000920E-02 0.  1.
       -2   -1    0    0    0  501  0.00000000000E+00  0.00000000000E+00 -0.16943786856E+04  0.16943786856E+04  0.25500000920E-02 0. -1.
    10030    2    1    2    0    0  0.00000000000E+00  0.00000000000E+00  0.67734125351E+03  0.40660986246E+04  0.40092850799E+04 0.  0.
        5    1    3    3  502    0  0.11107449195E+04 -0.14872633214E+04  0.11062731921E+04  0.21609185383E+04  0.46999998093E+01 0.  1.
       -5    1    3    3    0  502 -0.11107449195E+04  0.14872633214E+04 -0.42893193860E+03  0.19051800864E+04  0.46999998093E+01 0. -1.
</event>
<event>
 5   0  0.5888700E-08  0.3990255E+04  0.7818609E-02  0.8006515E-01
        2   -1    0    0  501    0  0.00000000000E+00  0.00000000000E+00  0.19359834819E+04  0.19359834819E+04  0.25500000920E-02 0.  1.
       -2   -1    0    0    0  501  0.00000000000E+00  0.00000000000E+00 -0.20560784526E+04  0.20560784526E+04  0.25500000920E-02 0. -1.
    10030    2    1    2    0    0  0.00000000000E+00  0.00000000000E+00 -0.12009497072E+03  0.39920619345E+04  0.39902550904E+04 0.  0.
        5    1    3    3  502    0  0.87962146898E+03  0.17552072659E+04  0.29511376619E+03  0.19853464937E+04  0.46999998093E+01 0.  1.
       -5    1    3    3    0  502 -0.87962146898E+03 -0.17552072659E+04 -0.41520873691E+03  0.20067154408E+04  0.46999998093E+01 0. -1.
</event>
<event>
 5   0  0.5846812E-08  0.3950189E+04  0.7818609E-02  0.8014671E-01
       -2   -1    0    0    0  501  0.00000000000E+00  0.00000000000E+00  0.24070601925E+04  0.24070601925E+04  0.25500000920E-02 0.  1.
        2   -1    0    0  501    0  0.00000000000E+00  0.00000000000E+00 -0.16206481899E+04  0.16206481899E+04  0.25500000920E-02 0. -1.
    10030    2    1    2    0    0  0.00000000000E+00  0.00000000000E+00  0.78641200266E+03  0.40277083824E+04  0.39501887266E+04 0.  0.
        4    1    3    3  502    0 -0.13256331074E+04 -0.11158537388E+04  0.13597342312E+04  0.22025692939E+04  0.12699999809E+01 0.  1.
       -4    1    3    3    0  502  0.13256331074E+04  0.11158537388E+04 -0.57332222856E+03  0.18251390885E+04  0.12699999809E+01 0. -1.
</event>
<event>
 5   0  0.5846812E-08  0.3996769E+04  0.7818609E-02  0.8005199E-01
       -2   -1    0    0    0  501  0.00000000000E+00  0.00000000000E+00  0.25595735669E+04  0.25595735669E+04  0.25500000920E-02 0.  1.
        2   -1    0    0  501    0  0.00000000000E+00  0.00000000000E+00 -0.15602368295E+04  0.15602368295E+04  0.25500000920E-02 0. -1.
    10030    2    1    2    0    0  0.00000000000E+00  0.00000000000E+00  0.99933673742E+03  0.41198103964E+04  0.39967691687E+04 0.  0.
        4    1    3    3  502    0 -0.36545313026E+03 -0.19442424330E+04  0.79104474654E+03  0.21305839651E+04  0.12699999809E+01 0. -1.
       -4    1    3    3    0  502  0.36545313026E+03  0.19442424330E+04  0.20829199087E+03  0.19892264313E+04  0.12699999809E+01 0.  1.
</event>
<event>
 5   0  0.1879500E-08  0.4007307E+04  0.7818609E-02  0.8003074E-01
        1   -1    0    0  501    0  0.00000000000E+00  0.00000000000E+00  0.25979813733E+04  0.25979813733E+04  0.50400001928E-02 0.  1.
       -1   -1    0    0    0  501  0.00000000000E+00  0.00000000000E+00 -0.15452870689E+04  0.15452870689E+04  0.50400001928E-02 0. -1.
    10030    2    1    2    0    0  0.00000000000E+00  0.00000000000E+00  0.10526943044E+04  0.41432684422E+04  0.40073068370E+04 0.  0.
        5    1    3    3  502    0 -0.26061499935E+03 -0.19233256066E+04  0.11970759707E+02  0.19409448617E+04  0.46999998093E+01 0. -1.
       -5    1    3    3    0  502  0.26061499935E+03  0.19233256066E+04  0.10407235447E+04  0.22023235805E+04  0.46999998093E+01 0.  1.
</event>
<event>
 5   0  0.5945387E-08  0.4004501E+04  0.7818609E-02  0.8003639E-01
       -2   -1    0    0    0  501  0.00000000000E+00  0.00000000000E+00  0.18283233272E+04  0.18283233272E+04  0.25500000920E-02 0. -1.
        2   -1    0    0  501    0  0.00000000000E+00  0.00000000000E+00 -0.21927232189E+04  0.21927232189E+04  0.25500000920E-02 0.  1.
    10030    2    1    2    0    0  0.00000000000E+00  0.00000000000E+00 -0.36439989176E+03  0.40210465461E+04  0.40045009733E+04 0.  0.
        3    1    3    3  502    0 -0.12092692981E+04  0.65216876893E+03  0.12803036037E+04  0.18779865991E+04  0.10100000352E+00 0. -1.
       -3    1    3    3    0  502  0.12092692981E+04 -0.65216876893E+03 -0.16447034954E+04  0.21430599470E+04  0.10100000352E+00 0.  1.
</event>
<event>
 5   0  0.5951623E-08  0.3992334E+04  0.7818609E-02  0.8006095E-01
       -2   -1    0    0    0  501  0.00000000000E+00  0.00000000000E+00  0.33534892511E+04  0.33534892511E+04  0.25500000920E-02 0.  1.
        2   -1    0    0  501    0  0.00000000000E+00  0.00000000000E+00 -0.11882197436E+04  0.11882197436E+04  0.25500000920E-02 0. -1.
    10030    2    1    2    0    0  0.00000000000E+00  0.00000000000E+00  0.21652695075E+04  0.45417089947E+04  0.39923337225E+04 0.  0.
        2    1    3    3  502    0 -0.82585719735E+03 -0.41465311762E+03 -0.93022505157E+03  0.13112192665E+04  0.25500000920E-02 0. -1.
       -2    1    3    3    0  502  0.82585719735E+03  0.41465311762E+03  0.30954945591E+04  0.32304897281E+04  0.25500000920E-02 0.  1.
</event>
<event>
 5   0  0.1879500E-08  0.3999159E+04  0.7818609E-02  0.8004716E-01
       -1   -1    0    0    0  501  0.00000000000E+00  0.00000000000E+00  0.23974593882E+04  0.23974593882E+04  0.50400001928E-02 0.  1.
        1   -1    0    0  501    0  0.00000000000E+00  0.00000000000E+00 -0.16677316677E+04  0.16677316677E+04  0.50400001928E-02 0. -1.
    10030    2    1    2    0    0  0.00000000000E+00  0.00000000000E+00  0.72972772049E+03  0.40651910559E+04  0.39991593835E+04 0.  0.
        3    1    3    3  502    0  0.42653333648E+03 -0.16611148582E+04 -0.68025898749E+03  0.18449893115E+04  0.10100000352E+00 0. -1.
       -3    1    3    3    0  502 -0.42653333648E+03  0.16611148582E+04  0.14099867080E+04  0.22202017444E+04  0.10100000352E+00 0.  1.
</event>
<event>
 5   0  0.5888700E-08  0.4048473E+04  0.7818609E-02  0.7994839E-01
        2   -1    0    0  501    0  0.00000000000E+00  0.00000000000E+00  0.20023646301E+04  0.20023646301E+04  0.25500000920E-02 0. -1.
       -2   -1    0    0    0  501  0.00000000000E+00  0.00000000000E+00 -0.20463474864E+04  0.20463474864E+04  0.25500000920E-02 0.  1.
    10030    2    1    2    0    0  0.00000000000E+00  0.00000000000E+00 -0.43982856327E+02  0.40487121165E+04  0.40484732073E+04 0.  0.
        5    1    3    3  502    0  0.10336146557E+04 -0.92555857693E+03  0.14520337468E+04  0.20083431051E+04  0.46999998093E+01 0. -1.
       -5    1    3    3    0  502 -0.10336146557E+04  0.92555857693E+03 -0.14960166031E+04  0.20403690114E+04  0.46999998093E+01 0.  1.
</event>
<event>
 5   0  0.5951623E-08  0.4002518E+04  0.7818609E-02  0.8004039E-01
        2   -1    0    0  501    0  0.00000000000E+00  0.00000000000E+00  0.14424496043E+04  0.14424496043E+04  0.25500000920E-02 0. -1.
       -2   -1    0    0    0  501  0.00000000000E+00  0.00000000000E+00 -0.27765529847E+04  0.27765529847E+04  0.25500000920E-02 0.  1.
    10030    2    1    2    0    0  0.00000000000E+00  0.00000000000E+00 -0.13341033803E+04  0.42190025890E+04  0.40025180845E+04 0.  0.
        2    1    3    3  502    0 -0.37594057663E+03 -0.12697235878E+03  0.14005675740E+04  0.14556932460E+04  0.25500000920E-02 0. -1.
       -2    1    3    3    0  502  0.37594057663E+03  0.12697235878E+03 -0.27346709543E+04  0.27633093430E+04  0.25500000920E-02 0.  1.
</event>
<event>
 5   0  0.1879500E-08  0.3999418E+04  0.7818609E-02  0.8004664E-01
        1   -1    0    0  501    0  0.00000000000E+00  0.00000000000E+00  0.18562393951E+04  0.18562393951E+04  0.50400001928E-02 0.  1.
       -1   -1    0    0    0  501  0.00000000000E+00  0.00000000000E+00 -0.21542676367E+04  0.21542676367E+04  0.50400001928E-02 0. -1.
    10030    2    1    2    0    0  0.00000000000E+00  0.00000000000E+00 -0.29802824165E+03  0.40105070318E+04  0.39994181851E+04 0.  0.
        1    1    3    3  502    0  0.98544271080E+02  0.78796869224E+02 -0.21502720605E+04  0.21539707180E+04  0.50400001928E-02 0. -1.
       -1    1    3    3    0  502 -0.98544271080E+02 -0.78796869224E+02  0.18522438188E+04  0.18565363138E+04  0.50400001928E-02 0.  1.
</event>
<event>
 5   0  0.5888700E-08  0.4001180E+04  0.7818609E-02  0.8004308E-01
        2   -1    0    0  501    0  0.00000000000E+00  0.00000000000E+00  0.30110375951E+04  0.30110375951E+04  0.25500000920E-02 0. -1.
       -2   -1    0    0    0  501  0.00000000000E+00  0.00000000000E+00 -0.13292297983E+04  0.13292297983E+04  0.25500000920E-02 0.  1.
    10030    2    1    2    0    0  0.00000000000E+00  0.00000000000E+00  0.16818077968E+04  0.43402673933E+04  0.40011802734E+04 0.  0.
        5    1    3    3  502    0 -0.67094690423E+03 -0.18380569879E+04  0.38879012758E+03  0.19949443832E+04  0.46999998093E+01 0.  1.
       -5    1    3    3    0  502  0.67094690423E+03  0.18380569879E+04  0.12930176692E+04  0.23453230101E+04  0.46999998093E+01 0. -1.
</event>
<event>
 5   0  0.5888700E-08  0.4018693E+04  0.7818609E-02  0.8000786E-01
       -2   -1    0    0    0  501  0.00000000000E+00  0.00000000000E+00  0.19628390306E+04  0.19628390306E+04  0.25500000920E-02 0.  1.
        2   -1    0    0  501    0  0.00000000000E+00  0.00000000000E+00 -0.20569557768E+04  0.20569557769E+04  0.25500000920E-02 0. -1.
    10030    2    1    2    0    0  0.00000000000E+00  0.00000000000E+00 -0.94116746211E+02  0.40197948075E+04  0.40186928637E+04 0.  0.
        5    1    3    3  502    0 -0.35515781785E+03 -0.71288694802E+03 -0.18923151756E+04  0.20531009936E+04  0.46999998093E+01 0. -1.
       -5    1    3    3    0  502  0.35515781785E+03  0.71288694802E+03  0.17981984294E+04  0.19666938139E+04  0.46999998093E+01 0.  1.
</event>
<event>
 5   0  0.5945387E-08  0.3990708E+04  0.7818609E-02  0.8006424E-01
       -2   -1    0    0    0  501  0.00000000000E+00  0.00000000000E+00  0.19375240402E+04  0.19375240402E+04  0.25500000920E-02 0.  1.
        2   -1    0    0  501    0  0.00000000000E+00  0.00000000000E+00 -0.20549104838E+04  0.20549104838E+04  0.25500000920E-02 0. -1.
    10030    2    1    2    0    0  0.00000000000E+00  0.00000000000E+00 -0.11738644357E+03  0.39924345241E+04  0.39907084398E+04 0.  0.
        3    1    3    3  502    0  0.22805183475E+03  0.44345938899E+03  0.18741814054E+04  0.19393864544E+04  0.10100000352E+00 0.  1.
       -3    1    3    3    0  502 -0.22805183475E+03 -0.44345938899E+03 -0.19915678490E+04  0.20530480696E+04  0.10100000352E+00 0. -1.
</event>
<event>
 5   0  0.1879500E-08  0.4006829E+04  0.7818609E-02  0.8003170E-01
       -1   -1    0    0    0  501  0.00000000000E+00  0.00000000000E+00  0.20393110513E+04  0.20393110513E+04  0.50400001928E-02 0.  1.
        1   -1    0    0  501    0  0.00000000000E+00  0.00000000000E+00 -0.19681500419E+04  0.19681500419E+04  0.50400001928E-02 0. -1.
    10030    2    1    2    0    0  0.00000000000E+00  0.00000000000E+00  0.71161009371E+02  0.40074610931E+04  0.40068292357E+04 0.  0.
        2    1    3    3  502    0  0.15245133323E+04 -0.12883252386E+04  0.20808178854E+03  0.20067936744E+04  0.25500000920E-02 0.  1.
       -2    1    3    3    0  502 -0.15245133323E+04  0.12883252386E+04 -0.13692077917E+03  0.20006674188E+04  0.25500000920E-02 0. -1.
</event>
<event>
 5   0  0.1879500E-08  0.3997939E+04  0.7818609E-02  0.8004962E-01
       -1   -1    0    0    0  501  0.00000000000E+00  0.00000000000E+00  0.15113734776E+04  0.15113734776E+04  0.50400001928E-02 0. -1.
        1   -1    0    0  501    0  0.00000000000E+00  0.00000000000E+00 -0.26438728004E+04  0.26438728004E+04  0.50400001928E-02 0.  1.
    10030    2    1    2    0    0  0.00000000000E+00  0.00000000000E+00 -0.11324993229E+04  0.41552462780E+04  0.39979390834E+04 0.  0.
        5    1    3    3  502    0 -0.11066747557E+04  0.13702730777E+04 -0.15486827242E+04  0.23453821848E+04  0.46999998093E+01 0.  1.
       -5    1    3    3    0  502  0.11066747557E+04 -0.13702730777E+04  0.41618340134E+03  0.18098640932E+04  0.46999998093E+01 0. -1.
</event>
<event>
 5   0  0.5951623E-08  0.4007405E+04  0.7818609E-02  0.8003054E-01
        2   -1    0    0  501    0  0.00000000000E+00  0.00000000000E+00  0.20266866799E+04  0.20266866799E+04  0.25500000920E-02 0. -1.
       -2   -1    0    0    0  501  0.00000000000E+00  0.00000000000E+00 -0.19809789432E+04  0.19809789432E+04  0.25500000920E-02 0.  1.
    10030    2    1    2    0    0  0.00000000000E+00  0.00000000000E+00  0.45707736768E+02  0.40076656231E+04  0.40074049645E+04 0.  0.
        2    1    3    3  502    0 -0.62716092915E+03  0.17185706350E+04 -0.79451672177E+03  0.19945106367E+04  0.25500000920E-02 0.  1.
       -2    1    3    3    0  502  0.62716092915E+03 -0.17185706350E+04  0.84022445854E+03  0.20131549864E+04  0.25500000920E-02 0. -1.
</event>
<event>
 5   0  0.6161563E-08  0.3999182E+04  0.7818609E-02  0.8004712E-01
       -2   -1    0    0    0  501  0.00000000000E+00  0.00000000000E+00  0.16048791913E+04  0.16048791913E+04  0.25500000920E-02 0. -1.
        2   -1    0    0  501    0  0.00000000000E+00  0.00000000000E+00 -0.24913806887E+04  0.24913806887E+04  0.25500000920E-02 0.  1.
    10030    2    1    2    0    0  0.00000000000E+00  0.00000000000E+00 -0.88650149741E+03  0.40962598800E+04  0.39991824289E+04 0.  0.
        1    1    3    3  502    0 -0.29199318319E+03 -0.10958882968E+04 -0.21300828047E+04  0.24131895767E+04  0.50400001928E-02 0.  1.
       -1    1    3    3    0  502  0.29199318319E+03  0.10958882968E+04  0.12435813073E+04  0.16830703033E+04  0.50400001928E-02 0. -1.
</event>
<event>
 5   0  0.1879500E-08  0.3944742E+04  0.7818609E-02  0.8015788E-01
       -1   -1    0    0    0  501  0.00000000000E+00  0.00000000000E+00  0.17490640055E+04  0.17490640056E+04  0.50400001928E-02 0. -1.
        1   -1    0    0  501    0  0.00000000000E+00  0.00000000000E+00 -0.22241878231E+04  0.22241878231E+04  0.50400001928E-02 0.  1.
    10030    2    1    2    0    0  0.00000000000E+00  0.00000000000E+00 -0.47512381758E+03  0.39732518287E+04  0.39447417472E+04 0.  0.
        4    1    3    3  502    0 -0.35514262274E+03  0.14212282291E+04 -0.15677997654E+04  0.21456965487E+04  0.12699999809E+01 0.  1.
       -4    1    3    3    0  502  0.35514262274E+03 -0.14212282291E+04  0.10926759478E+04  0.18275552800E+04  0.12699999809E+01 0. -1.
</event>
<event>
 5   0  0.1879500E-08  0.4001793E+04  0.7818609E-02  0.8004185E-01
       -1   -1    0    0    0  501  0.00000000000E+00  0.00000000000E+00  0.29397387239E+04  0.29397387239E+04  0.50400001928E-02 0. -1.
        1   -1    0    0  501    0  0.00000000000E+00  0.00000000000E+00 -0.13618852977E+04  0.13618852977E+04  0.50400001928E-02 0.  1.
    10030    2    1    2    0    0  0.00000000000E+00  0.00000000000E+00  0.15778534262E+04  0.43016240215E+04  0.40017930716E+04 0.  0.
        3    1    3    3  502    0  0.50384798682E+03 -0.26875793395E+03 -0.12724329180E+04  0.13946967993E+04  0.10100000352E+00 0.  1.
       -3    1    3    3    0  502 -0.50384798682E+03  0.26875793395E+03  0.28502863442E+04  0.29069272222E+04  0.10100000352E+00 0. -1.
</event>
<event>
 5   0  0.5951623E-08  0.4005174E+04  0.7818609E-02  0.8003504E-01
        2   -1    0    0  501    0  0.00000000000E+00  0.00000000000E+00  0.29775422357E+04  0.29775422357E+04  0.25500000920E-02 0.  1.
       -2   -1    0    0    0  501  0.00000000000E+00  0.00000000000E+00 -0.13468671308E+04  0.13468671308E+04  0.25500000920E-02 0. -1.
    10030    2    1    2    0    0  0.00000000000E+00  0.00000000000E+00  0.16306751049E+04  0.43244093665E+04  0.40051735382E+04 0.  0.
        2    1    3    3  502    0 -0.13731477843E+04  0.11847754791E+04 -0.10153935905E+03  0.18164630508E+04  0.25500000920E-02 0.  1.
       -2    1    3    3    0  502  0.13731477843E+04 -0.11847754791E+04  0.17322144640E+04  0.25079463157E+04  0.25500000920E-02 0. -1.
</event>
<event>
 5   0  0.1879500E-08  0.3996741E+04  0.7818609E-02  0.8005204E-01
       -1   -1    0    0    0  501  0.00000000000E+00  0.00000000000E+00  0.17499102571E+04  0.17499102571E+04  0.50400001928E-02 0.  1.
        1   -1    0    0  501    0  0.00000000000E+00  0.00000000000E+00 -0.22821085955E+04  0.22821085955E+04  0.50400001928E-02 0. -1.
    10030    2    1    2    0    0  0.00000000000E+00  0.00000000000E+00 -0.53219833845E+03  0.40320188526E+04  0.39967412921E+04 0.  0.
        3    1    3    3  502    0  0.91965579558E+02 -0.90447862390E+03  0.15292000599E+04  0.17790424622E+04  0.10100000352E+00 0.  1.
       -3    1    3    3    0  502 -0.91965579558E+02  0.90447862390E+03 -0.20613983983E+04  0.22529763904E+04  0.10100000352E+00 0. -1.
</event>
<event>
 5   0  0.1879500E-08  0.3999814E+04  0.7818609E-02  0.8004584E-01
       -1   -1    0    0    0  501  0.00000000000E+00  0.00000000000E+00  0.26770128446E+04  0.26770128446E+04  0.50400001928E-02 0.  1.
        1   -1    0    0  501    0  0.00000000000E+00  0.00000000000E+00 -0.14940638394E+04  0.14940638394E+04  0.50400001928E-02 0. -1.
    10030    2    1    2    0    0  0.00000000000E+00  0.00000000000E+00  0.11829490052E+04  0.41710766840E+04  0.39998140401E+04 0.  0.
        1    1    3    3  502    0  0.13977770449E+04 -0.17002220760E+03  0.20724737893E+04  0.25055609802E+04  0.50400001928E-02 0.  1.
       -1    1    3    3    0  502 -0.13977770449E+04  0.17002220760E+03 -0.88952478403E+03  0.16655157038E+04  0.50400001928E-02 0. -1.
</event>
<event>
 5   0  0.1879500E-08  0.4020245E+04  0.7818609E-02  0.8000475E-01
        1   -1    0    0  501    0  0.00000000000E+00  0.00000000000E+00  0.13648002949E+04  0.13648002949E+04  0.50400001928E-02 0. -1.
       -1   -1    0    0    0  501  0.00000000000E+00  0.00000000000E+00 -0.29605734770E+04  0.29605734770E+04  0.50400001928E-02 0.  1.
    10030    2    1    2    0    0  0.00000000000E+00  0.00000000000E+00 -0.15957731821E+04  0.43253737719E+04  0.40202445471E+04 0.  0.
        2    1    3    3  502    0 -0.76942160794E+03  0.17333427994E+04 -0.80895354432E+02  0.18981651481E+04  0.25500000920E-02 0. -1.
       -2    1    3    3    0  502  0.76942160794E+03 -0.17333427994E+04 -0.15148778277E+04  0.24272086239E+04  0.25500000920E-02 0.  1.
</event>
<event>
 5   0  0.5846812E-08  0.3990055E+04  0.7818609E-02  0.8006556E-01
       -2   -1    0    0    0  501  0.00000000000E+00  0.00000000000E+00  0.16845735840E+04  0.16845735840E+04  0.25500000920E-02 0. -1.
        2   -1    0    0  501    0  0.00000000000E+00  0.00000000000E+00 -0.23626951668E+04  0.23626951669E+04  0.25500000920E-02 0.  1.
    10030    2    1    2    0    0  0.00000000000E+00  0.00000000000E+00 -0.67812158284E+03  0.40472687509E+04  0.39900545686E+04 0.  0.
        4    1    3    3  502    0  0.13968379623E+04 -0.13899854295E+04 -0.65483888003E+03  0.20765431271E+04  0.12699999809E+01 0.  1.
       -4    1    3    3    0  502 -0.13968379623E+04  0.13899854295E+04 -0.23282702805E+02  0.19707256238E+04  0.12699999809E+01 0. -1.
</event>
<event>
 5   0  0.5888700E-08  0.4011943E+04  0.7818609E-02  0.8002142E-01
       -2   -1    0    0    0  501  0.00000000000E+00  0.00000000000E+00  0.18596655003E+04  0.18596655003E+04  0.25500000920E-02 0.  1.
        2   -1    0    0  501    0  0.00000000000E+00  0.00000000000E+00 -0.21637881692E+04  0.21637881692E+04  0.25500000920E-02 0. -1.
    10030    2    1    2    0    0  0.00000000000E+00  0.00000000000E+00 -0.30412266888E+03  0.40234536695E+04  0.40119432739E+04 0.  0.
        5    1    3    3  502    0  0.70667348054E+03 -0.16820858360E+04 -0.98817986711E+03  0.20749269162E+04  0.46999998093E+01 0. -1.
       -5    1    3    3    0  502 -0.70667348054E+03  0.16820858360E+04  0.68405719823E+03  0.19485267533E+04  0.46999998093E+01 0.  1.
</event>
<event>
 5   0  0.5846812E-08  0.3992413E+04  0.7818609E-02  0.8006079E-01
       -2   -1    0    0    0  501  0.00000000000E+00  0.00000000000E+00  0.15342531677E+04  0.15342531677E+04  0.25500000920E-02 0.  1.
        2   -1    0    0  501    0  0.00000000000E+00  0.00000000000E+00 -0.25972502724E+04  0.25972502724E+04  0.25500000920E-02 0. -1.
    10030    2    1    2    0    0  0.00000000000E+00  0.00000000000E+00 -0.10629971047E+04  0.41315034401E+04  0.39924125327E+04 0.  0.
        4    1    3    3  502    0  0.16283433633E+04  0.94392784009E+03 -0.12197526984E+04  0.22428330598E+04  0.12699999809E+01 0. -1.
       -4    1    3    3    0  502 -0.16283433633E+04 -0.94392784009E+03  0.15675559374E+03  0.18886703803E+04  0.12699999809E+01 0.  1.
</event>
<event>
 5   0  0.6161563E-08  0.4020731E+04  0.7818609E-02  0.8000377E-01
       -2   -1    0    0    0  501  0.00000000000E+00  0.00000000000E+00  0.26026075853E+04  0.26026075853E+04  0.25500000920E-02 0. -1.
        2   -1    0    0  501    0  0.00000000000E+00  0.00000000000E+00 -0.15528923086E+04  0.15528923086E+04  0.25500000920E-02 0.  1.
    10030    2    1    2    0    0  0.00000000000E+00  0.00000000000E+00  0.10497152767E+04  0.41554998939E+04  0.40207309293E+04 0.  0.
        1    1    3    3  502    0  0.28745227818E+02 -0.53294940721E+03 -0.14783316137E+04  0.15717269861E+04  0.50400001928E-02 0.  1.
       -1    1    3    3    0  502 -0.28745227818E+02  0.53294940721E+03  0.25280468904E+04  0.25837729078E+04  0.50400001928E-02 0. -1.
</event>
<event>
 5   0  0.5888700E-08  0.3991379E+04  0.7818609E-02  0.8006288E-01
       -2   -1    0    0    0  501  0.00000000000E+00  0.00000000000E+00  0.13429908471E+04  0.13429908471E+04  0.25500000920E-02 0. -1.
        2   -1    0    0  501    0  0.00000000000E+00  0.00000000000E+00 -0.29656027501E+04  0.29656027501E+04  0.25500000920E-02 0.  1.
    10030    2    1    2    0    0  0.00000000000E+00  0.00000000000E+00 -0.16226119030E+04  0.43085935973E+04  0.39913793855E+04 0.  0.
        5    1    3    3  502    0  0.13796570213E+04 -0.12712224608E+04 -0.76552845285E+02  0.18775895370E+04  0.46999998093E+01 0. -1.
       -5    1    3    3    0  502 -0.13796570213E+04  0.12712224608E+04 -0.15460590577E+04  0.24310040603E+04  0.46999998093E+01 0.  1.
</event>
<event>
 5   0  0.5945387E-08  0.4025279E+04  0.7818609E-02  0.7999466E-01
        2   -1    0    0  501    0  0.00000000000E+00  0.00000000000E+00  0.26600227584E+04  0.26600227584E+04  0.25500000920E-02 0.  1.
       -2   -1    0    0    0  501  0.00000000000E+00  0.00000000000E+00 -0.15228128940E+04  0.15228128940E+04  0.25500000920E-02 0. -1.
    10030    2    1    2    0    0  0.00000000000E+00  0.00000000000E+00  0.11372098645E+04  0.41828356524E+04  0.40252786014E+04 0.  0.
        3    1    3    3  502    0  0.46772839131E+03 -0.18489276581E+04  0.12367445779E+04  0.22730685194E+04  0.10100000352E+00 0. -1.
       -3    1    3    3    0  502 -0.46772839131E+03  0.18489276581E+04 -0.99534713386E+02  0.19097671330E+04  0.10100000352E+00 0.  1.
</event>
<event>
 5   0  0.5846812E-08  0.4014043E+04  0.7818609E-02  0.8001720E-01
        2   -1    0    0  501    0  0.00000000000E+00  0.00000000000E+00  0.15746173713E+04  0.15746173713E+04  0.25500000920E-02 0.  1.
       -2   -1    0    0    0  501  0.00000000000E+00  0.00000000000E+00 -0.25581675855E+04  0.25581675855E+04  0.25500000920E-02 0. -1.
    10030    2    1    2    0    0  0.00000000000E+00  0.00000000000E+00 -0.98355021421E+03  0.41327849569E+04  0.40140429091E+04 0.  0.
        4    1    3    3  502    0  0.17347690550E+04  0.31821660513E+03  0.49439431455E+03  0.18316967089E+04  0.12699999809E+01 0.  1.
       -4    1    3    3    0  502 -0.17347690550E+04 -0.31821660513E+03 -0.14779445288E+04  0.23010882480E+04  0.12699999809E+01 0. -1.
</event>
<event>
 5   0  0.1879500E-08  0.4023600E+04  0.7818609E-02  0.7999802E-01
        1   -1    0    0  501    0  0.00000000000E+00  0.00000000000E+00  0.25400614094E+04  0.25400614094E+04  0.50400001928E-02 0.  1.
       -1   -1    0    0    0  501  0.00000000000E+00  0.00000000000E+00 -0.15934023864E+04  0.15934023864E+04  0.50400001928E-02 0. -1.
    10030    2    1    2    0    0  0.00000000000E+00  0.00000000000E+00  0.94665902293E+03  0.41334637958E+04  0.40236003337E+04 0.  0.
        3    1    3    3  502    0  0.16696328860E+04 -0.94216974217E+03 -0.15322711283E+03  0.19232359074E+04  0.10100000352E+00 0.  1.
       -3    1    3    3    0  502 -0.16696328860E+04  0.94216974217E+03  0.10998861358E+04  0.22102278884E+04  0.10100000352E+00 0. -1.
</event>
<event>
 5   0  0.1879500E-08  0.3969508E+04  0.7818609E-02  0.8010726E-01
        1   -1    0    0  501    0  0.00000000000E+00  0.00000000000E+00  0.23691327475E+04  0.23691327475E+04  0.50400001928E-02 0. -1.
       -1   -1    0    0    0  501  0.00000000000E+00  0.00000000000E+00 -0.16627388148E+04  0.16627388148E+04  0.50400001928E-02 0.  1.
    10030    2    1    2    0    0  0.00000000000E+00  0.00000000000E+00  0.70639393271E+03  0.40318715622E+04  0.39695082701E+04 0.  0.
        2    1    3    3  502    0 -0.17000530045E+04 -0.79318325308E+03 -0.30500315189E+03  0.19006174822E+04  0.25500000920E-02 0.  1.
       -2    1    3    3    0  502  0.17000530045E+04  0.79318325308E+03  0.10113970846E+04  0.21312540800E+04  0.25500000920E-02 0. -1.
</event>
<event>
 5   0  0.1879500E-08  0.3971761E+04  0.7818609E-02  0.8010268E-01
        1   -1    0    0  501    0  0.00000000000E+00  0.00000000000E+00  0.19109419092E+04  0.19109419092E+04  0.50400001928E-02 0.  1.
       -1   -1    0    0    0  501  0.00000000000E+00  0.00000000000E+00 -0.20637580961E+04  0.20637580961E+04  0.50400001928E-02 0. -1.
    10030    2    1    2    0    0  0.00000000000E+00  0.00000000000E+00 -0.15281618691E+03  0.39747000053E+04  0.39717612397E+04 0.  0.
        5    1    3    3  502    0 -0.52700545584E+03  0.10942646416E+04 -0.16487325751E+04  0.20478015164E+04  0.46999998093E+01 0. -1.
       -5    1    3    3    0  502  0.52700545584E+03 -0.10942646416E+04  0.14959163881E+04  0.19268984890E+04  0.46999998093E+01 0.  1.
</event>
<event>
 5   0  0.5846812E-08  0.3996752E+04  0.7818609E-02  0.8005202E-01
       -2   -1    0    0    0  501  0.00000000000E+00  0.00000000000E+00  0.14406717812E+04  0.14406717812E+04  0.25500000920E-02 0. -1.
        2   -1    0    0  501    0  0.00000000000E+00  0.00000000000E+00 -0.27719756529E+04  0.27719756529E+04  0.25500000920E-02 0.  1.
    10030    2    1    2    0    0  0.00000000000E+00  0.00000000000E+00 -0.13313038717E+04  0.42126474341E+04  0.39967522321E+04 0.  0.
        4    1    3    3  502    0  0.11748602986E+04  0.10971473345E+04 -0.19169961966E+04  0.25017803711E+04  0.12699999809E+01 0.  1.
       -4    1    3    3    0  502 -0.11748602986E+04 -0.10971473345E+04  0.58569232486E+03  0.17108670629E+04  0.12699999809E+01 0. -1.
</event>
<event>
 5   0  0.1879500E-08  0.4002071E+04  0.7818609E-02  0.8004129E-01
       -1   -1    0    0    0  501  0.00000000000E+00  0.00000000000E+00  0.26844733722E+04  0.26844733722E+04  0.50400001928E-02 0. -1.
        1   -1    0    0  501    0  0.00000000000E+00  0.00000000000E+00 -0.14915936152E+04  0.14915936152E+04  0.50400001928E-02 0.  1.
    10030    2    1    2    0    0  0.00000000000E+00  0.00000000000E+00  0.11928797569E+04  0.41760669874E+04  0.40020711349E+04 0.  0.
        1    1    3    3  502    0 -0.15021252801E+04 -0.12214026481E+04  0.11243384792E+04  0.22388259873E+04  0.50400001928E-02 0. -1.
       -1    1    3    3    0  502  0.15021252801E+04  0.12214026481E+04  0.68541277715E+02  0.19372410001E+04  0.50400001928E-02 0.  1.
</event>
<event>
 5   0  0.1879500E-08  0.3861498E+04  0.7818609E-02  0.8033085E-01
       -1   -1    0    0    0  501  0.00000000000E+00  0.00000000000E+00  0.18295056109E+04  0.18295056109E+04  0.50400001928E-02 0. -1.
        1   -1    0    0  501    0  0.00000000000E+00  0.00000000000E+00 -0.20375946727E+04  0.20375946727E+04  0.50400001928E-02 0.  1.
    10030    2    1    2    0    0  0.00000000000E+00  0.00000000000E+00 -0.20808906173E+03  0.38671002836E+04  0.38614975781E+04 0.  0.
        5    1    3    3  502    0  0.91338963435E+03 -0.86379555814E+03  0.13634639559E+04  0.18545833601E+04  0.46999998093E+01 0. -1.
       -5    1    3    3    0  502 -0.91338963435E+03  0.86379555814E+03 -0.15715530176E+04  0.20125169236E+04  0.46999998093E+01 0.  1.
</event>
<event>
 5   0  0.1879500E-08  0.4005949E+04  0.7818609E-02  0.8003347E-01
       -1   -1    0    0    0  501  0.00000000000E+00  0.00000000000E+00  0.31012245398E+04  0.31012245398E+04  0.50400001928E-02 0. -1.
        1   -1    0    0  501    0  0.00000000000E+00  0.00000000000E+00 -0.12936527377E+04  0.12936527377E+04  0.50400001928E-02 0.  1.
    10030    2    1    2    0    0  0.00000000000E+00  0.00000000000E+00  0.18075718021E+04  0.43948772775E+04  0.40059493836E+04 0.  0.
        1    1    3    3  502    0  0.60192514896E+03  0.18123401294E+04  0.15666093016E+04  0.24700516864E+04  0.50400001928E-02 0.  1.
       -1    1    3    3    0  502 -0.60192514896E+03 -0.18123401294E+04  0.24096250052E+03  0.19248255911E+04  0.50400001928E-02 0. -1.
</event>
<event>
 5   0  0.1879500E-08  0.4002727E+04  0.7818609E-02  0.8003997E-01
        1   -1    0    0  501    0  0.00000000000E+00  0.00000000000E+00  0.16919890201E+04  0.16919890201E+04  0.50400001928E-02 0.  1.
       -1   -1    0    0    0  501  0.00000000000E+00  0.00000000000E+00 -0.23673061108E+04  0.23673061108E+04  0.50400001928E-02 0. -1.
    10030    2    1    2    0    0  0.00000000000E+00  0.00000000000E+00 -0.67531709070E+03  0.40592951308E+04  0.40027270437E+04 0.  0.
        2    1    3    3  502    0  0.12134700892E+04  0.68356666505E+03 -0.17952186747E+04  0.22721318476E+04  0.25500000920E-02 0. -1.
       -2    1    3    3    0  502 -0.12134700892E+04 -0.68356666505E+03  0.11199015840E+04  0.17871632832E+04  0.25500000920E-02 0.  1.
</event>
<event>
 5   0  0.5888700E-08  0.3987040E+04  0.7818609E-02  0.8007166E-01
        2   -1    0    0  501    0  0.00000000000E+00  0.00000000000E+00  0.20422045308E+04  0.20422045308E+04  0.25500000920E-02 0.  1.
       -2   -1    0    0    0  501  0.00000000000E+00  0.00000000000E+00 -0.19459962797E+04  0.19459962797E+04  0.25500000920E-02 0. -1.
    10030    2    1    2    0    0  0.00000000000E+00  0.00000000000E+00  0.96208251159E+02  0.39882008105E+04  0.39870402151E+04 0.  0.
        5    1    3    3  502    0 -0.15725184250E+04  0.94209132166E+03 -0.73554595030E+03  0.19751962410E+04  0.46999998093E+01 0. -1.
       -5    1    3    3    0  502  0.15725184250E+04 -0.94209132166E+03  0.83175420146E+03  0.20130045695E+04  0.46999998093E+01 0.  1.
</event>
<event>
 5   0  0.5846812E-08  0.3999235E+04  0.7818609E-02  0.8004701E-01
       -2   -1    0    0    0  501  0.00000000000E+00  0.00000000000E+00  0.24413515707E+04  0.24413515707E+04  0.25500000920E-02 0. -1.
        2   -1    0    0  501    0  0.00000000000E+00  0.00000000000E+00 -0.16378097669E+04  0.16378097669E+04  0.25500000920E-02 0.  1.
    10030    2    1    2    0    0  0.00000000000E+00  0.00000000000E+00  0.80354180379E+03  0.40791613377E+04  0.39992346503E+04 0.  0.
        4    1    3    3  502    0 -0.73642066132E+03 -0.16330484374E+04 -0.50441330811E+03  0.18610741489E+04  0.12699999809E+01 0.  1.
       -4    1    3    3    0  502  0.73642066132E+03  0.16330484374E+04  0.13079551119E+04  0.22180871888E+04  0.12699999809E+01 0. -1.
</event>
<event>
 5   0  0.1879500E-08  0.3989426E+04  0.7818609E-02  0.8006683E-01
       -1   -1    0    0    0  501  0.00000000000E+00  0.00000000000E+00  0.16312654776E+04  0.16312654776E+04  0.50400001928E-02 0.  1.
        1   -1    0    0  501    0  0.00000000000E+00  0.00000000000E+00 -0.24391367746E+04  0.24391367746E+04  0.50400001928E-02 0. -1.
    10030    2    1    2    0    0  0.00000000000E+00  0.00000000000E+00 -0.80787129700E+03  0.40704022521E+04  0.39894258311E+04 0.  0.
        5    1    3    3  502    0 -0.17671287801E+04 -0.32719317021E+03 -0.12869843706E+04  0.22104638329E+04  0.46999998093E+01 0. -1.
       -5    1    3    3    0  502  0.17671287801E+04  0.32719317021E+03  0.47911307364E+03  0.18599384193E+04  0.46999998093E+01 0.  1.
</event>
<event>
 5   0  0.1879500E-08  0.3980080E+04  0.7818609E-02  0.8008577E-01
       -1   -1    0    0    0  501  0.00000000000E+00  0.00000000000E+00  0.12930416999E+04  0.12930416999E+04  0.50400001928E-02 0. -1.
        1   -1    0    0  501    0  0.00000000000E+00  0.00000000000E+00 -0.30627465853E+04  0.30627465853E+04  0.50400001928E-02 0.  1.
    10030    2    1    2    0    0  0.00000000000E+00  0.00000000000E+00 -0.17697048854E+04  0.43557882852E+04  0.39800799243E+04 0.  0.
        2    1    3    3  502    0 -0.91598047568E+03  0.87298120528E+03 -0.25657918893E+04  0.28608398130E+04  0.25500000920E-02 0.  1.
       -2    1    3    3    0  502  0.91598047568E+03 -0.87298120528E+03  0.79608700390E+03  0.14949484721E+04  0.25500000920E-02 0. -1.
</event>
<event>
 5   0  0.5846812E-08  0.3798097E+04  0.7818609E-02  0.8046563E-01
       -2   -1    0    0    0  501  0.00000000000E+00  0.00000000000E+00  0.13827771074E+04  0.13827771074E+04  0.25500000920E-02 0.  1.
        2   -1    0    0  501    0  0.00000000000E+00  0.00000000000E+00 -0.26080742095E+04  0.26080742095E+04  0.25500000920E-02 0. -1.
    10030    2    1    2    0    0  0.00000000000E+00  0.00000000000E+00 -0.12252971021E+04  0.39908513169E+04  0.37980970558E+04 0.  0.
        4    1    3    3  502    0 -0.80490998796E+03  0.39132404184E+03  0.11472778021E+04  0.14550816343E+04  0.12699999809E+01 0.  1.
       -4    1    3    3    0  502  0.80490998796E+03 -0.39132404184E+03 -0.23725749042E+04  0.25357696826E+04  0.12699999809E+01 0. -1.
</event>
<event>
 5   0  0.1879500E-08  0.3999198E+04  0.7818609E-02  0.8004708E-01
       -1   -1    0    0    0  501  0.00000000000E+00  0.00000000000E+00  0.30734392920E+04  0.30734392920E+04  0.50400001928E-02 0.  1.
        1   -1    0    0  501    0  0.00000000000E+00  0.00000000000E+00 -0.13009519248E+04  0.13009519249E+04  0.50400001928E-02 0. -1.
    10030    2    1    2    0    0  0.00000000000E+00  0.00000000000E+00  0.17724873672E+04  0.43743912169E+04  0.39991983011E+04 0.  0.
        1    1    3    3  502    0  0.49038413578E+03 -0.72130228284E+03  0.28543981193E+04  0.29846846077E+04  0.50400001928E-02 0.  1.
       -1    1    3    3    0  502 -0.49038413578E+03  0.72130228284E+03 -0.10819107522E+04  0.13897066092E+04  0.50400001928E-02 0. -1.
</event>
<event>
 5   0  0.5846812E-08  0.4001025E+04  0.7818609E-02  0.8004340E-01
        2   -1    0    0  501    0  0.00000000000E+00  0.00000000000E+00  0.24682217775E+04  0.24682217775E+04  0.25500000920E-02 0.  1.
       -2   -1    0    0    0  501  0.00000000000E+00  0.00000000000E+00 -0.16214302230E+04  0.16214302230E+04  0.25500000920E-02 0. -1.
    10030    2    1    2    0    0  0.00000000000E+00  0.00000000000E+00  0.84679155449E+03  0.40896520005E+04  0.40010245624E+04 0.  0.
        4    1    3    3  502    0 -0.96088713128E+03  0.62612804586E+03  0.20988220434E+04  0.23917349334E+04  0.12699999809E+01 0.  1.
       -4    1    3    3    0  502  0.96088713128E+03 -0.62612804586E+03 -0.12520304889E+04  0.16979170671E+04  0.12699999809E+01 0. -1.
</event>
<event>
 5   0  0.1879500E-08  0.4133957E+04  0.7818609E-02  0.7978055E-01
        1   -1    0    0  501    0  0.00000000000E+00  0.00000000000E+00  0.16261232558E+04  0.16261232558E+04  0.50400001928E-02 0. -1.
       -1   -1    0    0    0  501  0.00000000000E+00  0.00000000000E+00 -0.26273537272E+04  0.26273537272E+04  0.50400001928E-02 0.  1.
    10030    2    1    2    0    0  0.00000000000E+00  0.00000000000E+00 -0.10012304714E+04  0.42534769830E+04  0.41339574246E+04 0.  0.
        1    1    3    3  502    0 -0.96697339212E+01  0.13834717215E+04  0.10794639604E+04  0.17548019688E+04  0.50400001928E-02 0. -1.
       -1    1    3    3    0  502  0.96697339212E+01 -0.13834717215E+04 -0.20806944318E+04  0.24986750142E+04  0.50400001928E-02 0.  1.
</event>
<event>
 5   0  0.1879500E-08  0.4025251E+04  0.7818609E-02  0.7999472E-01
        1   -1    0    0  501    0  0.00000000000E+00  0.00000000000E+00  0.16989199891E+04  0.16989199891E+04  0.50400001928E-02 0. -1.
       -1   -1    0    0    0  501  0.00000000000E+00  0.00000000000E+00 -0.23842567473E+04  0.23842567473E+04  0.50400001928E-02 0.  1.
    10030    2    1    2    0    0  0.00000000000E+00  0.00000000000E+00 -0.68533675824E+03  0.40831767364E+04  0.40252510218E+04 0.  0.
        1    1    3    3  502    0 -0.29947964968E+03 -0.10417601301E+03  0.16734238467E+04  0.17031993639E+04  0.50400001928E-02 0. -1.
       -1    1    3    3    0  502  0.29947964968E+03  0.10417601301E+03 -0.23587606050E+04  0.23799773726E+04  0.50400001928E-02 0.  1.
</event>
<event>
 5   0  0.5945387E-08  0.4000631E+04  0.7818609E-02  0.8004419E-01
        2   -1    0    0  501    0  0.00000000000E+00  0.00000000000E+00  0.13308874331E+04  0.13308874331E+04  0.25500000920E-02 0. -1.
       -2   -1    0    0    0  501  0.00000000000E+00  0.00000000000E+00 -0.30064619594E+04  0.30064619594E+04  0.25500000920E-02 0.  1.
    10030    2    1    2    0    0  0.00000000000E+00  0.00000000000E+00 -0.16755745263E+04  0.43373493924E+04  0.40006311701E+04 0.  0.
        3    1    3    3  502    0 -0.60810400584E+03  0.72487112460E+03  0.10729412403E+04  0.14305354048E+04  0.10100000352E+00 0. -1.
       -3    1    3    3    0  502  0.60810400584E+03 -0.72487112460E+03 -0.27485157666E+04  0.29068139876E+04  0.10100000352E+00 0.  1.
</event>
<event>
 5   0  0.1879500E-08  0.3957158E+04  0.7818609E-02  0.8013245E-01
       -3   -1    0    0    0  501  0.00000000000E+00  0.00000000000E+00  0.18530341923E+04  0.18530341950E+04  0.10100000352E+00 0.  1.
        3   -1    0    0  501    0  0.00000000000E+00  0.00000000000E+00 -0.21126299422E+04  0.21126299446E+04  0.10100000352E+00 0. -1.
    10030    2    1    2    0    0  0.00000000000E+00  0.00000000000E+00 -0.25959574987E+03  0.39656641396E+04  0.39571583384E+04 0.  0.
        5    1    3    3  502    0  0.31127925324E+02 -0.11355182079E+04  0.14936789777E+04  0.18765578933E+04  0.46999998093E+01 0.  1.
       -5    1    3    3    0  502 -0.31127925324E+02  0.11355182079E+04 -0.17532747276E+04  0.20891062464E+04  0.46999998093E+01 0. -1.
</event>
<event>
 5   0  0.5945387E-08  0.4003335E+04  0.7818609E-02  0.8003874E-01
        2   -1    0    0  501    0  0.00000000000E+00  0.00000000000E+00  0.25489024042E+04  0.25489024042E+04  0.25500000920E-02 0.  1.
       -2   -1    0    0    0  501  0.00000000000E+00  0.00000000000E+00 -0.15719209137E+04  0.15719209137E+04  0.25500000920E-02 0. -1.
    10030    2    1    2    0    0  0.00000000000E+00  0.00000000000E+00  0.97698149051E+03  0.41208233180E+04  0.40033351078E+04 0.  0.
        3    1    3    3  502    0 -0.31828158977E+03  0.11871357012E+04  0.21147552435E+04  0.24459730361E+04  0.10100000352E+00 0.  1.
       -3    1    3    3    0  502  0.31828158977E+03 -0.11871357012E+04 -0.11377737529E+04  0.16748502818E+04  0.10100000352E+00 0. -1.
</event>
<event>
 5   0  0.5846812E-08  0.4005757E+04  0.7818609E-02  0.8003386E-01
       -2   -1    0    0    0  501  0.00000000000E+00  0.00000000000E+00  0.13180822514E+04  0.13180822514E+04  0.25500000920E-02 0.  1.
        2   -1    0    0  501    0  0.00000000000E+00  0.00000000000E+00 -0.30434538763E+04  0.30434538763E+04  0.25500000920E-02 0. -1.
    10030    2    1    2    0    0  0.00000000000E+00  0.00000000000E+00 -0.17253716249E+04  0.43615361277E+04  0.40057571256E+04 0.  0.
        4    1    3    3  502    0  0.38187133851E+03 -0.18480594481E+04 -0.15933878214E+04  0.24698250556E+04  0.12699999809E+01 0. -1.
       -4    1    3    3    0  502 -0.38187133851E+03  0.18480594481E+04 -0.13198380350E+03  0.18917110721E+04  0.12699999809E+01 0.  1.
</event>
<event>
 5   0  0.5945387E-08  0.4006997E+04  0.7818609E-02  0.8003137E-01
       -2   -1    0    0    0  501  0.00000000000E+00  0.00000000000E+00  0.16550797985E+04  0.16550797985E+04  0.25500000920E-02 0.  1.
        2   -1    0    0  501    0  0.00000000000E+00  0.00000000000E+00 -0.24252644849E+04  0.24252644849E+04  0.25500000920E-02 0. -1.
    10030    2    1    2    0    0  0.00000000000E+00  0.00000000000E+00 -0.77018468643E+03  0.40803442834E+04  0.40069970078E+04 0.  0.
        3    1    3    3  502    0 -0.68376280369E+03  0.10401371464E+03  0.15296607576E+04  0.16787532481E+04  0.10100000352E+00 0.  1.
       -3    1    3    3    0  502  0.68376280369E+03 -0.10401371464E+03 -0.22998454440E+04  0.24015910353E+04  0.10100000352E+00 0. -1.
</event>
<event>
 5   0  0.6161563E-08  0.4009481E+04  0.7818609E-02  0.8002637E-01
        2   -1    0    0  501    0  0.00000000000E+00  0.00000000000E+00  0.29690988348E+04  0.29690988348E+04  0.25500000920E-02 0. -1.
       -2   -1    0    0    0  501  0.00000000000E+00  0.00000000000E+00 -0.13536043016E+04  0.13536043016E+04  0.25500000920E-02 0.  1.
    10030    2    1    2    0    0  0.00000000000E+00  0.00000000000E+00  0.16154945332E+04  0.43227031364E+04  0.40094812406E+04 0.  0.
        1    1    3    3  502    0  0.13801532095E+04  0.10730694732E+04 -0.25006621432E+03  0.17660221085E+04  0.50400001928E-02 0.  1.
       -1    1    3    3    0  502 -0.13801532095E+04 -0.10730694732E+04  0.18655607475E+04  0.25566810280E+04  0.50400001928E-02 0. -1.
</event>
<event>
 5   0  0.1879500E-08  0.3993073E+04  0.7818609E-02  0.8005945E-01
       -1   -1    0    0    0  501  0.00000000000E+00  0.00000000000E+00  0.24271203527E+04  0.24271203527E+04  0.50400001928E-02 0.  1.
        1   -1    0    0  501    0  0.00000000000E+00  0.00000000000E+00 -0.16423403212E+04  0.16423403212E+04  0.50400001928E-02 0. -1.
    10030    2    1    2    0    0  0.00000000000E+00  0.00000000000E+00  0.78478003151E+03  0.40694606739E+04  0.39930728116E+04 0.  0.
        2    1    3    3  502    0  0.18374774616E+03 -0.11699889966E+04  0.20304716899E+04  0.23506281649E+04  0.25500000920E-02 0.  1.
       -2    1    3    3    0  502 -0.18374774616E+03  0.11699889966E+04 -0.12456916584E+04  0.17188325090E+04  0.25500000920E-02 0. -1.
</event>
<event>
 5   0  0.1879500E-08  0.4021164E+04  0.7818609E-02  0.8000291E-01
       -1   -1    0    0    0  501  0.00000000000E+00  0.00000000000E+00  0.22113332250E+04  0.22113332250E+04  0.50400001928E-02 0. -1.
        1   -1    0    0  501    0  0.00000000000E+00  0.00000000000E+00 -0.18280554440E+04  0.18280554440E+04  0.50400001928E-02 0.  1.
    10030    2    1    2    0    0  0.00000000000E+00  0.00000000000E+00  0.38327778103E+03  0.40393886690E+04  0.40211638815E+04 0.  0.
        4    1    3    3  502    0 -0.93463838116E+03  0.65398569737E+03 -0.14715194279E+04  0.18618853981E+04  0.12699999809E+01 0.  1.
       -4    1    3    3    0  502  0.93463838116E+03 -0.65398569737E+03  0.18547972089E+04  0.21775032710E+04  0.12699999809E+01 0. -1.
</event>
<event>
 5   0  0.5888700E-08  0.3749648E+04  0.7818609E-02  0.8057047E-01
       -2   -1    0    0    0  501  0.00000000000E+00  0.00000000000E+00  0.30401445904E+04  0.30401445904E+04  0.25500000920E-02 0. -1.
        2   -1    0    0  501    0  0.00000000000E+00  0.00000000000E+00 -0.11561834543E+04  0.11561834543E+04  0.25500000920E-02 0.  1.
    10030    2    1    2    0    0  0.00000000000E+00  0.00000000000E+00  0.18839611361E+04  0.41963280447E+04  0.37496479163E+04 0.  0.
        5    1    3    3  502    0  0.91532347807E+03  0.15979944285E+04  0.13353330530E+04  0.22747614634E+04  0.46999998093E+01 0. -1.
       -5    1    3    3    0  502 -0.91532347807E+03 -0.15979944285E+04  0.54862808313E+03  0.19215665813E+04  0.46999998093E+01 0.  1.
</event>
<event>
 5   0  0.1879500E-08  0.4008877E+04  0.7818609E-02  0.8002758E-01
       -1   -1    0    0    0  501  0.00000000000E+00  0.00000000000E+00  0.20779154391E+04  0.20779154391E+04  0.50400001928E-02 0. -1.
        1   -1    0    0  501    0  0.00000000000E+00  0.00000000000E+00 -0.19335600144E+04  0.19335600145E+04  0.50400001928E-02 0.  1.
    10030    2    1    2    0    0  0.00000000000E+00  0.00000000000E+00  0.14435542460E+03  0.40114754535E+04  0.40088772525E+04 0.  0.
        1    1    3    3  502    0 -0.14473189585E+04  0.68504175010E+03 -0.11343233644E+04  0.19623210395E+04  0.50400001928E-02 0.  1.
       -1    1    3    3    0  502  0.14473189585E+04 -0.68504175010E+03  0.12786787890E+04  0.20491544140E+04  0.50400001928E-02 0. -1.
</event>
<event>
 5   0  0.1879500E-08  0.3998340E+04  0.7818609E-02  0.8004881E-01
        1   -1    0    0  501    0  0.00000000000E+00  0.00000000000E+00  0.25728586088E+04  0.25728586088E+04  0.50400001928E-02 0. -1.
       -1   -1    0    0    0  501  0.00000000000E+00  0.00000000000E+00 -0.15534010124E+04  0.15534010124E+04  0.50400001928E-02 0.  1.
    10030    2    1    2    0    0  0.00000000000E+00  0.00000000000E+00  0.10194575965E+04  0.41262596212E+04  0.39983402395E+04 0.  0.
        4    1    3    3  502    0 -0.65361162874E+02  0.13035988276E+04  0.20724531777E+04  0.24492255453E+04  0.12699999809E+01 0. -1.
       -4    1    3    3    0  502  0.65361162874E+02 -0.13035988276E+04 -0.10529955813E+04  0.16770340759E+04  0.12699999809E+01 0.  1.
</event>
<event>
 5   0  0.1879500E-08  0.3906540E+04  0.7818609E-02  0.8023670E-01
        1   -1    0    0  501    0  0.00000000000E+00  0.00000000000E+00  0.24065970425E+04  0.24065970425E+04  0.50400001928E-02 0. -1.
       -1   -1    0    0    0  501  0.00000000000E+00  0.00000000000E+00 -0.15853354225E+04  0.15853354225E+04  0.50400001928E-02 0.  1.
    10030    2    1    2    0    0  0.00000000000E+00  0.00000000000E+00  0.82126161998E+03  0.39919324650E+04  0.39065399213E+04 0.  0.
        5    1    3    3  502    0  0.16185943515E+04  0.56374112182E+03  0.13679057342E+04  0.21929067274E+04  0.46999998093E+01 0. -1.
       -5    1    3    3    0  502 -0.16185943515E+04 -0.56374112182E+03 -0.54664411423E+03  0.17990257377E+04  0.46999998093E+01 0.  1.
</event>
<event>
 5   0  0.5846812E-08  0.3998805E+04  0.7818609E-02  0.8004788E-01
        2   -1    0    0  501    0  0.00000000000E+00  0.00000000000E+00  0.15705093478E+04  0.15705093478E+04  0.25500000920E-02 0. -1.
       -2   -1    0    0    0  501  0.00000000000E+00  0.00000000000E+00 -0.25454227527E+04  0.25454227527E+04  0.25500000920E-02 0.  1.
    10030    2    1    2    0    0  0.00000000000E+00  0.00000000000E+00 -0.97491340488E+03  0.41159321005E+04  0.39988049350E+04 0.  0.
        4    1    3    3  502    0  0.77855263358E+03  0.40931442463E+03  0.13606648097E+04  0.16202138250E+04  0.12699999809E+01 0. -1.
       -4    1    3    3    0  502 -0.77855263358E+03 -0.40931442463E+03 -0.23355782145E+04  0.24957182755E+04  0.12699999809E+01 0.  1.
</event>
<event>
 5   0  0.1879500E-08  0.4001155E+04  0.7818609E-02  0.8004314E-01
        1   -1    0    0  501    0  0.00000000000E+00  0.00000000000E+00  0.24898684124E+04  0.24898684124E+04  0.50400001928E-02 0.  1.
       -1   -1    0    0    0  501  0.00000000000E+00  0.00000000000E+00 -0.16074382384E+04  0.16074382385E+04  0.50400001928E-02 0. -1.
    10030    2    1    2    0    0  0.00000000000E+00  0.00000000000E+00  0.88243017399E+03  0.40973066509E+04  0.40011546808E+04 0.  0.
        1    1    3    3  502    0  0.11522883620E+04 -0.10118445384E+04 -0.87446033816E+03  0.17652984796E+04  0.50400001928E-02 0. -1.
       -1    1    3    3    0  502 -0.11522883620E+04  0.10118445384E+04  0.17568905122E+04  0.23320081713E+04  0.50400001928E-02 0.  1.
</event>
<event>
 5   0  0.5951623E-08  0.4006470E+04  0.7818609E-02  0.8003243E-01
       -2   -1    0    0    0  501  0.00000000000E+00  0.00000000000E+00  0.15719025814E+04  0.15719025814E+04  0.25500000920E-02 0.  1.
        2   -1    0    0  501    0  0.00000000000E+00  0.00000000000E+00 -0.25529253002E+04  0.25529253002E+04  0.25500000920E-02 0. -1.
    10030    2    1    2    0    0  0.00000000000E+00  0.00000000000E+00 -0.98102271885E+03  0.41248278816E+04  0.40064697026E+04 0.  0.
        2    1    3    3  502    0 -0.17397740201E+03 -0.13154131457E+04 -0.20356371243E+04  0.24298967843E+04  0.25500000920E-02 0. -1.
       -2    1    3    3    0  502  0.17397740201E+03  0.13154131457E+04  0.10546144055E+04  0.16949310973E+04  0.25500000920E-02 0.  1.
</event>
<event>
 5   0  0.5888700E-08  0.4003291E+04  0.7818609E-02  0.8003883E-01
       -2   -1    0    0    0  501  0.00000000000E+00  0.00000000000E+00  0.19586721649E+04  0.19586721649E+04  0.25500000920E-02 0.  1.
        2   -1    0    0  501    0  0.00000000000E+00  0.00000000000E+00 -0.20455615276E+04  0.20455615276E+04  0.25500000920E-02 0. -1.
    10030    2    1    2    0    0  0.00000000000E+00  0.00000000000E+00 -0.86889362669E+02  0.40042336925E+04  0.40032908591E+04 0.  0.
        5    1    3    3  502    0  0.97561758750E+03 -0.99490785541E+02  0.17019116195E+04  0.19642437079E+04  0.46999998093E+01 0.  1.
       -5    1    3    3    0  502 -0.97561758750E+03  0.99490785541E+02 -0.17888009821E+04  0.20399899846E+04  0.46999998093E+01 0. -1.
</event>
<event>
 5   0  0.1879500E-08  0.3989775E+04  0.7818609E-02  0.8006612E-01
        1   -1    0    0  501    0  0.00000000000E+00  0.00000000000E+00  0.18006539663E+04  0.18006539664E+04  0.50400001928E-02 0.  1.
       -1   -1    0    0    0  501  0.00000000000E+00  0.00000000000E+00 -0.22100724303E+04  0.22100724303E+04  0.50400001928E-02 0. -1.
    10030    2    1    2    0    0  0.00000000000E+00  0.00000000000E+00 -0.40941846398E+03  0.40107263967E+04  0.39897747744E+04 0.  0.
        3    1    3    3  502    0  0.76443611069E+03 -0.12252207829E+04  0.11787617312E+04  0.18641372705E+04  0.10100000352E+00 0.  1.
       -3    1    3    3    0  502 -0.76443611069E+03  0.12252207829E+04 -0.15881801951E+04  0.21465891262E+04  0.10100000352E+00 0. -1.
</event>
<event>
 5   0  0.1879500E-08  0.4003089E+04  0.7818609E-02  0.8003924E-01
       -1   -1    0    0    0  501  0.00000000000E+00  0.00000000000E+00  0.26294059879E+04  0.26294059880E+04  0.50400001928E-02 0.  1.
        1   -1    0    0  501    0  0.00000000000E+00  0.00000000000E+00 -0.15236067075E+04  0.15236067075E+04  0.50400001928E-02 0. -1.
    10030    2    1    2    0    0  0.00000000000E+00  0.00000000000E+00  0.11057992804E+04  0.41530126955E+04  0.40030891072E+04 0.  0.
        5    1    3    3  502    0  0.12276039543E+04 -0.10453424595E+04  0.17832346576E+04  0.24041007176E+04  0.46999998093E+01 0.  1.
       -5    1    3    3    0  502 -0.12276039543E+04  0.10453424595E+04 -0.67743537713E+03  0.17489119779E+04  0.46999998093E+01 0. -1.
</event>
<event>
 5   0  0.5951623E-08  0.4009129E+04  0.7818609E-02  0.8002707E-01
       -2   -1    0    0    0  501  0.00000000000E+00  0.00000000000E+00  0.16309915776E+04  0.16309915776E+04  0.25500000920E-02 0.  1.
        2   -1    0    0  501    0  0.00000000000E+00  0.00000000000E+00 -0.24637032441E+04  0.24637032441E+04  0.25500000920E-02 0. -1.
    10030    2    1    2    0    0  0.00000000000E+00  0.00000000000E+00 -0.83271166646E+03  0.40946948217E+04  0.40091292027E+04 0.  0.
        2    1    3    3  502    0  0.39474726573E+03  0.16786622978E+04  0.62748774329E+03  0.18350676777E+04  0.25500000920E-02 0.  1.
       -2    1    3    3    0  502 -0.39474726573E+03 -0.16786622978E+04 -0.14601994098E+04  0.22596271440E+04  0.25500000920E-02 0. -1.
</event>
<event>
 5   0  0.1879500E-08  0.3998706E+04  0.7818609E-02  0.8004808E-01
       -1   -1    0    0    0  501  0.00000000000E+00  0.00000000000E+00  0.14761947955E+04  0.14761947955E+04  0.50400001928E-02 0. -1.
        1   -1    0    0  501    0  0.00000000000E+00  0.00000000000E+00 -0.27079161621E+04  0.27079161621E+04  0.50400001928E-02 0.  1.
    10030    2    1    2    0    0  0.00000000000E+00  0.00000000000E+00 -0.12317213667E+04  0.41841109576E+04  0.39987056631E+04 0.  0.
        4    1    3    3  502    0 -0.92733890906E+03  0.14718254279E+04  0.41531864748E+03  0.17884962215E+04  0.12699999809E+01 0. -1.
       -4    1    3    3    0  502  0.92733890906E+03 -0.14718254279E+04 -0.16470400142E+04  0.23956147361E+04  0.12699999809E+01 0.  1.
</event>
<event>
 5   0  0.5945387E-08  0.4001874E+04  0.7818609E-02  0.8004169E-01
        2   -1    0    0  501    0  0.00000000000E+00  0.00000000000E+00  0.31993965149E+04  0.31993965149E+04  0.25500000920E-02 0. -1.
       -2   -1    0    0    0  501  0.00000000000E+00  0.00000000000E+00 -0.12514072188E+04  0.12514072188E+04  0.25500000920E-02 0.  1.
    10030    2    1    2    0    0  0.00000000000E+00  0.00000000000E+00  0.19479892961E+04  0.44508037338E+04  0.40018735086E+04 0.  0.
        3    1    3    3  502    0  0.15000189906E+04 -0.63220745225E+03 -0.32015698374E+03  0.16589887701E+04  0.10100000352E+00 0.  1.
       -3    1    3    3    0  502 -0.15000189906E+04  0.63220745225E+03  0.22681462798E+04  0.27918149637E+04  0.10100000352E+00 0. -1.
</event>
<event>
 5   0  0.5888700E-08  0.4107778E+04  0.7818609E-02  0.7983150E-01
        2   -1    0    0  501    0  0.00000000000E+00  0.00000000000E+00  0.32694009496E+04  0.32694009496E+04  0.25500000920E-02 0. -1.
       -2   -1    0    0    0  501  0.00000000000E+00  0.00000000000E+00 -0.12902850626E+04  0.12902850626E+04  0.25500000920E-02 0.  1.
    10030    2    1    2    0    0  0.00000000000E+00  0.00000000000E+00  0.19791158870E+04  0.45596860122E+04  0.41077776030E+04 0.  0.
        5    1    3    3  502    0 -0.10697848783E+04 -0.15007811909E+04 -0.16614232593E+02  0.18431174655E+04  0.46999998093E+01 0.  1.
       -5    1    3    3    0  502  0.10697848783E+04  0.15007811909E+04  0.19957301196E+04  0.27165685468E+04  0.46999998093E+01 0. -1.
</event>
<event>
 5   0  0.5846812E-08  0.3979475E+04  0.7818609E-02  0.8008700E-01
       -2   -1    0    0    0  501  0.00000000000E+00  0.00000000000E+00  0.17386467964E+04  0.17386467964E+04  0.25500000920E-02 0. -1.
        2   -1    0    0  501    0  0.00000000000E+00  0.00000000000E+00 -0.22770897765E+04  0.22770897765E+04  0.25500000920E-02 0.  1.
    10030    2    1    2    0    0  0.00000000000E+00  0.00000000000E+00 -0.53844298003E+03  0.40157365729E+04  0.39794747618E+04 0.  0.
        4    1    3    3  502    0  0.15439081468E+04  0.74316975958E+03  0.75147921164E+03  0.18710094269E+04  0.12699999809E+01 0. -1.
       -4    1    3    3    0  502 -0.15439081468E+04 -0.74316975958E+03 -0.12899221917E+04  0.21447271460E+04  0.12699999809E+01 0.  1.
</event>
<event>
 5   0  0.1879500E-08  0.3989221E+04  0.7818609E-02  0.8006725E-01
       -1   -1    0    0    0  501  0.00000000000E+00  0.00000000000E+00  0.16650247430E+04  0.16650247430E+04  0.50400001928E-02 0.  1.
        1   -1    0    0  501    0  0.00000000000E+00  0.00000000000E+00 -0.23894366952E+04  0.23894366952E+04  0.50400001928E-02 0. -1.
    10030    2    1    2    0    0  0.00000000000E+00  0.00000000000E+00 -0.72441195215E+03  0.40544614382E+04  0.39892210866E+04 0.  0.
        1    1    3    3  502    0 -0.87805304343E+02  0.15897600332E+04  0.85886835617E+03  0.18090609685E+04  0.50400001928E-02 0.  1.
       -1    1    3    3    0  502  0.87805304343E+02 -0.15897600332E+04 -0.15832803083E+04  0.22454004697E+04  0.50400001928E-02 0. -1.
</event>
<event>
 5   0  0.6161563E-08  0.3987429E+04  0.7818609E-02  0.8007087E-01
        2   -1    0    0  501    0  0.00000000000E+00  0.00000000000E+00  0.25309763726E+04  0.25309763726E+04  0.25500000920E-02 0. -1.
       -2   -1    0    0    0  501  0.00000000000E+00  0.00000000000E+00 -0.15704994041E+04  0.15704994041E+04  0.25500000920E-02 0.  1.
    10030    2    1    2    0    0  0.00000000000E+00  0.00000000000E+00  0.96047696850E+03  0.41014757766E+04  0.39874286877E+04 0.  0.
        1    1    3    3  502    0  0.10096349485E+03 -0.19818426130E+04  0.28237467621E+03  0.20044024615E+04  0.50400001928E-02 0. -1.
       -1    1    3    3    0  502 -0.10096349485E+03  0.19818426130E+04  0.67810229229E+03  0.20970733151E+04  0.50400001928E-02 0.  1.
</event>
<event>
 5   0  0.1879500E-08  0.4022543E+04  0.7818609E-02  0.8000014E-01
        1   -1    0    0  501    0  0.00000000000E+00  0.00000000000E+00  0.27428618222E+04  0.27428618222E+04  0.50400001928E-02 0. -1.
       -1   -1    0    0    0  501  0.00000000000E+00  0.00000000000E+00 -0.14748147492E+04  0.14748147492E+04  0.50400001928E-02 0.  1.
    10030    2    1    2    0    0  0.00000000000E+00  0.00000000000E+00  0.12680470730E+04  0.42176765714E+04  0.40225430118E+04 0.  0.
        1    1    3    3  502    0  0.12897340392E+04 -0.85849277747E+03  0.19787306942E+04  0.25131253254E+04  0.50400001928E-02 0. -1.
       -1    1    3    3    0  502 -0.12897340392E+04  0.85849277747E+03 -0.71068362123E+03  0.17045512460E+04  0.50400001928E-02 0.  1.
</event>
<event>
 5   0  0.5846812E-08  0.4007221E+04  0.7818609E-02  0.8003091E-01
        2   -1    0    0  501    0  0.00000000000E+00  0.00000000000E+00  0.20780529059E+04  0.20780529059E+04  0.25500000920E-02 0. -1.
       -2   -1    0    0    0  501  0.00000000000E+00  0.00000000000E+00 -0.19318352293E+04  0.19318352293E+04  0.25500000920E-02 0.  1.
    10030    2    1    2    0    0  0.00000000000E+00  0.00000000000E+00  0.14621767662E+03  0.40098881352E+04  0.40072213875E+04 0.  0.
        4    1    3    3  502    0  0.19164385281E+04  0.58328601255E+03  0.11179973178E+03  0.20063549031E+04  0.12699999809E+01 0.  1.
       -4    1    3    3    0  502 -0.19164385281E+04 -0.58328601255E+03  0.34417944845E+02  0.20035332321E+04  0.12699999809E+01 0. -1.
</event>
<event>
 5   0  0.1879500E-08  0.4010614E+04  0.7818609E-02  0.8002409E-01
       -1   -1    0    0    0  501  0.00000000000E+00  0.00000000000E+00  0.20323789639E+04  0.20323789639E+04  0.50400001928E-02 0.  1.
        1   -1    0    0  501    0  0.00000000000E+00  0.00000000000E+00 -0.19785960568E+04  0.19785960568E+04  0.50400001928E-02 0. -1.
    10030    2    1    2    0    0  0.00000000000E+00  0.00000000000E+00  0.53782907096E+02  0.40109750206E+04  0.40106144187E+04 0.  0.
        1    1    3    3  502    0 -0.13957263595E+04 -0.10383217632E+04  0.10245245518E+04  0.20188647086E+04  0.50400001928E-02 0.  1.
       -1    1    3    3    0  502  0.13957263595E+04  0.10383217632E+04 -0.97074164467E+03  0.19921103120E+04  0.50400001928E-02 0. -1.
</event>
<event>
 5   0  0.5888700E-08  0.4036382E+04  0.7818609E-02  0.7997247E-01
        2   -1    0    0  501    0  0.00000000000E+00  0.00000000000E+00  0.29982790294E+04  0.29982790294E+04  0.25500000920E-02 0.  1.
       -2   -1    0    0    0  501  0.00000000000E+00  0.00000000000E+00 -0.13584772699E+04  0.13584772699E+04  0.25500000920E-02 0. -1.
    10030    2    1    2    0    0  0.00000000000E+00  0.00000000000E+00  0.16398017595E+04  0.43567562994E+04  0.40363815035E+04 0.  0.
        5    1    3    3  502    0  0.64566216296E+03 -0.10343569958E+04  0.25557434119E+04  0.28317168822E+04  0.46999998093E+01 0.  1.
       -5    1    3    3    0  502 -0.64566216296E+03  0.10343569958E+04 -0.91594165233E+03  0.15250394172E+04  0.46999998093E+01 0. -1.
</event>
<event>
 5   0  0.5888700E-08  0.4009206E+04  0.7818609E-02  0.8002692E-01
       -2   -1    0    0    0  501  0.00000000000E+00  0.00000000000E+00  0.17738714436E+04  0.17738714436E+04  0.25500000920E-02 0.  1.
        2   -1    0    0  501    0  0.00000000000E+00  0.00000000000E+00 -0.22653461891E+04  0.22653461891E+04  0.25500000920E-02 0. -1.
    10030    2    1    2    0    0  0.00000000000E+00  0.00000000000E+00 -0.49147474558E+03  0.40392176327E+04  0.40092058639E+04 0.  0.
        5    1    3    3  502    0  0.17974689468E+04 -0.26782356520E+02  0.64791944501E+03  0.19108724726E+04  0.46999998093E+01 0.  1.
       -5    1    3    3    0  502 -0.17974689468E+04  0.26782356520E+02 -0.11393941906E+04  0.21283451602E+04  0.46999998093E+01 0. -1.
</event>
<event>
 5   0  0.5951623E-08  0.3974045E+04  0.7818609E-02  0.8009803E-01
       -2   -1    0    0    0  501  0.00000000000E+00  0.00000000000E+00  0.23911210133E+04  0.23911210133E+04  0.25500000920E-02 0.  1.
        2   -1    0    0  501    0  0.00000000000E+00  0.00000000000E+00 -0.16512168309E+04  0.16512168309E+04  0.25500000920E-02 0. -1.
    10030    2    1    2    0    0  0.00000000000E+00  0.00000000000E+00  0.73990418240E+03  0.40423378441E+04  0.39740454259E+04 0.  0.
        2    1    3    3  502    0 -0.79928698492E+03 -0.14662990959E+04 -0.72529008957E+03  0.18206972392E+04  0.25500000920E-02 0. -1.
       -2    1    3    3    0  502  0.79928698492E+03  0.14662990959E+04  0.14651942720E+04  0.22216406049E+04  0.25500000920E-02 0.  1.
</event>
<event>
 5   0  0.5951623E-08  0.3998129E+04  0.7818609E-02  0.8004924E-01
       -2   -1    0    0    0  501  0.00000000000E+00  0.00000000000E+00  0.13789660274E+04  0.13789660274E+04  0.25500000920E-02 0. -1.
        2   -1    0    0  501    0  0.00000000000E+00  0.00000000000E+00 -0.28980111489E+04  0.28980111489E+04  0.25500000920E-02 0.  1.
    10030    2    1    2    0    0  0.00000000000E+00  0.00000000000E+00 -0.15190451215E+04  0.42769771763E+04  0.39981290231E+04 0.  0.
        2    1    3    3  502    0 -0.12178292381E+04  0.95742505863E+03  0.59212347157E+03  0.16584272675E+04  0.25500000920E-02 0. -1.
       -2    1    3    3    0  502  0.12178292381E+04 -0.95742505863E+03 -0.21111685931E+04  0.26185499087E+04  0.25500000920E-02 0.  1.
</event>
<event>
 5   0  0.6161563E-08  0.4000090E+04  0.7818609E-02  0.8004528E-01
        2   -1    0    0  501    0  0.00000000000E+00  0.00000000000E+00  0.15968203283E+04  0.15968203283E+04  0.25500000920E-02 0.  1.
       -2   -1    0    0    0  501  0.00000000000E+00  0.00000000000E+00 -0.25050912485E+04  0.25050912485E+04  0.25500000920E-02 0. -1.
    10030    2    1    2    0    0  0.00000000000E+00  0.00000000000E+00 -0.90827092013E+03  0.41019115768E+04  0.40000903140E+04 0.  0.
        1    1    3    3  502    0 -0.54064407117E+03  0.56473645155E+03 -0.23419075004E+04  0.24689580822E+04  0.50400001928E-02 0. -1.
       -1    1    3    3    0  502  0.54064407117E+03 -0.56473645155E+03  0.14336365802E+04  0.16329534946E+04  0.50400001928E-02 0.  1.
</event>
<event>
 5   0  0.1879500E-08  0.3982733E+04  0.7818609E-02  0.8008039E-01
       -1   -1    0    0    0  501  0.00000000000E+00  0.00000000000E+00  0.24909508001E+04  0.24909508001E+04  0.50400001928E-02 0.  1.
        1   -1    0    0  501    0  0.00000000000E+00  0.00000000000E+00 -0.15919782931E+04  0.15919782931E+04  0.50400001928E-02 0. -1.
    10030    2    1    2    0    0  0.00000000000E+00  0.00000000000E+00  0.89897250702E+03  0.40829290932E+04  0.39827325308E+04 0.  0.
        5    1    3    3  502    0 -0.15593793016E+04  0.11707857619E+04  0.86352106369E+03  0.21326260394E+04  0.46999998093E+01 0.  1.
       -5    1    3    3    0  502  0.15593793016E+04 -0.11707857619E+04  0.35451443333E+02  0.19503030538E+04  0.46999998093E+01 0. -1.
</event>
<event>
 5   0  0.1879500E-08  0.4020556E+04  0.7818609E-02  0.8000412E-01
        1   -1    0    0  501    0  0.00000000000E+00  0.00000000000E+00  0.17483306987E+04  0.17483306988E+04  0.50400001928E-02 0. -1.
       -1   -1    0    0    0  501  0.00000000000E+00  0.00000000000E+00 -0.23114724998E+04  0.23114724998E+04  0.50400001928E-02 0.  1.
    10030    2    1    2    0    0  0.00000000000E+00  0.00000000000E+00 -0.56314180107E+03  0.40598031986E+04  0.40205563450E+04 0.  0.
        3    1    3    3  502    0 -0.14251558048E+04  0.92988364337E+02  0.11469838444E+04  0.18317444836E+04  0.10100000352E+00 0. -1.
       -3    1    3    3    0  502  0.14251558048E+04 -0.92988364337E+02 -0.17101256454E+04  0.22280587149E+04  0.10100000352E+00 0.  1.
</event>
<event>
 5   0  0.5945387E-08  0.4016906E+04  0.7818609E-02  0.8001145E-01
        2   -1    0    0  501    0  0.00000000000E+00  0.00000000000E+00  0.27809548157E+04  0.27809548157E+04  0.25500000920E-02 0.  1.
       -2   -1    0    0    0  501  0.00000000000E+00  0.00000000000E+00 -0.14505389315E+04  0.14505389315E+04  0.25500000920E-02 0. -1.
    10030    2    1    2    0    0  0.00000000000E+00  0.00000000000E+00  0.13304158842E+04  0.42314937472E+04  0.40169058874E+04 0.  0.
        3    1    3    3  502    0 -0.12685311151E+03  0.63995857962E+03 -0.13358055972E+04  0.14866120205E+04  0.10100000352E+00 0. -1.
       -3    1    3    3    0  502  0.12685311151E+03 -0.63995857962E+03  0.26662214815E+04  0.27448817268E+04  0.10100000352E+00 0.  1.
</event>
<event>
 5   0  0.1879500E-08  0.3994754E+04  0.7818609E-02  0.8005606E-01
        1   -1    0    0  501    0  0.00000000000E+00  0.00000000000E+00  0.25732858246E+04  0.25732858246E+04  0.50400001928E-02 0. -1.
       -1   -1    0    0    0  501  0.00000000000E+00  0.00000000000E+00 -0.15503579596E+04  0.15503579596E+04  0.50400001928E-02 0.  1.
    10030    2    1    2    0    0  0.00000000000E+00  0.00000000000E+00  0.10229278650E+04  0.41236437842E+04  0.39947536397E+04 0.  0.
        1    1    3    3  502    0  0.67535191769E+03  0.66437013956E+03 -0.13036869383E+04  0.16115481774E+04  0.50400001928E-02 0.  1.
       -1    1    3    3    0  502 -0.67535191769E+03 -0.66437013956E+03  0.23266148032E+04  0.25120956068E+04  0.50400001928E-02 0. -1.
</event>
<event>
 5   0  0.5951623E-08  0.4012085E+04  0.7818609E-02  0.8002113E-01
       -2   -1    0    0    0  501  0.00000000000E+00  0.00000000000E+00  0.18401586142E+04  0.18401586142E+04  0.25500000920E-02 0.  1.
        2   -1    0    0  501    0  0.00000000000E+00  0.00000000000E+00 -0.21868804878E+04  0.21868804878E+04  0.25500000920E-02 0. -1.
    10030    2    1    2    0    0  0.00000000000E+00  0.00000000000E+00 -0.34672187355E+03  0.40270391020E+04  0.40120852273E+04 0.  0.
        2    1    3    3  502    0 -0.19384292662E+04 -0.12467005457E+03  0.32966196328E+03  0.19702100529E+04  0.25500000920E-02 0. -1.
       -2    1    3    3    0  502  0.19384292662E+04  0.12467005457E+03 -0.67638383682E+03  0.20568290491E+04  0.25500000920E-02 0.  1.
</event>
<event>
 5   0  0.1879500E-08  0.3995858E+04  0.7818609E-02  0.8005383E-01
        1   -1    0    0  501    0  0.00000000000E+00  0.00000000000E+00  0.13898343797E+04  0.13898343797E+04  0.50400001928E-02 0.  1.
       -1   -1    0    0    0  501  0.00000000000E+00  0.00000000000E+00 -0.28720833684E+04  0.28720833684E+04  0.50400001928E-02 0. -1.
    10030    2    1    2    0    0  0.00000000000E+00  0.00000000000E+00 -0.14822489887E+04  0.42619177481E+04  0.39958579588E+04 0.  0.
        4    1    3    3  502    0  0.14186047722E+04  0.12299033064E+04 -0.14697011934E+04  0.23843499856E+04  0.12699999809E+01 0. -1.
       -4    1    3    3    0  502 -0.14186047722E+04 -0.12299033064E+04 -0.12547795308E+02  0.18775677625E+04  0.12699999809E+01 0.  1.
</event>
<event>
 5   0  0.1879500E-08  0.4015965E+04  0.7818609E-02  0.8001334E-01
        1   -1    0    0  501    0  0.00000000000E+00  0.00000000000E+00  0.18879722867E+04  0.18879722867E+04  0.50400001928E-02 0. -1.
       -1   -1    0    0    0  501  0.00000000000E+00  0.00000000000E+00 -0.21356212277E+04  0.21356212277E+04  0.50400001928E-02 0.  1.
    10030    2    1    2    0    0  0.00000000000E+00  0.00000000000E+00 -0.24764894096E+03  0.40235935144E+04  0.40159649863E+04 0.  0.
        1    1    3    3  502    0  0.12352492605E+04  0.84456113483E+03 -0.14653486811E+04  0.20943664922E+04  0.50400001928E-02 0.  1.
       -1    1    3    3    0  502 -0.12352492605E+04 -0.84456113483E+03  0.12176997402E+04  0.19292270222E+04  0.50400001928E-02 0. -1.
</event>
<event>
 5   0  0.1879500E-08  0.4005420E+04  0.7818609E-02  0.8003454E-01
       -1   -1    0    0    0  501  0.00000000000E+00  0.00000000000E+00  0.16606033292E+04  0.16606033292E+04  0.50400001928E-02 0.  1.
        1   -1    0    0  501    0  0.00000000000E+00  0.00000000000E+00 -0.24152947946E+04  0.24152947946E+04  0.50400001928E-02 0. -1.
    10030    2    1    2    0    0  0.00000000000E+00  0.00000000000E+00 -0.75469146536E+03  0.40758981238E+04  0.40054196169E+04 0.  0.
        2    1    3    3  502    0 -0.18721298224E+04  0.28089311145E+03 -0.10423549453E+04  0.21610818689E+04  0.25500000920E-02 0.  1.
       -2    1    3    3    0  502  0.18721298224E+04 -0.28089311145E+03  0.28766347996E+03  0.19148162549E+04  0.25500000920E-02 0. -1.
</event>
<event>
 5   0  0.1879500E-08  0.3987026E+04  0.7818609E-02  0.8007169E-01
       -1   -1    0    0    0  501  0.00000000000E+00  0.00000000000E+00  0.17140114356E+04  0.17140114356E+04  0.50400001928E-02 0. -1.
        1   -1    0    0  501    0  0.00000000000E+00  0.00000000000E+00 -0.23185922526E+04  0.23185922526E+04  0.50400001928E-02 0.  1.
    10030    2    1    2    0    0  0.00000000000E+00  0.00000000000E+00 -0.60458081699E+03  0.40326036881E+04  0.39870257764E+04 0.  0.
        5    1    3    3  502    0 -0.13966238112E+04  0.24025187795E+03  0.11158046303E+04  0.18036965093E+04  0.46999998093E+01 0. -1.
       -5    1    3    3    0  502  0.13966238112E+04 -0.24025187795E+03 -0.17203854473E+04  0.22289071788E+04  0.46999998093E+01 0.  1.
</event>
<event>
 5   0  0.5846812E-08  0.3996537E+04  0.7818609E-02  0.8005246E-01
        2   -1    0    0  501    0  0.00000000000E+00  0.00000000000E+00  0.26871271516E+04  0.26871271516E+04  0.25500000920E-02 0. -1.
       -2   -1    0    0    0  501  0.00000000000E+00  0.00000000000E+00 -0.14860022518E+04  0.14860022518E+04  0.25500000920E-02 0.  1.
    10030    2    1    2    0    0  0.00000000000E+00  0.00000000000E+00  0.12011248997E+04  0.41731294034E+04  0.39965370001E+04 0.  0.
        4    1    3    3  502    0  0.16786241481E+04 -0.51534971421E+03 -0.39536967964E+03  0.17999119853E+04  0.12699999809E+01 0.  1.
       -4    1    3    3    0  502 -0.16786241481E+04  0.51534971421E+03  0.15964945794E+04  0.23732174181E+04  0.12699999809E+01 0. -1.
</event>
<event>
 5   0  0.5846812E-08  0.3997130E+04  0.7818609E-02  0.8005126E-01
        2   -1    0    0  501    0  0.00000000000E+00  0.00000000000E+00  0.12861312253E+04  0.12861312253E+04  0.25500000920E-02 0.  1.
       -2   -1    0    0    0  501  0.00000000000E+00  0.00000000000E+00 -0.31056408651E+04  0.31056408651E+04  0.25500000920E-02 0. -1.
    10030    2    1    2    0    0  0.00000000000E+00  0.00000000000E+00 -0.18195096398E+04  0.43917720904E+04  0.39971298158E+04 0.  0.
        4    1    3    3  502    0  0.91588814300E+03 -0.12234961018E+04  0.50520746383E+03  0.16096676663E+04  0.12699999809E+01 0.  1.
       -4    1    3    3    0  502 -0.91588814300E+03  0.12234961018E+04 -0.23247171036E+04  0.27821044241E+04  0.12699999809E+01 0. -1.
</event>
<event>
 5   0  0.1879500E-08  0.3988478E+04  0.7818609E-02  0.8006875E-01
        1   -1    0    0  501    0  0.00000000000E+00  0.00000000000E+00  0.14446878610E+04  0.14446878610E+04  0.50400001928E-02 0.  1.
       -1   -1    0    0    0  501  0.00000000000E+00  0.00000000000E+00 -0.27528369553E+04  0.27528369553E+04  0.50400001928E-02 0. -1.
    10030    2    1    2    0    0  0.00000000000E+00  0.00000000000E+00 -0.13081490943E+04  0.41975248162E+04  0.39884784731E+04 0.  0.
        2    1    3    3  502    0 -0.48093775667E+03 -0.17429637561E+03 -0.26826143585E+04  0.27309522422E+04  0.25500000920E-02 0. -1.
       -2    1    3    3    0  502  0.48093775667E+03  0.17429637561E+03  0.13744652643E+04  0.14665725741E+04  0.25500000920E-02 0.  1.
</event>
<event>
 5   0  0.5846812E-08  0.3981758E+04  0.7818609E-02  0.8008237E-01
        2   -1    0    0  501    0  0.00000000000E+00  0.00000000000E+00  0.20061371689E+04  0.20061371689E+04  0.25500000920E-02 0. -1.
       -2   -1    0    0    0  501  0.00000000000E+00  0.00000000000E+00 -0.19757368818E+04  0.19757368818E+04  0.25500000920E-02 0.  1.
    10030    2    1    2    0    0  0.00000000000E+00  0.00000000000E+00  0.30400287130E+02  0.39818740507E+04  0.39817580010E+04 0.  0.
        4    1    3    3  502    0  0.24214443681E+03  0.18879621570E+04  0.59879452244E+03  0.19953925748E+04  0.12699999809E+01 0. -1.
       -4    1    3    3    0  502 -0.24214443681E+03 -0.18879621570E+04 -0.56839423531E+03  0.19864814759E+04  0.12699999809E+01 0.  1.
</event>
<event>
 5   0  0.6161563E-08  0.4022724E+04  0.7818609E-02  0.7999978E-01
       -2   -1    0    0    0  501  0.00000000000E+00  0.00000000000E+00  0.15976236561E+04  0.15976236561E+04  0.25500000920E-02 0.  1.
        2   -1    0    0  501    0  0.00000000000E+00  0.00000000000E+00 -0.25322461923E+04  0.25322461923E+04  0.25500000920E-02 0. -1.
    10030    2    1    2    0    0  0.00000000000E+00  0.00000000000E+00 -0.93462253613E+03  0.41298698484E+04  0.40227236643E+04 0.  0.
        1    1    3    3  502    0 -0.13641327855E+03 -0.43070377127E+03  0.15448576733E+04  0.16095650195E+04  0.50400001928E-02 0.  1.
       -1    1    3    3    0  502  0.13641327855E+03  0.43070377127E+03 -0.24794802095E+04  0.25203048289E+04  0.50400001928E-02 0. -1.
</event>
<event>
 5   0  0.5846812E-08  0.3988529E+04  0.7818609E-02  0.8006865E-01
       -2   -1    0    0    0  501  0.00000000000E+00  0.00000000000E+00  0.16568880359E+04  0.16568880359E+04  0.25500000920E-02 0.  1.
        2   -1    0    0  501    0  0.00000000000E+00  0.00000000000E+00 -0.24003376968E+04  0.24003376968E+04  0.25500000920E-02 0. -1.
    10030    2    1    2    0    0  0.00000000000E+00  0.00000000000E+00 -0.74344966089E+03  0.40572257327E+04  0.39885289579E+04 0.  0.
        4    1    3    3  502    0 -0.81877668292E+03  0.16237411437E+04  0.46100712879E+03  0.18760223197E+04  0.12699999809E+01 0.  1.
       -4    1    3    3    0  502  0.81877668292E+03 -0.16237411437E+04 -0.12044567897E+04  0.21812034131E+04  0.12699999809E+01 0. -1.
</event>
<event>
 5   0  0.1879500E-08  0.4052438E+04  0.7818609E-02  0.7994051E-01
       -1   -1    0    0    0  501  0.00000000000E+00  0.00000000000E+00  0.17543776830E+04  0.17543776830E+04  0.50400001928E-02 0.  1.
        1   -1    0    0  501    0  0.00000000000E+00  0.00000000000E+00 -0.23401824836E+04  0.23401824836E+04  0.50400001928E-02 0. -1.
    10030    2    1    2    0    0  0.00000000000E+00  0.00000000000E+00 -0.58580480057E+03  0.40945601666E+04  0.40524382406E+04 0.  0.
        5    1    3    3  502    0 -0.41934167512E+03 -0.70205498063E+03 -0.21660362663E+04  0.23152675511E+04  0.46999998093E+01 0. -1.
       -5    1    3    3    0  502  0.41934167512E+03  0.70205498063E+03  0.15802314657E+04  0.17792926155E+04  0.46999998093E+01 0.  1.
</event>
<event>
 5   0  0.5888700E-08  0.4011113E+04  0.7818609E-02  0.8002308E-01
        2   -1    0    0  501    0  0.00000000000E+00  0.00000000000E+00  0.25550677320E+04  0.25550677320E+04  0.25500000920E-02 0.  1.
       -2   -1    0    0    0  501  0.00000000000E+00  0.00000000000E+00 -0.15742271888E+04  0.15742271888E+04  0.25500000920E-02 0. -1.
    10030    2    1    2    0    0  0.00000000000E+00  0.00000000000E+00  0.98084054317E+03  0.41292949208E+04  0.40111131088E+04 0.  0.
        5    1    3    3  502    0  0.10223098487E+04  0.10150030537E+04 -0.94599924210E+03  0.17234515606E+04  0.46999998093E+01 0. -1.
       -5    1    3    3    0  502 -0.10223098487E+04 -0.10150030537E+04  0.19268397853E+04  0.24058433602E+04  0.46999998093E+01 0.  1.
</event>
<event>
 5   0  0.1879500E-08  0.3967786E+04  0.7818609E-02  0.8011077E-01
       -1   -1    0    0    0  501  0.00000000000E+00  0.00000000000E+00  0.31678145678E+04  0.31678145678E+04  0.50400001928E-02 0.  1.
        1   -1    0    0  501    0  0.00000000000E+00  0.00000000000E+00 -0.12424435322E+04  0.12424435323E+04  0.50400001928E-02 0. -1.
    10030    2    1    2    0    0  0.00000000000E+00  0.00000000000E+00  0.19253710355E+04  0.44102581000E+04  0.39677856399E+04 0.  0.
        5    1    3    3  502    0 -0.35578948139E+03 -0.78575899289E+03  0.29484786275E+04  0.30720598394E+04  0.46999998093E+01 0.  1.
       -5    1    3    3    0  502  0.35578948139E+03  0.78575899289E+03 -0.10231075920E+04  0.13381982606E+04  0.46999998093E+01 0. -1.
</event>
<event>
 5   0  0.1879500E-08  0.3968514E+04  0.7818609E-02  0.8010928E-01
        1   -1    0    0  501    0  0.00000000000E+00  0.00000000000E+00  0.13330020009E+04  0.13330020009E+04  0.50400001928E-02 0. -1.
       -1   -1    0    0    0  501  0.00000000000E+00  0.00000000000E+00 -0.29536915320E+04  0.29536915320E+04  0.50400001928E-02 0.  1.
    10030    2    1    2    0    0  0.00000000000E+00  0.00000000000E+00 -0.16206895311E+04  0.42866935329E+04  0.39685144435E+04 0.  0.
        3    1    3    3  502    0  0.15074009402E+04 -0.51628178341E+03 -0.20877285390E+04  0.26262930030E+04  0.10100000352E+00 0.  1.
       -3    1    3    3    0  502 -0.15074009402E+04  0.51628178341E+03  0.46703900798E+03  0.16604005299E+04  0.10100000352E+00 0. -1.
</event>
<event>
 5   0  0.5945387E-08  0.3993249E+04  0.7818609E-02  0.8005910E-01
        2   -1    0    0  501    0  0.00000000000E+00  0.00000000000E+00  0.17513033590E+04  0.17513033590E+04  0.25500000920E-02 0. -1.
       -2   -1    0    0    0  501  0.00000000000E+00  0.00000000000E+00 -0.22763097255E+04  0.22763097255E+04  0.25500000920E-02 0.  1.
    10030    2    1    2    0    0  0.00000000000E+00  0.00000000000E+00 -0.52500636644E+03  0.40276130845E+04  0.39932487368E+04 0.  0.
        3    1    3    3  502    0 -0.15794318340E+04  0.98147388096E+03 -0.99581770232E+03  0.21093953645E+04  0.10100000352E+00 0.  1.
       -3    1    3    3    0  502  0.15794318340E+04 -0.98147388096E+03  0.47081133588E+03  0.19182177200E+04  0.10100000352E+00 0. -1.
</event>
<event>
 5   0  0.1879500E-08  0.3975814E+04  0.7818609E-02  0.8009443E-01
        1   -1    0    0  501    0  0.00000000000E+00  0.00000000000E+00  0.18810413079E+04  0.18810413079E+04  0.50400001928E-02 0. -1.
       -1   -1    0    0    0  501  0.00000000000E+00  0.00000000000E+00 -0.21008443938E+04  0.21008443939E+04  0.50400001928E-02 0.  1.
    10030    2    1    2    0    0  0.00000000000E+00  0.00000000000E+00 -0.21980308593E+03  0.39818857018E+04  0.39758144254E+04 0.  0.
        1    1    3    3  502    0 -0.16221525057E+04  0.74049083911E+03 -0.98991826634E+03  0.20395204360E+04  0.50400001928E-02 0.  1.
       -1    1    3    3    0  502  0.16221525057E+04 -0.74049083911E+03  0.77011518041E+03  0.19423652658E+04  0.50400001928E-02 0. -1.
</event>
<event>
 5   0  0.1879500E-08  0.4023271E+04  0.7818609E-02  0.7999868E-01
        1   -1    0    0  501    0  0.00000000000E+00  0.00000000000E+00  0.21951560849E+04  0.21951560849E+04  0.50400001928E-02 0. -1.
       -1   -1    0    0    0  501  0.00000000000E+00  0.00000000000E+00 -0.18434575252E+04  0.18434575252E+04  0.50400001928E-02 0.  1.
    10030    2    1    2    0    0  0.00000000000E+00  0.00000000000E+00  0.35169855967E+03  0.40386136101E+04  0.40232708106E+04 0.  0.
        4    1    3    3  502    0 -0.76498999232E+03  0.81700458103E+03 -0.15020421144E+04  0.18731893391E+04  0.12699999809E+01 0.  1.
       -4    1    3    3    0  502  0.76498999232E+03 -0.81700458103E+03  0.18537406741E+04  0.21654242710E+04  0.12699999809E+01 0. -1.
</event>
<event>
 5   0  0.1879500E-08  0.4038689E+04  0.7818609E-02  0.7996787E-01
        1   -1    0    0  501    0  0.00000000000E+00  0.00000000000E+00  0.26684894250E+04  0.26684894250E+04  0.50400001928E-02 0. -1.
       -1   -1    0    0    0  501  0.00000000000E+00  0.00000000000E+00 -0.15281127047E+04  0.15281127047E+04  0.50400001928E-02 0.  1.
    10030    2    1    2    0    0  0.00000000000E+00  0.00000000000E+00  0.11403767203E+04  0.41966021296E+04  0.40386891896E+04 0.  0.
        5    1    3    3  502    0  0.14758511302E+03  0.15858193007E+04  0.18601490573E+04  0.24488325433E+04  0.46999998093E+01 0. -1.
       -5    1    3    3    0  502 -0.14758511302E+03 -0.15858193007E+04 -0.71977233694E+03  0.17477695863E+04  0.46999998093E+01 0.  1.
</event>
<event>
 5   0  0.1879500E-08  0.3997332E+04  0.7818609E-02  0.8005085E-01
        1   -1    0    0  501    0  0.00000000000E+00  0.00000000000E+00  0.25239920880E+04  0.25239920880E+04  0.50400001928E-02 0.  1.
       -1   -1    0    0    0  501  0.00000000000E+00  0.00000000000E+00 -0.15826772863E+04  0.15826772863E+04  0.50400001928E-02 0. -1.
    10030    2    1    2    0    0  0.00000000000E+00  0.00000000000E+00  0.94131480172E+03  0.41066693743E+04  0.39973315841E+04 0.  0.
        1    1    3    3  502    0 -0.72836478353E+03  0.11280784835E+04 -0.10502370777E+04  0.17047211626E+04  0.50400001928E-02 0. -1.
       -1    1    3    3    0  502  0.72836478353E+03 -0.11280784835E+04  0.19915518794E+04  0.24019482116E+04  0.50400001928E-02 0.  1.
</event>
<event>
 5   0  0.1879500E-08  0.4033831E+04  0.7818609E-02  0.7997756E-01
       -1   -1    0    0    0  501  0.00000000000E+00  0.00000000000E+00  0.17544885604E+04  0.17544885604E+04  0.50400001928E-02 0. -1.
        1   -1    0    0  501    0  0.00000000000E+00  0.00000000000E+00 -0.23185953394E+04  0.23185953394E+04  0.50400001928E-02 0.  1.
    10030    2    1    2    0    0  0.00000000000E+00  0.00000000000E+00 -0.56410677899E+03  0.40730838998E+04  0.40338314289E+04 0.  0.
        1    1    3    3  502    0  0.30762841007E+02  0.78333095734E+03  0.15943610004E+04  0.17766656244E+04  0.50400001928E-02 0. -1.
       -1    1    3    3    0  502 -0.30762841007E+02 -0.78333095734E+03 -0.21584677794E+04  0.22964182755E+04  0.50400001928E-02 0.  1.
</event>
<event>
 5   0  0.5846812E-08  0.3985799E+04  0.7818609E-02  0.8007417E-01
        2   -1    0    0  501    0  0.00000000000E+00  0.00000000000E+00  0.18780832654E+04  0.18780832654E+04  0.25500000920E-02 0. -1.
       -2   -1    0    0    0  501  0.00000000000E+00  0.00000000000E+00 -0.21147349137E+04  0.21147349137E+04  0.25500000920E-02 0.  1.
    10030    2    1    2    0    0  0.00000000000E+00  0.00000000000E+00 -0.23665164827E+03  0.39928181791E+04  0.39857989173E+04 0.  0.
        4    1    3    3  502    0  0.28747450855E+03 -0.60254676514E+03  0.17627303218E+04  0.18849201568E+04  0.12699999809E+01 0. -1.
       -4    1    3    3    0  502 -0.28747450855E+03  0.60254676514E+03 -0.19993819701E+04  0.21078980223E+04  0.12699999809E+01 0.  1.
</event>
<event>
 5   0  0.1879500E-08  0.3981312E+04  0.7818609E-02  0.8008327E-01
       -1   -1    0    0    0  501  0.00000000000E+00  0.00000000000E+00  0.19488848860E+04  0.19488848860E+04  0.50400001928E-02 0.  1.
        1   -1    0    0  501    0  0.00000000000E+00  0.00000000000E+00 -0.20333224304E+04  0.20333224304E+04  0.50400001928E-02 0. -1.
    10030    2    1    2    0    0  0.00000000000E+00  0.00000000000E+00 -0.84437544388E+02  0.39822073164E+04  0.39813120214E+04 0.  0.
        4    1    3    3  502    0 -0.17056072064E+04 -0.34362340188E+03  0.92523022334E+03  0.19705901562E+04  0.12699999809E+01 0.  1.
       -4    1    3    3    0  502  0.17056072064E+04  0.34362340188E+03 -0.10096677677E+04  0.20116171601E+04  0.12699999809E+01 0. -1.
</event>
<event>
 5   0  0.1879500E-08  0.4018894E+04  0.7818609E-02  0.8000746E-01
       -1   -1    0    0    0  501  0.00000000000E+00  0.00000000000E+00  0.13415198215E+04  0.13415198215E+04  0.50400001928E-02 0.  1.
        1   -1    0    0  501    0  0.00000000000E+00  0.00000000000E+00 -0.30099277337E+04  0.30099277337E+04  0.50400001928E-02 0. -1.
    10030    2    1    2    0    0  0.00000000000E+00  0.00000000000E+00 -0.16684079122E+04  0.43514475552E+04  0.40188942340E+04 0.  0.
        1    1    3    3  502    0  0.44668243985E+03  0.19482397506E+04 -0.10579803502E+04  0.22615228828E+04  0.50400001928E-02 0.  1.
       -1    1    3    3    0  502 -0.44668243985E+03 -0.19482397506E+04 -0.61042756201E+03  0.20899246724E+04  0.50400001928E-02 0. -1.
</event>
<event>
 5   0  0.1879500E-08  0.3998668E+04  0.7818609E-02  0.8004815E-01
        1   -1    0    0  501    0  0.00000000000E+00  0.00000000000E+00  0.16439382103E+04  0.16439382103E+04  0.50400001928E-02 0.  1.
       -1   -1    0    0    0  501  0.00000000000E+00  0.00000000000E+00 -0.24315607370E+04  0.24315607370E+04  0.50400001928E-02 0. -1.
    10030    2    1    2    0    0  0.00000000000E+00  0.00000000000E+00 -0.78762252670E+03  0.40754989473E+04  0.39986675812E+04 0.  0.
        3    1    3    3  502    0 -0.19351757147E+04  0.48860691502E+03 -0.51308037468E+03  0.20607991763E+04  0.10100000352E+00 0.  1.
       -3    1    3    3    0  502  0.19351757147E+04 -0.48860691502E+03 -0.27454215203E+03  0.20146997710E+04  0.10100000352E+00 0. -1.
</event>
<event>
 5   0  0.1879500E-08  0.3961347E+04  0.7818609E-02  0.8012390E-01
        1   -1    0    0  501    0  0.00000000000E+00  0.00000000000E+00  0.23874939382E+04  0.23874939382E+04  0.50400001928E-02 0. -1.
       -1   -1    0    0    0  501  0.00000000000E+00  0.00000000000E+00 -0.16431738786E+04  0.16431738786E+04  0.50400001928E-02 0.  1.
    10030    2    1    2    0    0  0.00000000000E+00  0.00000000000E+00  0.74432005968E+03  0.40306678168E+04  0.39613470813E+04 0.  0.
        5    1    3    3  502    0  0.94853700466E+03  0.15790753823E+04 -0.36848165624E+03  0.18785639018E+04  0.46999998093E+01 0. -1.
       -5    1    3    3    0  502 -0.94853700466E+03 -0.15790753823E+04  0.11128017159E+04  0.21521039150E+04  0.46999998093E+01 0.  1.
</event>
<event>
 5   0  0.5846812E-08  0.4004853E+04  0.7818609E-02  0.8003568E-01
       -2   -1    0    0    0  501  0.00000000000E+00  0.00000000000E+00  0.14282566219E+04  0.14282566219E+04  0.25500000920E-02 0.  1.
        2   -1    0    0  501    0  0.00000000000E+00  0.00000000000E+00 -0.28074163929E+04  0.28074163929E+04  0.25500000920E-02 0. -1.
    10030    2    1    2    0    0  0.00000000000E+00  0.00000000000E+00 -0.13791597710E+04  0.42356730147E+04  0.40048525833E+04 0.  0.
        4    1    3    3  502    0  0.36091792551E+03  0.38509522112E+03  0.13533676272E+04  0.14526409141E+04  0.12699999809E+01 0.  1.
       -4    1    3    3    0  502 -0.36091792551E+03 -0.38509522112E+03 -0.27325273982E+04  0.27830321006E+04  0.12699999809E+01 0. -1.
</event>
<event>
 5   0  0.1879500E-08  0.4004079E+04  0.7818609E-02  0.8003724E-01
        1   -1    0    0  501    0  0.00000000000E+00  0.00000000000E+00  0.26690885995E+04  0.26690885995E+04  0.50400001928E-02 0.  1.
       -1   -1    0    0    0  501  0.00000000000E+00  0.00000000000E+00 -0.15016966287E+04  0.15016966287E+04  0.50400001928E-02 0. -1.
    10030    2    1    2    0    0  0.00000000000E+00  0.00000000000E+00  0.11673919708E+04  0.41707852282E+04  0.40040785965E+04 0.  0.
        2    1    3    3  502    0  0.16189642191E+04  0.52075504980E+03  0.16840534269E+04  0.23933798088E+04  0.25500000920E-02 0.  1.
       -2    1    3    3    0  502 -0.16189642191E+04 -0.52075504980E+03 -0.51666145610E+03  0.17774054194E+04  0.25500000920E-02 0. -1.
</event>
<event>
 5   0  0.1879500E-08  0.4028893E+04  0.7818609E-02  0.7998743E-01
       -1   -1    0    0    0  501  0.00000000000E+00  0.00000000000E+00  0.14230450754E+04  0.14230450754E+04  0.50400001928E-02 0.  1.
        1   -1    0    0  501    0  0.00000000000E+00  0.00000000000E+00 -0.28516270975E+04  0.28516270975E+04  0.50400001928E-02 0. -1.
    10030    2    1    2    0    0  0.00000000000E+00  0.00000000000E+00 -0.14285820220E+04  0.42746721729E+04  0.40288926012E+04 0.  0.
        4    1    3    3  502    0 -0.76223903802E+03 -0.11200072236E+04  0.86748370059E+03  0.16087119430E+04  0.12699999809E+01 0.  1.
       -4    1    3    3    0  502  0.76223903802E+03  0.11200072236E+04 -0.22960657226E+04  0.26659602299E+04  0.12699999809E+01 0. -1.
</event>
<event>
 5   0  0.5846812E-08  0.3973429E+04  0.7818609E-02  0.8009928E-01
       -2   -1    0    0    0  501  0.00000000000E+00  0.00000000000E+00  0.19678629505E+04  0.19678629505E+04  0.25500000920E-02 0.  1.
        2   -1    0    0  501    0  0.00000000000E+00  0.00000000000E+00 -0.20057468590E+04  0.20057468590E+04  0.25500000920E-02 0. -1.
    10030    2    1    2    0    0  0.00000000000E+00  0.00000000000E+00 -0.37883908472E+02  0.39736098095E+04  0.39734292151E+04 0.  0.
        4    1    3    3  502    0  0.51148083333E+03  0.21009417712E+03 -0.19272427996E+04  0.20049984109E+04  0.12699999809E+01 0. -1.
       -4    1    3    3    0  502 -0.51148083333E+03 -0.21009417712E+03  0.18893588912E+04  0.19686113986E+04  0.12699999809E+01 0.  1.
</event>
<event>
 5   0  0.5888700E-08  0.3990930E+04  0.7818609E-02  0.8006379E-01
        2   -1    0    0  501    0  0.00000000000E+00  0.00000000000E+00  0.17706197146E+04  0.17706197146E+04  0.25500000920E-02 0. -1.
       -2   -1    0    0    0  501  0.00000000000E+00  0.00000000000E+00 -0.22488626070E+04  0.22488626070E+04  0.25500000920E-02 0.  1.
    10030    2    1    2    0    0  0.00000000000E+00  0.00000000000E+00 -0.47824289246E+03  0.40194823216E+04  0.39909299504E+04 0.  0.
        5    1    3    3  502    0 -0.17900556254E+04  0.85913518635E+03 -0.39090439813E+02  0.19859412285E+04  0.46999998093E+01 0. -1.
       -5    1    3    3    0  502  0.17900556254E+04 -0.85913518635E+03 -0.43915245264E+03  0.20335410931E+04  0.46999998093E+01 0.  1.
</event>
<event>
 5   0  0.1879500E-08  0.3985032E+04  0.7818609E-02  0.8007573E-01
       -1   -1    0    0    0  501  0.00000000000E+00  0.00000000000E+00  0.20090225261E+04  0.20090225261E+04  0.50400001928E-02 0. -1.
        1   -1    0    0  501    0  0.00000000000E+00  0.00000000000E+00 -0.19761454150E+04  0.19761454150E+04  0.50400001928E-02 0.  1.
    10030    2    1    2    0    0  0.00000000000E+00  0.00000000000E+00  0.32877111108E+02  0.39851679410E+04  0.39850323228E+04 0.  0.
        4    1    3    3  502    0  0.78139085637E+03  0.63499365384E+03  0.17358953454E+04  0.20067692628E+04  0.12699999809E+01 0. -1.
       -4    1    3    3    0  502 -0.78139085637E+03 -0.63499365384E+03 -0.17030182343E+04  0.19783986783E+04  0.12699999809E+01 0.  1.
</event>
<event>
 5   0  0.5846812E-08  0.3929831E+04  0.7818609E-02  0.8018853E-01
       -2   -1    0    0    0  501  0.00000000000E+00  0.00000000000E+00  0.16219483461E+04  0.16219483461E+04  0.25500000920E-02 0.  1.
        2   -1    0    0  501    0  0.00000000000E+00  0.00000000000E+00 -0.23804040293E+04  0.23804040293E+04  0.25500000920E-02 0. -1.
    10030    2    1    2    0    0  0.00000000000E+00  0.00000000000E+00 -0.75845568321E+03  0.40023523755E+04  0.39298307233E+04 0.  0.
        4    1    3    3  502    0 -0.15627136814E+04  0.35670958722E+03 -0.15366753151E+04  0.22205153493E+04  0.12699999809E+01 0. -1.
       -4    1    3    3    0  502  0.15627136814E+04 -0.35670958722E+03  0.77821963189E+03  0.17818370262E+04  0.12699999809E+01 0.  1.
</event>
<event>
 5   0  0.5945387E-08  0.4004037E+04  0.7818609E-02  0.8003733E-01
        2   -1    0    0  501    0  0.00000000000E+00  0.00000000000E+00  0.19621839938E+04  0.19621839938E+04  0.25500000920E-02 0. -1.
       -2   -1    0    0    0  501  0.00000000000E+00  0.00000000000E+00 -0.20426614787E+04  0.20426614787E+04  0.25500000920E-02 0.  1.
    10030    2    1    2    0    0  0.00000000000E+00  0.00000000000E+00 -0.80477484833E+02  0.40048454725E+04  0.40040367921E+04 0.  0.
        3    1    3    3  502    0 -0.17790868949E+04  0.88214705363E+03  0.21426115713E+03  0.19973085534E+04  0.10100000352E+00 0. -1.
       -3    1    3    3    0  502  0.17790868949E+04 -0.88214705363E+03 -0.29473864196E+03  0.20075369190E+04  0.10100000352E+00 0.  1.
</event>
<event>
 5   0  0.1879500E-08  0.3981870E+04  0.7818609E-02  0.8008214E-01
       -1   -1    0    0    0  501  0.00000000000E+00  0.00000000000E+00  0.26723693825E+04  0.26723693825E+04  0.50400001928E-02 0. -1.
        1   -1    0    0  501    0  0.00000000000E+00  0.00000000000E+00 -0.14832616383E+04  0.14832616383E+04  0.50400001928E-02 0.  1.
    10030    2    1    2    0    0  0.00000000000E+00  0.00000000000E+00  0.11891077442E+04  0.41556310209E+04  0.39818704090E+04 0.  0.
        5    1    3    3  502    0 -0.77162423506E+03  0.18248710227E+04  0.39046277166E+03  0.20194161225E+04  0.46999998093E+01 0. -1.
       -5    1    3    3    0  502  0.77162423506E+03 -0.18248710227E+04  0.79864497256E+03  0.21362148984E+04  0.46999998093E+01 0.  1.
</event>
<event>
 5   0  0.5951623E-08  0.4057723E+04  0.7818609E-02  0.7993002E-01
        2   -1    0    0  501    0  0.00000000000E+00  0.00000000000E+00  0.17182634712E+04  0.17182634712E+04  0.25500000920E-02 0.  1.
       -2   -1    0    0    0  501  0.00000000000E+00  0.00000000000E+00 -0.23956036758E+04  0.23956036758E+04  0.25500000920E-02 0. -1.
    10030    2    1    2    0    0  0.00000000000E+00  0.00000000000E+00 -0.67734020452E+03  0.41138671470E+04  0.40577226557E+04 0.  0.
        2    1    3    3  502    0  0.18697318495E+04 -0.26653634918E+02 -0.11367536855E+04  0.21883364794E+04  0.25500000920E-02 0.  1.
       -2    1    3    3    0  502 -0.18697318495E+04  0.26653634918E+02  0.45941348101E+03  0.19255306676E+04  0.25500000920E-02 0. -1.
</event>
<event>
 5   0  0.5951623E-08  0.3995924E+04  0.7818609E-02  0.8005369E-01
       -2   -1    0    0    0  501  0.00000000000E+00  0.00000000000E+00  0.15553304866E+04  0.15553304866E+04  0.25500000920E-02 0. -1.
        2   -1    0    0  501    0  0.00000000000E+00  0.00000000000E+00 -0.25665624144E+04  0.25665624144E+04  0.25500000920E-02 0.  1.
    10030    2    1    2    0    0  0.00000000000E+00  0.00000000000E+00 -0.10112319278E+04  0.41218929011E+04  0.39959243081E+04 0.  0.
        2    1    3    3  502    0 -0.10458697036E+04 -0.29675508415E+03  0.12235171110E+04  0.16367349015E+04  0.25500000920E-02 0.  1.
       -2    1    3    3    0  502  0.10458697036E+04  0.29675508415E+03 -0.22347490387E+04  0.24851579996E+04  0.25500000920E-02 0. -1.
</event>
<event>
 5   0  0.1879500E-08  0.3997329E+04  0.7818609E-02  0.8005086E-01
        1   -1    0    0  501    0  0.00000000000E+00  0.00000000000E+00  0.21392500552E+04  0.21392500552E+04  0.50400001928E-02 0. -1.
       -1   -1    0    0    0  501  0.00000000000E+00  0.00000000000E+00 -0.18673179067E+04  0.18673179067E+04  0.50400001928E-02 0.  1.
    10030    2    1    2    0    0  0.00000000000E+00  0.00000000000E+00  0.27193214854E+03  0.40065679619E+04  0.39973290758E+04 0.  0.
        3    1    3    3  502    0  0.47080803080E+03  0.19185866930E+04 -0.16809099825E+03  0.19826471432E+04  0.10100000352E+00 0.  1.
       -3    1    3    3    0  502 -0.47080803080E+03 -0.19185866930E+04  0.44002314679E+03  0.20239208187E+04  0.10100000352E+00 0. -1.
</event>
<event>
 5   0  0.5945387E-08  0.4038546E+04  0.7818609E-02  0.7996815E-01
        2   -1    0    0  501    0  0.00000000000E+00  0.00000000000E+00  0.14349071782E+04  0.14349071782E+04  0.25500000920E-02 0. -1.
       -2   -1    0    0    0  501  0.00000000000E+00  0.00000000000E+00 -0.28416218904E+04  0.28416218904E+04  0.25500000920E-02 0.  1.
    10030    2    1    2    0    0  0.00000000000E+00  0.00000000000E+00 -0.14067147122E+04  0.42765290686E+04  0.40385460989E+04 0.  0.
        3    1    3    3  502    0 -0.42885142960E+03  0.11955068961E+02  0.13860893370E+04  0.14509652417E+04  0.10100000352E+00 0. -1.
       -3    1    3    3    0  502  0.42885142960E+03 -0.11955068961E+02 -0.27928040492E+04  0.28255638269E+04  0.10100000352E+00 0.  1.
</event>
<event>
 5   0  0.1879500E-08  0.3997329E+04  0.7818609E-02  0.8005086E-01
        1   -1    0    0  501    0  0.00000000000E+00  0.00000000000E+00  0.16274516411E+04  0.16274516412E+04  0.50400001928E-02 0.  1.
       -1   -1    0    0    0  501  0.00000000000E+00  0.00000000000E+00 -0.24545489747E+04  0.24545489747E+04  0.50400001928E-02 0. -1.
    10030    2    1    2    0    0  0.00000000000E+00  0.00000000000E+00 -0.82709733352E+03  0.40820006158E+04  0.39973289868E+04 0.  0.
        4    1    3    3  502    0  0.11185648160E+03 -0.21657819716E+03  0.16122150750E+04  0.16305388830E+04  0.12699999809E+01 0.  1.
       -4    1    3    3    0  502 -0.11185648160E+03  0.21657819716E+03 -0.24393124086E+04  0.24514617328E+04  0.12699999809E+01 0. -1.
</event>
<event>
 5   0  0.1879500E-08  0.4005031E+04  0.7818609E-02  0.8003532E-01
        1   -1    0    0  501    0  0.00000000000E+00  0.00000000000E+00  0.23100053354E+04  0.23100053355E+04  0.50400001928E-02 0. -1.
       -1   -1    0    0    0  501  0.00000000000E+00  0.00000000000E+00 -0.17359562236E+04  0.17359562236E+04  0.50400001928E-02 0.  1.
    10030    2    1    2    0    0  0.00000000000E+00  0.00000000000E+00  0.57404911187E+03  0.40459615590E+04  0.40050309055E+04 0.  0.
        3    1    3    3  502    0 -0.38304066264E+03 -0.11843404712E+04 -0.12976640917E+04  0.17981419872E+04  0.10100000352E+00 0.  1.
       -3    1    3    3    0  502  0.38304066264E+03  0.11843404712E+04  0.18717132036E+04  0.22478195719E+04  0.10100000352E+00 0. -1.
</event>
<event>
 5   0  0.5951623E-08  0.4016976E+04  0.7818609E-02  0.8001131E-01
       -2   -1    0    0    0  501  0.00000000000E+00  0.00000000000E+00  0.15943714070E+04  0.15943714070E+04  0.25500000920E-02 0. -1.
        2   -1    0    0  501    0  0.00000000000E+00  0.00000000000E+00 -0.25301663504E+04  0.25301663504E+04  0.25500000920E-02 0.  1.
    10030    2    1    2    0    0  0.00000000000E+00  0.00000000000E+00 -0.93579494347E+03  0.41245377574E+04  0.40169764171E+04 0.  0.
        2    1    3    3  502    0 -0.57811259974E+03  0.19099096985E+04 -0.23363110782E+03  0.20091174005E+04  0.25500000920E-02 0.  1.
       -2    1    3    3    0  502  0.57811259974E+03 -0.19099096985E+04 -0.70216383565E+03  0.21154203569E+04  0.25500000920E-02 0. -1.
</event>
<event>
 5   0  0.1879500E-08  0.4002440E+04  0.7818609E-02  0.8004054E-01
        1   -1    0    0  501    0  0.00000000000E+00  0.00000000000E+00  0.16171421143E+04  0.16171421143E+04  0.50400001928E-02 0.  1.
       -1   -1    0    0    0  501  0.00000000000E+00  0.00000000000E+00 -0.24765183249E+04  0.24765183249E+04  0.50400001928E-02 0. -1.
    10030    2    1    2    0    0  0.00000000000E+00  0.00000000000E+00 -0.85937621063E+03  0.40936604392E+04  0.40024402956E+04 0.  0.
        5    1    3    3  502    0 -0.17662314726E+04 -0.51308692695E+03  0.37697461016E+03  0.18774886833E+04  0.46999998093E+01 0. -1.
       -5    1    3    3    0  502  0.17662314726E+04  0.51308692695E+03 -0.12363508208E+04  0.22161717558E+04  0.46999998093E+01 0.  1.
</event>
<event>
 5   0  0.5846812E-08  0.3999923E+04  0.7818609E-02  0.8004562E-01
       -2   -1    0    0    0  501  0.00000000000E+00  0.00000000000E+00  0.22454564657E+04  0.22454564658E+04  0.25500000920E-02 0. -1.
        2   -1    0    0  501    0  0.00000000000E+00  0.00000000000E+00 -0.17813063069E+04  0.17813063069E+04  0.25500000920E-02 0.  1.
    10030    2    1    2    0    0  0.00000000000E+00  0.00000000000E+00  0.46415015887E+03  0.40267627726E+04  0.39999228814E+04 0.  0.
        4    1    3    3  502    0  0.42036389776E+03 -0.12474497108E+04  0.17478367169E+04  0.21880976645E+04  0.12699999809E+01 0. -1.
       -4    1    3    3    0  502 -0.42036389776E+03  0.12474497108E+04 -0.12836865580E+04  0.18386651081E+04  0.12699999809E+01 0.  1.
</event>
<event>
 5   0  0.5945387E-08  0.4028413E+04  0.7818609E-02  0.7998839E-01
       -2   -1    0    0    0  501  0.00000000000E+00  0.00000000000E+00  0.22971444289E+04  0.22971444289E+04  0.25500000920E-02 0. -1.
        2   -1    0    0  501    0  0.00000000000E+00  0.00000000000E+00 -0.17661175532E+04  0.17661175532E+04  0.25500000920E-02 0.  1.
    10030    2    1    2    0    0  0.00000000000E+00  0.00000000000E+00  0.53102687578E+03  0.40632619821E+04  0.40284126393E+04 0.  0.
        3    1    3    3  502    0 -0.11606158790E+01 -0.26276555334E+03 -0.17487550611E+04  0.17683866537E+04  0.10100000352E+00 0.  1.
       -3    1    3    3    0  502  0.11606158790E+01  0.26276555334E+03  0.22797819369E+04  0.22948753284E+04  0.10100000352E+00 0. -1.
</event>
<event>
 5   0  0.5888700E-08  0.4027913E+04  0.7818609E-02  0.7998939E-01
       -2   -1    0    0    0  501  0.00000000000E+00  0.00000000000E+00  0.14470113536E+04  0.14470113536E+04  0.25500000920E-02 0.  1.
        2   -1    0    0  501    0  0.00000000000E+00  0.00000000000E+00 -0.28030334193E+04  0.28030334193E+04  0.25500000920E-02 0. -1.
    10030    2    1    2    0    0  0.00000000000E+00  0.00000000000E+00 -0.13560220657E+04  0.42500447729E+04  0.40279131978E+04 0.  0.
        5    1    3    3  502    0 -0.15700510960E+04  0.11797801954E+04 -0.20724784071E+03  0.19748203744E+04  0.46999998093E+01 0.  1.
       -5    1    3    3    0  502  0.15700510960E+04 -0.11797801954E+04 -0.11487742250E+04  0.22752243985E+04  0.46999998093E+01 0. -1.
</event>
<event>
 5   0  0.1879500E-08  0.4000010E+04  0.7818609E-02  0.8004544E-01
        1   -1    0    0  501    0  0.00000000000E+00  0.00000000000E+00  0.27419668105E+04  0.27419668105E+04  0.50400001928E-02 0.  1.
       -1   -1    0    0    0  501  0.00000000000E+00  0.00000000000E+00 -0.14588144116E+04  0.14588144117E+04  0.50400001928E-02 0. -1.
    10030    2    1    2    0    0  0.00000000000E+00  0.00000000000E+00  0.12831523988E+04  0.42007812221E+04  0.40000103497E+04 0.  0.
        4    1    3    3  502    0 -0.70293946316E+03  0.12878900917E+04  0.20689244335E+04  0.25363822073E+04  0.12699999809E+01 0.  1.
       -4    1    3    3    0  502  0.70293946316E+03 -0.12878900917E+04 -0.78577203465E+03  0.16643990148E+04  0.12699999809E+01 0. -1.
</event>
<event>
 5   0  0.1879500E-08  0.4004676E+04  0.7818609E-02  0.8003604E-01
        1   -1    0    0  501    0  0.00000000000E+00  0.00000000000E+00  0.17628798961E+04  0.17628798961E+04  0.50400001928E-02 0.  1.
       -1   -1    0    0    0  501  0.00000000000E+00  0.00000000000E+00 -0.22743222838E+04  0.22743222838E+04  0.50400001928E-02 0. -1.
    10030    2    1    2    0    0  0.00000000000E+00  0.00000000000E+00 -0.51144238772E+03  0.40372021798E+04  0.40046757827E+04 0.  0.
        3    1    3    3  502    0  0.48024347987E+03  0.95399684006E+03 -0.19631756865E+04  0.22349054918E+04  0.10100000352E+00 0. -1.
       -3    1    3    3    0  502 -0.48024347987E+03 -0.95399684006E+03  0.14517332988E+04  0.18022966881E+04  0.10100000352E+00 0.  1.
</event>
<event>
 5   0  0.1879500E-08  0.3987532E+04  0.7818609E-02  0.8007066E-01
        1   -1    0    0  501    0  0.00000000000E+00  0.00000000000E+00  0.24484300268E+04  0.24484300268E+04  0.50400001928E-02 0. -1.
       -1   -1    0    0    0  501  0.00000000000E+00  0.00000000000E+00 -0.16235314714E+04  0.16235314714E+04  0.50400001928E-02 0.  1.
    10030    2    1    2    0    0  0.00000000000E+00  0.00000000000E+00  0.82489855540E+03  0.40719614982E+04  0.39875321712E+04 0.  0.
        5    1    3    3  502    0 -0.75800467400E+03 -0.97068941906E+02 -0.14680318122E+04  0.16550326151E+04  0.46999998093E+01 0.  1.
       -5    1    3    3    0  502  0.75800467400E+03  0.97068941906E+02  0.22929303676E+04  0.24169288831E+04  0.46999998093E+01 0. -1.
</event>
<event>
 5   0  0.5846812E-08  0.3998715E+04  0.7818609E-02  0.8004806E-01
        2   -1    0    0  501    0  0.00000000000E+00  0.00000000000E+00  0.25167981140E+04  0.25167981140E+04  0.25500000920E-02 0. -1.
       -2   -1    0    0    0  501  0.00000000000E+00  0.00000000000E+00 -0.15883000988E+04  0.15883000988E+04  0.25500000920E-02 0.  1.
    10030    2    1    2    0    0  0.00000000000E+00  0.00000000000E+00  0.92849801513E+03  0.41050982128E+04  0.39987151402E+04 0.  0.
        4    1    3    3  502    0  0.13367562975E+04  0.13327912190E+04  0.11407019899E+04  0.22055503792E+04  0.12699999809E+01 0. -1.
       -4    1    3    3    0  502 -0.13367562975E+04 -0.13327912190E+04 -0.21220397477E+03  0.18995478336E+04  0.12699999809E+01 0.  1.
</event>
<event>
 5   0  0.5846812E-08  0.4021479E+04  0.7818609E-02  0.8000227E-01
        2   -1    0    0  501    0  0.00000000000E+00  0.00000000000E+00  0.20394410761E+04  0.20394410761E+04  0.25500000920E-02 0.  1.
       -2   -1    0    0    0  501  0.00000000000E+00  0.00000000000E+00 -0.19824421360E+04  0.19824421360E+04  0.25500000920E-02 0. -1.
    10030    2    1    2    0    0  0.00000000000E+00  0.00000000000E+00  0.56998940104E+02  0.40218832121E+04  0.40214792916E+04 0.  0.
        4    1    3    3  502    0 -0.13692760955E+04  0.80134900699E+03  0.12639352690E+04  0.20284504514E+04  0.12699999809E+01 0. -1.
       -4    1    3    3    0  502  0.13692760955E+04 -0.80134900699E+03 -0.12069363288E+04  0.19934327607E+04  0.12699999809E+01 0.  1.
</event>
<event>
 5   0  0.5888700E-08  0.3997889E+04  0.7818609E-02  0.8004973E-01
        2   -1    0    0  501    0  0.00000000000E+00  0.00000000000E+00  0.18882591764E+04  0.18882591764E+04  0.25500000920E-02 0.  1.
       -2   -1    0    0    0  501  0.00000000000E+00  0.00000000000E+00 -0.21161178310E+04  0.21161178310E+04  0.25500000920E-02 0. -1.
    10030    2    1    2    0    0  0.00000000000E+00  0.00000000000E+00 -0.22785865460E+03  0.40043770073E+04  0.39978888992E+04 0.  0.
        5    1    3    3  502    0 -0.11139679301E+04 -0.13375049526E+04 -0.10983329269E+04  0.20582034292E+04  0.46999998093E+01 0. -1.
       -5    1    3    3    0  502  0.11139679301E+04  0.13375049526E+04  0.87047427231E+03  0.19461735782E+04  0.46999998093E+01 0.  1.
</event>
<event>
 5   0  0.5846812E-08  0.4024359E+04  0.7818609E-02  0.7999651E-01
        2   -1    0    0  501    0  0.00000000000E+00  0.00000000000E+00  0.13898606002E+04  0.13898606002E+04  0.25500000920E-02 0.  1.
       -2   -1    0    0    0  501  0.00000000000E+00  0.00000000000E+00 -0.29131457013E+04  0.29131457013E+04  0.25500000920E-02 0. -1.
    10030    2    1    2    0    0  0.00000000000E+00  0.00000000000E+00 -0.15232851011E+04  0.43030063015E+04  0.40243590461E+04 0.  0.
        4    1    3    3  502    0  0.24758099908E+03 -0.79697367630E+03  0.11960895857E+04  0.14584564792E+04  0.12699999809E+01 0.  1.
       -4    1    3    3    0  502 -0.24758099908E+03  0.79697367630E+03 -0.27193746868E+04  0.28445498223E+04  0.12699999809E+01 0. -1.
</event>
<event>
 5   0  0.5951623E-08  0.3978726E+04  0.7818609E-02  0.8008852E-01
       -2   -1    0    0    0  501  0.00000000000E+00  0.00000000000E+00  0.15905812031E+04  0.15905812031E+04  0.25500000920E-02 0. -1.
        2   -1    0    0  501    0  0.00000000000E+00  0.00000000000E+00 -0.24881251348E+04  0.24881251348E+04  0.25500000920E-02 0.  1.
    10030    2    1    2    0    0  0.00000000000E+00  0.00000000000E+00 -0.89754393170E+03  0.40787063379E+04  0.39787259621E+04 0.  0.
        2    1    3    3  502    0 -0.26234565662E+03  0.75172316103E+03  0.14201285765E+04  0.16280903317E+04  0.25500000920E-02 0. -1.
       -2    1    3    3    0  502  0.26234565662E+03 -0.75172316103E+03 -0.23176725082E+04  0.24506160062E+04  0.25500000920E-02 0.  1.
</event>
<event>
 5   0  0.5888700E-08  0.4006998E+04  0.7818609E-02  0.8003136E-01
       -2   -1    0    0    0  501  0.00000000000E+00  0.00000000000E+00  0.17750262361E+04  0.17750262361E+04  0.25500000920E-02 0.  1.
        2   -1    0    0  501    0  0.00000000000E+00  0.00000000000E+00 -0.22613798000E+04  0.22613798000E+04  0.25500000920E-02 0. -1.
    10030    2    1    2    0    0  0.00000000000E+00  0.00000000000E+00 -0.48635356396E+03  0.40364060361E+04  0.40069981156E+04 0.  0.
        5    1    3    3  502    0  0.56929654343E+03  0.19196640620E+04 -0.31280511974E+03  0.20265926572E+04  0.46999998093E+01 0. -1.
       -5    1    3    3    0  502 -0.56929654343E+03 -0.19196640620E+04 -0.17354844422E+03  0.20098133789E+04  0.46999998093E+01 0.  1.
</event>
<event>
 5   0  0.5888700E-08  0.3968763E+04  0.7818609E-02  0.8010878E-01
       -2   -1    0    0    0  501  0.00000000000E+00  0.00000000000E+00  0.14039490590E+04  0.14039490590E+04  0.25500000920E-02 0. -1.
        2   -1    0    0  501    0  0.00000000000E+00  0.00000000000E+00 -0.28047808342E+04  0.28047808342E+04  0.25500000920E-02 0.  1.
    10030    2    1    2    0    0  0.00000000000E+00  0.00000000000E+00 -0.14008317752E+04  0.42087298932E+04  0.39687627356E+04 0.  0.
        5    1    3    3  502    0  0.13941418159E+04  0.13700926661E+04 -0.33774030033E+03  0.19836521663E+04  0.46999998093E+01 0. -1.
       -5    1    3    3    0  502 -0.13941418159E+04 -0.13700926661E+04 -0.10630914749E+04  0.22250777269E+04  0.46999998093E+01 0.  1.
</event>
<event>
 5   0  0.1879500E-08  0.3975141E+04  0.7818609E-02  0.8009580E-01
        1   -1    0    0  501    0  0.00000000000E+00  0.00000000000E+00  0.16738592542E+04  0.16738592542E+04  0.50400001928E-02 0. -1.
       -1   -1    0    0    0  501  0.00000000000E+00  0.00000000000E+00 -0.23600766828E+04  0.23600766828E+04  0.50400001928E-02 0.  1.
    10030    2    1    2    0    0  0.00000000000E+00  0.00000000000E+00 -0.68621742865E+03  0.40339359370E+04  0.39751408509E+04 0.  0.
        2    1    3    3  502    0  0.19697100122E+04  0.19815528612E+03 -0.52296772262E+03  0.20475639889E+04  0.25500000920E-02 0.  1.
       -2    1    3    3    0  502 -0.19697100122E+04 -0.19815528612E+03 -0.16324970603E+03  0.19863719481E+04  0.25500000920E-02 0. -1.
</event>
<event>
 5   0  0.1879500E-08  0.3976002E+04  0.7818609E-02  0.8009405E-01
       -1   -1    0    0    0  501  0.00000000000E+00  0.00000000000E+00  0.21696471316E+04  0.21696471316E+04  0.50400001928E-02 0.  1.
        1   -1    0    0  501    0  0.00000000000E+00  0.00000000000E+00 -0.18215622147E+04  0.18215622147E+04  0.50400001928E-02 0. -1.
    10030    2    1    2    0    0  0.00000000000E+00  0.00000000000E+00  0.34808491688E+03  0.39912093463E+04  0.39760016268E+04 0.  0.
        2    1    3    3  502    0  0.96010378116E+03 -0.13654069542E+04 -0.90990799068E+03  0.19010702177E+04  0.25500000920E-02 0. -1.
       -2    1    3    3    0  502 -0.96010378116E+03  0.13654069542E+04  0.12579929076E+04  0.20901391286E+04  0.25500000920E-02 0.  1.
</event>
<event>
 5   0  0.1879500E-08  0.3997869E+04  0.7818609E-02  0.8004977E-01
        1   -1    0    0  501    0  0.00000000000E+00  0.00000000000E+00  0.21088713542E+04  0.21088713542E+04  0.50400001928E-02 0. -1.
       -1   -1    0    0    0  501  0.00000000000E+00  0.00000000000E+00 -0.18947286576E+04  0.18947286576E+04  0.50400001928E-02 0.  1.
    10030    2    1    2    0    0  0.00000000000E+00  0.00000000000E+00  0.21414269659E+03  0.40036000119E+04  0.39978689274E+04 0.  0.
        2    1    3    3  502    0  0.12052411496E+04  0.36189639889E+03 -0.14482693078E+04  0.19186086678E+04  0.25500000920E-02 0.  1.
       -2    1    3    3    0  502 -0.12052411496E+04 -0.36189639889E+03  0.16624120044E+04  0.20849913440E+04  0.25500000920E-02 0. -1.
</event>
<event>
 5   0  0.1879500E-08  0.3986790E+04  0.7818609E-02  0.8007217E-01
        1   -1    0    0  501    0  0.00000000000E+00  0.00000000000E+00  0.23522274591E+04  0.23522274591E+04  0.50400001928E-02 0.  1.
       -1   -1    0    0    0  501  0.00000000000E+00  0.00000000000E+00 -0.16893028411E+04  0.16893028411E+04  0.50400001928E-02 0. -1.
    10030    2    1    2    0    0  0.00000000000E+00  0.00000000000E+00  0.66292461808E+03  0.40415303002E+04  0.39867904533E+04 0.  0.
        5    1    3    3  502    0  0.11076763653E+04 -0.79603298394E+03 -0.11421079304E+04  0.17790581937E+04  0.46999998093E+01 0. -1.
       -5    1    3    3    0  502 -0.11076763653E+04  0.79603298394E+03  0.18050325485E+04  0.22624721065E+04  0.46999998093E+01 0.  1.
</event>
<event>
 5   0  0.5945387E-08  0.3993449E+04  0.7818609E-02  0.8005869E-01
        2   -1    0    0  501    0  0.00000000000E+00  0.00000000000E+00  0.21396939275E+04  0.21396939275E+04  0.25500000920E-02 0.  1.
       -2   -1    0    0    0  501  0.00000000000E+00  0.00000000000E+00 -0.18633076260E+04  0.18633076260E+04  0.25500000920E-02 0. -1.
    10030    2    1    2    0    0  0.00000000000E+00  0.00000000000E+00  0.27638630150E+03  0.40030015535E+04  0.39934486412E+04 0.  0.
        3    1    3    3  502    0  0.47086746282E+03 -0.12879034236E+04 -0.13166562419E+04  0.19010510424E+04  0.10100000352E+00 0. -1.
       -3    1    3    3    0  502 -0.47086746282E+03  0.12879034236E+04  0.15930425434E+04  0.21019505112E+04  0.10100000352E+00 0.  1.
</event>
<event>
 5   0  0.1879500E-08  0.4000072E+04  0.7818609E-02  0.8004532E-01
        1   -1    0    0  501    0  0.00000000000E+00  0.00000000000E+00  0.24258127553E+04  0.24258127553E+04  0.50400001928E-02 0. -1.
       -1   -1    0    0    0  501  0.00000000000E+00  0.00000000000E+00 -0.16489910264E+04  0.16489910264E+04  0.50400001928E-02 0.  1.
    10030    2    1    2    0    0  0.00000000000E+00  0.00000000000E+00  0.77682172888E+03  0.40748037817E+04  0.40000717320E+04 0.  0.
        3    1    3    3  502    0  0.91190046685E+02  0.18877231166E+04 -0.27828505253E+03  0.19103027954E+04  0.10100000352E+00 0.  1.
       -3    1    3    3    0  502 -0.91190046685E+02 -0.18877231166E+04  0.10551067814E+04  0.21645009863E+04  0.10100000352E+00 0. -1.
</event>
<event>
 5   0  0.1879500E-08  0.3995661E+04  0.7818609E-02  0.8005422E-01
       -1   -1    0    0    0  501  0.00000000000E+00  0.00000000000E+00  0.17012641569E+04  0.17012641569E+04  0.50400001928E-02 0. -1.
        1   -1    0    0  501    0  0.00000000000E+00  0.00000000000E+00 -0.23460949176E+04  0.23460949176E+04  0.50400001928E-02 0.  1.
    10030    2    1    2    0    0  0.00000000000E+00  0.00000000000E+00 -0.64483076077E+03  0.40473590745E+04  0.39956612429E+04 0.  0.
        2    1    3    3  502    0  0.13155246128E+04  0.93301904063E+03 -0.15167371558E+04  0.22139605093E+04  0.25500000920E-02 0.  1.
       -2    1    3    3    0  502 -0.13155246128E+04 -0.93301904063E+03  0.87190639500E+03  0.18333985652E+04  0.25500000920E-02 0. -1.
</event>
<event>
 5   0  0.1879500E-08  0.3999047E+04  0.7818609E-02  0.8004739E-01
       -1   -1    0    0    0  501  0.00000000000E+00  0.00000000000E+00  0.14707142648E+04  0.14707142648E+04  0.50400001928E-02 0. -1.
        1   -1    0    0  501    0  0.00000000000E+00  0.00000000000E+00 -0.27184704563E+04  0.27184704563E+04  0.50400001928E-02 0.  1.
    10030    2    1    2    0    0  0.00000000000E+00  0.00000000000E+00 -0.12477561915E+04  0.41891847211E+04  0.39990465257E+04 0.  0.
        5    1    3    3  502    0  0.21488522326E+03  0.10199407883E+04  0.11635975217E+04  0.15621895382E+04  0.46999998093E+01 0. -1.
       -5    1    3    3    0  502 -0.21488522326E+03 -0.10199407883E+04 -0.24113537132E+04  0.26269951829E+04  0.46999998093E+01 0.  1.
</event>
<event>
 5   0  0.5951623E-08  0.4000152E+04  0.7818609E-02  0.8004516E-01
        2   -1    0    0  501    0  0.00000000000E+00  0.00000000000E+00  0.24825786092E+04  0.24825786092E+04  0.25500000920E-02 0. -1.
       -2   -1    0    0    0  501  0.00000000000E+00  0.00000000000E+00 -0.16113506086E+04  0.16113506086E+04  0.25500000920E-02 0.  1.
    10030    2    1    2    0    0  0.00000000000E+00  0.00000000000E+00  0.87122800061E+03  0.40939292178E+04  0.40001522735E+04 0.  0.
        2    1    3    3  502    0  0.19512901272E+04  0.29094350662E+03  0.99084308375E+02  0.19753478136E+04  0.25500000920E-02 0. -1.
       -2    1    3    3    0  502 -0.19512901272E+04 -0.29094350662E+03  0.77214369224E+03  0.21185814042E+04  0.25500000920E-02 0.  1.
</event>
<event>
 5   0  0.5846812E-08  0.3997658E+04  0.7818609E-02  0.8005019E-01
       -2   -1    0    0    0  501  0.00000000000E+00  0.00000000000E+00  0.30125906946E+04  0.30125906946E+04  0.25500000920E-02 0. -1.
        2   -1    0    0  501    0  0.00000000000E+00  0.00000000000E+00 -0.13262061973E+04  0.13262061973E+04  0.25500000920E-02 0.  1.
    10030    2    1    2    0    0  0.00000000000E+00  0.00000000000E+00  0.16863844973E+04  0.43387968918E+04  0.39976575386E+04 0.  0.
        4    1    3    3  502    0  0.11440430403E+04  0.14336935678E+04  0.17053356002E+04  0.25044925328E+04  0.12699999809E+01 0. -1.
       -4    1    3    3    0  502 -0.11440430403E+04 -0.14336935678E+04 -0.18951102873E+02  0.18343043591E+04  0.12699999809E+01 0.  1.
</event>
<event>
 5   0  0.1879500E-08  0.3977468E+04  0.7818609E-02  0.8009107E-01
       -1   -1    0    0    0  501  0.00000000000E+00  0.00000000000E+00  0.30850409821E+04  0.30850409821E+04  0.50400001928E-02 0.  1.
        1   -1    0    0  501    0  0.00000000000E+00  0.00000000000E+00 -0.12820133540E+04  0.12820133540E+04  0.50400001928E-02 0. -1.
    10030    2    1    2    0    0  0.00000000000E+00  0.00000000000E+00  0.18030276281E+04  0.43670543362E+04  0.39774684094E+04 0.  0.
        3    1    3    3  502    0 -0.71744943297E+01 -0.17923018526E+04 -0.44676987781E+02  0.17928729591E+04  0.10100000352E+00 0. -1.
       -3    1    3    3    0  502  0.71744943297E+01  0.17923018526E+04  0.18477046159E+04  0.25741813770E+04  0.10100000352E+00 0.  1.
</event>
<event>
 5   0  0.5951623E-08  0.4002004E+04  0.7818609E-02  0.8004142E-01
       -2   -1    0    0    0  501  0.00000000000E+00  0.00000000000E+00  0.15776556244E+04  0.15776556244E+04  0.25500000920E-02 0. -1.
        2   -1    0    0  501    0  0.00000000000E+00  0.00000000000E+00 -0.25379480822E+04  0.25379480822E+04  0.25500000920E-02 0.  1.
    10030    2    1    2    0    0  0.00000000000E+00  0.00000000000E+00 -0.96029245781E+03  0.41156037067E+04  0.40020035315E+04 0.  0.
        2    1    3    3  502    0 -0.32045127937E+03  0.46917946701E+03  0.14929586915E+04  0.15974179319E+04  0.25500000920E-02 0. -1.
       -2    1    3    3    0  502  0.32045127937E+03 -0.46917946701E+03 -0.24532511493E+04  0.25181857748E+04  0.25500000920E-02 0.  1.
</event>
<event>
 5   0  0.1879500E-08  0.3725136E+04  0.7818609E-02  0.8062414E-01
       -1   -1    0    0    0  501  0.00000000000E+00  0.00000000000E+00  0.12536282511E+04  0.12536282511E+04  0.50400001928E-02 0. -1.
        1   -1    0    0  501    0  0.00000000000E+00  0.00000000000E+00 -0.27672948233E+04  0.27672948233E+04  0.50400001928E-02 0.  1.
    10030    2    1    2    0    0  0.00000000000E+00  0.00000000000E+00 -0.15136665722E+04  0.40209230745E+04  0.37251356860E+04 0.  0.
        5    1    3    3  502    0 -0.69422017936E+02 -0.40349593873E+03 -0.27181145408E+04  0.27487810273E+04  0.46999998093E+01 0.  1.
       -5    1    3    3    0  502  0.69422017936E+02  0.40349593873E+03  0.12044479686E+04  0.12721420472E+04  0.46999998093E+01 0. -1.
</event>
<event>
 5   0  0.1879500E-08  0.4004230E+04  0.7818609E-02  0.8003694E-01
        1   -1    0    0  501    0  0.00000000000E+00  0.00000000000E+00  0.18803417014E+04  0.18803417014E+04  0.50400001928E-02 0.  1.
       -1   -1    0    0    0  501  0.00000000000E+00  0.00000000000E+00 -0.21317741413E+04  0.21317741413E+04  0.50400001928E-02 0. -1.
    10030    2    1    2    0    0  0.00000000000E+00  0.00000000000E+00 -0.25143243993E+03  0.40121158427E+04  0.40042296716E+04 0.  0.
        4    1    3    3  502    0 -0.83690666406E+03  0.53710566524E+03  0.16153962086E+04  0.18969453824E+04  0.12699999809E+01 0.  1.
       -4    1    3    3    0  502  0.83690666406E+03 -0.53710566524E+03 -0.18668286486E+04  0.21151704603E+04  0.12699999809E+01 0. -1.
</event>
<event>
 5   0  0.1879500E-08  0.3941968E+04  0.7818609E-02  0.8016357E-01
        1   -1    0    0  501    0  0.00000000000E+00  0.00000000000E+00  0.20454646259E+04  0.20454646260E+04  0.50400001928E-02 0. -1.
       -1   -1    0    0    0  501  0.00000000000E+00  0.00000000000E+00 -0.18992151835E+04  0.18992151835E+04  0.50400001928E-02 0.  1.
    10030    2    1    2    0    0  0.00000000000E+00  0.00000000000E+00  0.14624944245E+03  0.39446798095E+04  0.39419677700E+04 0.  0.
        2    1    3    3  502    0  0.60588776273E+03  0.48986824735E+03 -0.17385646044E+04  0.19051713216E+04  0.25500000920E-02 0.  1.
       -2    1    3    3    0  502 -0.60588776273E+03 -0.48986824735E+03  0.18848140469E+04  0.20395084879E+04  0.25500000920E-02 0. -1.
</event>
<event>
 5   0  0.1879500E-08  0.3997642E+04  0.7818609E-02  0.8005022E-01
       -3   -1    0    0    0  501  0.00000000000E+00  0.00000000000E+00  0.15648818800E+04  0.15648818833E+04  0.10100000352E+00 0. -1.
        3   -1    0    0  501    0  0.00000000000E+00  0.00000000000E+00 -0.25530902119E+04  0.25530902139E+04  0.10100000352E+00 0.  1.
    10030    2    1    2    0    0  0.00000000000E+00  0.00000000000E+00 -0.98820833192E+03  0.41179720972E+04  0.39976416155E+04 0.  0.
        2    1    3    3  502    0  0.31389978990E+02  0.93346730528E+03 -0.23144807014E+04  0.24958300138E+04  0.25500000920E-02 0.  1.
       -2    1    3    3    0  502 -0.31389978990E+02 -0.93346730528E+03  0.13262723694E+04  0.16221420834E+04  0.25500000920E-02 0. -1.
</event>
<event>
 5   0  0.1879500E-08  0.3821133E+04  0.7818609E-02  0.8041635E-01
        1   -1    0    0  501    0  0.00000000000E+00  0.00000000000E+00  0.28338089494E+04  0.28338089494E+04  0.50400001928E-02 0. -1.
       -1   -1    0    0    0  501  0.00000000000E+00  0.00000000000E+00 -0.12881126585E+04  0.12881126585E+04  0.50400001928E-02 0.  1.
    10030    2    1    2    0    0  0.00000000000E+00  0.00000000000E+00  0.15456962909E+04  0.41219216079E+04  0.38211334337E+04 0.  0.
        3    1    3    3  502    0 -0.47104308298E+03  0.54726829201E+03  0.26809521697E+04  0.27764885586E+04  0.10100000352E+00 0. -1.
       -3    1    3    3    0  502  0.47104308298E+03 -0.54726829201E+03 -0.11352558788E+04  0.13454330493E+04  0.10100000352E+00 0.  1.
</event>
<event>
 5   0  0.5945387E-08  0.4023433E+04  0.7818609E-02  0.7999836E-01
       -2   -1    0    0    0  501  0.00000000000E+00  0.00000000000E+00  0.17042182360E+04  0.17042182360E+04  0.25500000920E-02 0. -1.
        2   -1    0    0  501    0  0.00000000000E+00  0.00000000000E+00 -0.23746975412E+04  0.23746975412E+04  0.25500000920E-02 0.  1.
    10030    2    1    2    0    0  0.00000000000E+00  0.00000000000E+00 -0.67047930522E+03  0.40789157772E+04  0.40234327904E+04 0.  0.
        3    1    3    3  502    0  0.14524174460E+04 -0.72073521342E+03 -0.15424703257E+04  0.22378986575E+04  0.10100000352E+00 0.  1.
       -3    1    3    3    0  502 -0.14524174460E+04  0.72073521342E+03  0.87199102045E+03  0.18410171198E+04  0.10100000352E+00 0. -1.
</event>
<event>
 5   0  0.5945387E-08  0.4008065E+04  0.7818609E-02  0.8002922E-01
        2   -1    0    0  501    0  0.00000000000E+00  0.00000000000E+00  0.28391604963E+04  0.28391604963E+04  0.25500000920E-02 0. -1.
       -2   -1    0    0    0  501  0.00000000000E+00  0.00000000000E+00 -0.14145538661E+04  0.14145538661E+04  0.25500000920E-02 0.  1.
    10030    2    1    2    0    0  0.00000000000E+00  0.00000000000E+00  0.14246066303E+04  0.42537143624E+04  0.40080645985E+04 0.  0.
        3    1    3    3  502    0 -0.12944552903E+04 -0.60248352507E+03 -0.78013623369E+03  0.16270259524E+04  0.10100000352E+00 0.  1.
       -3    1    3    3    0  502  0.12944552903E+04  0.60248352507E+03  0.22047428640E+04  0.26266884100E+04  0.10100000352E+00 0. -1.
</event>
<event>
 5   0  0.1879500E-08  0.3881859E+04  0.7818609E-02  0.8028813E-01
       -1   -1    0    0    0  501  0.00000000000E+00  0.00000000000E+00  0.16720459206E+04  0.16720459206E+04  0.50400001928E-02 0. -1.
        1   -1    0    0  501    0  0.00000000000E+00  0.00000000000E+00 -0.22530530340E+04  0.22530530340E+04  0.50400001928E-02 0.  1.
    10030    2    1    2    0    0  0.00000000000E+00  0.00000000000E+00 -0.58100711337E+03  0.39250989546E+04  0.38818594175E+04 0.  0.
        5    1    3    3  502    0  0.10518287576E+04  0.72149549128E+02 -0.19382680565E+04  0.22064574416E+04  0.46999998093E+01 0.  1.
       -5    1    3    3    0  502 -0.10518287576E+04 -0.72149549128E+02  0.13572609431E+04  0.17186415130E+04  0.46999998093E+01 0. -1.
</event>
<event>
 5   0  0.1879500E-08  0.4016736E+04  0.7818609E-02  0.8001179E-01
       -1   -1    0    0    0  501  0.00000000000E+00  0.00000000000E+00  0.20909702288E+04  0.20909702288E+04  0.50400001928E-02 0. -1.
        1   -1    0    0  501    0  0.00000000000E+00  0.00000000000E+00 -0.19290291652E+04  0.19290291652E+04  0.50400001928E-02 0.  1.
    10030    2    1    2    0    0  0.00000000000E+00  0.00000000000E+00  0.16194106355E+03  0.40199993940E+04  0.40167362646E+04 0.  0.
        3    1    3    3  502    0  0.18334004499E+04 -0.37718388520E+01  0.90149699270E+03  0.20430536641E+04  0.10100000352E+00 0.  1.
       -3    1    3    3    0  502 -0.18334004499E+04  0.37718388520E+01 -0.73955592915E+03  0.19769457299E+04  0.10100000352E+00 0. -1.
</event>
<event>
 5   0  0.1879500E-08  0.4008460E+04  0.7818609E-02  0.8002842E-01
        1   -1    0    0  501    0  0.00000000000E+00  0.00000000000E+00  0.33051099919E+04  0.33051099919E+04  0.50400001928E-02 0.  1.
       -1   -1    0    0    0  501  0.00000000000E+00  0.00000000000E+00 -0.12153720855E+04  0.12153720855E+04  0.50400001928E-02 0. -1.
    10030    2    1    2    0    0  0.00000000000E+00  0.00000000000E+00  0.20897379063E+04  0.45204820774E+04  0.40084602649E+04 0.  0.
        3    1    3    3  502    0  0.81773461547E+02 -0.36282427746E+03  0.32658519233E+04  0.32869616899E+04  0.10100000352E+00 0.  1.
       -3    1    3    3    0  502 -0.81773461547E+02  0.36282427746E+03 -0.11761140170E+04  0.12335203875E+04  0.10100000352E+00 0. -1.
</event>
<event>
 5   0  0.5951623E-08  0.3994867E+04  0.7818609E-02  0.8005583E-01
        2   -1    0    0  501    0  0.00000000000E+00  0.00000000000E+00  0.13272363125E+04  0.13272363125E+04  0.25500000920E-02 0. -1.
       -2   -1    0    0    0  501  0.00000000000E+00  0.00000000000E+00 -0.30060507904E+04  0.30060507904E+04  0.25500000920E-02 0.  1.
    10030    2    1    2    0    0  0.00000000000E+00  0.00000000000E+00 -0.16788144779E+04  0.43332871028E+04  0.39948665891E+04 0.  0.
        2    1    3    3  502    0 -0.74556599502E+03 -0.11663095859E+04  0.72257808687E+03  0.15614947309E+04  0.25500000920E-02 0. -1.
       -2    1    3    3    0  502  0.74556599502E+03  0.11663095859E+04 -0.24013925648E+04  0.27717923719E+04  0.25500000920E-02 0.  1.
</event>
<event>
 5   0  0.5951623E-08  0.4037041E+04  0.7818609E-02  0.7997116E-01
       -2   -1    0    0    0  501  0.00000000000E+00  0.00000000000E+00  0.18596968528E+04  0.18596968528E+04  0.25500000920E-02 0. -1.
        2   -1    0    0  501    0  0.00000000000E+00  0.00000000000E+00 -0.21909085971E+04  0.21909085971E+04  0.25500000920E-02 0.  1.
    10030    2    1    2    0    0  0.00000000000E+00  0.00000000000E+00 -0.33121174433E+03  0.40506054499E+04  0.40370414032E+04 0.  0.
        2    1    3    3  502    0 -0.21160462136E+03 -0.19236645967E+04 -0.74126154718E+03  0.20723731994E+04  0.25500000920E-02 0.  1.
       -2    1    3    3    0  502  0.21160462136E+03  0.19236645967E+04  0.41004980285E+03  0.19782322505E+04  0.25500000920E-02 0. -1.
</event>
<event>
 5   0  0.1879500E-08  0.3989928E+04  0.7818609E-02  0.8006582E-01
       -1   -1    0    0    0  501  0.00000000000E+00  0.00000000000E+00  0.27739225958E+04  0.27739225958E+04  0.50400001928E-02 0.  1.
        1   -1    0    0  501    0  0.00000000000E+00  0.00000000000E+00 -0.14347482291E+04  0.14347482291E+04  0.50400001928E-02 0. -1.
    10030    2    1    2    0    0  0.00000000000E+00  0.00000000000E+00  0.13391743667E+04  0.42086708249E+04  0.39899275843E+04 0.  0.
        4    1    3    3  502    0 -0.10548822343E+04 -0.49090722044E+03 -0.10397849066E+04  0.15604232413E+04  0.12699999809E+01 0. -1.
       -4    1    3    3    0  502  0.10548822343E+04  0.49090722044E+03  0.23789592732E+04  0.26482475836E+04  0.12699999809E+01 0.  1.
</event>
<event>
 5   0  0.6161563E-08  0.4021966E+04  0.7818609E-02  0.8000130E-01
        2   -1    0    0  501    0  0.00000000000E+00  0.00000000000E+00  0.22927841486E+04  0.22927841486E+04  0.25500000920E-02 0.  1.
       -2   -1    0    0    0  501  0.00000000000E+00  0.00000000000E+00 -0.17638172817E+04  0.17638172817E+04  0.25500000920E-02 0. -1.
    10030    2    1    2    0    0  0.00000000000E+00  0.00000000000E+00  0.52896686690E+03  0.40566014304E+04  0.40219658401E+04 0.  0.
        1    1    3    3  502    0  0.41334637343E+03 -0.70434489292E+03 -0.15890295108E+04  0.17866090056E+04  0.50400001928E-02 0. -1.
       -1    1    3    3    0  502 -0.41334637343E+03  0.70434489292E+03  0.21179963777E+04  0.22699924248E+04  0.50400001928E-02 0.  1.
</event>
<event>
 5   0  0.5888700E-08  0.3960111E+04  0.7818609E-02  0.8012642E-01
        2   -1    0    0  501    0  0.00000000000E+00  0.00000000000E+00  0.15240227816E+04  0.15240227816E+04  0.25500000920E-02 0. -1.
       -2   -1    0    0    0  501  0.00000000000E+00  0.00000000000E+00 -0.25725471394E+04  0.25725471394E+04  0.25500000920E-02 0.  1.
    10030    2    1    2    0    0  0.00000000000E+00  0.00000000000E+00 -0.10485243578E+04  0.40965699210E+04  0.39601113354E+04 0.  0.
        5    1    3    3  502    0 -0.18495474422E+04 -0.69433992642E+03 -0.66175052780E+03  0.20834753480E+04  0.46999998093E+01 0. -1.
       -5    1    3    3    0  502  0.18495474422E+04  0.69433992642E+03 -0.38677383002E+03  0.20130945731E+04  0.46999998093E+01 0.  1.
</event>
<event>
 5   0  0.5888700E-08  0.3982193E+04  0.7818609E-02  0.8008148E-01
       -2   -1    0    0    0  501  0.00000000000E+00  0.00000000000E+00  0.21926271524E+04  0.21926271524E+04  0.25500000920E-02 0. -1.
        2   -1    0    0  501    0  0.00000000000E+00  0.00000000000E+00 -0.18080890774E+04  0.18080890774E+04  0.25500000920E-02 0.  1.
    10030    2    1    2    0    0  0.00000000000E+00  0.00000000000E+00  0.38453807499E+03  0.40007162298E+04  0.39821929662E+04 0.  0.
        5    1    3    3  502    0 -0.11836410067E+03  0.18408452985E+04 -0.56069810537E+03  0.19279849399E+04  0.46999998093E+01 0.  1.
       -5    1    3    3    0  502  0.11836410067E+03 -0.18408452985E+04  0.94523618036E+03  0.20727312898E+04  0.46999998093E+01 0. -1.
</event>
<event>
 5   0  0.5951623E-08  0.3937912E+04  0.7818609E-02  0.8017190E-01
        2   -1    0    0  501    0  0.00000000000E+00  0.00000000000E+00  0.20920340249E+04  0.20920340249E+04  0.25500000920E-02 0. -1.
       -2   -1    0    0    0  501  0.00000000000E+00  0.00000000000E+00 -0.18531189057E+04  0.18531189057E+04  0.25500000920E-02 0.  1.
    10030    2    1    2    0    0  0.00000000000E+00  0.00000000000E+00  0.23891511924E+03  0.39451529306E+04  0.39379120370E+04 0.  0.
        2    1    3    3  502    0  0.18223702335E+04  0.33666652320E+03 -0.54690469878E+03  0.19322221315E+04  0.25500000920E-02 0.  1.
       -2    1    3    3    0  502 -0.18223702335E+04 -0.33666652320E+03  0.78581981802E+03  0.20129307991E+04  0.25500000920E-02 0. -1.
</event>
<event>
 5   0  0.1879500E-08  0.4011763E+04  0.7818609E-02  0.8002178E-01
        3   -1    0    0  501    0  0.00000000000E+00  0.00000000000E+00  0.19628043197E+04  0.19628043223E+04  0.10100000352E+00 0. -1.
       -3   -1    0    0    0  501  0.00000000000E+00  0.00000000000E+00 -0.20499036886E+04  0.20499036911E+04  0.10100000352E+00 0.  1.
    10030    2    1    2    0    0  0.00000000000E+00  0.00000000000E+00 -0.87099368893E+02  0.40127080134E+04  0.40117626177E+04 0.  0.
        5    1    3    3  502    0  0.40832674440E+03  0.75173882246E+03 -0.18582803383E+04  0.20457443372E+04  0.46999998093E+01 0.  1.
       -5    1    3    3    0  502 -0.40832674440E+03 -0.75173882246E+03  0.17711809694E+04  0.19669636762E+04  0.46999998093E+01 0. -1.
</event>
<event>
 5   0  0.5945387E-08  0.3985410E+04  0.7818609E-02  0.8007496E-01
       -2   -1    0    0    0  501  0.00000000000E+00  0.00000000000E+00  0.18126933796E+04  0.18126933796E+04  0.25500000920E-02 0. -1.
        2   -1    0    0  501    0  0.00000000000E+00  0.00000000000E+00 -0.21905927050E+04  0.21905927050E+04  0.25500000920E-02 0.  1.
    10030    2    1    2    0    0  0.00000000000E+00  0.00000000000E+00 -0.37789932542E+03  0.40032860847E+04  0.39854098378E+04 0.  0.
        3    1    3    3  502    0  0.66835245005E+02 -0.16893819381E+04  0.87048230807E+03  0.19016355438E+04  0.10100000352E+00 0. -1.
       -3    1    3    3    0  502 -0.66835245005E+02  0.16893819381E+04 -0.12483816335E+04  0.21016505408E+04  0.10100000352E+00 0.  1.
</event>
<event>
 5   0  0.1879500E-08  0.4007687E+04  0.7818609E-02  0.8002998E-01
        1   -1    0    0  501    0  0.00000000000E+00  0.00000000000E+00  0.14650258378E+04  0.14650258378E+04  0.50400001928E-02 0.  1.
       -1   -1    0    0    0  501  0.00000000000E+00  0.00000000000E+00 -0.27408319511E+04  0.27408319511E+04  0.50400001928E-02 0. -1.
    10030    2    1    2    0    0  0.00000000000E+00  0.00000000000E+00 -0.12758061133E+04  0.42058577889E+04  0.40076874257E+04 0.  0.
        3    1    3    3  502    0  0.61981426739E+03  0.35891042056E+03 -0.26019135891E+04  0.26986924152E+04  0.10100000352E+00 0. -1.
       -3    1    3    3    0  502 -0.61981426739E+03 -0.35891042056E+03  0.13261074759E+04  0.15071653738E+04  0.10100000352E+00 0.  1.
</event>
<event>
 5   0  0.5846812E-08  0.4004695E+04  0.7818609E-02  0.8003600E-01
       -2   -1    0    0    0  501  0.00000000000E+00  0.00000000000E+00  0.15956600926E+04  0.15956600926E+04  0.25500000920E-02 0. -1.
        2   -1    0    0  501    0  0.00000000000E+00  0.00000000000E+00 -0.25126880645E+04  0.25126880645E+04  0.25500000920E-02 0.  1.
    10030    2    1    2    0    0  0.00000000000E+00  0.00000000000E+00 -0.91702797192E+03  0.41083481572E+04  0.40046952792E+04 0.  0.
        4    1    3    3  502    0  0.43827821493E+03 -0.72397975875E+02  0.15444720623E+04  0.16070858175E+04  0.12699999809E+01 0. -1.
       -4    1    3    3    0  502 -0.43827821493E+03  0.72397975875E+02 -0.24615000342E+04  0.25012623397E+04  0.12699999809E+01 0.  1.
</event>
<event>
 5   0  0.1879500E-08  0.4001857E+04  0.7818609E-02  0.8004172E-01
       -1   -1    0    0    0  501  0.00000000000E+00  0.00000000000E+00  0.27084394338E+04  0.27084394338E+04  0.50400001928E-02 0. -1.
        1   -1    0    0  501    0  0.00000000000E+00  0.00000000000E+00 -0.14782369185E+04  0.14782369185E+04  0.50400001928E-02 0.  1.
    10030    2    1    2    0    0  0.00000000000E+00  0.00000000000E+00  0.12302025153E+04  0.41866763523E+04  0.40018571502E+04 0.  0.
        2    1    3    3  502    0 -0.47114179890E+03 -0.18312301925E+04  0.12998013312E+04  0.22945287345E+04  0.25500000920E-02 0. -1.
       -2    1    3    3    0  502  0.47114179890E+03  0.18312301925E+04 -0.69598815977E+02  0.18921476179E+04  0.25500000920E-02 0.  1.
</event>
<event>
 5   0  0.1879500E-08  0.4043329E+04  0.7818609E-02  0.7995862E-01
        1   -1    0    0  501    0  0.00000000000E+00  0.00000000000E+00  0.24227276149E+04  0.24227276149E+04  0.50400001928E-02 0. -1.
       -1   -1    0    0    0  501  0.00000000000E+00  0.00000000000E+00 -0.16869939180E+04  0.16869939180E+04  0.50400001928E-02 0.  1.
    10030    2    1    2    0    0  0.00000000000E+00  0.00000000000E+00  0.73573369690E+03  0.41097215328E+04  0.40433287035E+04 0.  0.
        1    1    3    3  502    0  0.85241415761E+03  0.42364246856E+01 -0.14954007264E+04  0.17212934602E+04  0.50400001928E-02 0.  1.
       -1    1    3    3    0  502 -0.85241415761E+03 -0.42364246856E+01  0.22311344233E+04  0.23884280727E+04  0.50400001928E-02 0. -1.
</event>
<event>
 5   0  0.5888700E-08  0.4017388E+04  0.7818609E-02  0.8001048E-01
       -2   -1    0    0    0  501  0.00000000000E+00  0.00000000000E+00  0.22314165143E+04  0.22314165143E+04  0.25500000920E-02 0.  1.
        2   -1    0    0  501    0  0.00000000000E+00  0.00000000000E+00 -0.18082015867E+04  0.18082015867E+04  0.25500000920E-02 0. -1.
    10030    2    1    2    0    0  0.00000000000E+00  0.00000000000E+00  0.42321492764E+03  0.40396181010E+04  0.40173876496E+04 0.  0.
        5    1    3    3  502    0  0.20038155095E+04 -0.91933465384E+02  0.10566586033E+03  0.20087099647E+04  0.46999998093E+01 0. -1.
       -5    1    3    3    0  502 -0.20038155095E+04  0.91933465384E+02  0.31754906731E+03  0.20309081363E+04  0.46999998093E+01 0.  1.
</event>
<event>
 5   0  0.1879500E-08  0.3992998E+04  0.7818609E-02  0.8005961E-01
        1   -1    0    0  501    0  0.00000000000E+00  0.00000000000E+00  0.28250529590E+04  0.28250529590E+04  0.50400001928E-02 0.  1.
       -1   -1    0    0    0  501  0.00000000000E+00  0.00000000000E+00 -0.14109495752E+04  0.14109495752E+04  0.50400001928E-02 0. -1.
    10030    2    1    2    0    0  0.00000000000E+00  0.00000000000E+00  0.14141033838E+04  0.42360025342E+04  0.39929975069E+04 0.  0.
        5    1    3    3  502    0 -0.16028673062E+04 -0.11875986062E+04  0.79199409133E+03  0.21463575614E+04  0.46999998093E+01 0.  1.
       -5    1    3    3    0  502  0.16028673062E+04  0.11875986062E+04  0.62210929245E+03  0.20896449728E+04  0.46999998093E+01 0. -1.
</event>
<event>
 5   0  0.5945387E-08  0.4002427E+04  0.7818609E-02  0.8004057E-01
       -2   -1    0    0    0  501  0.00000000000E+00  0.00000000000E+00  0.27045945850E+04  0.27045945850E+04  0.25500000920E-02 0. -1.
        2   -1    0    0  501    0  0.00000000000E+00  0.00000000000E+00 -0.14807601393E+04  0.14807601393E+04  0.25500000920E-02 0.  1.
    10030    2    1    2    0    0  0.00000000000E+00  0.00000000000E+00  0.12238344457E+04  0.41853547243E+04  0.40024271908E+04 0.  0.
        3    1    3    3  502    0 -0.19692114775E+04 -0.27277074514E+03  0.37195575327E+03  0.20225105229E+04  0.10100000352E+00 0. -1.
       -3    1    3    3    0  502  0.19692114775E+04  0.27277074514E+03  0.85187869245E+03  0.21628442014E+04  0.10100000352E+00 0.  1.
</event>
<event>
 5   0  0.6161563E-08  0.3998474E+04  0.7818609E-02  0.8004854E-01
       -2   -1    0    0    0  501  0.00000000000E+00  0.00000000000E+00  0.23023841051E+04  0.23023841051E+04  0.25500000920E-02 0.  1.
        2   -1    0    0  501    0  0.00000000000E+00  0.00000000000E+00 -0.17360046133E+04  0.17360046133E+04  0.25500000920E-02 0. -1.
    10030    2    1    2    0    0  0.00000000000E+00  0.00000000000E+00  0.56637949184E+03  0.40383887184E+04  0.39984744231E+04 0.  0.
        1    1    3    3  502    0 -0.72156189318E+03  0.14442985569E+04  0.14740697066E+04  0.21862139391E+04  0.50400001928E-02 0.  1.
       -1    1    3    3    0  502  0.72156189318E+03 -0.14442985569E+04 -0.90769021479E+03  0.18521747794E+04  0.50400001928E-02 0. -1.
</event>
<event>
 5   0  0.1879500E-08  0.3993027E+04  0.7818609E-02  0.8005955E-01
       -1   -1    0    0    0  501  0.00000000000E+00  0.00000000000E+00  0.19629231303E+04  0.19629231303E+04  0.50400001928E-02 0.  1.
        1   -1    0    0  501    0  0.00000000000E+00  0.00000000000E+00 -0.20306790029E+04  0.20306790029E+04  0.50400001928E-02 0. -1.
    10030    2    1    2    0    0  0.00000000000E+00  0.00000000000E+00 -0.67755872571E+02  0.39936021332E+04  0.39930273152E+04 0.  0.
        2    1    3    3  502    0  0.11356577816E+04  0.15707727446E+04  0.44475252150E+03  0.19886805720E+04  0.25500000920E-02 0.  1.
       -2    1    3    3    0  502 -0.11356577816E+04 -0.15707727446E+04 -0.51250839407E+03  0.20049215611E+04  0.25500000920E-02 0. -1.
</event>
<event>
 5   0  0.1879500E-08  0.4002306E+04  0.7818609E-02  0.8004082E-01
        1   -1    0    0  501    0  0.00000000000E+00  0.00000000000E+00  0.12381683263E+04  0.12381683263E+04  0.50400001928E-02 0. -1.
       -1   -1    0    0    0  501  0.00000000000E+00  0.00000000000E+00 -0.32343043877E+04  0.32343043877E+04  0.50400001928E-02 0.  1.
    10030    2    1    2    0    0  0.00000000000E+00  0.00000000000E+00 -0.19961360613E+04  0.44724727140E+04  0.40023059606E+04 0.  0.
        2    1    3    3  502    0  0.13653770742E+03 -0.19271391538E+04 -0.15809840411E+04  0.24964010899E+04  0.25500000920E-02 0.  1.
       -2    1    3    3    0  502 -0.13653770742E+03  0.19271391538E+04 -0.41515202026E+03  0.19760716241E+04  0.25500000920E-02 0. -1.
</event>
<event>
 5   0  0.5945387E-08  0.4010838E+04  0.7818609E-02  0.8002364E-01
        2   -1    0    0  501    0  0.00000000000E+00  0.00000000000E+00  0.27507210973E+04  0.27507210973E+04  0.25500000920E-02 0.  1.
       -2   -1    0    0    0  501  0.00000000000E+00  0.00000000000E+00 -0.14620550761E+04  0.14620550761E+04  0.25500000920E-02 0. -1.
    10030    2    1    2    0    0  0.00000000000E+00  0.00000000000E+00  0.12886660211E+04  0.42127761734E+04  0.40108381883E+04 0.  0.
        3    1    3    3  502    0 -0.10626900384E+04 -0.35832321794E+03  0.23905663288E+04  0.26405516524E+04  0.10100000352E+00 0.  1.
       -3    1    3    3    0  502  0.10626900384E+04  0.35832321794E+03 -0.11019003077E+04  0.15722245210E+04  0.10100000352E+00 0. -1.
</event>
<event>
 5   0  0.5945387E-08  0.3996817E+04  0.7818609E-02  0.8005189E-01
       -2   -1    0    0    0  501  0.00000000000E+00  0.00000000000E+00  0.29575125879E+04  0.29575125879E+04  0.25500000920E-02 0.  1.
        2   -1    0    0  501    0  0.00000000000E+00  0.00000000000E+00 -0.13503365954E+04  0.13503365954E+04  0.25500000920E-02 0. -1.
    10030    2    1    2    0    0  0.00000000000E+00  0.00000000000E+00  0.16071759925E+04  0.43078491833E+04  0.39968174733E+04 0.  0.
        3    1    3    3  502    0 -0.18833256052E+04 -0.66200604146E+03  0.90278334883E+03  0.21909324771E+04  0.10100000352E+00 0.  1.
       -3    1    3    3    0  502  0.18833256052E+04  0.66200604146E+03  0.70439264370E+03  0.21169167062E+04  0.10100000352E+00 0. -1.
</event>
<event>
 5   0  0.1879500E-08  0.4006861E+04  0.7818609E-02  0.8003164E-01
        1   -1    0    0  501    0  0.00000000000E+00  0.00000000000E+00  0.18043937194E+04  0.18043937194E+04  0.50400001928E-02 0.  1.
       -1   -1    0    0    0  501  0.00000000000E+00  0.00000000000E+00 -0.22244229021E+04  0.22244229021E+04  0.50400001928E-02 0. -1.
    10030    2    1    2    0    0  0.00000000000E+00  0.00000000000E+00 -0.42002918271E+03  0.40288166216E+04  0.40068614720E+04 0.  0.
        4    1    3    3  502    0  0.16397793262E+04 -0.19367398695E+03 -0.13508448377E+04  0.21333469573E+04  0.12699999809E+01 0. -1.
       -4    1    3    3    0  502 -0.16397793262E+04  0.19367398695E+03  0.93081565499E+03  0.18954696643E+04  0.12699999809E+01 0.  1.
</event>
<event>
 5   0  0.1879500E-08  0.3990809E+04  0.7818609E-02  0.8006403E-01
       -1   -1    0    0    0  501  0.00000000000E+00  0.00000000000E+00  0.14484948215E+04  0.14484948215E+04  0.50400001928E-02 0.  1.
        1   -1    0    0  501    0  0.00000000000E+00  0.00000000000E+00 -0.27488108278E+04  0.27488108278E+04  0.50400001928E-02 0. -1.
    10030    2    1    2    0    0  0.00000000000E+00  0.00000000000E+00 -0.13003160063E+04  0.41973056493E+04  0.39908085644E+04 0.  0.
        4    1    3    3  502    0  0.19298677058E+03  0.16155628454E+04 -0.18650690707E+04  0.24750295862E+04  0.12699999809E+01 0. -1.
       -4    1    3    3    0  502 -0.19298677058E+03 -0.16155628454E+04  0.56475306443E+03  0.17222760631E+04  0.12699999809E+01 0.  1.
</event>
<event>
 5   0  0.1879500E-08  0.4009865E+04  0.7818609E-02  0.8002559E-01
       -1   -1    0    0    0  501  0.00000000000E+00  0.00000000000E+00  0.17540188194E+04  0.17540188194E+04  0.50400001928E-02 0.  1.
        1   -1    0    0  501    0  0.00000000000E+00  0.00000000000E+00 -0.22917391928E+04  0.22917391928E+04  0.50400001928E-02 0. -1.
    10030    2    1    2    0    0  0.00000000000E+00  0.00000000000E+00 -0.53772037342E+03  0.40457580122E+04  0.40098646727E+04 0.  0.
        1    1    3    3  502    0 -0.19595404103E+04  0.39550874374E+03 -0.11409914264E+03  0.20023097664E+04  0.50400001928E-02 0. -1.
       -1    1    3    3    0  502  0.19595404103E+04 -0.39550874374E+03 -0.42362123077E+03  0.20434482458E+04  0.50400001928E-02 0.  1.
</event>
<event>
 5   0  0.1879500E-08  0.4002632E+04  0.7818609E-02  0.8004016E-01
        1   -1    0    0  501    0  0.00000000000E+00  0.00000000000E+00  0.19566770013E+04  0.19566770013E+04  0.50400001928E-02 0. -1.
       -1   -1    0    0    0  501  0.00000000000E+00  0.00000000000E+00 -0.20469728743E+04  0.20469728743E+04  0.50400001928E-02 0.  1.
    10030    2    1    2    0    0  0.00000000000E+00  0.00000000000E+00 -0.90295873059E+02  0.40036498756E+04  0.40026315071E+04 0.  0.
        1    1    3    3  502    0  0.52870553002E+03 -0.67750491098E+03  0.17627195323E+04  0.19610513995E+04  0.50400001928E-02 0. -1.
       -1    1    3    3    0  502 -0.52870553002E+03  0.67750491098E+03 -0.18530154054E+04  0.20425984761E+04  0.50400001928E-02 0.  1.
</event>
<event>
 5   0  0.1879500E-08  0.4001229E+04  0.7818609E-02  0.8004299E-01
        1   -1    0    0  501    0  0.00000000000E+00  0.00000000000E+00  0.20682055591E+04  0.20682055591E+04  0.50400001928E-02 0.  1.
       -1   -1    0    0    0  501  0.00000000000E+00  0.00000000000E+00 -0.19352325440E+04  0.19352325440E+04  0.50400001928E-02 0. -1.
    10030    2    1    2    0    0  0.00000000000E+00  0.00000000000E+00  0.13297301509E+03  0.40034381032E+04  0.40012291641E+04 0.  0.
        2    1    3    3  502    0 -0.41677158146E+02  0.55815097181E+03 -0.18553000786E+04  0.19378874773E+04  0.25500000920E-02 0. -1.
       -2    1    3    3    0  502  0.41677158146E+02 -0.55815097181E+03  0.19882730937E+04  0.20655506259E+04  0.25500000920E-02 0.  1.
</event>
<event>
 5   0  0.1879500E-08  0.4025915E+04  0.7818609E-02  0.7999339E-01
       -1   -1    0    0    0  501  0.00000000000E+00  0.00000000000E+00  0.14271742232E+04  0.14271742232E+04  0.50400001928E-02 0. -1.
        1   -1    0    0  501    0  0.00000000000E+00  0.00000000000E+00 -0.28391750597E+04  0.28391750597E+04  0.50400001928E-02 0.  1.
    10030    2    1    2    0    0  0.00000000000E+00  0.00000000000E+00 -0.14120008365E+04  0.42663492829E+04  0.40259147831E+04 0.  0.
        5    1    3    3  502    0  0.43337975707E+03  0.18106275256E+04  0.10507468786E+03  0.18647393464E+04  0.46999998093E+01 0. -1.
       -5    1    3    3    0  502 -0.43337975707E+03 -0.18106275256E+04 -0.15170755244E+04  0.24016099364E+04  0.46999998093E+01 0.  1.
</event>
<event>
 5   0  0.1879500E-08  0.3995544E+04  0.7818609E-02  0.8005446E-01
        1   -1    0    0  501    0  0.00000000000E+00  0.00000000000E+00  0.23456504481E+04  0.23456504481E+04  0.50400001928E-02 0. -1.
       -1   -1    0    0    0  501  0.00000000000E+00  0.00000000000E+00 -0.17014868535E+04  0.17014868535E+04  0.50400001928E-02 0.  1.
    10030    2    1    2    0    0  0.00000000000E+00  0.00000000000E+00  0.64416359458E+03  0.40471373016E+04  0.39955442184E+04 0.  0.
        2    1    3    3  502    0  0.12833175460E+04  0.34497649135E+03  0.18330476131E+04  0.22640618930E+04  0.25500000920E-02 0. -1.
       -2    1    3    3    0  502 -0.12833175460E+04 -0.34497649135E+03 -0.11888840185E+04  0.17830754086E+04  0.25500000920E-02 0.  1.
</event>
<event>
 5   0  0.6161563E-08  0.3997029E+04  0.7818609E-02  0.8005146E-01
        2   -1    0    0  501    0  0.00000000000E+00  0.00000000000E+00  0.23667602762E+04  0.23667602762E+04  0.25500000920E-02 0.  1.
       -2   -1    0    0    0  501  0.00000000000E+00  0.00000000000E+00 -0.16875647042E+04  0.16875647042E+04  0.25500000920E-02 0. -1.
    10030    2    1    2    0    0  0.00000000000E+00  0.00000000000E+00  0.67919557194E+03  0.40543249804E+04  0.39970294497E+04 0.  0.
        1    1    3    3  502    0 -0.11780587508E+04  0.74120352642E+03  0.17943303312E+04  0.22708646867E+04  0.50400001928E-02 0.  1.
       -1    1    3    3    0  502  0.11780587508E+04 -0.74120352642E+03 -0.11151347592E+04  0.17834602937E+04  0.50400001928E-02 0. -1.
</event>
<event>
 5   0  0.6161563E-08  0.3972246E+04  0.7818609E-02  0.8010169E-01
        2   -1    0    0  501    0  0.00000000000E+00  0.00000000000E+00  0.20523616514E+04  0.20523616514E+04  0.25500000920E-02 0. -1.
       -2   -1    0    0    0  501  0.00000000000E+00  0.00000000000E+00 -0.19220224031E+04  0.19220224031E+04  0.25500000920E-02 0.  1.
    10030    2    1    2    0    0  0.00000000000E+00  0.00000000000E+00  0.13033924829E+03  0.39743840544E+04  0.39722462527E+04 0.  0.
        1    1    3    3  502    0 -0.15473397191E+04  0.11532616032E+04 -0.40456418403E+03  0.19717871870E+04  0.50400001928E-02 0. -1.
       -1    1    3    3    0  502  0.15473397191E+04 -0.11532616032E+04  0.53490343233E+03  0.20025968675E+04  0.50400001928E-02 0.  1.
</event>
<event>
 5   0  0.5951623E-08  0.3993138E+04  0.7818609E-02  0.8005932E-01
       -2   -1    0    0    0  501  0.00000000000E+00  0.00000000000E+00  0.12534412059E+04  0.12534412059E+04  0.25500000920E-02 0. -1.
        2   -1    0    0  501    0  0.00000000000E+00  0.00000000000E+00 -0.31802756705E+04  0.31802756705E+04  0.25500000920E-02 0.  1.
    10030    2    1    2    0    0  0.00000000000E+00  0.00000000000E+00 -0.19268344647E+04  0.44337168764E+04  0.39931384005E+04 0.  0.
        2    1    3    3  502    0 -0.14383835967E+04 -0.11158202305E+04 -0.53020351225E+02  0.18212120458E+04  0.25500000920E-02 0. -1.
       -2    1    3    3    0  502  0.14383835967E+04  0.11158202305E+04 -0.18738141134E+04  0.26125048306E+04  0.25500000920E-02 0.  1.
</event>
<event>
 5   0  0.1879500E-08  0.3995815E+04  0.7818609E-02  0.8005391E-01
        1   -1    0    0  501    0  0.00000000000E+00  0.00000000000E+00  0.15386385775E+04  0.15386385775E+04  0.50400001928E-02 0.  1.
       -1   -1    0    0    0  501  0.00000000000E+00  0.00000000000E+00 -0.25942636501E+04  0.25942636501E+04  0.50400001928E-02 0. -1.
    10030    2    1    2    0    0  0.00000000000E+00  0.00000000000E+00 -0.10556250726E+04  0.41329022276E+04  0.39958148767E+04 0.  0.
        4    1    3    3  502    0 -0.16459169947E+04  0.10768180360E+04 -0.89063595887E+03  0.21591234009E+04  0.12699999809E+01 0. -1.
       -4    1    3    3    0  502  0.16459169947E+04 -0.10768180360E+04 -0.16498911372E+03  0.19737788267E+04  0.12699999809E+01 0.  1.
</event>
<event>
 5   0  0.1879500E-08  0.4013948E+04  0.7818609E-02  0.8001739E-01
       -1   -1    0    0    0  501  0.00000000000E+00  0.00000000000E+00  0.28465688191E+04  0.28465688191E+04  0.50400001928E-02 0. -1.
        1   -1    0    0  501    0  0.00000000000E+00  0.00000000000E+00 -0.14150177020E+04  0.14150177021E+04  0.50400001928E-02 0.  1.
    10030    2    1    2    0    0  0.00000000000E+00  0.00000000000E+00  0.14315511170E+04  0.42615865211E+04  0.40139483151E+04 0.  0.
        4    1    3    3  502    0  0.93364713655E+03  0.17473543134E+04  0.37504014787E+03  0.20163335035E+04  0.12699999809E+01 0.  1.
       -4    1    3    3    0  502 -0.93364713655E+03 -0.17473543134E+04  0.10565109691E+04  0.22452530176E+04  0.12699999809E+01 0. -1.
</event>
<event>
 5   0  0.1879500E-08  0.4006534E+04  0.7818609E-02  0.8003230E-01
        1   -1    0    0  501    0  0.00000000000E+00  0.00000000000E+00  0.27338953238E+04  0.27338953238E+04  0.50400001928E-02 0.  1.
       -1   -1    0    0    0  501  0.00000000000E+00  0.00000000000E+00 -0.14678973532E+04  0.14678973532E+04  0.50400001928E-02 0. -1.
    10030    2    1    2    0    0  0.00000000000E+00  0.00000000000E+00  0.12659979706E+04  0.42017926770E+04  0.40065335190E+04 0.  0.
        1    1    3    3  502    0  0.15474289580E+04 -0.81905157255E+03  0.16539392426E+04  0.24085051125E+04  0.50400001928E-02 0.  1.
       -1    1    3    3    0  502 -0.15474289580E+04  0.81905157255E+03 -0.38794127194E+03  0.17932875645E+04  0.50400001928E-02 0. -1.
</event>
<event>
 5   0  0.1879500E-08  0.4004439E+04  0.7818609E-02  0.8003652E-01
       -1   -1    0    0    0  501  0.00000000000E+00  0.00000000000E+00  0.19184019369E+04  0.19184019369E+04  0.50400001928E-02 0. -1.
        1   -1    0    0  501    0  0.00000000000E+00  0.00000000000E+00 -0.20896995649E+04  0.20896995649E+04  0.50400001928E-02 0.  1.
    10030    2    1    2    0    0  0.00000000000E+00  0.00000000000E+00 -0.17129762798E+03  0.40081015018E+04  0.40044393829E+04 0.  0.
        2    1    3    3  502    0  0.59533048904E+03  0.97657231034E+03 -0.17305542442E+04  0.20743504672E+04  0.25500000920E-02 0.  1.
       -2    1    3    3    0  502 -0.59533048904E+03 -0.97657231034E+03  0.15592566162E+04  0.19337510346E+04  0.25500000920E-02 0. -1.
</event>
<event>
 5   0  0.1879500E-08  0.4011593E+04  0.7818609E-02  0.8002212E-01
        1   -1    0    0  501    0  0.00000000000E+00  0.00000000000E+00  0.14409915804E+04  0.14409915804E+04  0.50400001928E-02 0. -1.
       -1   -1    0    0    0  501  0.00000000000E+00  0.00000000000E+00 -0.27919805533E+04  0.27919805533E+04  0.50400001928E-02 0.  1.
    10030    2    1    2    0    0  0.00000000000E+00  0.00000000000E+00 -0.13509889729E+04  0.42329721337E+04  0.40115934340E+04 0.  0.
        2    1    3    3  502    0  0.73514535441E+03 -0.13106313482E+04  0.72636409551E+03  0.16690710058E+04  0.25500000920E-02 0. -1.
       -2    1    3    3    0  502 -0.73514535441E+03  0.13106313482E+04 -0.20773530684E+04  0.25639011280E+04  0.25500000920E-02 0.  1.
</event>
<event>
 5   0  0.5945387E-08  0.4003023E+04  0.7818609E-02  0.8003937E-01
       -2   -1    0    0    0  501  0.00000000000E+00  0.00000000000E+00  0.26117732049E+04  0.26117732049E+04  0.25500000920E-02 0. -1.
        2   -1    0    0  501    0  0.00000000000E+00  0.00000000000E+00 -0.15338426229E+04  0.15338426229E+04  0.25500000920E-02 0.  1.
    10030    2    1    2    0    0  0.00000000000E+00  0.00000000000E+00  0.10779305820E+04  0.41456158278E+04  0.40030233889E+04 0.  0.
        3    1    3    3  502    0 -0.11344542725E+04 -0.11686338037E+04  0.17437437877E+04  0.23860708017E+04  0.10100000352E+00 0. -1.
       -3    1    3    3    0  502  0.11344542725E+04  0.11686338037E+04 -0.66581320567E+03  0.17595450260E+04  0.10100000352E+00 0.  1.
</event>
<event>
 5   0  0.6161563E-08  0.3989543E+04  0.7818609E-02  0.8006659E-01
       -2   -1    0    0    0  501  0.00000000000E+00  0.00000000000E+00  0.16940963968E+04  0.16940963968E+04  0.25500000920E-02 0.  1.
        2   -1    0    0  501    0  0.00000000000E+00  0.00000000000E+00 -0.23488120632E+04  0.23488120632E+04  0.25500000920E-02 0. -1.
    10030    2    1    2    0    0  0.00000000000E+00  0.00000000000E+00 -0.65471566642E+03  0.40429084601E+04  0.39895433589E+04 0.  0.
        1    1    3    3  502    0 -0.11294561581E+03  0.93755913880E+03 -0.21079438677E+04  0.23098054464E+04  0.50400001928E-02 0. -1.
       -1    1    3    3    0  502  0.11294561581E+03 -0.93755913880E+03  0.14532282013E+04  0.17331030136E+04  0.50400001928E-02 0.  1.
</event>
<event>
 5   0  0.5945387E-08  0.3951232E+04  0.7818609E-02  0.8014457E-01
        2   -1    0    0  501    0  0.00000000000E+00  0.00000000000E+00  0.22158195861E+04  0.22158195861E+04  0.25500000920E-02 0.  1.
       -2   -1    0    0    0  501  0.00000000000E+00  0.00000000000E+00 -0.17614518321E+04  0.17614518321E+04  0.25500000920E-02 0. -1.
    10030    2    1    2    0    0  0.00000000000E+00  0.00000000000E+00  0.45436775400E+03  0.39772714182E+04  0.39512324505E+04 0.  0.
        3    1    3    3  502    0 -0.64653833300E+02  0.79713347586E+03 -0.15912253823E+04  0.17808986844E+04  0.10100000352E+00 0. -1.
       -3    1    3    3    0  502  0.64653833300E+02 -0.79713347586E+03  0.20455931363E+04  0.21963727338E+04  0.10100000352E+00 0.  1.
</event>
<event>
 5   0  0.1879500E-08  0.3999767E+04  0.7818609E-02  0.8004594E-01
        1   -1    0    0  501    0  0.00000000000E+00  0.00000000000E+00  0.18407524095E+04  0.18407524096E+04  0.50400001928E-02 0. -1.
       -1   -1    0    0    0  501  0.00000000000E+00  0.00000000000E+00 -0.21727713898E+04  0.21727713898E+04  0.50400001928E-02 0.  1.
    10030    2    1    2    0    0  0.00000000000E+00  0.00000000000E+00 -0.33201898021E+03  0.40135237993E+04  0.39997670788E+04 0.  0.
        1    1    3    3  502    0  0.17890146731E+04 -0.24035711353E+03 -0.10298939493E+04  0.20782267897E+04  0.50400001928E-02 0.  1.
       -1    1    3    3    0  502 -0.17890146731E+04  0.24035711353E+03  0.69787496909E+03  0.19352970096E+04  0.50400001928E-02 0. -1.
</event>
<event>
 5   0  0.5951623E-08  0.3995287E+04  0.7818609E-02  0.8005498E-01
        2   -1    0    0  501    0  0.00000000000E+00  0.00000000000E+00  0.23215630709E+04  0.23215630709E+04  0.25500000920E-02 0.  1.
       -2   -1    0    0    0  501  0.00000000000E+00  0.00000000000E+00 -0.17189196105E+04  0.17189196105E+04  0.25500000920E-02 0. -1.
    10030    2    1    2    0    0  0.00000000000E+00  0.00000000000E+00  0.60264346042E+03  0.40404826815E+04  0.39952873687E+04 0.  0.
        2    1    3    3  502    0 -0.13241834772E+04  0.23725157883E+03 -0.11921470326E+04  0.17974884535E+04  0.25500000920E-02 0. -1.
       -2    1    3    3    0  502  0.13241834772E+04 -0.23725157883E+03  0.17947904930E+04  0.22429942280E+04  0.25500000920E-02 0.  1.
</event>
<event>
 5   0  0.5951623E-08  0.4002987E+04  0.7818609E-02  0.8003944E-01
       -2   -1    0    0    0  501  0.00000000000E+00  0.00000000000E+00  0.26293968941E+04  0.26293968941E+04  0.25500000920E-02 0.  1.
        2   -1    0    0  501    0  0.00000000000E+00  0.00000000000E+00 -0.15235345266E+04  0.15235345266E+04  0.25500000920E-02 0. -1.
    10030    2    1    2    0    0  0.00000000000E+00  0.00000000000E+00  0.11058623676E+04  0.41529314207E+04  0.40029873606E+04 0.  0.
        2    1    3    3  502    0  0.87851957155E+03 -0.10395904593E+04  0.20753569340E+04  0.24818644935E+04  0.25500000920E-02 0.  1.
       -2    1    3    3    0  502 -0.87851957155E+03  0.10395904593E+04 -0.96949456647E+03  0.16710669272E+04  0.25500000920E-02 0. -1.
</event>
<event>
 5   0  0.1879500E-08  0.4009956E+04  0.7818609E-02  0.8002541E-01
        1   -1    0    0  501    0  0.00000000000E+00  0.00000000000E+00  0.26035745185E+04  0.26035745185E+04  0.50400001928E-02 0.  1.
       -1   -1    0    0    0  501  0.00000000000E+00  0.00000000000E+00 -0.15440067475E+04  0.15440067475E+04  0.50400001928E-02 0. -1.
    10030    2    1    2    0    0  0.00000000000E+00  0.00000000000E+00  0.10595677710E+04  0.41475812659E+04  0.40099559220E+04 0.  0.
        1    1    3    3  502    0  0.12678960112E+04  0.11137537328E+04  0.16494948913E+04  0.23598392040E+04  0.50400001928E-02 0.  1.
       -1    1    3    3    0  502 -0.12678960112E+04 -0.11137537328E+04 -0.58992712024E+03  0.17877420619E+04  0.50400001928E-02 0. -1.
</event>
<event>
 5   0  0.1879500E-08  0.4006109E+04  0.7818609E-02  0.8003315E-01
       -1   -1    0    0    0  501  0.00000000000E+00  0.00000000000E+00  0.19025698294E+04  0.19025698294E+04  0.50400001928E-02 0. -1.
        1   -1    0    0  501    0  0.00000000000E+00  0.00000000000E+00 -0.21088466220E+04  0.21088466221E+04  0.50400001928E-02 0.  1.
    10030    2    1    2    0    0  0.00000000000E+00  0.00000000000E+00 -0.20627679266E+03  0.40114164515E+04  0.40061093135E+04 0.  0.
        4    1    3    3  502    0 -0.76847154346E+03 -0.18515384031E+03 -0.19460645514E+04  0.21004759720E+04  0.12699999809E+01 0.  1.
       -4    1    3    3    0  502  0.76847154346E+03  0.18515384031E+03  0.17397877588E+04  0.19109404795E+04  0.12699999809E+01 0. -1.
</event>
<event>
 5   0  0.1879500E-08  0.3995582E+04  0.7818609E-02  0.8005438E-01
        3   -1    0    0  501    0  0.00000000000E+00  0.00000000000E+00  0.20595125316E+04  0.20595125341E+04  0.10100000352E+00 0. -1.
       -3   -1    0    0    0  501  0.00000000000E+00  0.00000000000E+00 -0.19379195011E+04  0.19379195037E+04  0.10100000352E+00 0.  1.
    10030    2    1    2    0    0  0.00000000000E+00  0.00000000000E+00  0.12159303057E+03  0.39974320378E+04  0.39955823145E+04 0.  0.
        2    1    3    3  502    0 -0.14658726863E+03  0.10706713429E+04  0.17418554825E+04  0.20498501101E+04  0.25500000920E-02 0. -1.
       -2    1    3    3    0  502  0.14658726863E+03 -0.10706713429E+04 -0.16202624520E+04  0.19475819277E+04  0.25500000920E-02 0.  1.
</event>
<event>
 5   0  0.5846812E-08  0.3903569E+04  0.7818609E-02  0.8024287E-01
        2   -1    0    0  501    0  0.00000000000E+00  0.00000000000E+00  0.26298270332E+04  0.26298270332E+04  0.25500000920E-02 0.  1.
       -2   -1    0    0    0  501  0.00000000000E+00  0.00000000000E+00 -0.14485603921E+04  0.14485603921E+04  0.25500000920E-02 0. -1.
    10030    2    1    2    0    0  0.00000000000E+00  0.00000000000E+00  0.11812666411E+04  0.40783874252E+04  0.39035692786E+04 0.  0.
        4    1    3    3  502    0  0.13848038279E+04  0.13709656210E+04  0.47507580017E+03  0.20057235614E+04  0.12699999809E+01 0. -1.
       -4    1    3    3    0  502 -0.13848038279E+04 -0.13709656210E+04  0.70619084095E+03  0.20726638639E+04  0.12699999809E+01 0.  1.
</event>
<event>
 5   0  0.1879500E-08  0.3936460E+04  0.7818609E-02  0.8017489E-01
        1   -1    0    0  501    0  0.00000000000E+00  0.00000000000E+00  0.14714280835E+04  0.14714280835E+04  0.50400001928E-02 0.  1.
       -1   -1    0    0    0  501  0.00000000000E+00  0.00000000000E+00 -0.26327683271E+04  0.26327683271E+04  0.50400001928E-02 0. -1.
    10030    2    1    2    0    0  0.00000000000E+00  0.00000000000E+00 -0.11613402436E+04  0.41041964106E+04  0.39364599599E+04 0.  0.
        5    1    3    3  502    0  0.55119749246E+03 -0.17307737429E+04 -0.13709326208E+04  0.22757141221E+04  0.46999998093E+01 0. -1.
       -5    1    3    3    0  502 -0.55119749246E+03  0.17307737429E+04  0.20959237719E+03  0.18284822885E+04  0.46999998093E+01 0.  1.
</event>
<event>
 5   0  0.6161563E-08  0.4003601E+04  0.7818609E-02  0.8003820E-01
       -2   -1    0    0    0  501  0.00000000000E+00  0.00000000000E+00  0.16073058599E+04  0.16073058599E+04  0.25500000920E-02 0. -1.
        2   -1    0    0  501    0  0.00000000000E+00  0.00000000000E+00 -0.24931194979E+04  0.24931194979E+04  0.25500000920E-02 0.  1.
    10030    2    1    2    0    0  0.00000000000E+00  0.00000000000E+00 -0.88581363795E+03  0.41004253578E+04  0.40036011682E+04 0.  0.
        1    1    3    3  502    0 -0.89376134413E+03  0.17146904666E+04 -0.97334414713E+03  0.21648028929E+04  0.50400001928E-02 0. -1.
       -1    1    3    3    0  502  0.89376134413E+03 -0.17146904666E+04  0.87530509179E+02  0.19356224649E+04  0.50400001928E-02 0.  1.
</event>
<event>
 5   0  0.1879500E-08  0.4000230E+04  0.7818609E-02  0.8004500E-01
       -1   -1    0    0    0  501  0.00000000000E+00  0.00000000000E+00  0.29503800139E+04  0.29503800139E+04  0.50400001928E-02 0. -1.
        1   -1    0    0  501    0  0.00000000000E+00  0.00000000000E+00 -0.13559133729E+04  0.13559133729E+04  0.50400001928E-02 0.  1.
    10030    2    1    2    0    0  0.00000000000E+00  0.00000000000E+00  0.15944666410E+04  0.43062933868E+04  0.40002298514E+04 0.  0.
        5    1    3    3  502    0  0.32654909674E+03 -0.19731089428E+04  0.76990576104E+03  0.21430282741E+04  0.46999998093E+01 0.  1.
       -5    1    3    3    0  502 -0.32654909674E+03  0.19731089428E+04  0.82456087997E+03  0.21632651127E+04  0.46999998093E+01 0. -1.
</event>
<event>
 5   0  0.1879500E-08  0.3982122E+04  0.7818609E-02  0.8008163E-01
        1   -1    0    0  501    0  0.00000000000E+00  0.00000000000E+00  0.24921127298E+04  0.24921127298E+04  0.50400001928E-02 0.  1.
       -1   -1    0    0    0  501  0.00000000000E+00  0.00000000000E+00 -0.15907481483E+04  0.15907481483E+04  0.50400001928E-02 0. -1.
    10030    2    1    2    0    0  0.00000000000E+00  0.00000000000E+00  0.90136458149E+03  0.40828608781E+04  0.39821219019E+04 0.  0.
        3    1    3    3  502    0  0.16383160130E+04  0.82481915280E+03 -0.34345551474E+03  0.18661103113E+04  0.10100000352E+00 0. -1.
       -3    1    3    3    0  502 -0.16383160130E+04 -0.82481915280E+03  0.12448200962E+04  0.22167505668E+04  0.10100000352E+00 0.  1.
</event>
<event>
 5   0  0.1879500E-08  0.4026966E+04  0.7818609E-02  0.7999129E-01
       -1   -1    0    0    0  501  0.00000000000E+00  0.00000000000E+00  0.14551917652E+04  0.14551917652E+04  0.50400001928E-02 0. -1.
        1   -1    0    0  501    0  0.00000000000E+00  0.00000000000E+00 -0.27859656143E+04  0.27859656143E+04  0.50400001928E-02 0.  1.
    10030    2    1    2    0    0  0.00000000000E+00  0.00000000000E+00 -0.13307738491E+04  0.42411573795E+04  0.40269662129E+04 0.  0.
        3    1    3    3  502    0 -0.10421651003E+04  0.79270278941E+03  0.94555485477E+03  0.16151036506E+04  0.10100000352E+00 0. -1.
       -3    1    3    3    0  502  0.10421651003E+04 -0.79270278941E+03 -0.22763287039E+04  0.26260537289E+04  0.10100000352E+00 0.  1.
</event>
<event>
 5   0  0.1879500E-08  0.4029906E+04  0.7818609E-02  0.7998541E-01
        3   -1    0    0  501    0  0.00000000000E+00  0.00000000000E+00  0.26614888108E+04  0.26614888127E+04  0.10100000352E+00 0.  1.
       -3   -1    0    0    0  501  0.00000000000E+00  0.00000000000E+00 -0.15254753406E+04  0.15254753439E+04  0.10100000352E+00 0. -1.
    10030    2    1    2    0    0  0.00000000000E+00  0.00000000000E+00  0.11360134702E+04  0.41869641566E+04  0.40299059846E+04 0.  0.
        3    1    3    3  502    0 -0.93519228101E+03 -0.14917238565E+04 -0.45008670914E+03  0.18172514197E+04  0.10100000352E+00 0. -1.
       -3    1    3    3    0  502  0.93519228101E+03  0.14917238565E+04  0.15861001793E+04  0.23697127369E+04  0.10100000352E+00 0.  1.
</event>
<event>
 5   0  0.5846812E-08  0.3998835E+04  0.7818609E-02  0.8004782E-01
       -2   -1    0    0    0  501  0.00000000000E+00  0.00000000000E+00  0.16579430753E+04  0.16579430753E+04  0.25500000920E-02 0.  1.
        2   -1    0    0  501    0  0.00000000000E+00  0.00000000000E+00 -0.24112231711E+04  0.24112231711E+04  0.25500000920E-02 0. -1.
    10030    2    1    2    0    0  0.00000000000E+00  0.00000000000E+00 -0.75328009584E+03  0.40691662464E+04  0.39988352101E+04 0.  0.
        4    1    3    3  502    0 -0.96239073567E+03 -0.35425378319E+03 -0.21232126245E+04  0.23579069390E+04  0.12699999809E+01 0. -1.
       -4    1    3    3    0  502  0.96239073567E+03  0.35425378319E+03  0.13699325287E+04  0.17112593074E+04  0.12699999809E+01 0.  1.
</event>
<event>
 5   0  0.5945387E-08  0.4001006E+04  0.7818609E-02  0.8004344E-01
       -2   -1    0    0    0  501  0.00000000000E+00  0.00000000000E+00  0.14572184927E+04  0.14572184927E+04  0.25500000920E-02 0. -1.
        2   -1    0    0  501    0  0.00000000000E+00  0.00000000000E+00 -0.27463367020E+04  0.27463367020E+04  0.25500000920E-02 0.  1.
    10030    2    1    2    0    0  0.00000000000E+00  0.00000000000E+00 -0.12891182093E+04  0.42035551948E+04  0.40010061882E+04 0.  0.
        3    1    3    3  502    0  0.19105033774E+04 -0.42046180976E+03 -0.20479859059E+03  0.19669147824E+04  0.10100000352E+00 0.  1.
       -3    1    3    3    0  502 -0.19105033774E+04  0.42046180976E+03 -0.10843196187E+04  0.22366404124E+04  0.10100000352E+00 0. -1.
</event>
<event>
 5   0  0.5951623E-08  0.4019392E+04  0.7818609E-02  0.8000646E-01
        2   -1    0    0  501    0  0.00000000000E+00  0.00000000000E+00  0.20814670573E+04  0.20814670573E+04  0.25500000920E-02 0. -1.
       -2   -1    0    0    0  501  0.00000000000E+00  0.00000000000E+00 -0.19403994912E+04  0.19403994912E+04  0.25500000920E-02 0.  1.
    10030    2    1    2    0    0  0.00000000000E+00  0.00000000000E+00  0.14106756607E+03  0.40218665486E+04  0.40193918043E+04 0.  0.
        2    1    3    3  502    0  0.18500530987E+03  0.12267613397E+04 -0.15114859269E+04  0.19554436982E+04  0.25500000920E-02 0.  1.
       -2    1    3    3    0  502 -0.18500530987E+03 -0.12267613397E+04  0.16525534930E+04  0.20664228504E+04  0.25500000920E-02 0. -1.
</event>
<event>
 5   0  0.6161563E-08  0.4007983E+04  0.7818609E-02  0.8002938E-01
        2   -1    0    0  501    0  0.00000000000E+00  0.00000000000E+00  0.22221356838E+04  0.22221356838E+04  0.25500000920E-02 0.  1.
       -2   -1    0    0    0  501  0.00000000000E+00  0.00000000000E+00 -0.18072625752E+04  0.18072625752E+04  0.25500000920E-02 0. -1.
    10030    2    1    2    0    0  0.00000000000E+00  0.00000000000E+00  0.41487310863E+03  0.40293982590E+04  0.40079833624E+04 0.  0.
        1    1    3    3  502    0  0.17437672384E+04  0.74910414718E+03 -0.43950889387E+03  0.19480886204E+04  0.50400001928E-02 0.  1.
       -1    1    3    3    0  502 -0.17437672384E+04 -0.74910414718E+03  0.85438200251E+03  0.20813096385E+04  0.50400001928E-02 0. -1.
</event>
<event>
 5   0  0.5888700E-08  0.4013519E+04  0.7818609E-02  0.8001825E-01
        2   -1    0    0  501    0  0.00000000000E+00  0.00000000000E+00  0.25668869457E+04  0.25668869457E+04  0.25500000920E-02 0. -1.
       -2   -1    0    0    0  501  0.00000000000E+00  0.00000000000E+00 -0.15688593160E+04  0.15688593160E+04  0.25500000920E-02 0.  1.
    10030    2    1    2    0    0  0.00000000000E+00  0.00000000000E+00  0.99802762973E+03  0.41357462617E+04  0.40135194021E+04 0.  0.
        5    1    3    3  502    0  0.14688023075E+04 -0.13436216322E+04  0.76043873951E+03  0.21309595199E+04  0.46999998093E+01 0.  1.
       -5    1    3    3    0  502 -0.14688023075E+04  0.13436216322E+04  0.23758889022E+03  0.20047867417E+04  0.46999998093E+01 0. -1.
</event>
<event>
 5   0  0.5945387E-08  0.4001259E+04  0.7818609E-02  0.8004293E-01
       -2   -1    0    0    0  501  0.00000000000E+00  0.00000000000E+00  0.20423858894E+04  0.20423858894E+04  0.25500000920E-02 0.  1.
        2   -1    0    0  501    0  0.00000000000E+00  0.00000000000E+00 -0.19597265219E+04  0.19597265219E+04  0.25500000920E-02 0. -1.
    10030    2    1    2    0    0  0.00000000000E+00  0.00000000000E+00  0.82659367509E+02  0.40021124114E+04  0.40012586997E+04 0.  0.
        3    1    3    3  502    0  0.14454885244E+04 -0.12317734927E+04 -0.58794266938E+03  0.19880592557E+04  0.10100000352E+00 0.  1.
       -3    1    3    3    0  502 -0.14454885244E+04  0.12317734927E+04  0.67060203689E+03  0.20140531556E+04  0.10100000352E+00 0. -1.
</event>
<event>
 5   0  0.1879500E-08  0.3986860E+04  0.7818609E-02  0.8007203E-01
        1   -1    0    0  501    0  0.00000000000E+00  0.00000000000E+00  0.25721531031E+04  0.25721531031E+04  0.50400001928E-02 0. -1.
       -1   -1    0    0    0  501  0.00000000000E+00  0.00000000000E+00 -0.15449167443E+04  0.15449167443E+04  0.50400001928E-02 0.  1.
    10030    2    1    2    0    0  0.00000000000E+00  0.00000000000E+00  0.10272363588E+04  0.41170698474E+04  0.39868596152E+04 0.  0.
        3    1    3    3  502    0 -0.12459399436E+04 -0.66175529625E+03  0.19679743012E+04  0.24214064664E+04  0.10100000352E+00 0. -1.
       -3    1    3    3    0  502  0.12459399436E+04  0.66175529625E+03 -0.94073794237E+03  0.16956633810E+04  0.10100000352E+00 0.  1.
</event>
<event>
 5   0  0.1879500E-08  0.3891849E+04  0.7818609E-02  0.8026727E-01
       -1   -1    0    0    0  501  0.00000000000E+00  0.00000000000E+00  0.15370070239E+04  0.15370070239E+04  0.50400001928E-02 0. -1.
        1   -1    0    0  501    0  0.00000000000E+00  0.00000000000E+00 -0.24636332853E+04  0.24636332854E+04  0.50400001928E-02 0.  1.
    10030    2    1    2    0    0  0.00000000000E+00  0.00000000000E+00 -0.92662626147E+03  0.40006403092E+04  0.38918487452E+04 0.  0.
        3    1    3    3  502    0 -0.14846365689E+04 -0.45236748104E+03  0.74331342836E+03  0.17208419284E+04  0.10100000352E+00 0. -1.
       -3    1    3    3    0  502  0.14846365689E+04  0.45236748104E+03 -0.16699396898E+04  0.22797983809E+04  0.10100000352E+00 0.  1.
</event>
<event>
 5   0  0.1879500E-08  0.3998675E+04  0.7818609E-02  0.8004814E-01
       -1   -1    0    0    0  501  0.00000000000E+00  0.00000000000E+00  0.17437426182E+04  0.17437426182E+04  0.50400001928E-02 0. -1.
        1   -1    0    0  501    0  0.00000000000E+00  0.00000000000E+00 -0.22923967088E+04  0.22923967088E+04  0.50400001928E-02 0.  1.
    10030    2    1    2    0    0  0.00000000000E+00  0.00000000000E+00 -0.54865409053E+03  0.40361393270E+04  0.39986746999E+04 0.  0.
        5    1    3    3  502    0  0.93980687651E+03 -0.16709163928E+04  0.29855487494E+03  0.19401947480E+04  0.46999998093E+01 0.  1.
       -5    1    3    3    0  502 -0.93980687651E+03  0.16709163928E+04 -0.84720896547E+03  0.20959445790E+04  0.46999998093E+01 0. -1.
</event>
<event>
 5   0  0.1879500E-08  0.4025124E+04  0.7818609E-02  0.7999497E-01
        1   -1    0    0  501    0  0.00000000000E+00  0.00000000000E+00  0.22663057651E+04  0.22663057651E+04  0.50400001928E-02 0. -1.
       -1   -1    0    0    0  501  0.00000000000E+00  0.00000000000E+00 -0.17872286022E+04  0.17872286022E+04  0.50400001928E-02 0.  1.
    10030    2    1    2    0    0  0.00000000000E+00  0.00000000000E+00  0.47907716289E+03  0.40535343673E+04  0.40251243384E+04 0.  0.
        3    1    3    3  502    0 -0.61891618902E+03 -0.83377296261E+03 -0.14966285054E+04  0.18215739062E+04  0.10100000352E+00 0.  1.
       -3    1    3    3    0  502  0.61891618902E+03  0.83377296261E+03  0.19757056683E+04  0.22319604612E+04  0.10100000352E+00 0. -1.
</event>
<event>
 5   0  0.5951623E-08  0.4019359E+04  0.7818609E-02  0.8000653E-01
        2   -1    0    0  501    0  0.00000000000E+00  0.00000000000E+00  0.27296310739E+04  0.27296310739E+04  0.25500000920E-02 0.  1.
       -2   -1    0    0    0  501  0.00000000000E+00  0.00000000000E+00 -0.14796183536E+04  0.14796183536E+04  0.25500000920E-02 0. -1.
    10030    2    1    2    0    0  0.00000000000E+00  0.00000000000E+00  0.12500127204E+04  0.42092494275E+04  0.40193592700E+04 0.  0.
        2    1    3    3  502    0 -0.66168608300E+03  0.25490626527E+03  0.25942722805E+04  0.26894338329E+04  0.25500000920E-02 0.  1.
       -2    1    3    3    0  502  0.66168608300E+03 -0.25490626527E+03 -0.13442595601E+04  0.15198155946E+04  0.25500000920E-02 0. -1.
</event>
<event>
 5   0  0.5945387E-08  0.3998498E+04  0.7818609E-02  0.8004850E-01
       -2   -1    0    0    0  501  0.00000000000E+00  0.00000000000E+00  0.20111286198E+04  0.20111286198E+04  0.25500000920E-02 0.  1.
        2   -1    0    0  501    0  0.00000000000E+00  0.00000000000E+00 -0.19874394768E+04  0.19874394768E+04  0.25500000920E-02 0. -1.
    10030    2    1    2    0    0  0.00000000000E+00  0.00000000000E+00  0.23689143037E+02  0.39985680966E+04  0.39984979240E+04 0.  0.
        3    1    3    3  502    0 -0.11865264599E+04  0.73759865777E+03  0.14419394510E+04  0.20077565118E+04  0.10100000352E+00 0.  1.
       -3    1    3    3    0  502  0.11865264599E+04 -0.73759865777E+03 -0.14182503080E+04  0.19908115848E+04  0.10100000352E+00 0. -1.
</event>
<event>
 5   0  0.1879500E-08  0.3960066E+04  0.7818609E-02  0.8012651E-01
       -1   -1    0    0    0  501  0.00000000000E+00  0.00000000000E+00  0.18530721517E+04  0.18530721517E+04  0.50400001928E-02 0. -1.
        1   -1    0    0  501    0  0.00000000000E+00  0.00000000000E+00 -0.21156925211E+04  0.21156925211E+04  0.50400001928E-02 0.  1.
    10030    2    1    2    0    0  0.00000000000E+00  0.00000000000E+00 -0.26262036940E+03  0.39687646728E+04  0.39600661067E+04 0.  0.
        3    1    3    3  502    0 -0.18681910464E+03  0.12929695530E+04  0.13598624139E+04  0.18857087362E+04  0.10100000352E+00 0. -1.
       -3    1    3    3    0  502  0.18681910464E+03 -0.12929695530E+04 -0.16224827833E+04  0.20830559366E+04  0.10100000352E+00 0.  1.
</event>
<event>
 5   0  0.1879500E-08  0.3987422E+04  0.7818609E-02  0.8007089E-01
       -1   -1    0    0    0  501  0.00000000000E+00  0.00000000000E+00  0.13350292381E+04  0.13350292381E+04  0.50400001928E-02 0.  1.
        1   -1    0    0  501    0  0.00000000000E+00  0.00000000000E+00 -0.29773763880E+04  0.29773763880E+04  0.50400001928E-02 0. -1.
    10030    2    1    2    0    0  0.00000000000E+00  0.00000000000E+00 -0.16423471499E+04  0.43124056262E+04  0.39874224913E+04 0.  0.
        2    1    3    3  502    0  0.16312161903E+04  0.94183800713E+03 -0.15278500918E+04  0.24253352334E+04  0.25500000920E-02 0. -1.
       -2    1    3    3    0  502 -0.16312161903E+04 -0.94183800713E+03 -0.11449705809E+03  0.18870703928E+04  0.25500000920E-02 0.  1.
</event>
<event>
 5   0  0.5951623E-08  0.3988133E+04  0.7818609E-02  0.8006945E-01
        2   -1    0    0  501    0  0.00000000000E+00  0.00000000000E+00  0.17095751826E+04  0.17095751826E+04  0.25500000920E-02 0. -1.
       -2   -1    0    0    0  501  0.00000000000E+00  0.00000000000E+00 -0.23259002475E+04  0.23259002475E+04  0.25500000920E-02 0.  1.
    10030    2    1    2    0    0  0.00000000000E+00  0.00000000000E+00 -0.61632506487E+03  0.40354754302E+04  0.39881330672E+04 0.  0.
        2    1    3    3  502    0 -0.11857327324E+03 -0.93339917631E+03 -0.20871591005E+04  0.22894380870E+04  0.25500000920E-02 0.  1.
       -2    1    3    3    0  502  0.11857327324E+03  0.93339917631E+03  0.14708340356E+04  0.17460373432E+04  0.25500000920E-02 0. -1.
</event>
<event>
 5   0  0.1879500E-08  0.4010206E+04  0.7818609E-02  0.8002491E-01
       -1   -1    0    0    0  501  0.00000000000E+00  0.00000000000E+00  0.28133684318E+04  0.28133684318E+04  0.50400001928E-02 0. -1.
        1   -1    0    0  501    0  0.00000000000E+00  0.00000000000E+00 -0.14290478513E+04  0.14290478513E+04  0.50400001928E-02 0.  1.
    10030    2    1    2    0    0  0.00000000000E+00  0.00000000000E+00  0.13843205805E+04  0.42424162831E+04  0.40102060358E+04 0.  0.
        4    1    3    3  502    0  0.50275127423E+03  0.16937385496E+04  0.16951786885E+04  0.24484978083E+04  0.12699999809E+01 0. -1.
       -4    1    3    3    0  502 -0.50275127423E+03 -0.16937385496E+04 -0.31085810798E+03  0.17939184749E+04  0.12699999809E+01 0.  1.
</event>
<event>
 5   0  0.6161563E-08  0.3980600E+04  0.7818609E-02  0.8008472E-01
        2   -1    0    0  501    0  0.00000000000E+00  0.00000000000E+00  0.23297536815E+04  0.23297536815E+04  0.25500000920E-02 0. -1.
       -2   -1    0    0    0  501  0.00000000000E+00  0.00000000000E+00 -0.17003057975E+04  0.17003057975E+04  0.25500000920E-02 0.  1.
    10030    2    1    2    0    0  0.00000000000E+00  0.00000000000E+00  0.62944788396E+03  0.40300594790E+04  0.39805997997E+04 0.  0.
        1    1    3    3  502    0  0.15833536224E+03  0.13056027749E+04 -0.11977000146E+04  0.17788069085E+04  0.50400001928E-02 0.  1.
       -1    1    3    3    0  502 -0.15833536224E+03 -0.13056027749E+04  0.18271478986E+04  0.22512525705E+04  0.50400001928E-02 0. -1.
</event>
<event>
 5   0  0.1879500E-08  0.4010589E+04  0.7818609E-02  0.8002414E-01
        1   -1    0    0  501    0  0.00000000000E+00  0.00000000000E+00  0.27610360711E+04  0.27610360711E+04  0.50400001928E-02 0. -1.
       -1   -1    0    0    0  501  0.00000000000E+00  0.00000000000E+00 -0.14564123220E+04  0.14564123220E+04  0.50400001928E-02 0.  1.
    10030    2    1    2    0    0  0.00000000000E+00  0.00000000000E+00  0.13046237491E+04  0.42174483931E+04  0.40105894607E+04 0.  0.
        4    1    3    3  502    0 -0.92776065155E+02 -0.16616724839E+04 -0.52406646382E+03  0.17448238058E+04  0.12699999809E+01 0.  1.
       -4    1    3    3    0  502  0.92776065155E+02  0.16616724839E+04  0.18286902129E+04  0.24726245873E+04  0.12699999809E+01 0. -1.
</event>
<event>
 5   0  0.1879500E-08  0.3978051E+04  0.7818609E-02  0.8008989E-01
       -1   -1    0    0    0  501  0.00000000000E+00  0.00000000000E+00  0.26156460225E+04  0.26156460225E+04  0.50400001928E-02 0. -1.
        1   -1    0    0  501    0  0.00000000000E+00  0.00000000000E+00 -0.15125221954E+04  0.15125221954E+04  0.50400001928E-02 0.  1.
    10030    2    1    2    0    0  0.00000000000E+00  0.00000000000E+00  0.11031238271E+04  0.41281682179E+04  0.39780511129E+04 0.  0.
        3    1    3    3  502    0 -0.58198164092E+03 -0.18070155892E+04  0.11674343338E+04  0.22286567487E+04  0.10100000352E+00 0.  1.
       -3    1    3    3    0  502  0.58198164092E+03  0.18070155892E+04 -0.64310506640E+02  0.18995114691E+04  0.10100000352E+00 0. -1.
</event>
<event>
 5   0  0.1879500E-08  0.4110397E+04  0.7818609E-02  0.7982639E-01
        1   -1    0    0  501    0  0.00000000000E+00  0.00000000000E+00  0.30067929691E+04  0.30067929691E+04  0.50400001928E-02 0. -1.
       -1   -1    0    0    0  501  0.00000000000E+00  0.00000000000E+00 -0.14047659880E+04  0.14047659880E+04  0.50400001928E-02 0.  1.
    10030    2    1    2    0    0  0.00000000000E+00  0.00000000000E+00  0.16020269811E+04  0.44115589571E+04  0.41103968158E+04 0.  0.
        2    1    3    3  502    0  0.22647874822E+03  0.17797638617E+04  0.18769555296E+04  0.25965003537E+04  0.25500000920E-02 0.  1.
       -2    1    3    3    0  502 -0.22647874822E+03 -0.17797638617E+04 -0.27492854849E+03  0.18150586033E+04  0.25500000920E-02 0. -1.
</event>
<event>
 5   0  0.6161563E-08  0.3992060E+04  0.7818609E-02  0.8006150E-01
        2   -1    0    0  501    0  0.00000000000E+00  0.00000000000E+00  0.20815093408E+04  0.20815093408E+04  0.25500000920E-02 0. -1.
       -2   -1    0    0    0  501  0.00000000000E+00  0.00000000000E+00 -0.19140606455E+04  0.19140606455E+04  0.25500000920E-02 0.  1.
    10030    2    1    2    0    0  0.00000000000E+00  0.00000000000E+00  0.16744869529E+03  0.39955699862E+04  0.39920596751E+04 0.  0.
        1    1    3    3  502    0 -0.76736519584E+03  0.86864830748E+02  0.19259243170E+04  0.20749889921E+04  0.50400001928E-02 0. -1.
       -1    1    3    3    0  502  0.76736519584E+03 -0.86864830748E+02 -0.17584756217E+04  0.19205809941E+04  0.50400001928E-02 0.  1.
</event>
<event>
 5   0  0.5888700E-08  0.4012538E+04  0.7818609E-02  0.8002022E-01
        2   -1    0    0  501    0  0.00000000000E+00  0.00000000000E+00  0.16177901846E+04  0.16177901846E+04  0.25500000920E-02 0.  1.
       -2   -1    0    0    0  501  0.00000000000E+00  0.00000000000E+00 -0.24880325524E+04  0.24880325524E+04  0.25500000920E-02 0. -1.
    10030    2    1    2    0    0  0.00000000000E+00  0.00000000000E+00 -0.87024236775E+03  0.41058227370E+04  0.40125376719E+04 0.  0.
        5    1    3    3  502    0  0.39235819169E+03  0.14705132953E+04 -0.17726983403E+04  0.23364151596E+04  0.46999998093E+01 0. -1.
       -5    1    3    3    0  502 -0.39235819169E+03 -0.14705132953E+04  0.90245597255E+03  0.17694075773E+04  0.46999998093E+01 0.  1.
</event>
<event>
 5   0  0.1879500E-08  0.3989536E+04  0.7818609E-02  0.8006661E-01
       -1   -1    0    0    0  501  0.00000000000E+00  0.00000000000E+00  0.17628601978E+04  0.17628601978E+04  0.50400001928E-02 0.  1.
        1   -1    0    0  501    0  0.00000000000E+00  0.00000000000E+00 -0.22571832784E+04  0.22571832784E+04  0.50400001928E-02 0. -1.
    10030    2    1    2    0    0  0.00000000000E+00  0.00000000000E+00 -0.49432308059E+03  0.40200434763E+04  0.39895355924E+04 0.  0.
        5    1    3    3  502    0 -0.18208627358E+04  0.40617786247E+03 -0.95864515999E+03  0.20975090444E+04  0.46999998093E+01 0. -1.
       -5    1    3    3    0  502  0.18208627358E+04 -0.40617786247E+03  0.46432207940E+03  0.19225344319E+04  0.46999998093E+01 0.  1.
</event>
<event>
 5   0  0.5846812E-08  0.3997737E+04  0.7818609E-02  0.8005003E-01
       -2   -1    0    0    0  501  0.00000000000E+00  0.00000000000E+00  0.24473295103E+04  0.24473295103E+04  0.25500000920E-02 0. -1.
        2   -1    0    0  501    0  0.00000000000E+00  0.00000000000E+00 -0.16325854214E+04  0.16325854214E+04  0.25500000920E-02 0.  1.
    10030    2    1    2    0    0  0.00000000000E+00  0.00000000000E+00  0.81474408894E+03  0.40799149317E+04  0.39977365996E+04 0.  0.
        4    1    3    3  502    0 -0.90300939429E+03 -0.41458391105E+03  0.21774317225E+04  0.23934319093E+04  0.12699999809E+01 0. -1.
       -4    1    3    3    0  502  0.90300939429E+03  0.41458391105E+03 -0.13626876335E+04  0.16864830224E+04  0.12699999809E+01 0.  1.
</event>
<event>
 5   0  0.1879500E-08  0.3975011E+04  0.7818609E-02  0.8009607E-01
       -1   -1    0    0    0  501  0.00000000000E+00  0.00000000000E+00  0.20992390624E+04  0.20992390624E+04  0.50400001928E-02 0.  1.
        1   -1    0    0  501    0  0.00000000000E+00  0.00000000000E+00 -0.18817191438E+04  0.18817191438E+04  0.50400001928E-02 0. -1.
    10030    2    1    2    0    0  0.00000000000E+00  0.00000000000E+00  0.21751991861E+03  0.39809582061E+04  0.39750111099E+04 0.  0.
        1    1    3    3  502    0 -0.30535901545E+03 -0.15161663747E+04  0.13588958105E+04  0.20587866397E+04  0.50400001928E-02 0. -1.
       -1    1    3    3    0  502  0.30535901545E+03  0.15161663747E+04 -0.11413758919E+04  0.19221715664E+04  0.50400001928E-02 0.  1.
</event>
<event>
 5   0  0.1879500E-08  0.3996611E+04  0.7818609E-02  0.8005231E-01
       -3   -1    0    0    0  501  0.00000000000E+00  0.00000000000E+00  0.22127223715E+04  0.22127223738E+04  0.10100000352E+00 0. -1.
        3   -1    0    0  501    0  0.00000000000E+00  0.00000000000E+00 -0.18046661076E+04  0.18046661104E+04  0.10100000352E+00 0.  1.
    10030    2    1    2    0    0  0.00000000000E+00  0.00000000000E+00  0.40805626391E+03  0.40173884842E+04  0.39966111042E+04 0.  0.
        2    1    3    3  502    0  0.92040085264E+03  0.13026966919E+04 -0.10060026664E+04  0.18857883671E+04  0.25500000920E-02 0.  1.
       -2    1    3    3    0  502 -0.92040085264E+03 -0.13026966919E+04  0.14140589303E+04  0.21316001171E+04  0.25500000920E-02 0. -1.
</event>
<event>
 5   0  0.1879500E-08  0.3976309E+04  0.7818609E-02  0.8009343E-01
       -1   -1    0    0    0  501  0.00000000000E+00  0.00000000000E+00  0.32367753869E+04  0.32367753869E+04  0.50400001928E-02 0. -1.
        1   -1    0    0  501    0  0.00000000000E+00  0.00000000000E+00 -0.12212028160E+04  0.12212028160E+04  0.50400001928E-02 0.  1.
    10030    2    1    2    0    0  0.00000000000E+00  0.00000000000E+00  0.20155725709E+04  0.44579782029E+04  0.39763094534E+04 0.  0.
        2    1    3    3  502    0  0.96595020570E+03 -0.17316073724E+04  0.11711618966E+04  0.23028556360E+04  0.25500000920E-02 0.  1.
       -2    1    3    3    0  502 -0.96595020570E+03  0.17316073724E+04  0.84441067428E+03  0.21551225670E+04  0.25500000920E-02 0. -1.
</event>
<event>
 5   0  0.1879500E-08  0.3988509E+04  0.7818609E-02  0.8006869E-01
       -1   -1    0    0    0  501  0.00000000000E+00  0.00000000000E+00  0.22449514025E+04  0.22449514025E+04  0.50400001928E-02 0.  1.
        1   -1    0    0  501    0  0.00000000000E+00  0.00000000000E+00 -0.17715530661E+04  0.17715530661E+04  0.50400001928E-02 0. -1.
    10030    2    1    2    0    0  0.00000000000E+00  0.00000000000E+00  0.47339833644E+03  0.40165044686E+04  0.39885087641E+04 0.  0.
        2    1    3    3  502    0 -0.75626268329E+03 -0.96606313033E+03  0.18199430637E+04  0.21948585314E+04  0.25500000920E-02 0.  1.
       -2    1    3    3    0  502  0.75626268329E+03  0.96606313033E+03 -0.13465447273E+04  0.18216459372E+04  0.25500000920E-02 0. -1.
</event>
<event>
 5   0  0.1879500E-08  0.4007986E+04  0.7818609E-02  0.8002937E-01
       -3   -1    0    0    0  501  0.00000000000E+00  0.00000000000E+00  0.23747962932E+04  0.23747962953E+04  0.10100000352E+00 0.  1.
        3   -1    0    0  501    0  0.00000000000E+00  0.00000000000E+00 -0.16910874834E+04  0.16910874864E+04  0.10100000352E+00 0. -1.
    10030    2    1    2    0    0  0.00000000000E+00  0.00000000000E+00  0.68370880977E+03  0.40658837817E+04  0.40079861764E+04 0.  0.
        5    1    3    3  502    0 -0.19381575228E+02 -0.87989678480E+02 -0.16890261782E+04  0.16914341103E+04  0.46999998093E+01 0. -1.
       -5    1    3    3    0  502  0.19381575228E+02  0.87989678480E+02  0.23727349879E+04  0.23744496714E+04  0.46999998093E+01 0.  1.
</event>
<event>
 5   0  0.1879500E-08  0.4009658E+04  0.7818609E-02  0.8002601E-01
        3   -1    0    0  501    0  0.00000000000E+00  0.00000000000E+00  0.30650757971E+04  0.30650757987E+04  0.10100000352E+00 0.  1.
       -3   -1    0    0    0  501  0.00000000000E+00  0.00000000000E+00 -0.13113340797E+04  0.13113340836E+04  0.10100000352E+00 0. -1.
    10030    2    1    2    0    0  0.00000000000E+00  0.00000000000E+00  0.17537417174E+04  0.43764098823E+04  0.40096575224E+04 0.  0.
        1    1    3    3  502    0 -0.82242645306E+03  0.12800888927E+04 -0.54803766223E+03  0.16172068894E+04  0.50400001928E-02 0. -1.
       -1    1    3    3    0  502  0.82242645306E+03 -0.12800888927E+04  0.23017793796E+04  0.27592029929E+04  0.50400001928E-02 0.  1.
</event>
<event>
 5   0  0.1879500E-08  0.3991773E+04  0.7818609E-02  0.8006208E-01
       -1   -1    0    0    0  501  0.00000000000E+00  0.00000000000E+00  0.14016814232E+04  0.14016814232E+04  0.50400001928E-02 0.  1.
        1   -1    0    0  501    0  0.00000000000E+00  0.00000000000E+00 -0.28419884477E+04  0.28419884477E+04  0.50400001928E-02 0. -1.
    10030    2    1    2    0    0  0.00000000000E+00  0.00000000000E+00 -0.14403070245E+04  0.42436698708E+04  0.39917727450E+04 0.  0.
        2    1    3    3  502    0 -0.10375493374E+04 -0.12471280353E+04  0.51585091910E+03  0.17023334381E+04  0.25500000920E-02 0.  1.
       -2    1    3    3    0  502  0.10375493374E+04  0.12471280353E+04 -0.19561579436E+04  0.25413364327E+04  0.25500000920E-02 0. -1.
</event>
<event>
 5   0  0.1879500E-08  0.4026223E+04  0.7818609E-02  0.7999277E-01
        1   -1    0    0  501    0  0.00000000000E+00  0.00000000000E+00  0.29018138399E+04  0.29018138399E+04  0.50400001928E-02 0.  1.
       -1   -1    0    0    0  501  0.00000000000E+00  0.00000000000E+00 -0.13965811522E+04  0.13965811522E+04  0.50400001928E-02 0. -1.
    10030    2    1    2    0    0  0.00000000000E+00  0.00000000000E+00  0.15052326878E+04  0.42983949921E+04  0.40262233003E+04 0.  0.
        2    1    3    3  502    0 -0.30278409467E+03 -0.32127641986E+03  0.28494979723E+04  0.28834936171E+04  0.25500000920E-02 0.  1.
       -2    1    3    3    0  502  0.30278409467E+03  0.32127641986E+03 -0.13442652845E+04  0.14149013750E+04  0.25500000920E-02 0. -1.
</event>
<event>
 5   0  0.1879500E-08  0.4000509E+04  0.7818609E-02  0.8004444E-01
        1   -1    0    0  501    0  0.00000000000E+00  0.00000000000E+00  0.12837409246E+04  0.12837409246E+04  0.50400001928E-02 0.  1.
       -1   -1    0    0    0  501  0.00000000000E+00  0.00000000000E+00 -0.31166869263E+04  0.31166869263E+04  0.50400001928E-02 0. -1.
    10030    2    1    2    0    0  0.00000000000E+00  0.00000000000E+00 -0.18329460017E+04  0.44004278510E+04  0.40005092459E+04 0.  0.
        2    1    3    3  502    0 -0.85705932651E+03 -0.17760190002E+04 -0.12849609001E+04  0.23537031871E+04  0.25500000920E-02 0. -1.
       -2    1    3    3    0  502  0.85705932651E+03  0.17760190002E+04 -0.54798510161E+03  0.20467246639E+04  0.25500000920E-02 0.  1.
</event>
<event>
 5   0  0.6161563E-08  0.3994341E+04  0.7818609E-02  0.8005689E-01
       -2   -1    0    0    0  501  0.00000000000E+00  0.00000000000E+00  0.29536227053E+04  0.29536227053E+04  0.25500000920E-02 0. -1.
        2   -1    0    0  501    0  0.00000000000E+00  0.00000000000E+00 -0.13504401194E+04  0.13504401194E+04  0.25500000920E-02 0.  1.
    10030    2    1    2    0    0  0.00000000000E+00  0.00000000000E+00  0.16031825859E+04  0.43040628246E+04  0.39943412967E+04 0.  0.
        1    1    3    3  502    0 -0.16024193832E+04 -0.11915968914E+04  0.76684889553E+03  0.21390905216E+04  0.50400001928E-02 0.  1.
       -1    1    3    3    0  502  0.16024193832E+04  0.11915968914E+04  0.83633369036E+03  0.21649723030E+04  0.50400001928E-02 0. -1.
</event>
<event>
 5   0  0.1879500E-08  0.3981712E+04  0.7818609E-02  0.8008246E-01
        3   -1    0    0  501    0  0.00000000000E+00  0.00000000000E+00  0.24498063700E+04  0.24498063721E+04  0.10100000352E+00 0. -1.
       -3   -1    0    0    0  501  0.00000000000E+00  0.00000000000E+00 -0.16178862705E+04  0.16178862736E+04  0.10100000352E+00 0.  1.
    10030    2    1    2    0    0  0.00000000000E+00  0.00000000000E+00  0.83192009951E+03  0.40676926457E+04  0.39817122457E+04 0.  0.
        2    1    3    3  502    0 -0.10019405720E+04  0.15065014715E+04  0.12646066607E+04  0.22074106097E+04  0.25500000920E-02 0. -1.
       -2    1    3    3    0  502  0.10019405720E+04 -0.15065014715E+04 -0.43268656124E+03  0.18602820360E+04  0.25500000920E-02 0.  1.
</event>
<event>
 5   0  0.1879500E-08  0.4031843E+04  0.7818609E-02  0.7998153E-01
        1   -1    0    0  501    0  0.00000000000E+00  0.00000000000E+00  0.23628263511E+04  0.23628263512E+04  0.50400001928E-02 0.  1.
       -1   -1    0    0    0  501  0.00000000000E+00  0.00000000000E+00 -0.17199488180E+04  0.17199488180E+04  0.50400001928E-02 0. -1.
    10030    2    1    2    0    0  0.00000000000E+00  0.00000000000E+00  0.64287753312E+03  0.40827751692E+04  0.40318434443E+04 0.  0.
        2    1    3    3  502    0  0.56276202629E+03 -0.13790243046E+04 -0.10542256612E+04  0.18247741986E+04  0.25500000920E-02 0. -1.
       -2    1    3    3    0  502 -0.56276202629E+03  0.13790243046E+04  0.16971031943E+04  0.22580009706E+04  0.25500000920E-02 0.  1.
</event>
<event>
 5   0  0.1879500E-08  0.3977851E+04  0.7818609E-02  0.8009030E-01
        1   -1    0    0  501    0  0.00000000000E+00  0.00000000000E+00  0.21575590475E+04  0.21575590475E+04  0.50400001928E-02 0. -1.
       -1   -1    0    0    0  501  0.00000000000E+00  0.00000000000E+00 -0.18334720388E+04  0.18334720388E+04  0.50400001928E-02 0.  1.
    10030    2    1    2    0    0  0.00000000000E+00  0.00000000000E+00  0.32408700870E+03  0.39910310864E+04  0.39778507694E+04 0.  0.
        1    1    3    3  502    0 -0.99734111074E+03 -0.10834014792E+04  0.15034011868E+04  0.21044389240E+04  0.50400001928E-02 0. -1.
       -1    1    3    3    0  502  0.99734111074E+03  0.10834014792E+04 -0.11793141781E+04  0.18865921624E+04  0.50400001928E-02 0.  1.
</event>
<event>
 5   0  0.5888700E-08  0.4010197E+04  0.7818609E-02  0.8002493E-01
        2   -1    0    0  501    0  0.00000000000E+00  0.00000000000E+00  0.19111542855E+04  0.19111542855E+04  0.25500000920E-02 0.  1.
       -2   -1    0    0    0  501  0.00000000000E+00  0.00000000000E+00 -0.21036605073E+04  0.21036605073E+04  0.25500000920E-02 0. -1.
    10030    2    1    2    0    0  0.00000000000E+00  0.00000000000E+00 -0.19250622185E+03  0.40148147928E+04  0.40101968997E+04 0.  0.
        5    1    3    3  502    0  0.90438715820E+03 -0.17763616272E+04 -0.31334593982E+03  0.20178167733E+04  0.46999998093E+01 0. -1.
       -5    1    3    3    0  502 -0.90438715820E+03  0.17763616272E+04  0.12083971798E+03  0.19969980195E+04  0.46999998093E+01 0.  1.
</event>
<event>
 5   0  0.5888700E-08  0.3969353E+04  0.7818609E-02  0.8010758E-01
       -2   -1    0    0    0  501  0.00000000000E+00  0.00000000000E+00  0.16462290261E+04  0.16462290261E+04  0.25500000920E-02 0. -1.
        2   -1    0    0  501    0  0.00000000000E+00  0.00000000000E+00 -0.23927055127E+04  0.23927055127E+04  0.25500000920E-02 0.  1.
    10030    2    1    2    0    0  0.00000000000E+00  0.00000000000E+00 -0.74647648658E+03  0.40389345388E+04  0.39693532299E+04 0.  0.
        5    1    3    3  502    0  0.20623146319E+03 -0.10146778508E+04 -0.20960864806E+04  0.23378843387E+04  0.46999998093E+01 0.  1.
       -5    1    3    3    0  502 -0.20623146319E+03  0.10146778508E+04  0.13496099940E+04  0.17010502001E+04  0.46999998093E+01 0. -1.
</event>
<event>
 5   0  0.5846812E-08  0.4083739E+04  0.7818609E-02  0.7987864E-01
       -2   -1    0    0    0  501  0.00000000000E+00  0.00000000000E+00  0.32388124195E+04  0.32388124195E+04  0.25500000920E-02 0.  1.
        2   -1    0    0  501    0  0.00000000000E+00  0.00000000000E+00 -0.12872713238E+04  0.12872713238E+04  0.25500000920E-02 0. -1.
    10030    2    1    2    0    0  0.00000000000E+00  0.00000000000E+00  0.19515410957E+04  0.45260837432E+04  0.40837386550E+04 0.  0.
        4    1    3    3  502    0  0.19959258260E+04 -0.43030275957E+03  0.95508414652E+03  0.22541223808E+04  0.12699999809E+01 0.  1.
       -4    1    3    3    0  502 -0.19959258260E+04  0.43030275957E+03  0.99645694917E+03  0.22719613624E+04  0.12699999809E+01 0. -1.
</event>
<event>
 5   0  0.1879500E-08  0.4002045E+04  0.7818609E-02  0.8004134E-01
       -1   -1    0    0    0  501  0.00000000000E+00  0.00000000000E+00  0.16128643699E+04  0.16128643699E+04  0.50400001928E-02 0. -1.
        1   -1    0    0  501    0  0.00000000000E+00  0.00000000000E+00 -0.24825959720E+04  0.24825959720E+04  0.50400001928E-02 0.  1.
    10030    2    1    2    0    0  0.00000000000E+00  0.00000000000E+00 -0.86973160214E+03  0.40954603419E+04  0.40020447714E+04 0.  0.
        5    1    3    3  502    0 -0.37665785899E+03 -0.16243784020E+04  0.69711516716E+03  0.18073372630E+04  0.46999998093E+01 0. -1.
       -5    1    3    3    0  502  0.37665785899E+03  0.16243784020E+04 -0.15668467693E+04  0.22881230789E+04  0.46999998093E+01 0.  1.
</event>
<event>
 5   0  0.5951623E-08  0.4008063E+04  0.7818609E-02  0.8002922E-01
       -2   -1    0    0    0  501  0.00000000000E+00  0.00000000000E+00  0.14287977916E+04  0.14287977916E+04  0.25500000920E-02 0. -1.
        2   -1    0    0  501    0  0.00000000000E+00  0.00000000000E+00 -0.28108545112E+04  0.28108545112E+04  0.25500000920E-02 0.  1.
    10030    2    1    2    0    0  0.00000000000E+00  0.00000000000E+00 -0.13820567196E+04  0.42396523027E+04  0.40080632320E+04 0.  0.
        2    1    3    3  502    0 -0.10846027906E+04  0.85786821338E+03 -0.22252997945E+04  0.26199733320E+04  0.25500000920E-02 0.  1.
       -2    1    3    3    0  502  0.10846027906E+04 -0.85786821338E+03  0.84324307490E+03  0.16196789708E+04  0.25500000920E-02 0. -1.
</event>
<event>
 5   0  0.1879500E-08  0.4019854E+04  0.7818609E-02  0.8000553E-01
       -1   -1    0    0    0  501  0.00000000000E+00  0.00000000000E+00  0.15706806756E+04  0.15706806756E+04  0.50400001928E-02 0.  1.
        1   -1    0    0  501    0  0.00000000000E+00  0.00000000000E+00 -0.25720101651E+04  0.25720101651E+04  0.50400001928E-02 0. -1.
    10030    2    1    2    0    0  0.00000000000E+00  0.00000000000E+00 -0.10013294895E+04  0.41426908407E+04  0.40198540589E+04 0.  0.
        2    1    3    3  502    0  0.14438126689E+04  0.13487547049E+04 -0.88081670942E+03  0.21632319230E+04  0.25500000920E-02 0. -1.
       -2    1    3    3    0  502 -0.14438126689E+04 -0.13487547049E+04 -0.12051278012E+03  0.19794589178E+04  0.25500000920E-02 0.  1.
</event>
<event>
 5   0  0.5951623E-08  0.3979843E+04  0.7818609E-02  0.8008625E-01
        2   -1    0    0  501    0  0.00000000000E+00  0.00000000000E+00  0.14904649641E+04  0.14904649641E+04  0.25500000920E-02 0.  1.
       -2   -1    0    0    0  501  0.00000000000E+00  0.00000000000E+00 -0.26567469317E+04  0.26567469317E+04  0.25500000920E-02 0. -1.
    10030    2    1    2    0    0  0.00000000000E+00  0.00000000000E+00 -0.11662819676E+04  0.41472118958E+04  0.39798433237E+04 0.  0.
        2    1    3    3  502    0 -0.31237007949E+03  0.17415605175E+04 -0.15320284063E+04  0.23404527640E+04  0.25500000920E-02 0. -1.
       -2    1    3    3    0  502  0.31237007949E+03 -0.17415605175E+04  0.36574643876E+03  0.18067591318E+04  0.25500000920E-02 0.  1.
</event>
<event>
 5   0  0.1879500E-08  0.4005149E+04  0.7818609E-02  0.8003509E-01
       -1   -1    0    0    0  501  0.00000000000E+00  0.00000000000E+00  0.15218600272E+04  0.15218600273E+04  0.50400001928E-02 0. -1.
        1   -1    0    0  501    0  0.00000000000E+00  0.00000000000E+00 -0.26351332520E+04  0.26351332520E+04  0.50400001928E-02 0.  1.
    10030    2    1    2    0    0  0.00000000000E+00  0.00000000000E+00 -0.11132732248E+04  0.41569932793E+04  0.40051486678E+04 0.  0.
        5    1    3    3  502    0  0.51078262330E+03 -0.16263690612E+04 -0.16473371494E+04  0.23705942262E+04  0.46999998093E+01 0.  1.
       -5    1    3    3    0  502 -0.51078262330E+03  0.16263690612E+04  0.53406392464E+03  0.17863990531E+04  0.46999998093E+01 0. -1.
</event>
<event>
 5   0  0.5846812E-08  0.3998931E+04  0.7818609E-02  0.8004762E-01
       -2   -1    0    0    0  501  0.00000000000E+00  0.00000000000E+00  0.23070700478E+04  0.23070700478E+04  0.25500000920E-02 0.  1.
        2   -1    0    0  501    0  0.00000000000E+00  0.00000000000E+00 -0.17328741439E+04  0.17328741439E+04  0.25500000920E-02 0. -1.
    10030    2    1    2    0    0  0.00000000000E+00  0.00000000000E+00  0.57419590398E+03  0.40399441917E+04  0.39989308741E+04 0.  0.
        4    1    3    3  502    0  0.65857811635E+03  0.64595838233E+03 -0.15050385297E+04  0.17652563428E+04  0.12699999809E+01 0. -1.
       -4    1    3    3    0  502 -0.65857811635E+03 -0.64595838233E+03  0.20792344336E+04  0.22746878489E+04  0.12699999809E+01 0.  1.
</event>
<event>
 5   0  0.1879500E-08  0.3952655E+04  0.7818609E-02  0.8014166E-01
       -1   -1    0    0    0  501  0.00000000000E+00  0.00000000000E+00  0.17601365803E+04  0.17601365803E+04  0.50400001928E-02 0.  1.
        1   -1    0    0  501    0  0.00000000000E+00  0.00000000000E+00 -0.22190723532E+04  0.22190723532E+04  0.50400001928E-02 0. -1.
    10030    2    1    2    0    0  0.00000000000E+00  0.00000000000E+00 -0.45893577293E+03  0.39792089335E+04  0.39526550181E+04 0.  0.
        1    1    3    3  502    0  0.64893348363E+03  0.85316859495E+03 -0.19010015104E+04  0.21823881553E+04  0.50400001928E-02 0. -1.
       -1    1    3    3    0  502 -0.64893348363E+03 -0.85316859495E+03  0.14420657375E+04  0.17968207782E+04  0.50400001928E-02 0.  1.
</event>
<event>
 5   0  0.1879500E-08  0.4007144E+04  0.7818609E-02  0.8003107E-01
       -1   -1    0    0    0  501  0.00000000000E+00  0.00000000000E+00  0.21588138318E+04  0.21588138318E+04  0.50400001928E-02 0.  1.
        1   -1    0    0  501    0  0.00000000000E+00  0.00000000000E+00 -0.18594940151E+04  0.18594940151E+04  0.50400001928E-02 0. -1.
    10030    2    1    2    0    0  0.00000000000E+00  0.00000000000E+00  0.29931981672E+03  0.40183078469E+04  0.40071443198E+04 0.  0.
        5    1    3    3  502    0  0.17948549083E+04  0.83053215596E+03 -0.17215704987E+03  0.19851820933E+04  0.46999998093E+01 0. -1.
       -5    1    3    3    0  502 -0.17948549083E+04 -0.83053215596E+03  0.47147686659E+03  0.20331257535E+04  0.46999998093E+01 0.  1.
</event>
<event>
 5   0  0.1879500E-08  0.3991828E+04  0.7818609E-02  0.8006197E-01
       -1   -1    0    0    0  501  0.00000000000E+00  0.00000000000E+00  0.20302548856E+04  0.20302548856E+04  0.50400001928E-02 0. -1.
        1   -1    0    0  501    0  0.00000000000E+00  0.00000000000E+00 -0.19621536241E+04  0.19621536241E+04  0.50400001928E-02 0.  1.
    10030    2    1    2    0    0  0.00000000000E+00  0.00000000000E+00  0.68101261502E+02  0.39924085097E+04  0.39918276424E+04 0.  0.
        1    1    3    3  502    0  0.18686193959E+04  0.26112147800E+03 -0.61700423660E+03  0.19850987636E+04  0.50400001928E-02 0.  1.
       -1    1    3    3    0  502 -0.18686193959E+04 -0.26112147800E+03  0.68510549810E+03  0.20073097461E+04  0.50400001928E-02 0. -1.
</event>
<event>
 5   0  0.5951623E-08  0.3980642E+04  0.7818609E-02  0.8008463E-01
        2   -1    0    0  501    0  0.00000000000E+00  0.00000000000E+00  0.21906290863E+04  0.21906290863E+04  0.25500000920E-02 0.  1.
       -2   -1    0    0    0  501  0.00000000000E+00  0.00000000000E+00 -0.18083283629E+04  0.18083283629E+04  0.25500000920E-02 0. -1.
    10030    2    1    2    0    0  0.00000000000E+00  0.00000000000E+00  0.38230072333E+03  0.39989574492E+04  0.39806415108E+04 0.  0.
        2    1    3    3  502    0  0.17968169710E+04  0.83642915981E+03  0.80709336474E+01  0.19819763134E+04  0.25500000920E-02 0.  1.
       -2    1    3    3    0  502 -0.17968169710E+04 -0.83642915981E+03  0.37422978969E+03  0.20169811358E+04  0.25500000920E-02 0. -1.
</event>
<event>
 5   0  0.5945387E-08  0.4022407E+04  0.7818609E-02  0.8000042E-01
       -2   -1    0    0    0  501  0.00000000000E+00  0.00000000000E+00  0.20235590348E+04  0.20235590348E+04  0.25500000920E-02 0. -1.
        2   -1    0    0  501    0  0.00000000000E+00  0.00000000000E+00 -0.19989232103E+04  0.19989232103E+04  0.25500000920E-02 0.  1.
    10030    2    1    2    0    0  0.00000000000E+00  0.00000000000E+00  0.24635824425E+02  0.40224822451E+04  0.40224068029E+04 0.  0.
        3    1    3    3  502    0  0.37007011171E+03  0.12455386638E+04 -0.15228397543E+04  0.20018389991E+04  0.10100000352E+00 0.  1.
       -3    1    3    3    0  502 -0.37007011171E+03 -0.12455386638E+04  0.15474755787E+04  0.20206432460E+04  0.10100000352E+00 0. -1.
</event>
<event>
 5   0  0.1879500E-08  0.3995545E+04  0.7818609E-02  0.8005446E-01
        1   -1    0    0  501    0  0.00000000000E+00  0.00000000000E+00  0.23692245399E+04  0.23692245399E+04  0.50400001928E-02 0.  1.
       -1   -1    0    0    0  501  0.00000000000E+00  0.00000000000E+00 -0.16845577708E+04  0.16845577708E+04  0.50400001928E-02 0. -1.
    10030    2    1    2    0    0  0.00000000000E+00  0.00000000000E+00  0.68466676916E+03  0.40537823107E+04  0.39955453242E+04 0.  0.
        5    1    3    3  502    0  0.75726400552E+03 -0.16830795194E+04 -0.43358013719E+03  0.18958426275E+04  0.46999998093E+01 0. -1.
       -5    1    3    3    0  502 -0.75726400552E+03  0.16830795194E+04  0.11182469064E+04  0.21579396832E+04  0.46999998093E+01 0.  1.
</event>
<event>
 5   0  0.5888700E-08  0.4011857E+04  0.7818609E-02  0.8002159E-01
       -2   -1    0    0    0  501  0.00000000000E+00  0.00000000000E+00  0.16838197030E+04  0.16838197030E+04  0.25500000920E-02 0.  1.
        2   -1    0    0  501    0  0.00000000000E+00  0.00000000000E+00 -0.23896561707E+04  0.23896561707E+04  0.25500000920E-02 0. -1.
    10030    2    1    2    0    0  0.00000000000E+00  0.00000000000E+00 -0.70583646769E+03  0.40734758737E+04  0.40118574968E+04 0.  0.
        5    1    3    3  502    0  0.27291620719E+03  0.18141028062E+04 -0.11767216659E+04  0.21794834747E+04  0.46999998093E+01 0.  1.
       -5    1    3    3    0  502 -0.27291620719E+03 -0.18141028062E+04  0.47088519821E+03  0.18939923990E+04  0.46999998093E+01 0. -1.
</event>
<event>
 5   0  0.5888700E-08  0.3995423E+04  0.7818609E-02  0.8005471E-01
       -2   -1    0    0    0  501  0.00000000000E+00  0.00000000000E+00  0.14955160670E+04  0.14955160670E+04  0.25500000920E-02 0. -1.
        2   -1    0    0  501    0  0.00000000000E+00  0.00000000000E+00 -0.26685439147E+04  0.26685439147E+04  0.25500000920E-02 0.  1.
    10030    2    1    2    0    0  0.00000000000E+00  0.00000000000E+00 -0.11730278477E+04  0.41640599817E+04  0.39954225308E+04 0.  0.
        5    1    3    3  502    0  0.19578696872E+04 -0.15850305798E+03 -0.20721436335E+03  0.19751801978E+04  0.46999998093E+01 0. -1.
       -5    1    3    3    0  502 -0.19578696872E+04  0.15850305798E+03 -0.96581348433E+03  0.21888797838E+04  0.46999998093E+01 0.  1.
</event>
<event>
 5   0  0.5888700E-08  0.3999562E+04  0.7818609E-02  0.8004635E-01
       -2   -1    0    0    0  501  0.00000000000E+00  0.00000000000E+00  0.20014595285E+04  0.20014595285E+04  0.25500000920E-02 0. -1.
        2   -1    0    0  501    0  0.00000000000E+00  0.00000000000E+00 -0.19981035179E+04  0.19981035179E+04  0.25500000920E-02 0.  1.
    10030    2    1    2    0    0  0.00000000000E+00  0.00000000000E+00  0.33560105507E+01  0.39995630464E+04  0.39995616384E+04 0.  0.
        5    1    3    3  502    0  0.15370597901E+04 -0.15775358739E+03 -0.12678350418E+04  0.19987162820E+04  0.46999998093E+01 0.  1.
       -5    1    3    3    0  502 -0.15370597901E+04  0.15775358739E+03  0.12711910524E+04  0.20008467643E+04  0.46999998093E+01 0. -1.
</event>
<event>
 5   0  0.1879500E-08  0.3809389E+04  0.7818609E-02  0.8044143E-01
       -1   -1    0    0    0  501  0.00000000000E+00  0.00000000000E+00  0.15909629728E+04  0.15909629729E+04  0.50400001928E-02 0. -1.
        1   -1    0    0  501    0  0.00000000000E+00  0.00000000000E+00 -0.22802924118E+04  0.22802924118E+04  0.50400001928E-02 0.  1.
    10030    2    1    2    0    0  0.00000000000E+00  0.00000000000E+00 -0.68932943895E+03  0.38712553847E+04  0.38093888195E+04 0.  0.
        1    1    3    3  502    0  0.54207912368E+03 -0.16178682147E+04  0.51555361678E+03  0.17824541700E+04  0.50400001928E-02 0. -1.
       -1    1    3    3    0  502 -0.54207912368E+03  0.16178682147E+04 -0.12048830557E+04  0.20888012147E+04  0.50400001928E-02 0.  1.
</event>
<event>
 5   0  0.5846812E-08  0.4005040E+04  0.7818609E-02  0.8003531E-01
        2   -1    0    0  501    0  0.00000000000E+00  0.00000000000E+00  0.28586678756E+04  0.28586678756E+04  0.25500000920E-02 0.  1.
       -2   -1    0    0    0  501  0.00000000000E+00  0.00000000000E+00 -0.14027814866E+04  0.14027814866E+04  0.25500000920E-02 0. -1.
    10030    2    1    2    0    0  0.00000000000E+00  0.00000000000E+00  0.14558863890E+04  0.42614493622E+04  0.40050400109E+04 0.  0.
        4    1    3    3  502    0 -0.17320185607E+04 -0.13549975809E+03 -0.33172638793E+03  0.17686979642E+04  0.12699999809E+01 0. -1.
       -4    1    3    3    0  502  0.17320185607E+04  0.13549975809E+03  0.17876127769E+04  0.24927513980E+04  0.12699999809E+01 0.  1.
</event>
<event>
 5   0  0.1879500E-08  0.4008277E+04  0.7818609E-02  0.8002879E-01
       -1   -1    0    0    0  501  0.00000000000E+00  0.00000000000E+00  0.15025111815E+04  0.15025111815E+04  0.50400001928E-02 0.  1.
        1   -1    0    0  501    0  0.00000000000E+00  0.00000000000E+00 -0.26732388560E+04  0.26732388560E+04  0.50400001928E-02 0. -1.
    10030    2    1    2    0    0  0.00000000000E+00  0.00000000000E+00 -0.11707276746E+04  0.41757500375E+04  0.40082770722E+04 0.  0.
        1    1    3    3  502    0 -0.30704312050E+03  0.83788395136E+03 -0.24548459004E+04  0.26120094542E+04  0.50400001928E-02 0. -1.
       -1    1    3    3    0  502  0.30704312050E+03 -0.83788395136E+03  0.12841182259E+04  0.15637405833E+04  0.50400001928E-02 0.  1.
</event>
<event>
 5   0  0.1879500E-08  0.3985862E+04  0.7818609E-02  0.8007405E-01
       -1   -1    0    0    0  501  0.00000000000E+00  0.00000000000E+00  0.16733868144E+04  0.16733868144E+04  0.50400001928E-02 0.  1.
        1   -1    0    0  501    0  0.00000000000E+00  0.00000000000E+00 -0.23734938055E+04  0.23734938055E+04  0.50400001928E-02 0. -1.
    10030    2    1    2    0    0  0.00000000000E+00  0.00000000000E+00 -0.70010699110E+03  0.40468806198E+04  0.39858616324E+04 0.  0.
        3    1    3    3  502    0 -0.14484845617E+04 -0.59616350697E+03  0.90098450830E+03  0.18070117728E+04  0.10100000352E+00 0.  1.
       -3    1    3    3    0  502  0.14484845617E+04  0.59616350697E+03 -0.16010914994E+04  0.22398688471E+04  0.10100000352E+00 0. -1.
</event>
<event>
 5   0  0.1879500E-08  0.3996244E+04  0.7818609E-02  0.8005305E-01
       -1   -1    0    0    0  501  0.00000000000E+00  0.00000000000E+00  0.29499111144E+04  0.29499111144E+04  0.50400001928E-02 0.  1.
        1   -1    0    0  501    0  0.00000000000E+00  0.00000000000E+00 -0.13534277903E+04  0.13534277903E+04  0.50400001928E-02 0. -1.
    10030    2    1    2    0    0  0.00000000000E+00  0.00000000000E+00  0.15964833242E+04  0.43033389047E+04  0.39962440772E+04 0.  0.
        2    1    3    3  502    0  0.33818640325E+02 -0.10539570768E+04 -0.10293921209E+04  0.14736408514E+04  0.25500000920E-02 0. -1.
       -2    1    3    3    0  502 -0.33818640325E+02  0.10539570768E+04  0.26258754451E+04  0.28296980534E+04  0.25500000920E-02 0.  1.
</event>
<event>
 5   0  0.5846812E-08  0.3991747E+04  0.7818609E-02  0.8006213E-01
       -2   -1    0    0    0  501  0.00000000000E+00  0.00000000000E+00  0.25403730539E+04  0.25403730539E+04  0.25500000920E-02 0. -1.
        2   -1    0    0  501    0  0.00000000000E+00  0.00000000000E+00 -0.15680811978E+04  0.15680811978E+04  0.25500000920E-02 0.  1.
    10030    2    1    2    0    0  0.00000000000E+00  0.00000000000E+00  0.97229185610E+03  0.41084542517E+04  0.39917470968E+04 0.  0.
        4    1    3    3  502    0 -0.48718063640E+03  0.30326078350E+03  0.24536310066E+04  0.25198449961E+04  0.12699999809E+01 0. -1.
       -4    1    3    3    0  502  0.48718063640E+03 -0.30326078350E+03 -0.14813391505E+04  0.15886092556E+04  0.12699999809E+01 0.  1.
</event>
<event>
 5   0  0.1879500E-08  0.4035368E+04  0.7818609E-02  0.7997449E-01
        1   -1    0    0  501    0  0.00000000000E+00  0.00000000000E+00  0.17309651036E+04  0.17309651036E+04  0.50400001928E-02 0. -1.
       -1   -1    0    0    0  501  0.00000000000E+00  0.00000000000E+00 -0.23518954378E+04  0.23518954378E+04  0.50400001928E-02 0.  1.
    10030    2    1    2    0    0  0.00000000000E+00  0.00000000000E+00 -0.62093033428E+03  0.40828605414E+04  0.40353681022E+04 0.  0.
        4    1    3    3  502    0 -0.17000169997E+04 -0.94659067769E+03  0.22962962862E+03  0.19592914764E+04  0.12699999809E+01 0. -1.
       -4    1    3    3    0  502  0.17000169997E+04  0.94659067769E+03 -0.85055996290E+03  0.21235690650E+04  0.12699999809E+01 0.  1.
</event>
<event>
 5   0  0.1879500E-08  0.4038814E+04  0.7818609E-02  0.7996762E-01
       -1   -1    0    0    0  501  0.00000000000E+00  0.00000000000E+00  0.16302902329E+04  0.16302902329E+04  0.50400001928E-02 0.  1.
        1   -1    0    0  501    0  0.00000000000E+00  0.00000000000E+00 -0.25013973604E+04  0.25013973604E+04  0.50400001928E-02 0. -1.
    10030    2    1    2    0    0  0.00000000000E+00  0.00000000000E+00 -0.87110712750E+03  0.41316875934E+04  0.40388135314E+04 0.  0.
        3    1    3    3  502    0  0.52453953495E+03 -0.13802066696E+03  0.15543794753E+04  0.16462949285E+04  0.10100000352E+00 0.  1.
       -3    1    3    3    0  502 -0.52453953495E+03  0.13802066696E+03 -0.24254866028E+04  0.24853926649E+04  0.10100000352E+00 0. -1.
</event>
<event>
 5   0  0.6161563E-08  0.4001097E+04  0.7818609E-02  0.8004325E-01
       -2   -1    0    0    0  501  0.00000000000E+00  0.00000000000E+00  0.18749256681E+04  0.18749256681E+04  0.25500000920E-02 0.  1.
        2   -1    0    0  501    0  0.00000000000E+00  0.00000000000E+00 -0.21345885055E+04  0.21345885055E+04  0.25500000920E-02 0. -1.
    10030    2    1    2    0    0  0.00000000000E+00  0.00000000000E+00 -0.25966283741E+03  0.40095141736E+04  0.40010972394E+04 0.  0.
        1    1    3    3  502    0 -0.71132494006E+03 -0.36237031971E+03  0.17083936591E+04  0.18857105593E+04  0.50400001928E-02 0.  1.
       -1    1    3    3    0  502  0.71132494006E+03  0.36237031971E+03 -0.19680564965E+04  0.21238036143E+04  0.50400001928E-02 0. -1.
</event>
<event>
 5   0  0.5888700E-08  0.3953742E+04  0.7818609E-02  0.8013944E-01
        2   -1    0    0  501    0  0.00000000000E+00  0.00000000000E+00  0.20992152498E+04  0.20992152498E+04  0.25500000920E-02 0.  1.
       -2   -1    0    0    0  501  0.00000000000E+00  0.00000000000E+00 -0.18616570272E+04  0.18616570272E+04  0.25500000920E-02 0. -1.
    10030    2    1    2    0    0  0.00000000000E+00  0.00000000000E+00  0.23755822256E+03  0.39608722770E+04  0.39537419346E+04 0.  0.
        5    1    3    3  502    0 -0.19087908462E+04 -0.47684178274E+03 -0.74275848739E+02  0.19688574281E+04  0.46999998093E+01 0. -1.
       -5    1    3    3    0  502  0.19087908462E+04  0.47684178274E+03  0.31183407130E+03  0.19920148489E+04  0.46999998093E+01 0.  1.
</event>
<event>
 5   0  0.1879500E-08  0.3939112E+04  0.7818609E-02  0.8016944E-01
       -1   -1    0    0    0  501  0.00000000000E+00  0.00000000000E+00  0.14032389272E+04  0.14032389272E+04  0.50400001928E-02 0.  1.
        1   -1    0    0  501    0  0.00000000000E+00  0.00000000000E+00 -0.27644260055E+04  0.27644260055E+04  0.50400001928E-02 0. -1.
    10030    2    1    2    0    0  0.00000000000E+00  0.00000000000E+00 -0.13611870782E+04  0.41676649327E+04  0.39391116675E+04 0.  0.
        4    1    3    3  502    0  0.14604074415E+03 -0.21134060168E+03  0.13854372034E+04  0.14090530886E+04  0.12699999809E+01 0.  1.
       -4    1    3    3    0  502 -0.14604074415E+03  0.21134060168E+03 -0.27466242817E+04  0.27586118441E+04  0.12699999809E+01 0. -1.
</event>
<event>
 5   0  0.5846812E-08  0.4000755E+04  0.7818609E-02  0.8004394E-01
        2   -1    0    0  501    0  0.00000000000E+00  0.00000000000E+00  0.25668756281E+04  0.25668756281E+04  0.25500000920E-02 0. -1.
       -2   -1    0    0    0  501  0.00000000000E+00  0.00000000000E+00 -0.15589033501E+04  0.15589033501E+04  0.25500000920E-02 0.  1.
    10030    2    1    2    0    0  0.00000000000E+00  0.00000000000E+00  0.10079722780E+04  0.41257789782E+04  0.40007554366E+04 0.  0.
        4    1    3    3  502    0 -0.22049164041E+03  0.68330966165E+03 -0.14214381525E+04  0.15924875797E+04  0.12699999809E+01 0.  1.
       -4    1    3    3    0  502  0.22049164041E+03 -0.68330966165E+03  0.24294104305E+04  0.25332913985E+04  0.12699999809E+01 0. -1.
</event>
<event>
 5   0  0.5951623E-08  0.3888771E+04  0.7818609E-02  0.8027369E-01
       -2   -1    0    0    0  501  0.00000000000E+00  0.00000000000E+00  0.14859203041E+04  0.14859203041E+04  0.25500000920E-02 0. -1.
        2   -1    0    0  501    0  0.00000000000E+00  0.00000000000E+00 -0.25443052243E+04  0.25443052243E+04  0.25500000920E-02 0.  1.
    10030    2    1    2    0    0  0.00000000000E+00  0.00000000000E+00 -0.10583849202E+04  0.40302255285E+04  0.38887709075E+04 0.  0.
        2    1    3    3  502    0 -0.86023657422E+03  0.70771286879E+03 -0.21808279747E+04  0.24488517969E+04  0.25500000920E-02 0.  1.
       -2    1    3    3    0  502  0.86023657422E+03 -0.70771286879E+03  0.11224430545E+04  0.15813737315E+04  0.25500000920E-02 0. -1.
</event>
<event>
 5   0  0.1879500E-08  0.3854657E+04  0.7818609E-02  0.8034526E-01
        1   -1    0    0  501    0  0.00000000000E+00  0.00000000000E+00  0.12287989986E+04  0.12287989986E+04  0.50400001928E-02 0. -1.
       -1   -1    0    0    0  501  0.00000000000E+00  0.00000000000E+00 -0.30229474672E+04  0.30229474672E+04  0.50400001928E-02 0.  1.
    10030    2    1    2    0    0  0.00000000000E+00  0.00000000000E+00 -0.17941484686E+04  0.42517464658E+04  0.38546568307E+04 0.  0.
        1    1    3    3  502    0 -0.22961429414E+03  0.37176475416E+03 -0.29675913569E+04  0.29995883414E+04  0.50400001928E-02 0.  1.
       -1    1    3    3    0  502  0.22961429414E+03 -0.37176475416E+03  0.11734428883E+04  0.12521581244E+04  0.50400001928E-02 0. -1.
</event>
<event>
 5   0  0.5951623E-08  0.4005243E+04  0.7818609E-02  0.8003490E-01
        2   -1    0    0  501    0  0.00000000000E+00  0.00000000000E+00  0.30047464842E+04  0.30047464842E+04  0.25500000920E-02 0.  1.
       -2   -1    0    0    0  501  0.00000000000E+00  0.00000000000E+00 -0.13347194634E+04  0.13347194634E+04  0.25500000920E-02 0. -1.
    10030    2    1    2    0    0  0.00000000000E+00  0.00000000000E+00  0.16700270208E+04  0.43394659476E+04  0.40052433709E+04 0.  0.
        2    1    3    3  502    0  0.52683002796E+03  0.99800716107E+03  0.26274296999E+04  0.28595375500E+04  0.25500000920E-02 0.  1.
       -2    1    3    3    0  502 -0.52683002796E+03 -0.99800716107E+03 -0.95740267917E+03  0.14799283976E+04  0.25500000920E-02 0. -1.
</event>
<event>
 5   0  0.1879500E-08  0.4006118E+04  0.7818609E-02  0.8003314E-01
       -1   -1    0    0    0  501  0.00000000000E+00  0.00000000000E+00  0.13081518355E+04  0.13081518355E+04  0.50400001928E-02 0.  1.
        1   -1    0    0  501    0  0.00000000000E+00  0.00000000000E+00 -0.30671093248E+04  0.30671093248E+04  0.50400001928E-02 0. -1.
    10030    2    1    2    0    0  0.00000000000E+00  0.00000000000E+00 -0.17589574893E+04  0.43752611603E+04  0.40061176682E+04 0.  0.
        2    1    3    3  502    0  0.11502272097E+04 -0.16165197077E+04 -0.11807328146E+04  0.23087417740E+04  0.25500000920E-02 0.  1.
       -2    1    3    3    0  502 -0.11502272097E+04  0.16165197077E+04 -0.57822467471E+03  0.20665193863E+04  0.25500000920E-02 0. -1.
</event>
<event>
 5   0  0.1879500E-08  0.4083392E+04  0.7818609E-02  0.7987932E-01
        1   -1    0    0  501    0  0.00000000000E+00  0.00000000000E+00  0.20728486991E+04  0.20728486991E+04  0.50400001928E-02 0.  1.
       -1   -1    0    0    0  501  0.00000000000E+00  0.00000000000E+00 -0.20110114823E+04  0.20110114823E+04  0.50400001928E-02 0. -1.
    10030    2    1    2    0    0  0.00000000000E+00  0.00000000000E+00  0.61837216848E+02  0.40838601814E+04  0.40833919895E+04 0.  0.
        1    1    3    3  502    0 -0.14062666445E+04 -0.20202433683E+03 -0.14355792303E+04  0.20197245937E+04  0.50400001928E-02 0. -1.
       -1    1    3    3    0  502  0.14062666445E+04  0.20202433683E+03  0.14974164471E+04  0.20641355877E+04  0.50400001928E-02 0.  1.
</event>
<event>
 5   0  0.6161563E-08  0.3956777E+04  0.7818609E-02  0.8013323E-01
        2   -1    0    0  501    0  0.00000000000E+00  0.00000000000E+00  0.14664593259E+04  0.14664593259E+04  0.25500000920E-02 0.  1.
       -2   -1    0    0    0  501  0.00000000000E+00  0.00000000000E+00 -0.26690274553E+04  0.26690274553E+04  0.25500000920E-02 0. -1.
    10030    2    1    2    0    0  0.00000000000E+00  0.00000000000E+00 -0.12025681294E+04  0.41354867812E+04  0.39567765683E+04 0.  0.
        1    1    3    3  502    0  0.52652789209E+03  0.14072755208E+04  0.74384211767E+03  0.16765909187E+04  0.50400001928E-02 0.  1.
       -1    1    3    3    0  502 -0.52652789209E+03 -0.14072755208E+04 -0.19464102470E+04  0.24588958625E+04  0.50400001928E-02 0. -1.
</event>
<event>
 5   0  0.5951623E-08  0.3979441E+04  0.7818609E-02  0.8008707E-01
        2   -1    0    0  501    0  0.00000000000E+00  0.00000000000E+00  0.15354562110E+04  0.15354562110E+04  0.25500000920E-02 0.  1.
       -2   -1    0    0    0  501  0.00000000000E+00  0.00000000000E+00 -0.25783787367E+04  0.25783787367E+04  0.25500000920E-02 0. -1.
    10030    2    1    2    0    0  0.00000000000E+00  0.00000000000E+00 -0.10429225257E+04  0.41138349476E+04  0.39794409886E+04 0.  0.
        2    1    3    3  502    0  0.19345216861E+04  0.46542243786E+02 -0.42737377181E+02  0.19355533621E+04  0.25500000920E-02 0.  1.
       -2    1    3    3    0  502 -0.19345216861E+04 -0.46542243786E+02 -0.10001851485E+04  0.21782815855E+04  0.25500000920E-02 0. -1.
</event>
<event>
 5   0  0.1879500E-08  0.4013206E+04  0.7818609E-02  0.8001888E-01
       -1   -1    0    0    0  501  0.00000000000E+00  0.00000000000E+00  0.17154564051E+04  0.17154564051E+04  0.50400001928E-02 0.  1.
        1   -1    0    0  501    0  0.00000000000E+00  0.00000000000E+00 -0.23471633482E+04  0.23471633482E+04  0.50400001928E-02 0. -1.
    10030    2    1    2    0    0  0.00000000000E+00  0.00000000000E+00 -0.63170694309E+03  0.40626197534E+04  0.40132063987E+04 0.  0.
        1    1    3    3  502    0  0.80530029240E+03  0.30588532880E+03  0.15187470463E+04  0.17460432371E+04  0.50400001928E-02 0.  1.
       -1    1    3    3    0  502 -0.80530029240E+03 -0.30588532880E+03 -0.21504539893E+04  0.23165765162E+04  0.50400001928E-02 0. -1.
</event>
<event>
 5   0  0.1879500E-08  0.4015345E+04  0.7818609E-02  0.8001458E-01
        1   -1    0    0  501    0  0.00000000000E+00  0.00000000000E+00  0.13082683324E+04  0.13082683324E+04  0.50400001928E-02 0.  1.
       -1   -1    0    0    0  501  0.00000000000E+00  0.00000000000E+00 -0.30809796980E+04  0.30809796980E+04  0.50400001928E-02 0. -1.
    10030    2    1    2    0    0  0.00000000000E+00  0.00000000000E+00 -0.17727113656E+04  0.43892480304E+04  0.40153446535E+04 0.  0.
        2    1    3    3  502    0  0.18359498741E+04  0.50614715248E+01  0.17052270634E+01  0.18359576429E+04  0.25500000920E-02 0. -1.
       -2    1    3    3    0  502 -0.18359498741E+04 -0.50614715248E+01 -0.17744165927E+04  0.25532903875E+04  0.25500000920E-02 0.  1.
</event>
<event>
 5   0  0.6161563E-08  0.3988890E+04  0.7818609E-02  0.8006792E-01
        2   -1    0    0  501    0  0.00000000000E+00  0.00000000000E+00  0.24433365202E+04  0.24433365202E+04  0.25500000920E-02 0.  1.
       -2   -1    0    0    0  501  0.00000000000E+00  0.00000000000E+00 -0.16280239066E+04  0.16280239066E+04  0.25500000920E-02 0. -1.
    10030    2    1    2    0    0  0.00000000000E+00  0.00000000000E+00  0.81531261364E+03  0.40713604268E+04  0.39888897035E+04 0.  0.
        1    1    3    3  502    0 -0.48609456384E+03  0.50898079717E+01 -0.15666302625E+04  0.16403183259E+04  0.50400001928E-02 0. -1.
       -1    1    3    3    0  502  0.48609456384E+03 -0.50898079717E+01  0.23819428761E+04  0.24310421009E+04  0.50400001928E-02 0.  1.
</event>
<event>
 5   0  0.1879500E-08  0.4090642E+04  0.7818609E-02  0.7986507E-01
       -1   -1    0    0    0  501  0.00000000000E+00  0.00000000000E+00  0.25646252190E+04  0.25646252190E+04  0.50400001928E-02 0.  1.
        1   -1    0    0  501    0  0.00000000000E+00  0.00000000000E+00 -0.16311690450E+04  0.16311690450E+04  0.50400001928E-02 0. -1.
    10030    2    1    2    0    0  0.00000000000E+00  0.00000000000E+00  0.93345617406E+03  0.41957942640E+04  0.40906416461E+04 0.  0.
        2    1    3    3  502    0 -0.16451040111E+04  0.96558098650E+03 -0.29022838398E+03  0.19294938103E+04  0.25500000920E-02 0.  1.
       -2    1    3    3    0  502  0.16451040111E+04 -0.96558098650E+03  0.12236845580E+04  0.22663004537E+04  0.25500000920E-02 0. -1.
</event>
<event>
 5   0  0.1879500E-08  0.4010238E+04  0.7818609E-02  0.8002484E-01
       -1   -1    0    0    0  501  0.00000000000E+00  0.00000000000E+00  0.12134810591E+04  0.12134810591E+04  0.50400001928E-02 0. -1.
        1   -1    0    0  501    0  0.00000000000E+00  0.00000000000E+00 -0.33131981293E+04  0.33131981293E+04  0.50400001928E-02 0.  1.
    10030    2    1    2    0    0  0.00000000000E+00  0.00000000000E+00 -0.20997170702E+04  0.45266791884E+04  0.40102384841E+04 0.  0.
        3    1    3    3  502    0 -0.64781837627E+03 -0.27548322205E+03  0.10694080812E+04  0.12803098487E+04  0.10100000352E+00 0. -1.
       -3    1    3    3    0  502  0.64781837627E+03  0.27548322205E+03 -0.31691251514E+04  0.32463693397E+04  0.10100000352E+00 0.  1.
</event>
<event>
 5   0  0.5846812E-08  0.3836900E+04  0.7818609E-02  0.8038282E-01
        2   -1    0    0  501    0  0.00000000000E+00  0.00000000000E+00  0.27969481253E+04  0.27969481253E+04  0.25500000920E-02 0.  1.
       -2   -1    0    0    0  501  0.00000000000E+00  0.00000000000E+00 -0.13158810513E+04  0.13158810513E+04  0.25500000920E-02 0. -1.
    10030    2    1    2    0    0  0.00000000000E+00  0.00000000000E+00  0.14810670740E+04  0.41128291766E+04  0.38369003320E+04 0.  0.
        4    1    3    3  502    0 -0.14558857220E+04  0.96623231954E+03  0.15894744722E+04  0.23621259157E+04  0.12699999809E+01 0. -1.
       -4    1    3    3    0  502  0.14558857220E+04 -0.96623231954E+03 -0.10840739818E+03  0.17507032609E+04  0.12699999809E+01 0.  1.
</event>
<event>
 5   0  0.5846812E-08  0.3721667E+04  0.7818609E-02  0.8063177E-01
       -2   -1    0    0    0  501  0.00000000000E+00  0.00000000000E+00  0.19757283907E+04  0.19757283907E+04  0.25500000920E-02 0. -1.
        2   -1    0    0  501    0  0.00000000000E+00  0.00000000000E+00 -0.17526201800E+04  0.17526201801E+04  0.25500000920E-02 0.  1.
    10030    2    1    2    0    0  0.00000000000E+00  0.00000000000E+00  0.22310821069E+03  0.37283485708E+04  0.37216670716E+04 0.  0.
        4    1    3    3  502    0  0.17053690884E+04  0.73262707444E+03 -0.21626948226E+02  0.18562045943E+04  0.12699999809E+01 0. -1.
       -4    1    3    3    0  502 -0.17053690884E+04 -0.73262707444E+03  0.24473515891E+03  0.18721439765E+04  0.12699999809E+01 0.  1.
</event>
<event>
 5   0  0.5846812E-08  0.4001233E+04  0.7818609E-02  0.8004298E-01
        2   -1    0    0  501    0  0.00000000000E+00  0.00000000000E+00  0.27631310831E+04  0.27631310831E+04  0.25500000920E-02 0.  1.
       -2   -1    0    0    0  501  0.00000000000E+00  0.00000000000E+00 -0.14485260113E+04  0.14485260113E+04  0.25500000920E-02 0. -1.
    10030    2    1    2    0    0  0.00000000000E+00  0.00000000000E+00  0.13146050718E+04  0.42116570944E+04  0.40012334330E+04 0.  0.
        4    1    3    3  502    0  0.58408464478E+03 -0.68367963922E+03  0.25384346204E+04  0.26929954802E+04  0.12699999809E+01 0.  1.
       -4    1    3    3    0  502 -0.58408464478E+03  0.68367963922E+03 -0.12238295486E+04  0.15186616141E+04  0.12699999809E+01 0. -1.
</event>
<event>
 5   0  0.5945387E-08  0.4040415E+04  0.7818609E-02  0.7996443E-01
        2   -1    0    0  501    0  0.00000000000E+00  0.00000000000E+00  0.14216092434E+04  0.14216092434E+04  0.25500000920E-02 0. -1.
       -2   -1    0    0    0  501  0.00000000000E+00  0.00000000000E+00 -0.28708574310E+04  0.28708574310E+04  0.25500000920E-02 0.  1.
    10030    2    1    2    0    0  0.00000000000E+00  0.00000000000E+00 -0.14492481875E+04  0.42924666744E+04  0.40404145631E+04 0.  0.
        3    1    3    3  502    0  0.13431043775E+04  0.92281756417E+03  0.54389640410E+03  0.17179478846E+04  0.10100000352E+00 0. -1.
       -3    1    3    3    0  502 -0.13431043775E+04 -0.92281756417E+03 -0.19931445916E+04  0.25745187898E+04  0.10100000352E+00 0.  1.
</event>
<event>
 5   0  0.1879500E-08  0.4007592E+04  0.7818609E-02  0.8003017E-01
       -1   -1    0    0    0  501  0.00000000000E+00  0.00000000000E+00  0.20033821749E+04  0.20033821749E+04  0.50400001928E-02 0. -1.
        1   -1    0    0  501    0  0.00000000000E+00  0.00000000000E+00 -0.20042095181E+04  0.20042095181E+04  0.50400001928E-02 0.  1.
    10030    2    1    2    0    0  0.00000000000E+00  0.00000000000E+00 -0.82734315839E+00  0.40075916930E+04  0.40075916076E+04 0.  0.
        1    1    3    3  502    0  0.14438528703E+04  0.28232881820E+03  0.13600189911E+04  0.20035149934E+04  0.50400001928E-02 0. -1.
       -1    1    3    3    0  502 -0.14438528703E+04 -0.28232881820E+03 -0.13608463342E+04  0.20040766996E+04  0.50400001928E-02 0.  1.
</event>
<event>
 5   0  0.5951623E-08  0.3968836E+04  0.7818609E-02  0.8010863E-01
       -2   -1    0    0    0  501  0.00000000000E+00  0.00000000000E+00  0.16893907378E+04  0.16893907378E+04  0.25500000920E-02 0. -1.
        2   -1    0    0  501    0  0.00000000000E+00  0.00000000000E+00 -0.23309677475E+04  0.23309677475E+04  0.25500000920E-02 0.  1.
    10030    2    1    2    0    0  0.00000000000E+00  0.00000000000E+00 -0.64157700972E+03  0.40203584852E+04  0.39688362640E+04 0.  0.
        2    1    3    3  502    0 -0.76558274509E+03  0.17055152359E+04 -0.99502364438E+03  0.21177750618E+04  0.25500000920E-02 0.  1.
       -2    1    3    3    0  502  0.76558274509E+03 -0.17055152359E+04  0.35344663466E+03  0.19025834234E+04  0.25500000920E-02 0. -1.
</event>
<event>
 5   0  0.6161563E-08  0.3992272E+04  0.7818609E-02  0.8006107E-01
       -2   -1    0    0    0  501  0.00000000000E+00  0.00000000000E+00  0.20941903320E+04  0.20941903320E+04  0.25500000920E-02 0.  1.
        2   -1    0    0  501    0  0.00000000000E+00  0.00000000000E+00 -0.19026724914E+04  0.19026724914E+04  0.25500000920E-02 0. -1.
    10030    2    1    2    0    0  0.00000000000E+00  0.00000000000E+00  0.19151784057E+03  0.39968628233E+04  0.39922717023E+04 0.  0.
        1    1    3    3  502    0 -0.17264518344E+04 -0.94188104174E+03 -0.24636862548E+03  0.19820376720E+04  0.50400001928E-02 0.  1.
       -1    1    3    3    0  502  0.17264518344E+04  0.94188104174E+03  0.43788646605E+03  0.20148251514E+04  0.50400001928E-02 0. -1.
</event>
<event>
 5   0  0.1879500E-08  0.3993333E+04  0.7818609E-02  0.8005893E-01
        1   -1    0    0  501    0  0.00000000000E+00  0.00000000000E+00  0.22913936384E+04  0.22913936384E+04  0.50400001928E-02 0. -1.
       -1   -1    0    0    0  501  0.00000000000E+00  0.00000000000E+00 -0.17398485577E+04  0.17398485577E+04  0.50400001928E-02 0.  1.
    10030    2    1    2    0    0  0.00000000000E+00  0.00000000000E+00  0.55154508067E+03  0.40312421962E+04  0.39933334031E+04 0.  0.
        2    1    3    3  502    0  0.21190108309E+03 -0.10026050526E+04  0.20056792477E+04  0.22523028671E+04  0.25500000920E-02 0. -1.
       -2    1    3    3    0  502 -0.21190108309E+03  0.10026050526E+04 -0.14541341670E+04  0.17789393290E+04  0.25500000920E-02 0.  1.
</event>
<event>
 5   0  0.1879500E-08  0.4000904E+04  0.7818609E-02  0.8004364E-01
       -1   -1    0    0    0  501  0.00000000000E+00  0.00000000000E+00  0.17496456857E+04  0.17496456857E+04  0.50400001928E-02 0. -1.
        1   -1    0    0  501    0  0.00000000000E+00  0.00000000000E+00 -0.22872110809E+04  0.22872110809E+04  0.50400001928E-02 0.  1.
    10030    2    1    2    0    0  0.00000000000E+00  0.00000000000E+00 -0.53756539513E+03  0.40368567666E+04  0.40009043978E+04 0.  0.
        2    1    3    3  502    0 -0.12066353534E+04 -0.10092773205E+03  0.13379000789E+04  0.18044755206E+04  0.25500000920E-02 0. -1.
       -2    1    3    3    0  502  0.12066353534E+04  0.10092773205E+03 -0.18754654741E+04  0.22323812460E+04  0.25500000920E-02 0.  1.
</event>
<event>
 5   0  0.5846812E-08  0.3993249E+04  0.7818609E-02  0.8005910E-01
        2   -1    0    0  501    0  0.00000000000E+00  0.00000000000E+00  0.12620216929E+04  0.12620216929E+04  0.25500000920E-02 0. -1.
       -2   -1    0    0    0  501  0.00000000000E+00  0.00000000000E+00 -0.31588276532E+04  0.31588276532E+04  0.25500000920E-02 0.  1.
    10030    2    1    2    0    0  0.00000000000E+00  0.00000000000E+00 -0.18968059602E+04  0.44208493461E+04  0.39932488139E+04 0.  0.
        4    1    3    3  502    0 -0.90964793679E+03 -0.11584282866E+04 -0.24407430344E+04  0.28507268612E+04  0.12699999809E+01 0.  1.
       -4    1    3    3    0  502  0.90964793679E+03  0.11584282866E+04  0.54393707419E+03  0.15701224849E+04  0.12699999809E+01 0. -1.
</event>
<event>
 5   0  0.5846812E-08  0.3999740E+04  0.7818609E-02  0.8004599E-01
       -2   -1    0    0    0  501  0.00000000000E+00  0.00000000000E+00  0.34065124059E+04  0.34065124059E+04  0.25500000920E-02 0.  1.
        2   -1    0    0  501    0  0.00000000000E+00  0.00000000000E+00 -0.11740689527E+04  0.11740689527E+04  0.25500000920E-02 0. -1.
    10030    2    1    2    0    0  0.00000000000E+00  0.00000000000E+00  0.22324434532E+04  0.45805813586E+04  0.39997402179E+04 0.  0.
        4    1    3    3  502    0  0.43889119339E+03  0.72632412274E+02 -0.11166859311E+04  0.12020357850E+04  0.12699999809E+01 0. -1.
       -4    1    3    3    0  502 -0.43889119339E+03 -0.72632412274E+02  0.33491293843E+04  0.33785455735E+04  0.12699999809E+01 0.  1.
</event>
<event>
 5   0  0.5846812E-08  0.4173990E+04  0.7818609E-02  0.7970338E-01
       -2   -1    0    0    0  501  0.00000000000E+00  0.00000000000E+00  0.18367401471E+04  0.18367401471E+04  0.25500000920E-02 0. -1.
        2   -1    0    0  501    0  0.00000000000E+00  0.00000000000E+00 -0.23713472273E+04  0.23713472273E+04  0.25500000920E-02 0.  1.
    10030    2    1    2    0    0  0.00000000000E+00  0.00000000000E+00 -0.53460708015E+03  0.42080873744E+04  0.41739902516E+04 0.  0.
        4    1    3    3  502    0 -0.17259081297E+04  0.43430146779E+03 -0.13662402562E+04  0.22436556527E+04  0.12699999809E+01 0.  1.
       -4    1    3    3    0  502  0.17259081297E+04 -0.43430146779E+03  0.83163317607E+03  0.19644317218E+04  0.12699999809E+01 0. -1.
</event>
<event>
 5   0  0.1879500E-08  0.3996265E+04  0.7818609E-02  0.8005300E-01
        1   -1    0    0  501    0  0.00000000000E+00  0.00000000000E+00  0.22525496825E+04  0.22525496825E+04  0.50400001928E-02 0.  1.
       -1   -1    0    0    0  501  0.00000000000E+00  0.00000000000E+00 -0.17724508495E+04  0.17724508495E+04  0.50400001928E-02 0. -1.
    10030    2    1    2    0    0  0.00000000000E+00  0.00000000000E+00  0.48009883297E+03  0.40250005320E+04  0.39962650554E+04 0.  0.
        3    1    3    3  502    0  0.19091199507E+04 -0.58151943821E+03  0.33888630089E+03  0.20242894503E+04  0.10100000352E+00 0.  1.
       -3    1    3    3    0  502 -0.19091199507E+04  0.58151943821E+03  0.14121253208E+03  0.20007110818E+04  0.10100000352E+00 0. -1.
</event>
<event>
 5   0  0.1879500E-08  0.3996058E+04  0.7818609E-02  0.8005342E-01
        1   -1    0    0  501    0  0.00000000000E+00  0.00000000000E+00  0.16083451959E+04  0.16083451960E+04  0.50400001928E-02 0.  1.
       -1   -1    0    0    0  501  0.00000000000E+00  0.00000000000E+00 -0.24821293414E+04  0.24821293414E+04  0.50400001928E-02 0. -1.
    10030    2    1    2    0    0  0.00000000000E+00  0.00000000000E+00 -0.87378414547E+03  0.40904745374E+04  0.39960584590E+04 0.  0.
        5    1    3    3  502    0  0.80983555016E+03  0.17926865012E+04 -0.78563733590E+02  0.19686931859E+04  0.46999998093E+01 0.  1.
       -5    1    3    3    0  502 -0.80983555016E+03 -0.17926865012E+04 -0.79522041189E+03  0.21217813515E+04  0.46999998093E+01 0. -1.
</event>
<event>
 5   0  0.5951623E-08  0.3996431E+04  0.7818609E-02  0.8005267E-01
        2   -1    0    0  501    0  0.00000000000E+00  0.00000000000E+00  0.22331588965E+04  0.22331588965E+04  0.25500000920E-02 0. -1.
       -2   -1    0    0    0  501  0.00000000000E+00  0.00000000000E+00 -0.17879898619E+04  0.17879898619E+04  0.25500000920E-02 0.  1.
    10030    2    1    2    0    0  0.00000000000E+00  0.00000000000E+00  0.44516903458E+03  0.40211487584E+04  0.39964311414E+04 0.  0.
        2    1    3    3  502    0 -0.14251919896E+04  0.72492462312E+03  0.14284028216E+04  0.21440668220E+04  0.25500000920E-02 0. -1.
       -2    1    3    3    0  502  0.14251919896E+04 -0.72492462312E+03 -0.98323378699E+03  0.18770819365E+04  0.25500000920E-02 0.  1.
</event>
<event>
 5   0  0.1879500E-08  0.3965227E+04  0.7818609E-02  0.8011598E-01
        1   -1    0    0  501    0  0.00000000000E+00  0.00000000000E+00  0.28189152093E+04  0.28189152093E+04  0.50400001928E-02 0.  1.
       -1   -1    0    0    0  501  0.00000000000E+00  0.00000000000E+00 -0.13944219462E+04  0.13944219462E+04  0.50400001928E-02 0. -1.
    10030    2    1    2    0    0  0.00000000000E+00  0.00000000000E+00  0.14244932631E+04  0.42133371555E+04  0.39652274751E+04 0.  0.
        2    1    3    3  502    0  0.64195374730E+03  0.11654290764E+04  0.22740558201E+04  0.26347029090E+04  0.25500000920E-02 0.  1.
       -2    1    3    3    0  502 -0.64195374730E+03 -0.11654290764E+04 -0.84956255702E+03  0.15786342465E+04  0.25500000920E-02 0. -1.
</event>
<event>
 5   0  0.1879500E-08  0.3996490E+04  0.7818609E-02  0.8005255E-01
        1   -1    0    0  501    0  0.00000000000E+00  0.00000000000E+00  0.24905883707E+04  0.24905883707E+04  0.50400001928E-02 0. -1.
       -1   -1    0    0    0  501  0.00000000000E+00  0.00000000000E+00 -0.16032287230E+04  0.16032287230E+04  0.50400001928E-02 0.  1.
    10030    2    1    2    0    0  0.00000000000E+00  0.00000000000E+00  0.88735964767E+03  0.40938170937E+04  0.39964898664E+04 0.  0.
        2    1    3    3  502    0 -0.10108095110E+04  0.27622496337E+03  0.21865699365E+04  0.24246905339E+04  0.25500000920E-02 0. -1.
       -2    1    3    3    0  502  0.10108095110E+04 -0.27622496337E+03 -0.12992102888E+04  0.16691265598E+04  0.25500000920E-02 0.  1.
</event>
<event>
 5   0  0.1879500E-08  0.3970411E+04  0.7818609E-02  0.8010542E-01
        1   -1    0    0  501    0  0.00000000000E+00  0.00000000000E+00  0.16482867857E+04  0.16482867857E+04  0.50400001928E-02 0.  1.
       -1   -1    0    0    0  501  0.00000000000E+00  0.00000000000E+00 -0.23909923785E+04  0.23909923785E+04  0.50400001928E-02 0. -1.
    10030    2    1    2    0    0  0.00000000000E+00  0.00000000000E+00 -0.74270559284E+03  0.40392791642E+04  0.39704111334E+04 0.  0.
        1    1    3    3  502    0  0.31572521315E+03  0.95803836592E+03  0.13681355143E+04  0.16997984311E+04  0.50400001928E-02 0.  1.
       -1    1    3    3    0  502 -0.31572521315E+03 -0.95803836592E+03 -0.21108411071E+04  0.23394807331E+04  0.50400001928E-02 0. -1.
</event>
<event>
 5   0  0.5951623E-08  0.3996504E+04  0.7818609E-02  0.8005252E-01
        2   -1    0    0  501    0  0.00000000000E+00  0.00000000000E+00  0.21301965984E+04  0.21301965984E+04  0.25500000920E-02 0.  1.
       -2   -1    0    0    0  501  0.00000000000E+00  0.00000000000E+00 -0.18744799306E+04  0.18744799306E+04  0.25500000920E-02 0. -1.
    10030    2    1    2    0    0  0.00000000000E+00  0.00000000000E+00  0.25571666783E+03  0.40046765290E+04  0.39965038581E+04 0.  0.
        2    1    3    3  502    0 -0.24145957246E+03  0.10305693855E+04 -0.15704925190E+04  0.18938908986E+04  0.25500000920E-02 0. -1.
       -2    1    3    3    0  502  0.24145957246E+03 -0.10305693855E+04  0.18262091869E+04  0.21107856304E+04  0.25500000920E-02 0.  1.
</event>
<event>
 5   0  0.5846812E-08  0.3990671E+04  0.7818609E-02  0.8006431E-01
        2   -1    0    0  501    0  0.00000000000E+00  0.00000000000E+00  0.22389310745E+04  0.22389310745E+04  0.25500000920E-02 0.  1.
       -2   -1    0    0    0  501  0.00000000000E+00  0.00000000000E+00 -0.17782428344E+04  0.17782428344E+04  0.25500000920E-02 0. -1.
    10030    2    1    2    0    0  0.00000000000E+00  0.00000000000E+00  0.46068824010E+03  0.40171739090E+04  0.39906706905E+04 0.  0.
        4    1    3    3  502    0  0.16454856473E+03 -0.16521131005E+04 -0.88371612876E+03  0.18808268756E+04  0.12699999809E+01 0. -1.
       -4    1    3    3    0  502 -0.16454856473E+03  0.16521131005E+04  0.13444043689E+04  0.21363470333E+04  0.12699999809E+01 0.  1.
</event>
<event>
 5   0  0.1879500E-08  0.3812382E+04  0.7818609E-02  0.8043503E-01
       -1   -1    0    0    0  501  0.00000000000E+00  0.00000000000E+00  0.13741678021E+04  0.13741678021E+04  0.50400001928E-02 0. -1.
        1   -1    0    0  501    0  0.00000000000E+00  0.00000000000E+00 -0.26441925470E+04  0.26441925470E+04  0.50400001928E-02 0.  1.
    10030    2    1    2    0    0  0.00000000000E+00  0.00000000000E+00 -0.12700247449E+04  0.40183603492E+04  0.38123820694E+04 0.  0.
        3    1    3    3  502    0 -0.85143091863E+03 -0.12822251129E+04  0.55025616276E+03  0.16345695777E+04  0.10100000352E+00 0. -1.
       -3    1    3    3    0  502  0.85143091863E+03  0.12822251129E+04 -0.18202809077E+04  0.23837907715E+04  0.10100000352E+00 0.  1.
</event>
<event>
 5   0  0.6161563E-08  0.4003307E+04  0.7818609E-02  0.8003880E-01
        2   -1    0    0  501    0  0.00000000000E+00  0.00000000000E+00  0.25252136054E+04  0.25252136054E+04  0.25500000920E-02 0.  1.
       -2   -1    0    0    0  501  0.00000000000E+00  0.00000000000E+00 -0.15866447170E+04  0.15866447170E+04  0.25500000920E-02 0. -1.
    10030    2    1    2    0    0  0.00000000000E+00  0.00000000000E+00  0.93856888838E+03  0.41118583225E+04  0.40033070461E+04 0.  0.
        1    1    3    3  502    0  0.18406032968E+03  0.95497091737E+02 -0.15755831290E+04  0.15891696247E+04  0.50400001928E-02 0. -1.
       -1    1    3    3    0  502 -0.18406032968E+03 -0.95497091737E+02  0.25141520174E+04  0.25226886978E+04  0.50400001928E-02 0.  1.
</event>
<event>
 5   0  0.1879500E-08  0.3990314E+04  0.7818609E-02  0.8006503E-01
       -1   -1    0    0    0  501  0.00000000000E+00  0.00000000000E+00  0.16655362039E+04  0.16655362039E+04  0.50400001928E-02 0. -1.
        1   -1    0    0  501    0  0.00000000000E+00  0.00000000000E+00 -0.23900115274E+04  0.23900115274E+04  0.50400001928E-02 0.  1.
    10030    2    1    2    0    0  0.00000000000E+00  0.00000000000E+00 -0.72447532346E+03  0.40555477313E+04  0.39903136352E+04 0.  0.
        2    1    3    3  502    0 -0.43141044042E+03  0.57157842780E+03  0.15304180786E+04  0.16896734485E+04  0.25500000920E-02 0. -1.
       -2    1    3    3    0  502  0.43141044042E+03 -0.57157842780E+03 -0.22548934021E+04  0.23658742828E+04  0.25500000920E-02 0.  1.
</event>
<event>
 5   0  0.1879500E-08  0.4119768E+04  0.7818609E-02  0.7980812E-01
        1   -1    0    0  501    0  0.00000000000E+00  0.00000000000E+00  0.20256307777E+04  0.20256307777E+04  0.50400001928E-02 0. -1.
       -1   -1    0    0    0  501  0.00000000000E+00  0.00000000000E+00 -0.20947163986E+04  0.20947163986E+04  0.50400001928E-02 0.  1.
    10030    2    1    2    0    0  0.00000000000E+00  0.00000000000E+00 -0.69085620844E+02  0.41203471763E+04  0.41197679583E+04 0.  0.
        1    1    3    3  502    0 -0.12721855845E+04 -0.15510478031E+04 -0.50249379066E+03  0.20680196949E+04  0.50400001928E-02 0.  1.
       -1    1    3    3    0  502  0.12721855845E+04  0.15510478031E+04  0.43340816981E+03  0.20523274813E+04  0.50400001928E-02 0. -1.
</event>
<event>
 5   0  0.1879500E-08  0.4025509E+04  0.7818609E-02  0.7999420E-01
        1   -1    0    0  501    0  0.00000000000E+00  0.00000000000E+00  0.13522232173E+04  0.13522232173E+04  0.50400001928E-02 0.  1.
       -1   -1    0    0    0  501  0.00000000000E+00  0.00000000000E+00 -0.29959412784E+04  0.29959412784E+04  0.50400001928E-02 0. -1.
    10030    2    1    2    0    0  0.00000000000E+00  0.00000000000E+00 -0.16437180612E+04  0.43481644957E+04  0.40255093363E+04 0.  0.
        3    1    3    3  502    0 -0.23636777897E+02 -0.16291139399E+04 -0.20983647526E+04  0.26566342563E+04  0.10100000352E+00 0. -1.
       -3    1    3    3    0  502  0.23636777897E+02  0.16291139399E+04  0.45464669147E+03  0.16915302394E+04  0.10100000352E+00 0.  1.
</event>
<event>
 5   0  0.1879500E-08  0.4019271E+04  0.7818609E-02  0.8000670E-01
       -1   -1    0    0    0  501  0.00000000000E+00  0.00000000000E+00  0.18772899656E+04  0.18772899656E+04  0.50400001928E-02 0.  1.
        1   -1    0    0  501    0  0.00000000000E+00  0.00000000000E+00 -0.21513110977E+04  0.21513110977E+04  0.50400001928E-02 0. -1.
    10030    2    1    2    0    0  0.00000000000E+00  0.00000000000E+00 -0.27402113203E+03  0.40286010633E+04  0.40192709471E+04 0.  0.
        1    1    3    3  502    0  0.13532652354E+04 -0.14088519206E+04 -0.60974531571E+03  0.20464554433E+04  0.50400001928E-02 0.  1.
       -1    1    3    3    0  502 -0.13532652354E+04  0.14088519206E+04  0.33572418368E+03  0.19821456200E+04  0.50400001928E-02 0. -1.
</event>
<event>
 5   0  0.1879500E-08  0.3802873E+04  0.7818609E-02  0.8045539E-01
        1   -1    0    0  501    0  0.00000000000E+00  0.00000000000E+00  0.19468869136E+04  0.19468869136E+04  0.50400001928E-02 0.  1.
       -1   -1    0    0    0  501  0.00000000000E+00  0.00000000000E+00 -0.18570470571E+04  0.18570470571E+04  0.50400001928E-02 0. -1.
    10030    2    1    2    0    0  0.00000000000E+00  0.00000000000E+00  0.89839856488E+02  0.38039339707E+04  0.38028729210E+04 0.  0.
        1    1    3    3  502    0  0.12912385379E+03  0.18946901134E+04  0.13948210764E+03  0.19042003187E+04  0.50400001928E-02 0. -1.
       -1    1    3    3    0  502 -0.12912385379E+03 -0.18946901134E+04 -0.49642251152E+02  0.18997336520E+04  0.50400001928E-02 0.  1.
</event>
<event>
 5   0  0.1879500E-08  0.3997736E+04  0.7818609E-02  0.8005004E-01
        1   -1    0    0  501    0  0.00000000000E+00  0.00000000000E+00  0.35546496950E+04  0.35546496950E+04  0.50400001928E-02 0. -1.
       -1   -1    0    0    0  501  0.00000000000E+00  0.00000000000E+00 -0.11240129767E+04  0.11240129767E+04  0.50400001928E-02 0.  1.
    10030    2    1    2    0    0  0.00000000000E+00  0.00000000000E+00  0.24306367183E+04  0.46786626718E+04  0.39977355515E+04 0.  0.
        2    1    3    3  502    0 -0.56052751100E+03 -0.13405492910E+04 -0.39115007438E+03  0.15047464480E+04  0.25500000920E-02 0.  1.
       -2    1    3    3    0  502  0.56052751100E+03  0.13405492910E+04  0.28217867926E+04  0.31739162237E+04  0.25500000920E-02 0. -1.
</event>
<event>
 5   0  0.1879500E-08  0.3996010E+04  0.7818609E-02  0.8005352E-01
       -1   -1    0    0    0  501  0.00000000000E+00  0.00000000000E+00  0.12243202136E+04  0.12243202136E+04  0.50400001928E-02 0. -1.
        1   -1    0    0  501    0  0.00000000000E+00  0.00000000000E+00 -0.32606045542E+04  0.32606045542E+04  0.50400001928E-02 0.  1.
    10030    2    1    2    0    0  0.00000000000E+00  0.00000000000E+00 -0.20362843406E+04  0.44849247678E+04  0.39960100421E+04 0.  0.
        1    1    3    3  502    0 -0.15599828993E+04 -0.12234660253E+04 -0.12967210672E+04  0.23689451846E+04  0.50400001928E-02 0. -1.
       -1    1    3    3    0  502  0.15599828993E+04  0.12234660253E+04 -0.73956327336E+03  0.21159795832E+04  0.50400001928E-02 0.  1.
</event>
<event>
 5   0  0.5951623E-08  0.3990496E+04  0.7818609E-02  0.8006467E-01
       -2   -1    0    0    0  501  0.00000000000E+00  0.00000000000E+00  0.16259296113E+04  0.16259296113E+04  0.25500000920E-02 0.  1.
        2   -1    0    0  501    0  0.00000000000E+00  0.00000000000E+00 -0.24484542481E+04  0.24484542481E+04  0.25500000920E-02 0. -1.
    10030    2    1    2    0    0  0.00000000000E+00  0.00000000000E+00 -0.82252463685E+03  0.40743838594E+04  0.39904958408E+04 0.  0.
        2    1    3    3  502    0  0.17927207094E+04  0.29978965212E+03 -0.12515409845E+04  0.22068249168E+04  0.25500000920E-02 0. -1.
       -2    1    3    3    0  502 -0.17927207094E+04 -0.29978965212E+03  0.42901634765E+03  0.18675589426E+04  0.25500000920E-02 0.  1.
</event>
<event>
 5   0  0.1879500E-08  0.3995461E+04  0.7818609E-02  0.8005463E-01
       -1   -1    0    0    0  501  0.00000000000E+00  0.00000000000E+00  0.26843704946E+04  0.26843704946E+04  0.50400001928E-02 0. -1.
        1   -1    0    0  501    0  0.00000000000E+00  0.00000000000E+00 -0.14867276114E+04  0.14867276114E+04  0.50400001928E-02 0.  1.
    10030    2    1    2    0    0  0.00000000000E+00  0.00000000000E+00  0.11976428832E+04  0.41710981060E+04  0.39954612918E+04 0.  0.
        2    1    3    3  502    0  0.18106568750E+04  0.64674484105E+03  0.32604245165E+02  0.19229717224E+04  0.25500000920E-02 0.  1.
       -2    1    3    3    0  502 -0.18106568750E+04 -0.64674484105E+03  0.11650386381E+04  0.22481263836E+04  0.25500000920E-02 0. -1.
</event>
<event>
 5   0  0.1879500E-08  0.3931271E+04  0.7818609E-02  0.8018557E-01
       -1   -1    0    0    0  501  0.00000000000E+00  0.00000000000E+00  0.18851350799E+04  0.18851350799E+04  0.50400001928E-02 0. -1.
        1   -1    0    0  501    0  0.00000000000E+00  0.00000000000E+00 -0.20495739651E+04  0.20495739651E+04  0.50400001928E-02 0.  1.
    10030    2    1    2    0    0  0.00000000000E+00  0.00000000000E+00 -0.16443888516E+03  0.39347090450E+04  0.39312714383E+04 0.  0.
        5    1    3    3  502    0 -0.59884947008E+02  0.10315700549E+04  0.15913607310E+04  0.18974124620E+04  0.46999998093E+01 0. -1.
       -5    1    3    3    0  502  0.59884947008E+02 -0.10315700549E+04 -0.17557996161E+04  0.20372965830E+04  0.46999998093E+01 0.  1.
</event>
<event>
 5   0  0.6161563E-08  0.3978894E+04  0.7818609E-02  0.8008818E-01
        2   -1    0    0  501    0  0.00000000000E+00  0.00000000000E+00  0.14174370322E+04  0.14174370322E+04  0.25500000920E-02 0.  1.
       -2   -1    0    0    0  501  0.00000000000E+00  0.00000000000E+00 -0.27922926136E+04  0.27922926136E+04  0.25500000920E-02 0. -1.
    10030    2    1    2    0    0  0.00000000000E+00  0.00000000000E+00 -0.13748555814E+04  0.42097296458E+04  0.39788937937E+04 0.  0.
        1    1    3    3  502    0  0.19381467839E+03  0.12925613111E+04 -0.22743164229E+04  0.26231267724E+04  0.50400001928E-02 0. -1.
       -1    1    3    3    0  502 -0.19381467839E+03 -0.12925613111E+04  0.89946084148E+03  0.15866028734E+04  0.50400001928E-02 0.  1.
</event>
<event>
 5   0  0.6161563E-08  0.3996843E+04  0.7818609E-02  0.8005184E-01
       -2   -1    0    0    0  501  0.00000000000E+00  0.00000000000E+00  0.15588803991E+04  0.15588803991E+04  0.25500000920E-02 0. -1.
        2   -1    0    0  501    0  0.00000000000E+00  0.00000000000E+00 -0.25618958649E+04  0.25618958649E+04  0.25500000920E-02 0.  1.
    10030    2    1    2    0    0  0.00000000000E+00  0.00000000000E+00 -0.10030154658E+04  0.41207762639E+04  0.39968433786E+04 0.  0.
        1    1    3    3  502    0 -0.11767455667E+03 -0.74590666424E+03 -0.24091408950E+04  0.25247146186E+04  0.50400001928E-02 0.  1.
       -1    1    3    3    0  502  0.11767455667E+03  0.74590666424E+03  0.14061254292E+04  0.15960616454E+04  0.50400001928E-02 0. -1.
</event>
<event>
 5   0  0.5951623E-08  0.3989422E+04  0.7818609E-02  0.8006684E-01
       -2   -1    0    0    0  501  0.00000000000E+00  0.00000000000E+00  0.29177179121E+04  0.29177179121E+04  0.25500000920E-02 0. -1.
        2   -1    0    0  501    0  0.00000000000E+00  0.00000000000E+00 -0.13636933465E+04  0.13636933465E+04  0.25500000920E-02 0.  1.
    10030    2    1    2    0    0  0.00000000000E+00  0.00000000000E+00  0.15540245655E+04  0.42814112586E+04  0.39894222658E+04 0.  0.
        2    1    3    3  502    0 -0.10498719536E+04  0.77827387844E+03 -0.84024428597E+03  0.15536897402E+04  0.25500000920E-02 0.  1.
       -2    1    3    3    0  502  0.10498719536E+04 -0.77827387844E+03  0.23942688515E+04  0.27277215184E+04  0.25500000920E-02 0. -1.
</event>
<event>
 5   0  0.5888700E-08  0.4022774E+04  0.7818609E-02  0.7999968E-01
        2   -1    0    0  501    0  0.00000000000E+00  0.00000000000E+00  0.14360960938E+04  0.14360960938E+04  0.25500000920E-02 0.  1.
       -2   -1    0    0    0  501  0.00000000000E+00  0.00000000000E+00 -0.28171362682E+04  0.28171362682E+04  0.25500000920E-02 0. -1.
    10030    2    1    2    0    0  0.00000000000E+00  0.00000000000E+00 -0.13810401744E+04  0.42532323620E+04  0.40227743613E+04 0.  0.
        5    1    3    3  502    0  0.13633659972E+04  0.85717111178E+03  0.58356592731E+03  0.17129157711E+04  0.46999998093E+01 0.  1.
       -5    1    3    3    0  502 -0.13633659972E+04 -0.85717111178E+03 -0.19646061017E+04  0.25403165910E+04  0.46999998093E+01 0. -1.
</event>
<event>
 5   0  0.1879500E-08  0.4074887E+04  0.7818609E-02  0.7989608E-01
       -1   -1    0    0    0  501  0.00000000000E+00  0.00000000000E+00  0.23060038861E+04  0.23060038861E+04  0.50400001928E-02 0.  1.
        1   -1    0    0  501    0  0.00000000000E+00  0.00000000000E+00 -0.18001599096E+04  0.18001599096E+04  0.50400001928E-02 0. -1.
    10030    2    1    2    0    0  0.00000000000E+00  0.00000000000E+00  0.50584397650E+03  0.41061637957E+04  0.40748868682E+04 0.  0.
        4    1    3    3  502    0  0.72326406193E+03 -0.10447441540E+04 -0.13519647427E+04  0.18553736898E+04  0.12699999809E+01 0. -1.
       -4    1    3    3    0  502 -0.72326406193E+03  0.10447441540E+04  0.18578087192E+04  0.22507901058E+04  0.12699999809E+01 0.  1.
</event>
<event>
 5   0  0.6161563E-08  0.4019113E+04  0.7818609E-02  0.8000702E-01
        2   -1    0    0  501    0  0.00000000000E+00  0.00000000000E+00  0.15997694563E+04  0.15997694564E+04  0.25500000920E-02 0.  1.
       -2   -1    0    0    0  501  0.00000000000E+00  0.00000000000E+00 -0.25243124885E+04  0.25243124885E+04  0.25500000920E-02 0. -1.
    10030    2    1    2    0    0  0.00000000000E+00  0.00000000000E+00 -0.92454303219E+03  0.41240819449E+04  0.40191133437E+04 0.  0.
        1    1    3    3  502    0  0.32863963010E+03  0.19613862056E+04 -0.16615501995E+03  0.19956571210E+04  0.50400001928E-02 0.  1.
       -1    1    3    3    0  502 -0.32863963010E+03 -0.19613862056E+04 -0.75838801224E+03  0.21284248239E+04  0.50400001928E-02 0. -1.
</event>
<event>
 5   0  0.1879500E-08  0.4002103E+04  0.7818609E-02  0.8004122E-01
       -1   -1    0    0    0  501  0.00000000000E+00  0.00000000000E+00  0.24164462552E+04  0.24164462552E+04  0.50400001928E-02 0. -1.
        1   -1    0    0  501    0  0.00000000000E+00  0.00000000000E+00 -0.16570646446E+04  0.16570646446E+04  0.50400001928E-02 0.  1.
    10030    2    1    2    0    0  0.00000000000E+00  0.00000000000E+00  0.75938161060E+03  0.40735108998E+04  0.40021032745E+04 0.  0.
        1    1    3    3  502    0 -0.13228974638E+03 -0.70968975644E+03 -0.15199010183E+04  0.16826346106E+04  0.50400001928E-02 0.  1.
       -1    1    3    3    0  502  0.13228974638E+03  0.70968975644E+03  0.22792826289E+04  0.23908762891E+04  0.50400001928E-02 0. -1.
</event>
<event>
 5   0  0.1879500E-08  0.3995216E+04  0.7818609E-02  0.8005512E-01
       -1   -1    0    0    0  501  0.00000000000E+00  0.00000000000E+00  0.13323630682E+04  0.13323630683E+04  0.50400001928E-02 0. -1.
        1   -1    0    0  501    0  0.00000000000E+00  0.00000000000E+00 -0.29950082242E+04  0.29950082242E+04  0.50400001928E-02 0.  1.
    10030    2    1    2    0    0  0.00000000000E+00  0.00000000000E+00 -0.16626451559E+04  0.43273712925E+04  0.39952163131E+04 0.  0.
        2    1    3    3  502    0 -0.18576694574E+04 -0.60516609111E+03 -0.12821950708E+04  0.23369180581E+04  0.25500000920E-02 0.  1.
       -2    1    3    3    0  502  0.18576694574E+04  0.60516609111E+03 -0.38045008510E+03  0.19904532343E+04  0.25500000920E-02 0. -1.
</event>
<event>
 5   0  0.1879500E-08  0.3928790E+04  0.7818609E-02  0.8019068E-01
        1   -1    0    0  501    0  0.00000000000E+00  0.00000000000E+00  0.15394465499E+04  0.15394465499E+04  0.50400001928E-02 0.  1.
       -1   -1    0    0    0  501  0.00000000000E+00  0.00000000000E+00 -0.25066463179E+04  0.25066463179E+04  0.50400001928E-02 0. -1.
    10030    2    1    2    0    0  0.00000000000E+00  0.00000000000E+00 -0.96719976803E+03  0.40460928678E+04  0.39287901577E+04 0.  0.
        3    1    3    3  502    0 -0.13294232566E+04 -0.94298993966E+03 -0.16128099229E+04  0.22929788658E+04  0.10100000352E+00 0. -1.
       -3    1    3    3    0  502  0.13294232566E+04  0.94298993966E+03  0.64561015484E+03  0.17531140020E+04  0.10100000352E+00 0.  1.
</event>
<event>
 5   0  0.1879500E-08  0.3994618E+04  0.7818609E-02  0.8005633E-01
        1   -1    0    0  501    0  0.00000000000E+00  0.00000000000E+00  0.18935510809E+04  0.18935510809E+04  0.50400001928E-02 0. -1.
       -1   -1    0    0    0  501  0.00000000000E+00  0.00000000000E+00 -0.21067525055E+04  0.21067525055E+04  0.50400001928E-02 0.  1.
    10030    2    1    2    0    0  0.00000000000E+00  0.00000000000E+00 -0.21320142455E+03  0.40003035864E+04  0.39946181214E+04 0.  0.
        5    1    3    3  502    0  0.13599230594E+04  0.10036710726E+02 -0.15714642351E+04  0.20782236153E+04  0.46999998093E+01 0.  1.
       -5    1    3    3    0  502 -0.13599230594E+04 -0.10036710726E+02  0.13582628105E+04  0.19220799711E+04  0.46999998093E+01 0. -1.
</event>
<event>
 5   0  0.1879500E-08  0.4006797E+04  0.7818609E-02  0.8003177E-01
       -1   -1    0    0    0  501  0.00000000000E+00  0.00000000000E+00  0.16811517103E+04  0.16811517103E+04  0.50400001928E-02 0. -1.
        1   -1    0    0  501    0  0.00000000000E+00  0.00000000000E+00 -0.23874143601E+04  0.23874143601E+04  0.50400001928E-02 0.  1.
    10030    2    1    2    0    0  0.00000000000E+00  0.00000000000E+00 -0.70626264982E+03  0.40685660703E+04  0.40067970922E+04 0.  0.
        2    1    3    3  502    0  0.19440840077E+04  0.44450454881E+03 -0.15898013474E+03  0.20005803174E+04  0.25500000920E-02 0.  1.
       -2    1    3    3    0  502 -0.19440840077E+04 -0.44450454881E+03 -0.54728251507E+03  0.20679857529E+04  0.25500000920E-02 0. -1.
</event>
<event>
 5   0  0.6161563E-08  0.3997710E+04  0.7818609E-02  0.8005009E-01
        2   -1    0    0  501    0  0.00000000000E+00  0.00000000000E+00  0.18326462495E+04  0.18326462495E+04  0.25500000920E-02 0. -1.
       -2   -1    0    0    0  501  0.00000000000E+00  0.00000000000E+00 -0.21801376098E+04  0.21801376098E+04  0.25500000920E-02 0.  1.
    10030    2    1    2    0    0  0.00000000000E+00  0.00000000000E+00 -0.34749136035E+03  0.40127838593E+04  0.39977098514E+04 0.  0.
        1    1    3    3  502    0  0.11886720129E+04  0.15437246387E+04  0.27447371881E+03  0.19675778858E+04  0.50400001928E-02 0. -1.
       -1    1    3    3    0  502 -0.11886720129E+04 -0.15437246387E+04 -0.62196507916E+03  0.20452059735E+04  0.50400001928E-02 0.  1.
</event>
<event>
 5   0  0.5945387E-08  0.4004466E+04  0.7818609E-02  0.8003646E-01
        2   -1    0    0  501    0  0.00000000000E+00  0.00000000000E+00  0.19916344388E+04  0.19916344388E+04  0.25500000920E-02 0.  1.
       -2   -1    0    0    0  501  0.00000000000E+00  0.00000000000E+00 -0.20128883298E+04  0.20128883298E+04  0.25500000920E-02 0. -1.
    10030    2    1    2    0    0  0.00000000000E+00  0.00000000000E+00 -0.21253890917E+02  0.40045227686E+04  0.40044663660E+04 0.  0.
        3    1    3    3  502    0  0.14944869000E+03  0.12048030394E+04  0.15815802794E+04  0.19938107897E+04  0.10100000352E+00 0.  1.
       -3    1    3    3    0  502 -0.14944869000E+03 -0.12048030394E+04 -0.16028341703E+04  0.20107119790E+04  0.10100000352E+00 0. -1.
</event>
<event>
 5   0  0.1879500E-08  0.4020621E+04  0.7818609E-02  0.8000400E-01
        1   -1    0    0  501    0  0.00000000000E+00  0.00000000000E+00  0.20956063115E+04  0.20956063115E+04  0.50400001928E-02 0. -1.
       -1   -1    0    0    0  501  0.00000000000E+00  0.00000000000E+00 -0.19284864482E+04  0.19284864482E+04  0.50400001928E-02 0.  1.
    10030    2    1    2    0    0  0.00000000000E+00  0.00000000000E+00  0.16711986333E+03  0.40240927598E+04  0.40206210329E+04 0.  0.
        1    1    3    3  502    0  0.87047500213E+03  0.51086494332E+02 -0.17293604851E+04  0.19367561144E+04  0.50400001928E-02 0.  1.
       -1    1    3    3    0  502 -0.87047500213E+03 -0.51086494332E+02  0.18964803484E+04  0.20873366454E+04  0.50400001928E-02 0. -1.
</event>
<event>
 5   0  0.1879500E-08  0.3993993E+04  0.7818609E-02  0.8005759E-01
        1   -1    0    0  501    0  0.00000000000E+00  0.00000000000E+00  0.27137845284E+04  0.27137845284E+04  0.50400001928E-02 0.  1.
       -1   -1    0    0    0  501  0.00000000000E+00  0.00000000000E+00 -0.14695325744E+04  0.14695325744E+04  0.50400001928E-02 0. -1.
    10030    2    1    2    0    0  0.00000000000E+00  0.00000000000E+00  0.12442519540E+04  0.41833171028E+04  0.39939928715E+04 0.  0.
        2    1    3    3  502    0  0.10900452024E+04 -0.16685724364E+04  0.49104474417E+03  0.20526708113E+04  0.25500000920E-02 0.  1.
       -2    1    3    3    0  502 -0.10900452024E+04  0.16685724364E+04  0.75320720987E+03  0.21306462915E+04  0.25500000920E-02 0. -1.
</event>
<event>
 5   0  0.1879500E-08  0.3994390E+04  0.7818609E-02  0.8005679E-01
        1   -1    0    0  501    0  0.00000000000E+00  0.00000000000E+00  0.22396318554E+04  0.22396318554E+04  0.50400001928E-02 0. -1.
       -1   -1    0    0    0  501  0.00000000000E+00  0.00000000000E+00 -0.17810018328E+04  0.17810018328E+04  0.50400001928E-02 0.  1.
    10030    2    1    2    0    0  0.00000000000E+00  0.00000000000E+00  0.45863002265E+03  0.40206336882E+04  0.39943902860E+04 0.  0.
        1    1    3    3  502    0 -0.60389806804E+03 -0.58881634129E+03  0.20515657321E+04  0.22181793240E+04  0.50400001928E-02 0. -1.
       -1    1    3    3    0  502  0.60389806804E+03  0.58881634129E+03 -0.15929357095E+04  0.18024543642E+04  0.50400001928E-02 0.  1.
</event>
<event>
 5   0  0.1879500E-08  0.4063239E+04  0.7818609E-02  0.7991909E-01
       -1   -1    0    0    0  501  0.00000000000E+00  0.00000000000E+00  0.28982146329E+04  0.28982146329E+04  0.50400001928E-02 0. -1.
        1   -1    0    0  501    0  0.00000000000E+00  0.00000000000E+00 -0.14241452670E+04  0.14241452670E+04  0.50400001928E-02 0.  1.
    10030    2    1    2    0    0  0.00000000000E+00  0.00000000000E+00  0.14740693659E+04  0.43223598998E+04  0.40632394230E+04 0.  0.
        4    1    3    3  502    0  0.91598765904E+03 -0.17498263442E+04  0.23070673568E+03  0.19885051765E+04  0.12699999809E+01 0.  1.
       -4    1    3    3    0  502 -0.91598765904E+03  0.17498263442E+04  0.12433626302E+04  0.23338547233E+04  0.12699999809E+01 0. -1.
</event>
<event>
 5   0  0.1879500E-08  0.3997643E+04  0.7818609E-02  0.8005022E-01
        1   -1    0    0  501    0  0.00000000000E+00  0.00000000000E+00  0.23751789464E+04  0.23751789464E+04  0.50400001928E-02 0. -1.
       -1   -1    0    0    0  501  0.00000000000E+00  0.00000000000E+00 -0.16820991571E+04  0.16820991571E+04  0.50400001928E-02 0.  1.
    10030    2    1    2    0    0  0.00000000000E+00  0.00000000000E+00  0.69307978925E+03  0.40572781035E+04  0.39976425572E+04 0.  0.
        5    1    3    3  502    0 -0.91383018483E+03 -0.86689559116E+03 -0.12286015003E+04  0.17595673642E+04  0.46999998093E+01 0.  1.
       -5    1    3    3    0  502  0.91383018483E+03  0.86689559116E+03  0.19216812896E+04  0.22977107393E+04  0.46999998093E+01 0. -1.
</event>
<event>
 5   0  0.6161563E-08  0.3950585E+04  0.7818609E-02  0.8014590E-01
        2   -1    0    0  501    0  0.00000000000E+00  0.00000000000E+00  0.19746493625E+04  0.19746493625E+04  0.25500000920E-02 0. -1.
       -2   -1    0    0    0  501  0.00000000000E+00  0.00000000000E+00 -0.19759361831E+04  0.19759361831E+04  0.25500000920E-02 0.  1.
    10030    2    1    2    0    0  0.00000000000E+00  0.00000000000E+00 -0.12868206117E+01  0.39505855456E+04  0.39505853361E+04 0.  0.
        1    1    3    3  502    0 -0.93987293475E+03 -0.18322555389E+02  0.17366201261E+04  0.19747268956E+04  0.50400001928E-02 0. -1.
       -1    1    3    3    0  502  0.93987293475E+03  0.18322555389E+02 -0.17379069468E+04  0.19758586501E+04  0.50400001928E-02 0.  1.
</event>
<event>
 5   0  0.1879500E-08  0.3986578E+04  0.7818609E-02  0.8007260E-01
       -1   -1    0    0    0  501  0.00000000000E+00  0.00000000000E+00  0.23329236338E+04  0.23329236338E+04  0.50400001928E-02 0.  1.
        1   -1    0    0  501    0  0.00000000000E+00  0.00000000000E+00 -0.17030996198E+04  0.17030996198E+04  0.50400001928E-02 0. -1.
    10030    2    1    2    0    0  0.00000000000E+00  0.00000000000E+00  0.62982401404E+03  0.40360232536E+04  0.39865781587E+04 0.  0.
        5    1    3    3  502    0 -0.70419161641E+02  0.79028910912E+03 -0.15363362423E+04  0.17291231517E+04  0.46999998093E+01 0. -1.
       -5    1    3    3    0  502  0.70419161641E+02 -0.79028910912E+03  0.21661602563E+04  0.23069001020E+04  0.46999998093E+01 0.  1.
</event>
<event>
 5   0  0.5951623E-08  0.4007983E+04  0.7818609E-02  0.8002938E-01
       -2   -1    0    0    0  501  0.00000000000E+00  0.00000000000E+00  0.16809397664E+04  0.16809397664E+04  0.25500000920E-02 0.  1.
        2   -1    0    0  501    0  0.00000000000E+00  0.00000000000E+00 -0.23891286936E+04  0.23891286936E+04  0.25500000920E-02 0. -1.
    10030    2    1    2    0    0  0.00000000000E+00  0.00000000000E+00 -0.70818892720E+03  0.40700684600E+04  0.40079827485E+04 0.  0.
        2    1    3    3  502    0 -0.16568221654E+04 -0.69892986719E+03  0.54415197512E+03  0.18787400084E+04  0.25500000920E-02 0.  1.
       -2    1    3    3    0  502  0.16568221654E+04  0.69892986719E+03 -0.12523409023E+04  0.21913284516E+04  0.25500000920E-02 0. -1.
</event>
<event>
 5   0  0.1879500E-08  0.3983360E+04  0.7818609E-02  0.8007912E-01
       -1   -1    0    0    0  501  0.00000000000E+00  0.00000000000E+00  0.21110159450E+04  0.21110159451E+04  0.50400001928E-02 0. -1.
        1   -1    0    0  501    0  0.00000000000E+00  0.00000000000E+00 -0.18790901231E+04  0.18790901231E+04  0.50400001928E-02 0.  1.
    10030    2    1    2    0    0  0.00000000000E+00  0.00000000000E+00  0.23192582198E+03  0.39901060681E+04  0.39833599948E+04 0.  0.
        4    1    3    3  502    0  0.33892023114E+03  0.14693145222E+04  0.14193335003E+04  0.20708117458E+04  0.12699999809E+01 0. -1.
       -4    1    3    3    0  502 -0.33892023114E+03 -0.14693145222E+04 -0.11874076784E+04  0.19192943224E+04  0.12699999809E+01 0.  1.
</event>
<event>
 5   0  0.5945387E-08  0.3992839E+04  0.7818609E-02  0.8005993E-01
       -2   -1    0    0    0  501  0.00000000000E+00  0.00000000000E+00  0.21485238919E+04  0.21485238919E+04  0.25500000920E-02 0.  1.
        2   -1    0    0  501    0  0.00000000000E+00  0.00000000000E+00 -0.18550831761E+04  0.18550831761E+04  0.25500000920E-02 0. -1.
    10030    2    1    2    0    0  0.00000000000E+00  0.00000000000E+00  0.29344071576E+03  0.40036070680E+04  0.39928388524E+04 0.  0.
        3    1    3    3  502    0 -0.61796866420E+03  0.54694443680E+03  0.19694945085E+04  0.21354020971E+04  0.10100000352E+00 0.  1.
       -3    1    3    3    0  502  0.61796866420E+03 -0.54694443680E+03 -0.16760537928E+04  0.18682049709E+04  0.10100000352E+00 0. -1.
</event>
<event>
 5   0  0.1879500E-08  0.4044783E+04  0.7818609E-02  0.7995573E-01
       -1   -1    0    0    0  501  0.00000000000E+00  0.00000000000E+00  0.25423559950E+04  0.25423559950E+04  0.50400001928E-02 0. -1.
        1   -1    0    0  501    0  0.00000000000E+00  0.00000000000E+00 -0.16087704692E+04  0.16087704692E+04  0.50400001928E-02 0.  1.
    10030    2    1    2    0    0  0.00000000000E+00  0.00000000000E+00  0.93358552584E+03  0.41511264643E+04  0.40447829346E+04 0.  0.
        1    1    3    3  502    0 -0.42778934640E+03  0.61725458937E+03 -0.14603576464E+04  0.16421484124E+04  0.50400001928E-02 0.  1.
       -1    1    3    3    0  502  0.42778934640E+03 -0.61725458937E+03  0.23939431722E+04  0.25089780519E+04  0.50400001928E-02 0. -1.
</event>
<event>
 5   0  0.5945387E-08  0.4004648E+04  0.7818609E-02  0.8003609E-01
        2   -1    0    0  501    0  0.00000000000E+00  0.00000000000E+00  0.19642985024E+04  0.19642985024E+04  0.25500000920E-02 0.  1.
       -2   -1    0    0    0  501  0.00000000000E+00  0.00000000000E+00 -0.20410860192E+04  0.20410860192E+04  0.25500000920E-02 0. -1.
    10030    2    1    2    0    0  0.00000000000E+00  0.00000000000E+00 -0.76787516779E+02  0.40053845216E+04  0.40046484044E+04 0.  0.
        3    1    3    3  502    0  0.13920471319E+04 -0.14135329634E+04 -0.30942612309E+03  0.20078882419E+04  0.10100000352E+00 0. -1.
       -3    1    3    3    0  502 -0.13920471319E+04  0.14135329634E+04  0.23263860631E+03  0.19974962797E+04  0.10100000352E+00 0.  1.
</event>
<event>
 5   0  0.1879500E-08  0.3999552E+04  0.7818609E-02  0.8004637E-01
        1   -1    0    0  501    0  0.00000000000E+00  0.00000000000E+00  0.20820719223E+04  0.20820719224E+04  0.50400001928E-02 0. -1.
       -1   -1    0    0    0  501  0.00000000000E+00  0.00000000000E+00 -0.19207325007E+04  0.19207325007E+04  0.50400001928E-02 0.  1.
    10030    2    1    2    0    0  0.00000000000E+00  0.00000000000E+00  0.16133942163E+03  0.40028044231E+04  0.39995515799E+04 0.  0.
        5    1    3    3  502    0  0.82213386531E+03 -0.17885800877E+03  0.18963080214E+04  0.20745844118E+04  0.46999998093E+01 0. -1.
       -5    1    3    3    0  502 -0.82213386531E+03  0.17885800877E+03 -0.17349685997E+04  0.19282200113E+04  0.46999998093E+01 0.  1.
</event>
<event>
 5   0  0.1879500E-08  0.3968394E+04  0.7818609E-02  0.8010953E-01
       -1   -1    0    0    0  501  0.00000000000E+00  0.00000000000E+00  0.22156878599E+04  0.22156878599E+04  0.50400001928E-02 0. -1.
        1   -1    0    0  501    0  0.00000000000E+00  0.00000000000E+00 -0.17768916900E+04  0.17768916900E+04  0.50400001928E-02 0.  1.
    10030    2    1    2    0    0  0.00000000000E+00  0.00000000000E+00  0.43879616983E+03  0.39925795499E+04  0.39683938040E+04 0.  0.
        5    1    3    3  502    0 -0.43859913780E+03 -0.16195529462E+04  0.12849535794E+04  0.21133974403E+04  0.46999998093E+01 0. -1.
       -5    1    3    3    0  502  0.43859913780E+03  0.16195529462E+04 -0.84615740957E+03  0.18791821096E+04  0.46999998093E+01 0.  1.
</event>
<event>
 5   0  0.1879500E-08  0.3992572E+04  0.7818609E-02  0.8006047E-01
        1   -1    0    0  501    0  0.00000000000E+00  0.00000000000E+00  0.25670808655E+04  0.25670808655E+04  0.50400001928E-02 0. -1.
       -1   -1    0    0    0  501  0.00000000000E+00  0.00000000000E+00 -0.15524086960E+04  0.15524086960E+04  0.50400001928E-02 0.  1.
    10030    2    1    2    0    0  0.00000000000E+00  0.00000000000E+00  0.10146721695E+04  0.41194895615E+04  0.39925724334E+04 0.  0.
        3    1    3    3  502    0  0.15044789380E+04  0.43032541646E+02 -0.84578258095E+03  0.17264578937E+04  0.10100000352E+00 0.  1.
       -3    1    3    3    0  502 -0.15044789380E+04 -0.43032541646E+02  0.18604547504E+04  0.23930316678E+04  0.10100000352E+00 0. -1.
</event>
<event>
 5   0  0.5888700E-08  0.4040228E+04  0.7818609E-02  0.7996480E-01
        2   -1    0    0  501    0  0.00000000000E+00  0.00000000000E+00  0.16947778282E+04  0.16947778282E+04  0.25500000920E-02 0. -1.
       -2   -1    0    0    0  501  0.00000000000E+00  0.00000000000E+00 -0.24079026988E+04  0.24079026988E+04  0.25500000920E-02 0.  1.
    10030    2    1    2    0    0  0.00000000000E+00  0.00000000000E+00 -0.71312487065E+03  0.41026805270E+04  0.40402277690E+04 0.  0.
        5    1    3    3  502    0 -0.76852373684E+03  0.15510387683E+03  0.15339766350E+04  0.17227281717E+04  0.46999998093E+01 0. -1.
       -5    1    3    3    0  502  0.76852373684E+03 -0.15510387683E+03 -0.22471015057E+04  0.23799523553E+04  0.46999998093E+01 0.  1.
</event>
<event>
 5   0  0.6161563E-08  0.3967636E+04  0.7818609E-02  0.8011107E-01
       -2   -1    0    0    0  501  0.00000000000E+00  0.00000000000E+00  0.22028855239E+04  0.22028855239E+04  0.25500000920E-02 0.  1.
        2   -1    0    0  501    0  0.00000000000E+00  0.00000000000E+00 -0.17865359164E+04  0.17865359164E+04  0.25500000920E-02 0. -1.
    10030    2    1    2    0    0  0.00000000000E+00  0.00000000000E+00  0.41634960745E+03  0.39894214403E+04  0.39676361266E+04 0.  0.
        1    1    3    3  502    0  0.81422320147E+03 -0.17310081164E+04  0.73659400120E+03  0.20498583471E+04  0.50400001928E-02 0.  1.
       -1    1    3    3    0  502 -0.81422320147E+03  0.17310081164E+04 -0.32024439375E+03  0.19395630932E+04  0.50400001928E-02 0. -1.
</event>
<event>
 5   0  0.6161563E-08  0.4003124E+04  0.7818609E-02  0.8003917E-01
       -2   -1    0    0    0  501  0.00000000000E+00  0.00000000000E+00  0.18103771220E+04  0.18103771220E+04  0.25500000920E-02 0.  1.
        2   -1    0    0  501    0  0.00000000000E+00  0.00000000000E+00 -0.22129374030E+04  0.22129374030E+04  0.25500000920E-02 0. -1.
    10030    2    1    2    0    0  0.00000000000E+00  0.00000000000E+00 -0.40256028096E+03  0.40233145250E+04  0.40031244031E+04 0.  0.
        1    1    3    3  502    0 -0.12209958798E+04 -0.14198470069E+04  0.50900542285E+03  0.19405883082E+04  0.50400001928E-02 0.  1.
       -1    1    3    3    0  502  0.12209958798E+04  0.14198470069E+04 -0.91156570381E+03  0.20827262167E+04  0.50400001928E-02 0. -1.
</event>
<event>
 5   0  0.1879500E-08  0.3875044E+04  0.7818609E-02  0.8030240E-01
       -1   -1    0    0    0  501  0.00000000000E+00  0.00000000000E+00  0.22678750513E+04  0.22678750513E+04  0.50400001928E-02 0.  1.
        1   -1    0    0  501    0  0.00000000000E+00  0.00000000000E+00 -0.16552899896E+04  0.16552899896E+04  0.50400001928E-02 0. -1.
    10030    2    1    2    0    0  0.00000000000E+00  0.00000000000E+00  0.61258506168E+03  0.39231650409E+04  0.38750436746E+04 0.  0.
        2    1    3    3  502    0 -0.16032089548E+04 -0.10870193761E+04  0.25988893392E+03  0.19543368017E+04  0.25500000920E-02 0. -1.
       -2    1    3    3    0  502  0.16032089548E+04  0.10870193761E+04  0.35269612776E+03  0.19688282391E+04  0.25500000920E-02 0.  1.
</event>
<event>
 5   0  0.5888700E-08  0.4011399E+04  0.7818609E-02  0.8002251E-01
       -2   -1    0    0    0  501  0.00000000000E+00  0.00000000000E+00  0.14735683024E+04  0.14735683024E+04  0.25500000920E-02 0. -1.
        2   -1    0    0  501    0  0.00000000000E+00  0.00000000000E+00 -0.27299927874E+04  0.27299927874E+04  0.25500000920E-02 0.  1.
    10030    2    1    2    0    0  0.00000000000E+00  0.00000000000E+00 -0.12564244849E+04  0.42035610898E+04  0.40113991760E+04 0.  0.
        5    1    3    3  502    0 -0.18004868259E+04  0.43270357314E+03  0.17930200316E+03  0.18604183645E+04  0.46999998093E+01 0. -1.
       -5    1    3    3    0  502  0.18004868259E+04 -0.43270357314E+03 -0.14357264881E+04  0.23431427253E+04  0.46999998093E+01 0.  1.
</event>
<event>
 5   0  0.5951623E-08  0.4002604E+04  0.7818609E-02  0.8004021E-01
        2   -1    0    0  501    0  0.00000000000E+00  0.00000000000E+00  0.23402158860E+04  0.23402158861E+04  0.25500000920E-02 0. -1.
       -2   -1    0    0    0  501  0.00000000000E+00  0.00000000000E+00 -0.17114701053E+04  0.17114701053E+04  0.25500000920E-02 0.  1.
    10030    2    1    2    0    0  0.00000000000E+00  0.00000000000E+00  0.62874578079E+03  0.40516859913E+04  0.40026039169E+04 0.  0.
        2    1    3    3  502    0  0.96548900531E+03 -0.68412485048E+03 -0.13194243926E+04  0.17723082571E+04  0.25500000920E-02 0.  1.
       -2    1    3    3    0  502 -0.96548900531E+03  0.68412485048E+03  0.19481701734E+04  0.22793777342E+04  0.25500000920E-02 0. -1.
</event>
<event>
 5   0  0.1879500E-08  0.3989349E+04  0.7818609E-02  0.8006699E-01
        1   -1    0    0  501    0  0.00000000000E+00  0.00000000000E+00  0.15273907815E+04  0.15273907815E+04  0.50400001928E-02 0.  1.
       -1   -1    0    0    0  501  0.00000000000E+00  0.00000000000E+00 -0.26049175660E+04  0.26049175660E+04  0.50400001928E-02 0. -1.
    10030    2    1    2    0    0  0.00000000000E+00  0.00000000000E+00 -0.10775267845E+04  0.41323083475E+04  0.39893493590E+04 0.  0.
        5    1    3    3  502    0  0.29399496056E+03 -0.19339777438E+04 -0.13491779393E+03  0.19608487579E+04  0.46999998093E+01 0.  1.
       -5    1    3    3    0  502 -0.29399496056E+03  0.19339777438E+04 -0.94260899055E+03  0.21714595896E+04  0.46999998093E+01 0. -1.
</event>
<event>
 5   0  0.1879500E-08  0.3956757E+04  0.7818609E-02  0.8013327E-01
        1   -1    0    0  501    0  0.00000000000E+00  0.00000000000E+00  0.17236063408E+04  0.17236063408E+04  0.50400001928E-02 0. -1.
       -1   -1    0    0    0  501  0.00000000000E+00  0.00000000000E+00 -0.22708097466E+04  0.22708097466E+04  0.50400001928E-02 0.  1.
    10030    2    1    2    0    0  0.00000000000E+00  0.00000000000E+00 -0.54720340582E+03  0.39944160874E+04  0.39567572976E+04 0.  0.
        4    1    3    3  502    0  0.12164243122E+03 -0.11770261324E+04 -0.18741863701E+04  0.22164754816E+04  0.12699999809E+01 0.  1.
       -4    1    3    3    0  502 -0.12164243122E+03  0.11770261324E+04  0.13269829643E+04  0.17779406058E+04  0.12699999809E+01 0. -1.
</event>
<event>
 5   0  0.1879500E-08  0.3991152E+04  0.7818609E-02  0.8006334E-01
        1   -1    0    0  501    0  0.00000000000E+00  0.00000000000E+00  0.13420618337E+04  0.13420618337E+04  0.50400001928E-02 0. -1.
       -1   -1    0    0    0  501  0.00000000000E+00  0.00000000000E+00 -0.29673177477E+04  0.29673177477E+04  0.50400001928E-02 0.  1.
    10030    2    1    2    0    0  0.00000000000E+00  0.00000000000E+00 -0.16252559140E+04  0.43093795814E+04  0.39911521633E+04 0.  0.
        3    1    3    3  502    0  0.15132603975E+04 -0.11736472345E+04 -0.14185488300E+04  0.23832091085E+04  0.10100000352E+00 0.  1.
       -3    1    3    3    0  502 -0.15132603975E+04  0.11736472345E+04 -0.20670708405E+03  0.19261704729E+04  0.10100000352E+00 0. -1.
</event>
<event>
 5   0  0.1879500E-08  0.4007303E+04  0.7818609E-02  0.8003075E-01
        1   -1    0    0  501    0  0.00000000000E+00  0.00000000000E+00  0.19680872515E+04  0.19680872515E+04  0.50400001928E-02 0. -1.
       -1   -1    0    0    0  501  0.00000000000E+00  0.00000000000E+00 -0.20398579415E+04  0.20398579415E+04  0.50400001928E-02 0.  1.
    10030    2    1    2    0    0  0.00000000000E+00  0.00000000000E+00 -0.71770689934E+02  0.40079451930E+04  0.40073025389E+04 0.  0.
        5    1    3    3  502    0 -0.12636047021E+04  0.13031945563E+04 -0.88430401725E+03  0.20191653176E+04  0.46999998093E+01 0.  1.
       -5    1    3    3    0  502  0.12636047021E+04 -0.13031945563E+04  0.81253332732E+03  0.19887798754E+04  0.46999998093E+01 0. -1.
</event>
<event>
 5   0  0.5951623E-08  0.3994147E+04  0.7818609E-02  0.8005728E-01
        2   -1    0    0  501    0  0.00000000000E+00  0.00000000000E+00  0.12451660836E+04  0.12451660836E+04  0.25500000920E-02 0.  1.
       -2   -1    0    0    0  501  0.00000000000E+00  0.00000000000E+00 -0.32030281508E+04  0.32030281508E+04  0.25500000920E-02 0. -1.
    10030    2    1    2    0    0  0.00000000000E+00  0.00000000000E+00 -0.19578620672E+04  0.44481942344E+04  0.39941467265E+04 0.  0.
        2    1    3    3  502    0  0.20670898710E+03  0.19719770440E+04 -0.71332414552E+03  0.21071908799E+04  0.25500000920E-02 0.  1.
       -2    1    3    3    0  502 -0.20670898710E+03 -0.19719770440E+04 -0.12445379217E+04  0.23410033546E+04  0.25500000920E-02 0. -1.
</event>
<event>
 5   0  0.5951623E-08  0.4034704E+04  0.7818609E-02  0.7997582E-01
        2   -1    0    0  501    0  0.00000000000E+00  0.00000000000E+00  0.12963019793E+04  0.12963019793E+04  0.25500000920E-02 0.  1.
       -2   -1    0    0    0  501  0.00000000000E+00  0.00000000000E+00 -0.31394765940E+04  0.31394765940E+04  0.25500000920E-02 0. -1.
    10030    2    1    2    0    0  0.00000000000E+00  0.00000000000E+00 -0.18431746146E+04  0.44357785733E+04  0.40347043128E+04 0.  0.
        2    1    3    3  502    0 -0.15981965380E+04  0.59418347435E+03 -0.21069202262E+04  0.27104241393E+04  0.25500000920E-02 0.  1.
       -2    1    3    3    0  502  0.15981965380E+04 -0.59418347435E+03  0.26374561156E+03  0.17253544340E+04  0.25500000920E-02 0. -1.
</event>
<event>
 5   0  0.1879500E-08  0.3987700E+04  0.7818609E-02  0.8007032E-01
       -1   -1    0    0    0  501  0.00000000000E+00  0.00000000000E+00  0.21451454522E+04  0.21451454522E+04  0.50400001928E-02 0. -1.
        1   -1    0    0  501    0  0.00000000000E+00  0.00000000000E+00 -0.18532250926E+04  0.18532250926E+04  0.50400001928E-02 0.  1.
    10030    2    1    2    0    0  0.00000000000E+00  0.00000000000E+00  0.29192035961E+03  0.39983705449E+04  0.39876997778E+04 0.  0.
        4    1    3    3  502    0  0.12969411248E+04 -0.47401401938E+03  0.15881031368E+04  0.21044758867E+04  0.12699999809E+01 0. -1.
       -4    1    3    3    0  502 -0.12969411248E+04  0.47401401938E+03 -0.12961827772E+04  0.18938946582E+04  0.12699999809E+01 0.  1.
</event>
<event>
 5   0  0.1879500E-08  0.4001914E+04  0.7818609E-02  0.8004161E-01
        1   -1    0    0  501    0  0.00000000000E+00  0.00000000000E+00  0.15569843009E+04  0.15569843009E+04  0.50400001928E-02 0. -1.
       -1   -1    0    0    0  501  0.00000000000E+00  0.00000000000E+00 -0.25715283335E+04  0.25715283335E+04  0.50400001928E-02 0.  1.
    10030    2    1    2    0    0  0.00000000000E+00  0.00000000000E+00 -0.10145440326E+04  0.41285126344E+04  0.40019141643E+04 0.  0.
        3    1    3    3  502    0 -0.80197423031E+03  0.88578799520E+03 -0.21630521672E+04  0.24711490702E+04  0.10100000352E+00 0.  1.
       -3    1    3    3    0  502  0.80197423031E+03 -0.88578799520E+03  0.11485081347E+04  0.16573635642E+04  0.10100000352E+00 0. -1.
</event>
<event>
 5   0  0.1879500E-08  0.3754246E+04  0.7818609E-02  0.8056045E-01
       -1   -1    0    0    0  501  0.00000000000E+00  0.00000000000E+00  0.30741358912E+04  0.30741358912E+04  0.50400001928E-02 0.  1.
        1   -1    0    0  501    0  0.00000000000E+00  0.00000000000E+00 -0.11462051800E+04  0.11462051800E+04  0.50400001928E-02 0. -1.
    10030    2    1    2    0    0  0.00000000000E+00  0.00000000000E+00  0.19279307112E+04  0.42203410712E+04  0.37542458537E+04 0.  0.
        1    1    3    3  502    0  0.16926631884E+04  0.77829233700E+03  0.12221358719E+04  0.22281076546E+04  0.50400001928E-02 0. -1.
       -1    1    3    3    0  502 -0.16926631884E+04 -0.77829233700E+03  0.70579483924E+03  0.19922334166E+04  0.50400001928E-02 0.  1.
</event>
<event>
 5   0  0.1879500E-08  0.3957151E+04  0.7818609E-02  0.8013247E-01
       -1   -1    0    0    0  501  0.00000000000E+00  0.00000000000E+00  0.17436156490E+04  0.17436156490E+04  0.50400001928E-02 0.  1.
        1   -1    0    0  501    0  0.00000000000E+00  0.00000000000E+00 -0.22451976914E+04  0.22451976914E+04  0.50400001928E-02 0. -1.
    10030    2    1    2    0    0  0.00000000000E+00  0.00000000000E+00 -0.50158204240E+03  0.39888133404E+04  0.39571514147E+04 0.  0.
        5    1    3    3  502    0  0.16028493776E+04  0.55143653121E+03  0.77792906993E+03  0.18650480163E+04  0.46999998093E+01 0.  1.
       -5    1    3    3    0  502 -0.16028493776E+04 -0.55143653121E+03 -0.12795111123E+04  0.21237653241E+04  0.46999998093E+01 0. -1.
</event>
<event>
 5   0  0.5846812E-08  0.3995061E+04  0.7818609E-02  0.8005544E-01
       -2   -1    0    0    0  501  0.00000000000E+00  0.00000000000E+00  0.18627245102E+04  0.18627245102E+04  0.25500000920E-02 0.  1.
        2   -1    0    0  501    0  0.00000000000E+00  0.00000000000E+00 -0.21420926144E+04  0.21420926144E+04  0.25500000920E-02 0. -1.
    10030    2    1    2    0    0  0.00000000000E+00  0.00000000000E+00 -0.27936810424E+03  0.40048171246E+04  0.39950611590E+04 0.  0.
        4    1    3    3  502    0  0.14502409053E+04 -0.13145370386E+04 -0.53930588744E+03  0.20302853894E+04  0.12699999809E+01 0. -1.
       -4    1    3    3    0  502 -0.14502409053E+04  0.13145370386E+04  0.25993778320E+03  0.19745317352E+04  0.12699999809E+01 0.  1.
</event>
<event>
 5   0  0.5945387E-08  0.4003777E+04  0.7818609E-02  0.8003785E-01
        2   -1    0    0  501    0  0.00000000000E+00  0.00000000000E+00  0.14564253866E+04  0.14564253866E+04  0.25500000920E-02 0.  1.
       -2   -1    0    0    0  501  0.00000000000E+00  0.00000000000E+00 -0.27516392825E+04  0.27516392825E+04  0.25500000920E-02 0. -1.
    10030    2    1    2    0    0  0.00000000000E+00  0.00000000000E+00 -0.12952138959E+04  0.42080646691E+04  0.40037768698E+04 0.  0.
        3    1    3    3  502    0 -0.46281776480E+03  0.91904786022E+03  0.11571903258E+04  0.15485279181E+04  0.10100000352E+00 0.  1.
       -3    1    3    3    0  502  0.46281776480E+03 -0.91904786022E+03 -0.24524042217E+04  0.26595367510E+04  0.10100000352E+00 0. -1.
</event>
<event>
 5   0  0.6161563E-08  0.3974176E+04  0.7818609E-02  0.8009776E-01
        2   -1    0    0  501    0  0.00000000000E+00  0.00000000000E+00  0.15156629539E+04  0.15156629539E+04  0.25500000920E-02 0.  1.
       -2   -1    0    0    0  501  0.00000000000E+00  0.00000000000E+00 -0.26051428432E+04  0.26051428432E+04  0.25500000920E-02 0. -1.
    10030    2    1    2    0    0  0.00000000000E+00  0.00000000000E+00 -0.10894798893E+04  0.41208057971E+04  0.39741758879E+04 0.  0.
        1    1    3    3  502    0  0.15046996070E+04 -0.13751405623E+03  0.79341298460E+03  0.17066151257E+04  0.50400001928E-02 0.  1.
       -1    1    3    3    0  502 -0.15046996070E+04  0.13751405623E+03 -0.18828928739E+04  0.24141906714E+04  0.50400001928E-02 0. -1.
</event>
<event>
 5   0  0.5945387E-08  0.4138433E+04  0.7818609E-02  0.7977188E-01
       -2   -1    0    0    0  501  0.00000000000E+00  0.00000000000E+00  0.18261905696E+04  0.18261905696E+04  0.25500000920E-02 0.  1.
        2   -1    0    0  501    0  0.00000000000E+00  0.00000000000E+00 -0.23445837187E+04  0.23445837187E+04  0.25500000920E-02 0. -1.
    10030    2    1    2    0    0  0.00000000000E+00  0.00000000000E+00 -0.51839314908E+03  0.41707742883E+04  0.41384328806E+04 0.  0.
        3    1    3    3  502    0  0.24269382386E+03 -0.23604448474E+03 -0.23164821153E+04  0.23410909191E+04  0.10100000352E+00 0. -1.
       -3    1    3    3    0  502 -0.24269382386E+03  0.23604448474E+03  0.17980889662E+04  0.18296833692E+04  0.10100000352E+00 0.  1.
</event>
<event>
 5   0  0.5888700E-08  0.3989051E+04  0.7818609E-02  0.8006759E-01
        2   -1    0    0  501    0  0.00000000000E+00  0.00000000000E+00  0.29926606540E+04  0.29926606540E+04  0.25500000920E-02 0.  1.
       -2   -1    0    0    0  501  0.00000000000E+00  0.00000000000E+00 -0.13292962238E+04  0.13292962238E+04  0.25500000920E-02 0. -1.
    10030    2    1    2    0    0  0.00000000000E+00  0.00000000000E+00  0.16633644303E+04  0.43219568778E+04  0.39890512689E+04 0.  0.
        5    1    3    3  502    0 -0.65434122308E+03 -0.11954574627E+04  0.24095248339E+04  0.27682328292E+04  0.46999998093E+01 0.  1.
       -5    1    3    3    0  502  0.65434122308E+03  0.11954574627E+04 -0.74616040363E+03  0.15537240486E+04  0.46999998093E+01 0. -1.
</event>
<event>
 5   0  0.5888700E-08  0.4042717E+04  0.7818609E-02  0.7995984E-01
        2   -1    0    0  501    0  0.00000000000E+00  0.00000000000E+00  0.28289379474E+04  0.28289379474E+04  0.25500000920E-02 0. -1.
       -2   -1    0    0    0  501  0.00000000000E+00  0.00000000000E+00 -0.14443197291E+04  0.14443197291E+04  0.25500000920E-02 0.  1.
    10030    2    1    2    0    0  0.00000000000E+00  0.00000000000E+00  0.13846182183E+04  0.42732576765E+04  0.40427173485E+04 0.  0.
        5    1    3    3  502    0 -0.18251950865E+04 -0.84997166913E+03  0.88163147365E+03  0.21979729497E+04  0.46999998093E+01 0. -1.
       -5    1    3    3    0  502  0.18251950865E+04  0.84997166913E+03  0.50298674462E+03  0.20752847268E+04  0.46999998093E+01 0.  1.
</event>
<event>
 5   0  0.1879500E-08  0.4002542E+04  0.7818609E-02  0.8004034E-01
       -1   -1    0    0    0  501  0.00000000000E+00  0.00000000000E+00  0.32688989235E+04  0.32688989235E+04  0.50400001928E-02 0.  1.
        1   -1    0    0  501    0  0.00000000000E+00  0.00000000000E+00 -0.12252094259E+04  0.12252094260E+04  0.50400001928E-02 0. -1.
    10030    2    1    2    0    0  0.00000000000E+00  0.00000000000E+00  0.20436894976E+04  0.44941083495E+04  0.40025420790E+04 0.  0.
        3    1    3    3  502    0  0.11007617843E+03 -0.18223355889E+04  0.19423203947E+04  0.26656391896E+04  0.10100000352E+00 0.  1.
       -3    1    3    3    0  502 -0.11007617843E+03  0.18223355889E+04  0.10136910292E+03  0.18284691599E+04  0.10100000352E+00 0. -1.
</event>
<event>
 5   0  0.5846812E-08  0.3999521E+04  0.7818609E-02  0.8004643E-01
       -2   -1    0    0    0  501  0.00000000000E+00  0.00000000000E+00  0.20095376263E+04  0.20095376263E+04  0.25500000920E-02 0.  1.
        2   -1    0    0  501    0  0.00000000000E+00  0.00000000000E+00 -0.19900310837E+04  0.19900310837E+04  0.25500000920E-02 0. -1.
    10030    2    1    2    0    0  0.00000000000E+00  0.00000000000E+00  0.19506542513E+02  0.39995687100E+04  0.39995211414E+04 0.  0.
        4    1    3    3  502    0  0.82784727430E+03 -0.15034329475E+04 -0.10166112096E+04  0.19947786097E+04  0.12699999809E+01 0. -1.
       -4    1    3    3    0  502 -0.82784727430E+03  0.15034329475E+04  0.10361177521E+04  0.20047901003E+04  0.12699999809E+01 0.  1.
</event>
<event>
 5   0  0.1879500E-08  0.3996315E+04  0.7818609E-02  0.8005290E-01
       -1   -1    0    0    0  501  0.00000000000E+00  0.00000000000E+00  0.30517358392E+04  0.30517358392E+04  0.50400001928E-02 0. -1.
        1   -1    0    0  501    0  0.00000000000E+00  0.00000000000E+00 -0.13083156567E+04  0.13083156567E+04  0.50400001928E-02 0.  1.
    10030    2    1    2    0    0  0.00000000000E+00  0.00000000000E+00  0.17434201825E+04  0.43600514959E+04  0.39963151920E+04 0.  0.
        5    1    3    3  502    0 -0.14617803276E+04  0.28656285271E+03 -0.58130776291E+03  0.15990186991E+04  0.46999998093E+01 0.  1.
       -5    1    3    3    0  502  0.14617803276E+04 -0.28656285271E+03  0.23247279454E+04  0.27610327968E+04  0.46999998093E+01 0. -1.
</event>
<event>
 5   0  0.1879500E-08  0.3991961E+04  0.7818609E-02  0.8006170E-01
       -1   -1    0    0    0  501  0.00000000000E+00  0.00000000000E+00  0.14075227452E+04  0.14075227452E+04  0.50400001928E-02 0.  1.
        1   -1    0    0  501    0  0.00000000000E+00  0.00000000000E+00 -0.28304604337E+04  0.28304604337E+04  0.50400001928E-02 0. -1.
    10030    2    1    2    0    0  0.00000000000E+00  0.00000000000E+00 -0.14229376885E+04  0.42379831789E+04  0.39919606410E+04 0.  0.
        2    1    3    3  502    0  0.14130304942E+04  0.14085530724E+04 -0.65084892223E+03  0.20986379523E+04  0.25500000920E-02 0.  1.
       -2    1    3    3    0  502 -0.14130304942E+04 -0.14085530724E+04 -0.77208876624E+03  0.21393452265E+04  0.25500000920E-02 0. -1.
</event>
<event>
 5   0  0.1879500E-08  0.4014899E+04  0.7818609E-02  0.8001548E-01
        1   -1    0    0  501    0  0.00000000000E+00  0.00000000000E+00  0.26805001718E+04  0.26805001718E+04  0.50400001928E-02 0. -1.
       -1   -1    0    0    0  501  0.00000000000E+00  0.00000000000E+00 -0.15033960003E+04  0.15033960003E+04  0.50400001928E-02 0.  1.
    10030    2    1    2    0    0  0.00000000000E+00  0.00000000000E+00  0.11771041715E+04  0.41838961722E+04  0.40148988716E+04 0.  0.
        4    1    3    3  502    0 -0.12369107173E+02 -0.12055332074E+04 -0.10841243870E+04  0.16213545597E+04  0.12699999809E+01 0.  1.
       -4    1    3    3    0  502  0.12369107173E+02  0.12055332074E+04  0.22612285585E+04  0.25625416125E+04  0.12699999809E+01 0. -1.
</event>
<event>
 5   0  0.5846812E-08  0.3972464E+04  0.7818609E-02  0.8010124E-01
       -2   -1    0    0    0  501  0.00000000000E+00  0.00000000000E+00  0.23840641865E+04  0.23840641865E+04  0.25500000920E-02 0. -1.
        2   -1    0    0  501    0  0.00000000000E+00  0.00000000000E+00 -0.16547869532E+04  0.16547869533E+04  0.25500000920E-02 0.  1.
    10030    2    1    2    0    0  0.00000000000E+00  0.00000000000E+00  0.72927723330E+03  0.40388511398E+04  0.39724643795E+04 0.  0.
        4    1    3    3  502    0  0.16972910202E+04  0.94688837361E+03  0.78102185513E+03  0.20946100235E+04  0.12699999809E+01 0. -1.
       -4    1    3    3    0  502 -0.16972910202E+04 -0.94688837361E+03 -0.51744621829E+02  0.19442411163E+04  0.12699999809E+01 0.  1.
</event>
<event>
 5   0  0.1879500E-08  0.3996498E+04  0.7818609E-02  0.8005253E-01
       -3   -1    0    0    0  501  0.00000000000E+00  0.00000000000E+00  0.25245089882E+04  0.25245089902E+04  0.10100000352E+00 0.  1.
        3   -1    0    0  501    0  0.00000000000E+00  0.00000000000E+00 -0.15816936992E+04  0.15816937024E+04  0.10100000352E+00 0. -1.
    10030    2    1    2    0    0  0.00000000000E+00  0.00000000000E+00  0.94281528897E+03  0.41062026927E+04  0.39964984529E+04 0.  0.
        5    1    3    3  502    0 -0.10585729199E+04  0.12778490638E+04 -0.67248305693E+03  0.17904553634E+04  0.46999998093E+01 0. -1.
       -5    1    3    3    0  502  0.10585729199E+04 -0.12778490638E+04  0.16152983459E+04  0.23157473292E+04  0.46999998093E+01 0.  1.
</event>
<event>
 5   0  0.1879500E-08  0.3997388E+04  0.7818609E-02  0.8005074E-01
        1   -1    0    0  501    0  0.00000000000E+00  0.00000000000E+00  0.28642316113E+04  0.28642316114E+04  0.50400001928E-02 0. -1.
       -1   -1    0    0    0  501  0.00000000000E+00  0.00000000000E+00 -0.13947116761E+04  0.13947116761E+04  0.50400001928E-02 0.  1.
    10030    2    1    2    0    0  0.00000000000E+00  0.00000000000E+00  0.14695199352E+04  0.42589432875E+04  0.39973877828E+04 0.  0.
        5    1    3    3  502    0  0.40535648592E+03 -0.18930397581E+04  0.20541973170E+03  0.19468263309E+04  0.46999998093E+01 0.  1.
       -5    1    3    3    0  502 -0.40535648592E+03  0.18930397581E+04  0.12641002036E+04  0.23121169566E+04  0.46999998093E+01 0. -1.
</event>
<event>
 5   0  0.1879500E-08  0.4007238E+04  0.7818609E-02  0.8003088E-01
       -1   -1    0    0    0  501  0.00000000000E+00  0.00000000000E+00  0.30066170990E+04  0.30066170990E+04  0.50400001928E-02 0.  1.
        1   -1    0    0  501    0  0.00000000000E+00  0.00000000000E+00 -0.13352181421E+04  0.13352181421E+04  0.50400001928E-02 0. -1.
    10030    2    1    2    0    0  0.00000000000E+00  0.00000000000E+00  0.16713989569E+04  0.43418352411E+04  0.40072382994E+04 0.  0.
        5    1    3    3  502    0 -0.14312566812E+03 -0.13859763795E+04 -0.72433171012E+03  0.15703802080E+04  0.46999998093E+01 0. -1.
       -5    1    3    3    0  502  0.14312566812E+03  0.13859763795E+04  0.23957306670E+04  0.27714550331E+04  0.46999998093E+01 0.  1.
</event>
<event>
 5   0  0.5888700E-08  0.4026349E+04  0.7818609E-02  0.7999252E-01
       -2   -1    0    0    0  501  0.00000000000E+00  0.00000000000E+00  0.17302361345E+04  0.17302361345E+04  0.25500000920E-02 0.  1.
        2   -1    0    0  501    0  0.00000000000E+00  0.00000000000E+00 -0.23423801638E+04  0.23423801638E+04  0.25500000920E-02 0. -1.
    10030    2    1    2    0    0  0.00000000000E+00  0.00000000000E+00 -0.61214402930E+03  0.40726162982E+04  0.40263486188E+04 0.  0.
        5    1    3    3  502    0  0.89667700084E+03 -0.16884994090E+02 -0.21291524293E+04  0.23103304751E+04  0.46999998093E+01 0. -1.
       -5    1    3    3    0  502 -0.89667700084E+03  0.16884994090E+02  0.15170084000E+04  0.17622858232E+04  0.46999998093E+01 0.  1.
</event>
<event>
 5   0  0.6161563E-08  0.4032747E+04  0.7818609E-02  0.7997973E-01
        2   -1    0    0  501    0  0.00000000000E+00  0.00000000000E+00  0.22672527680E+04  0.22672527680E+04  0.25500000920E-02 0. -1.
       -2   -1    0    0    0  501  0.00000000000E+00  0.00000000000E+00 -0.17932546747E+04  0.17932546747E+04  0.25500000920E-02 0.  1.
    10030    2    1    2    0    0  0.00000000000E+00  0.00000000000E+00  0.47399809335E+03  0.40605074427E+04  0.40327467687E+04 0.  0.
        1    1    3    3  502    0 -0.56497026333E+03  0.18527337652E+04  0.80116658836E+03  0.20961110909E+04  0.50400001928E-02 0.  1.
       -1    1    3    3    0  502  0.56497026333E+03 -0.18527337652E+04 -0.32716849500E+03  0.19643963519E+04  0.50400001928E-02 0. -1.
</event>
<event>
 5   0  0.1879500E-08  0.3953932E+04  0.7818609E-02  0.8013905E-01
        1   -1    0    0  501    0  0.00000000000E+00  0.00000000000E+00  0.13742731722E+04  0.13742731722E+04  0.50400001928E-02 0. -1.
       -1   -1    0    0    0  501  0.00000000000E+00  0.00000000000E+00 -0.28439722085E+04  0.28439722085E+04  0.50400001928E-02 0.  1.
    10030    2    1    2    0    0  0.00000000000E+00  0.00000000000E+00 -0.14696990364E+04  0.42182453807E+04  0.39539320725E+04 0.  0.
        2    1    3    3  502    0 -0.94785210965E+03 -0.16273164691E+04 -0.13765675410E+04  0.23327067341E+04  0.25500000920E-02 0.  1.
       -2    1    3    3    0  502  0.94785210965E+03  0.16273164691E+04 -0.93131495342E+02  0.18855386466E+04  0.25500000920E-02 0. -1.
</event>
<event>
 5   0  0.5888700E-08  0.4021237E+04  0.7818609E-02  0.8000276E-01
       -2   -1    0    0    0  501  0.00000000000E+00  0.00000000000E+00  0.18602672313E+04  0.18602672313E+04  0.25500000920E-02 0.  1.
        2   -1    0    0  501    0  0.00000000000E+00  0.00000000000E+00 -0.21731212661E+04  0.21731212661E+04  0.25500000920E-02 0. -1.
    10030    2    1    2    0    0  0.00000000000E+00  0.00000000000E+00 -0.31285403477E+03  0.40333884974E+04  0.40212367655E+04 0.  0.
        5    1    3    3  502    0 -0.42429834095E+03  0.44493659894E+02  0.18143400968E+04  0.18638296180E+04  0.46999998093E+01 0.  1.
       -5    1    3    3    0  502  0.42429834095E+03 -0.44493659894E+02 -0.21271941316E+04  0.21695588794E+04  0.46999998093E+01 0. -1.
</event>
<event>
 5   0  0.6161563E-08  0.4033768E+04  0.7818609E-02  0.7997769E-01
        2   -1    0    0  501    0  0.00000000000E+00  0.00000000000E+00  0.16322493559E+04  0.16322493559E+04  0.25500000920E-02 0.  1.
       -2   -1    0    0    0  501  0.00000000000E+00  0.00000000000E+00 -0.24921572282E+04  0.24921572282E+04  0.25500000920E-02 0. -1.
    10030    2    1    2    0    0  0.00000000000E+00  0.00000000000E+00 -0.85990787229E+03  0.41244065841E+04  0.40337684765E+04 0.  0.
        1    1    3    3  502    0 -0.19634369249E+04 -0.20747194188E+03 -0.85114805249E+03  0.21500191097E+04  0.50400001928E-02 0. -1.
       -1    1    3    3    0  502  0.19634369249E+04  0.20747194188E+03 -0.87598197998E+01  0.19743874744E+04  0.50400001928E-02 0.  1.
</event>
<event>
 5   0  0.6161563E-08  0.4008407E+04  0.7818609E-02  0.8002853E-01
        2   -1    0    0  501    0  0.00000000000E+00  0.00000000000E+00  0.22821517028E+04  0.22821517028E+04  0.25500000920E-02 0. -1.
       -2   -1    0    0    0  501  0.00000000000E+00  0.00000000000E+00 -0.17601071175E+04  0.17601071176E+04  0.25500000920E-02 0.  1.
    10030    2    1    2    0    0  0.00000000000E+00  0.00000000000E+00  0.52204458524E+03  0.40422588203E+04  0.40084068932E+04 0.  0.
        1    1    3    3  502    0 -0.54373315576E+03 -0.38009446271E+02 -0.16839287209E+04  0.17699453098E+04  0.50400001928E-02 0.  1.
       -1    1    3    3    0  502  0.54373315576E+03  0.38009446271E+02  0.22059733061E+04  0.22723135105E+04  0.50400001928E-02 0. -1.
</event>
<event>
 5   0  0.5945387E-08  0.3992014E+04  0.7818609E-02  0.8006160E-01
       -2   -1    0    0    0  501  0.00000000000E+00  0.00000000000E+00  0.15391457669E+04  0.15391457669E+04  0.25500000920E-02 0. -1.
        2   -1    0    0  501    0  0.00000000000E+00  0.00000000000E+00 -0.25884768359E+04  0.25884768359E+04  0.25500000920E-02 0.  1.
    10030    2    1    2    0    0  0.00000000000E+00  0.00000000000E+00 -0.10493310690E+04  0.41276226027E+04  0.39920136095E+04 0.  0.
        3    1    3    3  502    0 -0.48968602094E+03  0.17743721749E+04 -0.13228034628E+04  0.22667152502E+04  0.10100000352E+00 0.  1.
       -3    1    3    3    0  502  0.48968602094E+03 -0.17743721749E+04  0.27347239381E+03  0.18609073525E+04  0.10100000352E+00 0. -1.
</event>
<event>
 5   0  0.1879500E-08  0.4004465E+04  0.7818609E-02  0.8003646E-01
       -1   -1    0    0    0  501  0.00000000000E+00  0.00000000000E+00  0.16259523435E+04  0.16259523435E+04  0.50400001928E-02 0. -1.
        1   -1    0    0  501    0  0.00000000000E+00  0.00000000000E+00 -0.24655920735E+04  0.24655920735E+04  0.50400001928E-02 0.  1.
    10030    2    1    2    0    0  0.00000000000E+00  0.00000000000E+00 -0.83963973003E+03  0.40915444170E+04  0.40044651129E+04 0.  0.
        4    1    3    3  502    0 -0.78888464993E+03 -0.10850655922E+04 -0.19384882537E+04  0.23574233079E+04  0.12699999809E+01 0.  1.
       -4    1    3    3    0  502  0.78888464993E+03  0.10850655922E+04  0.10988485236E+04  0.17341211091E+04  0.12699999809E+01 0. -1.
</event>
<event>
 5   0  0.1879500E-08  0.3992258E+04  0.7818609E-02  0.8006110E-01
       -1   -1    0    0    0  501  0.00000000000E+00  0.00000000000E+00  0.25666250371E+04  0.25666250371E+04  0.50400001928E-02 0. -1.
        1   -1    0    0  501    0  0.00000000000E+00  0.00000000000E+00 -0.15524397230E+04  0.15524397230E+04  0.50400001928E-02 0.  1.
    10030    2    1    2    0    0  0.00000000000E+00  0.00000000000E+00  0.10141853141E+04  0.41190647601E+04  0.39922578382E+04 0.  0.
        4    1    3    3  502    0 -0.14052443916E+04 -0.52587509911E+03 -0.85126294191E+03  0.17250816297E+04  0.12699999809E+01 0.  1.
       -4    1    3    3    0  502  0.14052443916E+04  0.52587509911E+03  0.18654482560E+04  0.23939831304E+04  0.12699999809E+01 0. -1.
</event>
<event>
 5   0  0.1879500E-08  0.3949817E+04  0.7818609E-02  0.8014747E-01
        1   -1    0    0  501    0  0.00000000000E+00  0.00000000000E+00  0.16981134915E+04  0.16981134915E+04  0.50400001928E-02 0.  1.
       -1   -1    0    0    0  501  0.00000000000E+00  0.00000000000E+00 -0.22968218673E+04  0.22968218673E+04  0.50400001928E-02 0. -1.
    10030    2    1    2    0    0  0.00000000000E+00  0.00000000000E+00 -0.59870837582E+03  0.39949353588E+04  0.39498173124E+04 0.  0.
        3    1    3    3  502    0 -0.18152198077E+04  0.61537411643E+03  0.18206175769E+03  0.19253193884E+04  0.10100000352E+00 0.  1.
       -3    1    3    3    0  502  0.18152198077E+04 -0.61537411643E+03 -0.78077013352E+03  0.20696159704E+04  0.10100000352E+00 0. -1.
</event>
<event>
 5   0  0.5888700E-08  0.4004904E+04  0.7818609E-02  0.8003558E-01
        2   -1    0    0  501    0  0.00000000000E+00  0.00000000000E+00  0.25237249424E+04  0.25237249424E+04  0.25500000920E-02 0.  1.
       -2   -1    0    0    0  501  0.00000000000E+00  0.00000000000E+00 -0.15888477241E+04  0.15888477241E+04  0.25500000920E-02 0. -1.
    10030    2    1    2    0    0  0.00000000000E+00  0.00000000000E+00  0.93487721829E+03  0.41125726664E+04  0.40049043089E+04 0.  0.
        5    1    3    3  502    0  0.62294012264E+03 -0.36165012399E+03 -0.14511996011E+04  0.16201381363E+04  0.46999998093E+01 0. -1.
       -5    1    3    3    0  502 -0.62294012264E+03  0.36165012399E+03  0.23860768194E+04  0.24924345301E+04  0.46999998093E+01 0.  1.
</event>
<event>
 5   0  0.1879500E-08  0.3960896E+04  0.7818609E-02  0.8012482E-01
       -1   -1    0    0    0  501  0.00000000000E+00  0.00000000000E+00  0.24204790982E+04  0.24204790982E+04  0.50400001928E-02 0.  1.
        1   -1    0    0  501    0  0.00000000000E+00  0.00000000000E+00 -0.16204126714E+04  0.16204126714E+04  0.50400001928E-02 0. -1.
    10030    2    1    2    0    0  0.00000000000E+00  0.00000000000E+00  0.80006642678E+03  0.40408917696E+04  0.39608963640E+04 0.  0.
        3    1    3    3  502    0 -0.15299682852E+04 -0.11991312592E+04  0.78643888530E+03  0.20969513254E+04  0.10100000352E+00 0.  1.
       -3    1    3    3    0  502  0.15299682852E+04  0.11991312592E+04  0.13627541480E+02  0.19439404442E+04  0.10100000352E+00 0. -1.
</event>
<event>
 5   0  0.5888700E-08  0.4001450E+04  0.7818609E-02  0.8004254E-01
        2   -1    0    0  501    0  0.00000000000E+00  0.00000000000E+00  0.15218184164E+04  0.15218184164E+04  0.25500000920E-02 0.  1.
       -2   -1    0    0    0  501  0.00000000000E+00  0.00000000000E+00 -0.26303402555E+04  0.26303402556E+04  0.25500000920E-02 0. -1.
    10030    2    1    2    0    0  0.00000000000E+00  0.00000000000E+00 -0.11085218392E+04  0.41521586719E+04  0.40014498584E+04 0.  0.
        5    1    3    3  502    0 -0.62837323385E+03  0.10004216267E+04 -0.22297523856E+04  0.25233933787E+04  0.46999998093E+01 0. -1.
       -5    1    3    3    0  502  0.62837323385E+03 -0.10004216267E+04  0.11212305465E+04  0.16287652933E+04  0.46999998093E+01 0.  1.
</event>
<event>
 5   0  0.6161563E-08  0.3998499E+04  0.7818609E-02  0.8004849E-01
        2   -1    0    0  501    0  0.00000000000E+00  0.00000000000E+00  0.17663784028E+04  0.17663784028E+04  0.25500000920E-02 0.  1.
       -2   -1    0    0    0  501  0.00000000000E+00  0.00000000000E+00 -0.22628210374E+04  0.22628210374E+04  0.25500000920E-02 0. -1.
    10030    2    1    2    0    0  0.00000000000E+00  0.00000000000E+00 -0.49644263461E+03  0.40291994402E+04  0.39984988233E+04 0.  0.
        1    1    3    3  502    0  0.18657895020E+04 -0.64723766649E+03 -0.56191708546E+03  0.20532505628E+04  0.50400001928E-02 0.  1.
       -1    1    3    3    0  502 -0.18657895020E+04  0.64723766649E+03  0.65474450856E+02  0.19759488775E+04  0.50400001928E-02 0. -1.
</event>
<event>
 5   0  0.5846812E-08  0.3984988E+04  0.7818609E-02  0.8007582E-01
       -2   -1    0    0    0  501  0.00000000000E+00  0.00000000000E+00  0.25643265417E+04  0.25643265417E+04  0.25500000920E-02 0.  1.
        2   -1    0    0  501    0  0.00000000000E+00  0.00000000000E+00 -0.15481774361E+04  0.15481774361E+04  0.25500000920E-02 0. -1.
    10030    2    1    2    0    0  0.00000000000E+00  0.00000000000E+00  0.10161491056E+04  0.41125039778E+04  0.39849880756E+04 0.  0.
        4    1    3    3  502    0 -0.51858892258E+03 -0.77634495073E+03 -0.13084739167E+04  0.16074052248E+04  0.12699999809E+01 0. -1.
       -4    1    3    3    0  502  0.51858892258E+03  0.77634495073E+03  0.23246230223E+04  0.25050987529E+04  0.12699999809E+01 0.  1.
</event>
<event>
 5   0  0.5888700E-08  0.4001947E+04  0.7818609E-02  0.8004154E-01
       -2   -1    0    0    0  501  0.00000000000E+00  0.00000000000E+00  0.22803523984E+04  0.22803523984E+04  0.25500000920E-02 0. -1.
        2   -1    0    0  501    0  0.00000000000E+00  0.00000000000E+00 -0.17558227236E+04  0.17558227236E+04  0.25500000920E-02 0.  1.
    10030    2    1    2    0    0  0.00000000000E+00  0.00000000000E+00  0.52452967481E+03  0.40361751221E+04  0.40019468058E+04 0.  0.
        5    1    3    3  502    0  0.17691756454E+04  0.10686364394E+03 -0.67437091276E+03  0.18963650811E+04  0.46999998093E+01 0.  1.
       -5    1    3    3    0  502 -0.17691756454E+04 -0.10686364394E+03  0.11989005876E+04  0.21398100410E+04  0.46999998093E+01 0. -1.
</event>
<event>
 5   0  0.1879500E-08  0.3999715E+04  0.7818609E-02  0.8004604E-01
        1   -1    0    0  501    0  0.00000000000E+00  0.00000000000E+00  0.20484377596E+04  0.20484377596E+04  0.50400001928E-02 0.  1.
       -1   -1    0    0    0  501  0.00000000000E+00  0.00000000000E+00 -0.19524295951E+04  0.19524295951E+04  0.50400001928E-02 0. -1.
    10030    2    1    2    0    0  0.00000000000E+00  0.00000000000E+00  0.96008164441E+02  0.40008673547E+04  0.39997152426E+04 0.  0.
        4    1    3    3  502    0 -0.16495311022E+04  0.19647761971E+03  0.11618204810E+04  0.20271617487E+04  0.12699999809E+01 0.  1.
       -4    1    3    3    0  502  0.16495311022E+04 -0.19647761971E+03 -0.10658123165E+04  0.19737056060E+04  0.12699999809E+01 0. -1.
</event>
<event>
 5   0  0.6161563E-08  0.3976843E+04  0.7818609E-02  0.8009234E-01
       -2   -1    0    0    0  501  0.00000000000E+00  0.00000000000E+00  0.17226813858E+04  0.17226813859E+04  0.25500000920E-02 0. -1.
        2   -1    0    0  501    0  0.00000000000E+00  0.00000000000E+00 -0.22951548666E+04  0.22951548666E+04  0.25500000920E-02 0.  1.
    10030    2    1    2    0    0  0.00000000000E+00  0.00000000000E+00 -0.57247348075E+03  0.40178362525E+04  0.39768432538E+04 0.  0.
        1    1    3    3  502    0 -0.17715474369E+04  0.68876566173E+02 -0.11959045887E+04  0.21385303570E+04  0.50400001928E-02 0.  1.
       -1    1    3    3    0  502  0.17715474369E+04 -0.68876566173E+02  0.62343110796E+03  0.18793058955E+04  0.50400001928E-02 0. -1.
</event>
<event>
 5   0  0.1879500E-08  0.4001069E+04  0.7818609E-02  0.8004331E-01
       -1   -1    0    0    0  501  0.00000000000E+00  0.00000000000E+00  0.16152168552E+04  0.16152168552E+04  0.50400001928E-02 0.  1.
        1   -1    0    0  501    0  0.00000000000E+00  0.00000000000E+00 -0.24777714897E+04  0.24777714897E+04  0.50400001928E-02 0. -1.
    10030    2    1    2    0    0  0.00000000000E+00  0.00000000000E+00 -0.86255463457E+03  0.40929883449E+04  0.40010689939E+04 0.  0.
        1    1    3    3  502    0 -0.17031526504E+04  0.99838644911E+03 -0.76218016953E+03  0.21162284997E+04  0.50400001928E-02 0.  1.
       -1    1    3    3    0  502  0.17031526504E+04 -0.99838644911E+03 -0.10037446504E+03  0.19767598452E+04  0.50400001928E-02 0. -1.
</event>
<event>
 5   0  0.1879500E-08  0.3981804E+04  0.7818609E-02  0.8008227E-01
        1   -1    0    0  501    0  0.00000000000E+00  0.00000000000E+00  0.19070078474E+04  0.19070078475E+04  0.50400001928E-02 0.  1.
       -1   -1    0    0    0  501  0.00000000000E+00  0.00000000000E+00 -0.20784868062E+04  0.20784868062E+04  0.50400001928E-02 0. -1.
    10030    2    1    2    0    0  0.00000000000E+00  0.00000000000E+00 -0.17147895876E+03  0.39854946537E+04  0.39818039381E+04 0.  0.
        2    1    3    3  502    0 -0.12805517722E+04  0.51080978482E+03  0.13518895495E+04  0.19308922372E+04  0.25500000920E-02 0.  1.
       -2    1    3    3    0  502  0.12805517722E+04 -0.51080978482E+03 -0.15233685083E+04  0.20546024164E+04  0.25500000920E-02 0. -1.
</event>
<event>
 5   0  0.1879500E-08  0.4051429E+04  0.7818609E-02  0.7994251E-01
        1   -1    0    0  501    0  0.00000000000E+00  0.00000000000E+00  0.24072034995E+04  0.24072034995E+04  0.50400001928E-02 0. -1.
       -1   -1    0    0    0  501  0.00000000000E+00  0.00000000000E+00 -0.17046832336E+04  0.17046832336E+04  0.50400001928E-02 0.  1.
    10030    2    1    2    0    0  0.00000000000E+00  0.00000000000E+00  0.70252026593E+03  0.41118867332E+04  0.40514291037E+04 0.  0.
        2    1    3    3  502    0  0.11744002835E+04 -0.14435475176E+04  0.11634987733E+04  0.21947152109E+04  0.25500000920E-02 0. -1.
       -2    1    3    3    0  502 -0.11744002835E+04  0.14435475176E+04 -0.46097850740E+03  0.19171715223E+04  0.25500000920E-02 0.  1.
</event>
<event>
 5   0  0.1879500E-08  0.3951209E+04  0.7818609E-02  0.8014462E-01
        1   -1    0    0  501    0  0.00000000000E+00  0.00000000000E+00  0.24683706122E+04  0.24683706122E+04  0.50400001928E-02 0. -1.
       -1   -1    0    0    0  501  0.00000000000E+00  0.00000000000E+00 -0.15812100967E+04  0.15812100968E+04  0.50400001928E-02 0.  1.
    10030    2    1    2    0    0  0.00000000000E+00  0.00000000000E+00  0.88716051544E+03  0.40495807089E+04  0.39512086933E+04 0.  0.
        1    1    3    3  502    0  0.70869602083E+03  0.15850056436E+04  0.14096613784E+04  0.22364342472E+04  0.50400001928E-02 0. -1.
       -1    1    3    3    0  502 -0.70869602083E+03 -0.15850056436E+04 -0.52250086295E+03  0.18131464618E+04  0.50400001928E-02 0.  1.
</event>
<event>
 5   0  0.1879500E-08  0.4000500E+04  0.7818609E-02  0.8004446E-01
        1   -1    0    0  501    0  0.00000000000E+00  0.00000000000E+00  0.18366666089E+04  0.18366666089E+04  0.50400001928E-02 0. -1.
       -1   -1    0    0    0  501  0.00000000000E+00  0.00000000000E+00 -0.21784032404E+04  0.21784032404E+04  0.50400001928E-02 0.  1.
    10030    2    1    2    0    0  0.00000000000E+00  0.00000000000E+00 -0.34173663153E+03  0.40150698493E+04  0.40005002149E+04 0.  0.
        4    1    3    3  502    0 -0.12713806962E+04 -0.10489466424E+04 -0.13082656556E+04  0.21043427886E+04  0.12699999809E+01 0.  1.
       -4    1    3    3    0  502  0.12713806962E+04  0.10489466424E+04  0.96652902408E+03  0.19107270607E+04  0.12699999809E+01 0. -1.
</event>
<event>
 5   0  0.5846812E-08  0.4010466E+04  0.7818609E-02  0.8002438E-01
       -2   -1    0    0    0  501  0.00000000000E+00  0.00000000000E+00  0.11649314375E+04  0.11649314375E+04  0.25500000920E-02 0. -1.
        2   -1    0    0  501    0  0.00000000000E+00  0.00000000000E+00 -0.34516709374E+04  0.34516709374E+04  0.25500000920E-02 0.  1.
    10030    2    1    2    0    0  0.00000000000E+00  0.00000000000E+00 -0.22867394999E+04  0.46166023749E+04  0.40104663005E+04 0.  0.
        4    1    3    3  502    0  0.18442594992E+04  0.46113016194E+03 -0.40896117288E+03  0.19445269297E+04  0.12699999809E+01 0. -1.
       -4    1    3    3    0  502 -0.18442594992E+04 -0.46113016194E+03 -0.18777783270E+04  0.26720754452E+04  0.12699999809E+01 0.  1.
</event>
<event>
 5   0  0.5951623E-08  0.4016862E+04  0.7818609E-02  0.8001154E-01
        2   -1    0    0  501    0  0.00000000000E+00  0.00000000000E+00  0.28819343967E+04  0.28819343967E+04  0.25500000920E-02 0. -1.
       -2   -1    0    0    0  501  0.00000000000E+00  0.00000000000E+00 -0.13996832653E+04  0.13996832653E+04  0.25500000920E-02 0.  1.
    10030    2    1    2    0    0  0.00000000000E+00  0.00000000000E+00  0.14822511314E+04  0.42816176620E+04  0.40168621320E+04 0.  0.
        2    1    3    3  502    0  0.33498121797E+03  0.88283518377E+03 -0.11483306420E+04  0.14866989075E+04  0.25500000920E-02 0.  1.
       -2    1    3    3    0  502 -0.33498121797E+03 -0.88283518377E+03  0.26305817734E+04  0.27949187546E+04  0.25500000920E-02 0. -1.
</event>
<event>
 5   0  0.1879500E-08  0.3989946E+04  0.7818609E-02  0.8006578E-01
       -1   -1    0    0    0  501  0.00000000000E+00  0.00000000000E+00  0.25896019964E+04  0.25896019964E+04  0.50400001928E-02 0. -1.
        1   -1    0    0  501    0  0.00000000000E+00  0.00000000000E+00 -0.15368835985E+04  0.15368835986E+04  0.50400001928E-02 0.  1.
    10030    2    1    2    0    0  0.00000000000E+00  0.00000000000E+00  0.10527183978E+04  0.41264855949E+04  0.39899457816E+04 0.  0.
        5    1    3    3  502    0 -0.11478530166E+04  0.75104203752E+02 -0.11593535832E+04  0.16331962558E+04  0.46999998093E+01 0.  1.
       -5    1    3    3    0  502  0.11478530166E+04 -0.75104203752E+02  0.22120719810E+04  0.24932893391E+04  0.46999998093E+01 0. -1.
</event>
<event>
 5   0  0.5951623E-08  0.4004733E+04  0.7818609E-02  0.8003593E-01
       -2   -1    0    0    0  501  0.00000000000E+00  0.00000000000E+00  0.17399767901E+04  0.17399767901E+04  0.25500000920E-02 0.  1.
        2   -1    0    0  501    0  0.00000000000E+00  0.00000000000E+00 -0.23043242271E+04  0.23043242271E+04  0.25500000920E-02 0. -1.
    10030    2    1    2    0    0  0.00000000000E+00  0.00000000000E+00 -0.56434743704E+03  0.40443010172E+04  0.40047325364E+04 0.  0.
        2    1    3    3  502    0  0.19726351560E+04  0.32070674440E+03 -0.15714253740E+03  0.20047034822E+04  0.25500000920E-02 0. -1.
       -2    1    3    3    0  502 -0.19726351560E+04 -0.32070674440E+03 -0.40720489964E+03  0.20395975350E+04  0.25500000920E-02 0.  1.
</event>
<event>
 5   0  0.1879500E-08  0.3977420E+04  0.7818609E-02  0.8009117E-01
       -3   -1    0    0    0  501  0.00000000000E+00  0.00000000000E+00  0.20734799307E+04  0.20734799331E+04  0.10100000352E+00 0. -1.
        3   -1    0    0  501    0  0.00000000000E+00  0.00000000000E+00 -0.19074053084E+04  0.19074053111E+04  0.10100000352E+00 0.  1.
    10030    2    1    2    0    0  0.00000000000E+00  0.00000000000E+00  0.16607462224E+03  0.39808852442E+04  0.39774195841E+04 0.  0.
        3    1    3    3  502    0 -0.17253208423E+03 -0.22606506388E+03 -0.18869495144E+04  0.19082586862E+04  0.10100000352E+00 0.  1.
       -3    1    3    3    0  502  0.17253208423E+03  0.22606506388E+03  0.20530241367E+04  0.20726265581E+04  0.10100000352E+00 0. -1.
</event>
<event>
 5   0  0.6161563E-08  0.3917516E+04  0.7818609E-02  0.8021396E-01
        2   -1    0    0  501    0  0.00000000000E+00  0.00000000000E+00  0.14094157435E+04  0.14094157435E+04  0.25500000920E-02 0. -1.
       -2   -1    0    0    0  501  0.00000000000E+00  0.00000000000E+00 -0.27222146855E+04  0.27222146855E+04  0.25500000920E-02 0.  1.
    10030    2    1    2    0    0  0.00000000000E+00  0.00000000000E+00 -0.13127989420E+04  0.41316304290E+04  0.39175156591E+04 0.  0.
        1    1    3    3  502    0 -0.12077772810E+04  0.12623666915E+04 -0.15904914727E+04  0.23626169282E+04  0.50400001928E-02 0. -1.
       -1    1    3    3    0  502  0.12077772810E+04 -0.12623666915E+04  0.27769253077E+03  0.17690135008E+04  0.50400001928E-02 0.  1.
</event>
<event>
 5   0  0.5846812E-08  0.3995106E+04  0.7818609E-02  0.8005535E-01
       -2   -1    0    0    0  501  0.00000000000E+00  0.00000000000E+00  0.17706412619E+04  0.17706412619E+04  0.25500000920E-02 0. -1.
        2   -1    0    0  501    0  0.00000000000E+00  0.00000000000E+00 -0.22535434694E+04  0.22535434694E+04  0.25500000920E-02 0.  1.
    10030    2    1    2    0    0  0.00000000000E+00  0.00000000000E+00 -0.48290220751E+03  0.40241847313E+04  0.39951055317E+04 0.  0.
        4    1    3    3  502    0  0.21572490888E+02 -0.18644201880E+04  0.48048560028E+03  0.19254599540E+04  0.12699999809E+01 0. -1.
       -4    1    3    3    0  502 -0.21572490888E+02  0.18644201880E+04 -0.96338780779E+03  0.20987247773E+04  0.12699999809E+01 0.  1.
</event>
<event>
 5   0  0.1879500E-08  0.4001495E+04  0.7818609E-02  0.8004245E-01
        1   -1    0    0  501    0  0.00000000000E+00  0.00000000000E+00  0.14544742853E+04  0.14544742853E+04  0.50400001928E-02 0. -1.
       -1   -1    0    0    0  501  0.00000000000E+00  0.00000000000E+00 -0.27521903010E+04  0.27521903010E+04  0.50400001928E-02 0.  1.
    10030    2    1    2    0    0  0.00000000000E+00  0.00000000000E+00 -0.12977160157E+04  0.42066645863E+04  0.40014947313E+04 0.  0.
        5    1    3    3  502    0  0.33892396346E+03 -0.13131310875E+04  0.89754509174E+03  0.16262816446E+04  0.46999998093E+01 0. -1.
       -5    1    3    3    0  502 -0.33892396346E+03  0.13131310875E+04 -0.21952611074E+04  0.25803829417E+04  0.46999998093E+01 0.  1.
</event>
<event>
 5   0  0.5846812E-08  0.3942906E+04  0.7818609E-02  0.8016164E-01
        2   -1    0    0  501    0  0.00000000000E+00  0.00000000000E+00  0.13168298129E+04  0.13168298129E+04  0.25500000920E-02 0.  1.
       -2   -1    0    0    0  501  0.00000000000E+00  0.00000000000E+00 -0.29515022179E+04  0.29515022179E+04  0.25500000920E-02 0. -1.
    10030    2    1    2    0    0  0.00000000000E+00  0.00000000000E+00 -0.16346724050E+04  0.42683320309E+04  0.39429055852E+04 0.  0.
        4    1    3    3  502    0  0.88270966200E+03  0.75550475567E+03 -0.25414781157E+04  0.27944724741E+04  0.12699999809E+01 0. -1.
       -4    1    3    3    0  502 -0.88270966200E+03 -0.75550475567E+03  0.90680571067E+03  0.14738595568E+04  0.12699999809E+01 0.  1.
</event>
<event>
 5   0  0.5888700E-08  0.4032665E+04  0.7818609E-02  0.7997989E-01
        2   -1    0    0  501    0  0.00000000000E+00  0.00000000000E+00  0.12547095739E+04  0.12547095739E+04  0.25500000920E-02 0.  1.
       -2   -1    0    0    0  501  0.00000000000E+00  0.00000000000E+00 -0.32402693186E+04  0.32402693186E+04  0.25500000920E-02 0. -1.
    10030    2    1    2    0    0  0.00000000000E+00  0.00000000000E+00 -0.19855597447E+04  0.44949788925E+04  0.40326650920E+04 0.  0.
        5    1    3    3  502    0 -0.60611809806E+03 -0.19014639923E+04 -0.67237037204E+03  0.21059554767E+04  0.46999998093E+01 0.  1.
       -5    1    3    3    0  502  0.60611809806E+03  0.19014639923E+04 -0.13131893726E+04  0.23890234158E+04  0.46999998093E+01 0. -1.
</event>
<event>
 5   0  0.6161563E-08  0.3996628E+04  0.7818609E-02  0.8005227E-01
        2   -1    0    0  501    0  0.00000000000E+00  0.00000000000E+00  0.27325153725E+04  0.27325153725E+04  0.25500000920E-02 0. -1.
       -2   -1    0    0    0  501  0.00000000000E+00  0.00000000000E+00 -0.14613855326E+04  0.14613855326E+04  0.25500000920E-02 0.  1.
    10030    2    1    2    0    0  0.00000000000E+00  0.00000000000E+00  0.12711298400E+04  0.41939009051E+04  0.39966277950E+04 0.  0.
        1    1    3    3  502    0  0.12475649862E+04 -0.13395404075E+04 -0.20554238636E+03  0.18420191559E+04  0.50400001928E-02 0.  1.
       -1    1    3    3    0  502 -0.12475649862E+04  0.13395404075E+04  0.14766722263E+04  0.23518817492E+04  0.50400001928E-02 0. -1.
</event>
<event>
 5   0  0.1879500E-08  0.3994156E+04  0.7818609E-02  0.8005726E-01
       -1   -1    0    0    0  501  0.00000000000E+00  0.00000000000E+00  0.13476157332E+04  0.13476157332E+04  0.50400001928E-02 0. -1.
        1   -1    0    0  501    0  0.00000000000E+00  0.00000000000E+00 -0.29595391583E+04  0.29595391583E+04  0.50400001928E-02 0.  1.
    10030    2    1    2    0    0  0.00000000000E+00  0.00000000000E+00 -0.16119234251E+04  0.43071548915E+04  0.39941564981E+04 0.  0.
        4    1    3    3  502    0 -0.88008551663E+03 -0.17310996947E+04 -0.30355137858E+03  0.19655537952E+04  0.12699999809E+01 0. -1.
       -4    1    3    3    0  502  0.88008551663E+03  0.17310996947E+04 -0.13083720465E+04  0.23416010963E+04  0.12699999809E+01 0.  1.
</event>
<event>
 5   0  0.6161563E-08  0.3993383E+04  0.7818609E-02  0.8005883E-01
       -2   -1    0    0    0  501  0.00000000000E+00  0.00000000000E+00  0.27892169165E+04  0.27892169165E+04  0.25500000920E-02 0. -1.
        2   -1    0    0  501    0  0.00000000000E+00  0.00000000000E+00 -0.14293533156E+04  0.14293533156E+04  0.25500000920E-02 0.  1.
    10030    2    1    2    0    0  0.00000000000E+00  0.00000000000E+00  0.13598636009E+04  0.42185702321E+04  0.39933827503E+04 0.  0.
        1    1    3    3  502    0  0.13709306660E+04  0.28958400542E+03  0.21826320991E+04  0.25936832241E+04  0.50400001928E-02 0. -1.
       -1    1    3    3    0  502 -0.13709306660E+04 -0.28958400542E+03 -0.82276849817E+03  0.16248870080E+04  0.50400001928E-02 0.  1.
</event>
<event>
 5   0  0.1879500E-08  0.3936537E+04  0.7818609E-02  0.8017473E-01
       -1   -1    0    0    0  501  0.00000000000E+00  0.00000000000E+00  0.19768819189E+04  0.19768819189E+04  0.50400001928E-02 0. -1.
        1   -1    0    0  501    0  0.00000000000E+00  0.00000000000E+00 -0.19596924868E+04  0.19596924868E+04  0.50400001928E-02 0.  1.
    10030    2    1    2    0    0  0.00000000000E+00  0.00000000000E+00  0.17189432101E+02  0.39365744057E+04  0.39365368759E+04 0.  0.
        2    1    3    3  502    0 -0.41827198246E+03 -0.19126729231E+04 -0.19342572824E+03  0.19674050611E+04  0.25500000920E-02 0. -1.
       -2    1    3    3    0  502  0.41827198246E+03  0.19126729231E+04  0.21061516034E+03  0.19691693446E+04  0.25500000920E-02 0.  1.
</event>
<event>
 5   0  0.5945387E-08  0.3996464E+04  0.7818609E-02  0.8005260E-01
        2   -1    0    0  501    0  0.00000000000E+00  0.00000000000E+00  0.20980414656E+04  0.20980414656E+04  0.25500000920E-02 0.  1.
       -2   -1    0    0    0  501  0.00000000000E+00  0.00000000000E+00 -0.19031709051E+04  0.19031709051E+04  0.25500000920E-02 0. -1.
    10030    2    1    2    0    0  0.00000000000E+00  0.00000000000E+00  0.19487056053E+03  0.40012123707E+04  0.39964641747E+04 0.  0.
        3    1    3    3  502    0  0.15635412398E+04 -0.10951076795E+04  0.68890737162E+03  0.20294125788E+04  0.10100000352E+00 0.  1.
       -3    1    3    3    0  502 -0.15635412398E+04  0.10951076795E+04 -0.49403681108E+03  0.19717997919E+04  0.10100000352E+00 0. -1.
</event>
<event>
 5   0  0.1879500E-08  0.4000744E+04  0.7818609E-02  0.8004396E-01
        1   -1    0    0  501    0  0.00000000000E+00  0.00000000000E+00  0.17195909209E+04  0.17195909209E+04  0.50400001928E-02 0. -1.
       -1   -1    0    0    0  501  0.00000000000E+00  0.00000000000E+00 -0.23270004858E+04  0.23270004858E+04  0.50400001928E-02 0.  1.
    10030    2    1    2    0    0  0.00000000000E+00  0.00000000000E+00 -0.60740956488E+03  0.40465914067E+04  0.40007443849E+04 0.  0.
        4    1    3    3  502    0 -0.27176572993E+03 -0.55938164040E+03  0.16193251917E+04  0.17346412081E+04  0.12699999809E+01 0. -1.
       -4    1    3    3    0  502  0.27176572993E+03  0.55938164040E+03 -0.22267347566E+04  0.23119501986E+04  0.12699999809E+01 0.  1.
</event>
<event>
 5   0  0.1879500E-08  0.3989739E+04  0.7818609E-02  0.8006620E-01
       -1   -1    0    0    0  501  0.00000000000E+00  0.00000000000E+00  0.22038266977E+04  0.22038266977E+04  0.50400001928E-02 0.  1.
        1   -1    0    0  501    0  0.00000000000E+00  0.00000000000E+00 -0.18057245865E+04  0.18057245865E+04  0.50400001928E-02 0. -1.
    10030    2    1    2    0    0  0.00000000000E+00  0.00000000000E+00  0.39810211124E+03  0.40095512842E+04  0.39897388649E+04 0.  0.
        1    1    3    3  502    0 -0.84234224537E+03  0.15130335774E+04 -0.79616606008E+03  0.19059620825E+04  0.50400001928E-02 0. -1.
       -1    1    3    3    0  502  0.84234224537E+03 -0.15130335774E+04  0.11942681713E+04  0.21035892017E+04  0.50400001928E-02 0.  1.
</event>
<event>
 5   0  0.6161563E-08  0.3995378E+04  0.7818609E-02  0.8005480E-01
        2   -1    0    0  501    0  0.00000000000E+00  0.00000000000E+00  0.21305324089E+04  0.21305324089E+04  0.25500000920E-02 0.  1.
       -2   -1    0    0    0  501  0.00000000000E+00  0.00000000000E+00 -0.18731288226E+04  0.18731288226E+04  0.25500000920E-02 0. -1.
    10030    2    1    2    0    0  0.00000000000E+00  0.00000000000E+00  0.25740358630E+03  0.40036612315E+04  0.39953781612E+04 0.  0.
        1    1    3    3  502    0  0.28802215597E+03 -0.18674558884E+04 -0.52103537161E+03  0.19600576818E+04  0.50400001928E-02 0.  1.
       -1    1    3    3    0  502 -0.28802215597E+03  0.18674558884E+04  0.77843895792E+03  0.20436035498E+04  0.50400001928E-02 0. -1.
</event>
<event>
 5   0  0.5846812E-08  0.3979799E+04  0.7818609E-02  0.8008634E-01
       -2   -1    0    0    0  501  0.00000000000E+00  0.00000000000E+00  0.17115645496E+04  0.17115645496E+04  0.25500000920E-02 0.  1.
        2   -1    0    0  501    0  0.00000000000E+00  0.00000000000E+00 -0.23134971721E+04  0.23134971721E+04  0.25500000920E-02 0. -1.
    10030    2    1    2    0    0  0.00000000000E+00  0.00000000000E+00 -0.60193262252E+03  0.40250617218E+04  0.39797988620E+04 0.  0.
        4    1    3    3  502    0  0.13814977481E+04 -0.30824182373E+03 -0.17154970715E+04  0.22240685388E+04  0.12699999809E+01 0. -1.
       -4    1    3    3    0  502 -0.13814977481E+04  0.30824182373E+03  0.11135644490E+04  0.18009931829E+04  0.12699999809E+01 0.  1.
</event>
<event>
 5   0  0.1879500E-08  0.4005659E+04  0.7818609E-02  0.8003406E-01
       -3   -1    0    0    0  501  0.00000000000E+00  0.00000000000E+00  0.17519301771E+04  0.17519301800E+04  0.10100000352E+00 0. -1.
        3   -1    0    0  501    0  0.00000000000E+00  0.00000000000E+00 -0.22896610827E+04  0.22896610849E+04  0.10100000352E+00 0.  1.
    10030    2    1    2    0    0  0.00000000000E+00  0.00000000000E+00 -0.53773090563E+03  0.40415912649E+04  0.40056591749E+04 0.  0.
        5    1    3    3  502    0  0.70086197651E+03  0.87199215739E+03  0.14072788790E+04  0.17977857954E+04  0.46999998093E+01 0. -1.
       -5    1    3    3    0  502 -0.70086197651E+03 -0.87199215739E+03 -0.19450097846E+04  0.22438054695E+04  0.46999998093E+01 0.  1.
</event>
<event>
 5   0  0.6161563E-08  0.4026987E+04  0.7818609E-02  0.7999124E-01
       -2   -1    0    0    0  501  0.00000000000E+00  0.00000000000E+00  0.17791155272E+04  0.17791155272E+04  0.25500000920E-02 0. -1.
        2   -1    0    0  501    0  0.00000000000E+00  0.00000000000E+00 -0.22787484666E+04  0.22787484666E+04  0.25500000920E-02 0.  1.
    10030    2    1    2    0    0  0.00000000000E+00  0.00000000000E+00 -0.49963293943E+03  0.40578639938E+04  0.40269873501E+04 0.  0.
        1    1    3    3  502    0  0.11480997437E+04 -0.12330181018E+04 -0.13608538346E+04  0.21657307820E+04  0.50400001928E-02 0.  1.
       -1    1    3    3    0  502 -0.11480997437E+04  0.12330181018E+04  0.86122089515E+03  0.18921332118E+04  0.50400001928E-02 0. -1.
</event>
<event>
 5   0  0.5945387E-08  0.3802126E+04  0.7818609E-02  0.8045699E-01
       -2   -1    0    0    0  501  0.00000000000E+00  0.00000000000E+00  0.13868596179E+04  0.13868596179E+04  0.25500000920E-02 0. -1.
        2   -1    0    0  501    0  0.00000000000E+00  0.00000000000E+00 -0.26059163086E+04  0.26059163086E+04  0.25500000920E-02 0.  1.
    10030    2    1    2    0    0  0.00000000000E+00  0.00000000000E+00 -0.12190566907E+04  0.39927759265E+04  0.38021257717E+04 0.  0.
        3    1    3    3  502    0 -0.82059620014E+02 -0.82754313439E+03  0.11857183425E+04  0.14482711827E+04  0.10100000352E+00 0. -1.
       -3    1    3    3    0  502  0.82059620014E+02  0.82754313439E+03 -0.24047750332E+04  0.25445047438E+04  0.10100000352E+00 0.  1.
</event>
<event>
 5   0  0.1879500E-08  0.3900759E+04  0.7818609E-02  0.8024871E-01
        1   -1    0    0  501    0  0.00000000000E+00  0.00000000000E+00  0.19158280916E+04  0.19158280916E+04  0.50400001928E-02 0.  1.
       -1   -1    0    0    0  501  0.00000000000E+00  0.00000000000E+00 -0.19855537034E+04  0.19855537034E+04  0.50400001928E-02 0. -1.
    10030    2    1    2    0    0  0.00000000000E+00  0.00000000000E+00 -0.69725611791E+02  0.39013817950E+04  0.39007586761E+04 0.  0.
        1    1    3    3  502    0 -0.17057975619E+04  0.31760932579E+03  0.85598625167E+03  0.19347696166E+04  0.50400001928E-02 0.  1.
       -1    1    3    3    0  502  0.17057975619E+04 -0.31760932579E+03 -0.92571186346E+03  0.19666121784E+04  0.50400001928E-02 0. -1.
</event>
<event>
 5   0  0.1879500E-08  0.3965553E+04  0.7818609E-02  0.8011532E-01
        1   -1    0    0  501    0  0.00000000000E+00  0.00000000000E+00  0.25088459616E+04  0.25088459616E+04  0.50400001928E-02 0. -1.
       -1   -1    0    0    0  501  0.00000000000E+00  0.00000000000E+00 -0.15670165708E+04  0.15670165709E+04  0.50400001928E-02 0.  1.
    10030    2    1    2    0    0  0.00000000000E+00  0.00000000000E+00  0.94182939073E+03  0.40758625324E+04  0.39655532757E+04 0.  0.
        1    1    3    3  502    0 -0.11658606297E+04  0.81368241090E+03  0.18914204896E+04  0.23661744530E+04  0.50400001928E-02 0.  1.
       -1    1    3    3    0  502  0.11658606297E+04 -0.81368241090E+03 -0.94959109887E+03  0.17096880794E+04  0.50400001928E-02 0. -1.
</event>
<event>
 5   0  0.1879500E-08  0.3992834E+04  0.7818609E-02  0.8005994E-01
       -1   -1    0    0    0  501  0.00000000000E+00  0.00000000000E+00  0.18772487440E+04  0.18772487440E+04  0.50400001928E-02 0. -1.
        1   -1    0    0  501    0  0.00000000000E+00  0.00000000000E+00 -0.21231499706E+04  0.21231499706E+04  0.50400001928E-02 0.  1.
    10030    2    1    2    0    0  0.00000000000E+00  0.00000000000E+00 -0.24590122660E+03  0.40003987146E+04  0.39928338887E+04 0.  0.
        3    1    3    3  502    0 -0.18970686855E+04 -0.97083375821E+02 -0.73843186546E+03  0.20380324849E+04  0.10100000352E+00 0.  1.
       -3    1    3    3    0  502  0.18970686855E+04  0.97083375821E+02  0.49253063887E+03  0.19623662298E+04  0.10100000352E+00 0. -1.
</event>
<event>
 5   0  0.1879500E-08  0.3981837E+04  0.7818609E-02  0.8008221E-01
       -1   -1    0    0    0  501  0.00000000000E+00  0.00000000000E+00  0.18204468656E+04  0.18204468656E+04  0.50400001928E-02 0.  1.
        1   -1    0    0  501    0  0.00000000000E+00  0.00000000000E+00 -0.21773538949E+04  0.21773538949E+04  0.50400001928E-02 0. -1.
    10030    2    1    2    0    0  0.00000000000E+00  0.00000000000E+00 -0.35690702934E+03  0.39978007605E+04  0.39818373012E+04 0.  0.
        5    1    3    3  502    0 -0.10179150009E+04 -0.16929447570E+04  0.70577337535E+02  0.19766679412E+04  0.46999998093E+01 0. -1.
       -5    1    3    3    0  502  0.10179150009E+04  0.16929447570E+04 -0.42748436687E+03  0.20211328193E+04  0.46999998093E+01 0.  1.
</event>
<event>
 5   0  0.1879500E-08  0.4001326E+04  0.7818609E-02  0.8004279E-01
        1   -1    0    0  501    0  0.00000000000E+00  0.00000000000E+00  0.17755773279E+04  0.17755773279E+04  0.50400001928E-02 0. -1.
       -1   -1    0    0    0  501  0.00000000000E+00  0.00000000000E+00 -0.22542819329E+04  0.22542819329E+04  0.50400001928E-02 0.  1.
    10030    2    1    2    0    0  0.00000000000E+00  0.00000000000E+00 -0.47870460497E+03  0.40298592608E+04  0.40013257257E+04 0.  0.
        5    1    3    3  502    0 -0.96752565953E+03  0.55895682900E+03 -0.19107320235E+04  0.22134718417E+04  0.46999998093E+01 0.  1.
       -5    1    3    3    0  502  0.96752565953E+03 -0.55895682900E+03  0.14320274185E+04  0.18163874190E+04  0.46999998093E+01 0. -1.
</event>
<event>
 5   0  0.5846812E-08  0.4018448E+04  0.7818609E-02  0.8000835E-01
       -2   -1    0    0    0  501  0.00000000000E+00  0.00000000000E+00  0.37364264316E+04  0.37364264316E+04  0.25500000920E-02 0.  1.
        2   -1    0    0  501    0  0.00000000000E+00  0.00000000000E+00 -0.10804390750E+04  0.10804390750E+04  0.25500000920E-02 0. -1.
    10030    2    1    2    0    0  0.00000000000E+00  0.00000000000E+00  0.26559873566E+04  0.48168655065E+04  0.40184480175E+04 0.  0.
        4    1    3    3  502    0  0.11184823129E+04  0.67246175549E+03 -0.50320463192E+03  0.13987222781E+04  0.12699999809E+01 0. -1.
       -4    1    3    3    0  502 -0.11184823129E+04 -0.67246175549E+03  0.31591919885E+04  0.34181432284E+04  0.12699999809E+01 0.  1.
</event>
<event>
 5   0  0.6161563E-08  0.3999228E+04  0.7818609E-02  0.8004702E-01
        2   -1    0    0  501    0  0.00000000000E+00  0.00000000000E+00  0.12291804023E+04  0.12291804023E+04  0.25500000920E-02 0. -1.
       -2   -1    0    0    0  501  0.00000000000E+00  0.00000000000E+00 -0.32529452349E+04  0.32529452349E+04  0.25500000920E-02 0.  1.
    10030    2    1    2    0    0  0.00000000000E+00  0.00000000000E+00 -0.20237648326E+04  0.44821256372E+04  0.39992281918E+04 0.  0.
        1    1    3    3  502    0 -0.48198001251E+03  0.10457475437E+04  0.82031340197E+03  0.14137916166E+04  0.50400001928E-02 0. -1.
       -1    1    3    3    0  502  0.48198001251E+03 -0.10457475437E+04 -0.28440782345E+04  0.30683340206E+04  0.50400001928E-02 0.  1.
</event>
<event>
 5   0  0.1879500E-08  0.4013351E+04  0.7818609E-02  0.8001859E-01
       -1   -1    0    0    0  501  0.00000000000E+00  0.00000000000E+00  0.29571547476E+04  0.29571547476E+04  0.50400001928E-02 0. -1.
        1   -1    0    0  501    0  0.00000000000E+00  0.00000000000E+00 -0.13616959979E+04  0.13616959979E+04  0.50400001928E-02 0.  1.
    10030    2    1    2    0    0  0.00000000000E+00  0.00000000000E+00  0.15954587497E+04  0.43188507455E+04  0.40133506126E+04 0.  0.
        2    1    3    3  502    0  0.24002879866E+03 -0.10114688272E+04 -0.10493352539E+04  0.14770875017E+04  0.25500000920E-02 0.  1.
       -2    1    3    3    0  502 -0.24002879866E+03  0.10114688272E+04  0.26447940036E+04  0.28417632438E+04  0.25500000920E-02 0. -1.
</event>
<event>
 5   0  0.5888700E-08  0.3999811E+04  0.7818609E-02  0.8004585E-01
        2   -1    0    0  501    0  0.00000000000E+00  0.00000000000E+00  0.13989562609E+04  0.13989562609E+04  0.25500000920E-02 0.  1.
       -2   -1    0    0    0  501  0.00000000000E+00  0.00000000000E+00 -0.28590045402E+04  0.28590045402E+04  0.25500000920E-02 0. -1.
    10030    2    1    2    0    0  0.00000000000E+00  0.00000000000E+00 -0.14600482793E+04  0.42579608011E+04  0.39998111463E+04 0.  0.
        5    1    3    3  502    0 -0.32917752599E+03 -0.18726698195E+04 -0.13899963977E+04  0.23552838836E+04  0.46999998093E+01 0. -1.
       -5    1    3    3    0  502  0.32917752599E+03  0.18726698195E+04 -0.70051881586E+02  0.19026769176E+04  0.46999998093E+01 0.  1.
</event>
<event>
 5   0  0.1879500E-08  0.4015754E+04  0.7818609E-02  0.8001376E-01
       -1   -1    0    0    0  501  0.00000000000E+00  0.00000000000E+00  0.18797451488E+04  0.18797451488E+04  0.50400001928E-02 0. -1.
        1   -1    0    0  501    0  0.00000000000E+00  0.00000000000E+00 -0.21447431207E+04  0.21447431208E+04  0.50400001928E-02 0.  1.
    10030    2    1    2    0    0  0.00000000000E+00  0.00000000000E+00 -0.26499797196E+03  0.40244882695E+04  0.40157542139E+04 0.  0.
        2    1    3    3  502    0  0.17493558184E+04  0.39639946636E+03 -0.10367874701E+04  0.20717882552E+04  0.25500000920E-02 0.  1.
       -2    1    3    3    0  502 -0.17493558184E+04 -0.39639946636E+03  0.77178949812E+03  0.19527000143E+04  0.25500000920E-02 0. -1.
</event>
<event>
 5   0  0.5951623E-08  0.3996688E+04  0.7818609E-02  0.8005215E-01
       -2   -1    0    0    0  501  0.00000000000E+00  0.00000000000E+00  0.20714227439E+04  0.20714227439E+04  0.25500000920E-02 0.  1.
        2   -1    0    0  501    0  0.00000000000E+00  0.00000000000E+00 -0.19278438312E+04  0.19278438312E+04  0.25500000920E-02 0. -1.
    10030    2    1    2    0    0  0.00000000000E+00  0.00000000000E+00  0.14357891261E+03  0.39992665751E+04  0.39966884085E+04 0.  0.
        2    1    3    3  502    0  0.16675415129E+04 -0.14133594433E+03 -0.10210272181E+04  0.19603997364E+04  0.25500000920E-02 0.  1.
       -2    1    3    3    0  502 -0.16675415129E+04  0.14133594433E+03  0.11646061307E+04  0.20388668387E+04  0.25500000920E-02 0. -1.
</event>
<event>
 5   0  0.5945387E-08  0.3899180E+04  0.7818609E-02  0.8025200E-01
       -2   -1    0    0    0  501  0.00000000000E+00  0.00000000000E+00  0.14076890373E+04  0.14076890373E+04  0.25500000920E-02 0. -1.
        2   -1    0    0  501    0  0.00000000000E+00  0.00000000000E+00 -0.27000999533E+04  0.27000999533E+04  0.25500000920E-02 0.  1.
    10030    2    1    2    0    0  0.00000000000E+00  0.00000000000E+00 -0.12924109160E+04  0.41077889906E+04  0.38991799671E+04 0.  0.
        3    1    3    3  502    0 -0.94468067512E+03  0.13417681071E+04  0.46279504486E+03  0.17049758048E+04  0.10100000352E+00 0. -1.
       -3    1    3    3    0  502  0.94468067512E+03 -0.13417681071E+04 -0.17552059608E+04  0.24028131859E+04  0.10100000352E+00 0.  1.
</event>
<event>
 5   0  0.6161563E-08  0.3917496E+04  0.7818609E-02  0.8021400E-01
        2   -1    0    0  501    0  0.00000000000E+00  0.00000000000E+00  0.28864916209E+04  0.28864916209E+04  0.25500000920E-02 0.  1.
       -2   -1    0    0    0  501  0.00000000000E+00  0.00000000000E+00 -0.13291893895E+04  0.13291893895E+04  0.25500000920E-02 0. -1.
    10030    2    1    2    0    0  0.00000000000E+00  0.00000000000E+00  0.15573022314E+04  0.42156810105E+04  0.39174961573E+04 0.  0.
        1    1    3    3  502    0 -0.17206236003E+04 -0.85922888547E+03  0.37907397009E+03  0.19602338958E+04  0.50400001928E-02 0.  1.
       -1    1    3    3    0  502  0.17206236003E+04  0.85922888547E+03  0.11782282613E+04  0.22554471147E+04  0.50400001928E-02 0. -1.
</event>
<event>
 5   0  0.5846812E-08  0.4002295E+04  0.7818609E-02  0.8004084E-01
        2   -1    0    0  501    0  0.00000000000E+00  0.00000000000E+00  0.20686388152E+04  0.20686388152E+04  0.25500000920E-02 0.  1.
       -2   -1    0    0    0  501  0.00000000000E+00  0.00000000000E+00 -0.19358580988E+04  0.19358580988E+04  0.25500000920E-02 0. -1.
    10030    2    1    2    0    0  0.00000000000E+00  0.00000000000E+00  0.13278071631E+03  0.40044969140E+04  0.40022949436E+04 0.  0.
        4    1    3    3  502    0 -0.17002877191E+04  0.71847560642E+03  0.83973478535E+03  0.20278909357E+04  0.12699999809E+01 0.  1.
       -4    1    3    3    0  502  0.17002877191E+04 -0.71847560642E+03 -0.70695406904E+03  0.19766059783E+04  0.12699999809E+01 0. -1.
</event>
<event>
 5   0  0.1879500E-08  0.4002372E+04  0.7818609E-02  0.8004068E-01
       -1   -1    0    0    0  501  0.00000000000E+00  0.00000000000E+00  0.27961254427E+04  0.27961254427E+04  0.50400001928E-02 0.  1.
        1   -1    0    0  501    0  0.00000000000E+00  0.00000000000E+00 -0.14322477938E+04  0.14322477938E+04  0.50400001928E-02 0. -1.
    10030    2    1    2    0    0  0.00000000000E+00  0.00000000000E+00  0.13638776489E+04  0.42283732364E+04  0.40023715451E+04 0.  0.
        5    1    3    3  502    0 -0.66660595928E+03  0.36435064671E+03  0.26378604827E+04  0.27450764861E+04  0.46999998093E+01 0.  1.
       -5    1    3    3    0  502  0.66660595928E+03 -0.36435064671E+03 -0.12739828338E+04  0.14832967503E+04  0.46999998093E+01 0. -1.
</event>
<event>
 5   0  0.1879500E-08  0.3998971E+04  0.7818609E-02  0.8004754E-01
        1   -1    0    0  501    0  0.00000000000E+00  0.00000000000E+00  0.19692945173E+04  0.19692945173E+04  0.50400001928E-02 0.  1.
       -1   -1    0    0    0  501  0.00000000000E+00  0.00000000000E+00 -0.20301391487E+04  0.20301391487E+04  0.50400001928E-02 0. -1.
    10030    2    1    2    0    0  0.00000000000E+00  0.00000000000E+00 -0.60844631354E+02  0.39994336660E+04  0.39989708151E+04 0.  0.
        4    1    3    3  502    0 -0.83783522502E+02 -0.50652538225E+03 -0.19630933010E+04  0.20291191593E+04  0.12699999809E+01 0. -1.
       -4    1    3    3    0  502  0.83783522502E+02  0.50652538225E+03  0.19022486696E+04  0.19703145067E+04  0.12699999809E+01 0.  1.
</event>
<event>
 5   0  0.5945387E-08  0.3998320E+04  0.7818609E-02  0.8004886E-01
        2   -1    0    0  501    0  0.00000000000E+00  0.00000000000E+00  0.13629330406E+04  0.13629330406E+04  0.25500000920E-02 0. -1.
       -2   -1    0    0    0  501  0.00000000000E+00  0.00000000000E+00 -0.29323821833E+04  0.29323821833E+04  0.25500000920E-02 0.  1.
    10030    2    1    2    0    0  0.00000000000E+00  0.00000000000E+00 -0.15694491427E+04  0.42953152239E+04  0.39983199298E+04 0.  0.
        3    1    3    3  502    0 -0.13369682427E+04  0.13555973321E+04 -0.12993142487E+03  0.19084051965E+04  0.10100000352E+00 0. -1.
       -3    1    3    3    0  502  0.13369682427E+04 -0.13555973321E+04 -0.14395177178E+04  0.23869100274E+04  0.10100000352E+00 0.  1.
</event>
<event>
 5   0  0.5951623E-08  0.4011531E+04  0.7818609E-02  0.8002224E-01
        2   -1    0    0  501    0  0.00000000000E+00  0.00000000000E+00  0.26653540377E+04  0.26653540377E+04  0.25500000920E-02 0. -1.
       -2   -1    0    0    0  501  0.00000000000E+00  0.00000000000E+00 -0.15094037805E+04  0.15094037805E+04  0.25500000920E-02 0.  1.
    10030    2    1    2    0    0  0.00000000000E+00  0.00000000000E+00  0.11559502572E+04  0.41747578182E+04  0.40115311096E+04 0.  0.
        2    1    3    3  502    0 -0.16595198128E+04  0.63514635180E+03 -0.39030151008E+03  0.18192724276E+04  0.25500000920E-02 0. -1.
       -2    1    3    3    0  502  0.16595198128E+04 -0.63514635180E+03  0.15462517673E+04  0.23554853905E+04  0.25500000920E-02 0.  1.
</event>
<event>
 5   0  0.5888700E-08  0.3995894E+04  0.7818609E-02  0.8005375E-01
       -2   -1    0    0    0  501  0.00000000000E+00  0.00000000000E+00  0.14564536816E+04  0.14564536816E+04  0.25500000920E-02 0.  1.
        2   -1    0    0  501    0  0.00000000000E+00  0.00000000000E+00 -0.27407619611E+04  0.27407619611E+04  0.25500000920E-02 0. -1.
    10030    2    1    2    0    0  0.00000000000E+00  0.00000000000E+00 -0.12843082795E+04  0.41972156427E+04  0.39958943172E+04 0.  0.
        5    1    3    3  502    0 -0.66182779436E-01 -0.36307413237E+03  0.14215052231E+04  0.14671475793E+04  0.46999998093E+01 0.  1.
       -5    1    3    3    0  502  0.66182779436E-01  0.36307413237E+03 -0.27058135026E+04  0.27300680634E+04  0.46999998093E+01 0. -1.
</event>
<event>
 5   0  0.1879500E-08  0.4000184E+04  0.7818609E-02  0.8004509E-01
        1   -1    0    0  501    0  0.00000000000E+00  0.00000000000E+00  0.19561088185E+04  0.19561088185E+04  0.50400001928E-02 0.  1.
       -1   -1    0    0    0  501  0.00000000000E+00  0.00000000000E+00 -0.20450644676E+04  0.20450644676E+04  0.50400001928E-02 0. -1.
    10030    2    1    2    0    0  0.00000000000E+00  0.00000000000E+00 -0.88955649131E+02  0.40011732861E+04  0.40001843155E+04 0.  0.
        4    1    3    3  502    0 -0.49895195853E+03 -0.14625110900E+04  0.12256688947E+04  0.19723482445E+04  0.12699999809E+01 0.  1.
       -4    1    3    3    0  502  0.49895195853E+03  0.14625110900E+04 -0.13146245439E+04  0.20288250416E+04  0.12699999809E+01 0. -1.
</event>
<event>
 5   0  0.1879500E-08  0.3793614E+04  0.7818609E-02  0.8047527E-01
       -1   -1    0    0    0  501  0.00000000000E+00  0.00000000000E+00  0.11970443440E+04  0.11970443440E+04  0.50400001928E-02 0.  1.
        1   -1    0    0  501    0  0.00000000000E+00  0.00000000000E+00 -0.30056341901E+04  0.30056341901E+04  0.50400001928E-02 0. -1.
    10030    2    1    2    0    0  0.00000000000E+00  0.00000000000E+00 -0.18085898461E+04  0.42026785341E+04  0.37936143227E+04 0.  0.
        3    1    3    3  502    0  0.52843828181E+03 -0.30951336933E+02 -0.29221489462E+04  0.29697069681E+04  0.10100000352E+00 0. -1.
       -3    1    3    3    0  502 -0.52843828181E+03  0.30951336933E+02  0.11135591001E+04  0.12329715660E+04  0.10100000352E+00 0.  1.
</event>
<event>
 5   0  0.5951623E-08  0.4008115E+04  0.7818609E-02  0.8002911E-01
       -2   -1    0    0    0  501  0.00000000000E+00  0.00000000000E+00  0.14567902606E+04  0.14567902606E+04  0.25500000920E-02 0. -1.
        2   -1    0    0  501    0  0.00000000000E+00  0.00000000000E+00 -0.27569151880E+04  0.27569151880E+04  0.25500000920E-02 0.  1.
    10030    2    1    2    0    0  0.00000000000E+00  0.00000000000E+00 -0.13001249274E+04  0.42137054487E+04  0.40081153653E+04 0.  0.
        2    1    3    3  502    0 -0.67616400059E+03  0.32274457099E+03  0.13040105292E+04  0.15039299432E+04  0.25500000920E-02 0. -1.
       -2    1    3    3    0  502  0.67616400059E+03 -0.32274457099E+03 -0.26041354566E+04  0.27097755055E+04  0.25500000920E-02 0.  1.
</event>
<event>
 5   0  0.1879500E-08  0.4000696E+04  0.7818609E-02  0.8004406E-01
       -1   -1    0    0    0  501  0.00000000000E+00  0.00000000000E+00  0.24283274069E+04  0.24283274069E+04  0.50400001928E-02 0.  1.
        1   -1    0    0  501    0  0.00000000000E+00  0.00000000000E+00 -0.16477979689E+04  0.16477979689E+04  0.50400001928E-02 0. -1.
    10030    2    1    2    0    0  0.00000000000E+00  0.00000000000E+00  0.78052943801E+03  0.40761253758E+04  0.40006964238E+04 0.  0.
        4    1    3    3  502    0  0.59166885228E+02 -0.46059286128E+03  0.23726479075E+04  0.24176654462E+04  0.12699999809E+01 0.  1.
       -4    1    3    3    0  502 -0.59166885228E+02  0.46059286128E+03 -0.15921184695E+04  0.16584599295E+04  0.12699999809E+01 0. -1.
</event>
<event>
 5   0  0.5846812E-08  0.3997998E+04  0.7818609E-02  0.8004951E-01
       -2   -1    0    0    0  501  0.00000000000E+00  0.00000000000E+00  0.19906582727E+04  0.19906582727E+04  0.25500000920E-02 0. -1.
        2   -1    0    0  501    0  0.00000000000E+00  0.00000000000E+00 -0.20073745782E+04  0.20073745782E+04  0.25500000920E-02 0.  1.
    10030    2    1    2    0    0  0.00000000000E+00  0.00000000000E+00 -0.16716305543E+02  0.39980328509E+04  0.39979979042E+04 0.  0.
        4    1    3    3  502    0  0.73201603685E+03  0.17301575993E+04  0.67480402404E+03  0.19961600338E+04  0.12699999809E+01 0. -1.
       -4    1    3    3    0  502 -0.73201603685E+03 -0.17301575993E+04 -0.69152032958E+03  0.20018728171E+04  0.12699999809E+01 0.  1.
</event>
<event>
 5   0  0.1879500E-08  0.4013036E+04  0.7818609E-02  0.8001922E-01
       -1   -1    0    0    0  501  0.00000000000E+00  0.00000000000E+00  0.13079913744E+04  0.13079913744E+04  0.50400001928E-02 0.  1.
        1   -1    0    0  501    0  0.00000000000E+00  0.00000000000E+00 -0.30780888303E+04  0.30780888303E+04  0.50400001928E-02 0. -1.
    10030    2    1    2    0    0  0.00000000000E+00  0.00000000000E+00 -0.17700974559E+04  0.43860802047E+04  0.40130355790E+04 0.  0.
        5    1    3    3  502    0  0.14619206697E+04  0.18627709095E+03  0.60321379659E+03  0.15924195971E+04  0.46999998093E+01 0.  1.
       -5    1    3    3    0  502 -0.14619206697E+04 -0.18627709095E+03 -0.23733112525E+04  0.27936606075E+04  0.46999998093E+01 0. -1.
</event>
<event>
 5   0  0.5945387E-08  0.4003262E+04  0.7818609E-02  0.8003889E-01
       -2   -1    0    0    0  501  0.00000000000E+00  0.00000000000E+00  0.23300397982E+04  0.23300397982E+04  0.25500000920E-02 0.  1.
        2   -1    0    0  501    0  0.00000000000E+00  0.00000000000E+00 -0.17195102682E+04  0.17195102682E+04  0.25500000920E-02 0. -1.
    10030    2    1    2    0    0  0.00000000000E+00  0.00000000000E+00  0.61052952999E+03  0.40495500663E+04  0.40032623487E+04 0.  0.
        3    1    3    3  502    0  0.15205699790E+04 -0.12124856688E+04 -0.17378542133E+03  0.19525511366E+04  0.10100000352E+00 0. -1.
       -3    1    3    3    0  502 -0.15205699790E+04  0.12124856688E+04  0.78431495132E+03  0.20969989297E+04  0.10100000352E+00 0.  1.
</event>
<event>
 5   0  0.6161563E-08  0.3980315E+04  0.7818609E-02  0.8008530E-01
        2   -1    0    0  501    0  0.00000000000E+00  0.00000000000E+00  0.21620641353E+04  0.21620641353E+04  0.25500000920E-02 0. -1.
       -2   -1    0    0    0  501  0.00000000000E+00  0.00000000000E+00 -0.18319189337E+04  0.18319189337E+04  0.25500000920E-02 0.  1.
    10030    2    1    2    0    0  0.00000000000E+00  0.00000000000E+00  0.33014520159E+03  0.39939830690E+04  0.39803146736E+04 0.  0.
        1    1    3    3  502    0  0.19851821675E+04 -0.13562918232E+03  0.12776007157E+03  0.19939072569E+04  0.50400001928E-02 0.  1.
       -1    1    3    3    0  502 -0.19851821675E+04  0.13562918232E+03  0.20238513002E+03  0.20000758121E+04  0.50400001928E-02 0. -1.
</event>
<event>
 5   0  0.1879500E-08  0.3998697E+04  0.7818609E-02  0.8004809E-01
        1   -1    0    0  501    0  0.00000000000E+00  0.00000000000E+00  0.17007219366E+04  0.17007219366E+04  0.50400001928E-02 0.  1.
       -1   -1    0    0    0  501  0.00000000000E+00  0.00000000000E+00 -0.23504105623E+04  0.23504105623E+04  0.50400001928E-02 0. -1.
    10030    2    1    2    0    0  0.00000000000E+00  0.00000000000E+00 -0.64968862569E+03  0.40511324990E+04  0.39986971896E+04 0.  0.
        3    1    3    3  502    0  0.19877831455E+03  0.13890123644E+04  0.11180957333E+04  0.17941589243E+04  0.10100000352E+00 0.  1.
       -3    1    3    3    0  502 -0.19877831455E+03 -0.13890123644E+04 -0.17677843589E+04  0.22569735747E+04  0.10100000352E+00 0. -1.
</event>
<event>
 5   0  0.1879500E-08  0.4012191E+04  0.7818609E-02  0.8002092E-01
        1   -1    0    0  501    0  0.00000000000E+00  0.00000000000E+00  0.18654967426E+04  0.18654967426E+04  0.50400001928E-02 0. -1.
       -1   -1    0    0    0  501  0.00000000000E+00  0.00000000000E+00 -0.21572912419E+04  0.21572912419E+04  0.50400001928E-02 0.  1.
    10030    2    1    2    0    0  0.00000000000E+00  0.00000000000E+00 -0.29179449932E+03  0.40227879845E+04  0.40121913138E+04 0.  0.
        4    1    3    3  502    0 -0.16005495979E+04  0.26334320196E+03  0.10376056118E+04  0.19255481494E+04  0.12699999809E+01 0. -1.
       -4    1    3    3    0  502  0.16005495979E+04 -0.26334320196E+03 -0.13294001111E+04  0.20972398350E+04  0.12699999809E+01 0.  1.
</event>
<event>
 5   0  0.1879500E-08  0.4016410E+04  0.7818609E-02  0.8001244E-01
       -1   -1    0    0    0  501  0.00000000000E+00  0.00000000000E+00  0.26419074293E+04  0.26419074293E+04  0.50400001928E-02 0. -1.
        1   -1    0    0  501    0  0.00000000000E+00  0.00000000000E+00 -0.15265060017E+04  0.15265060017E+04  0.50400001928E-02 0.  1.
    10030    2    1    2    0    0  0.00000000000E+00  0.00000000000E+00  0.11154014276E+04  0.41684134310E+04  0.40164101119E+04 0.  0.
        4    1    3    3  502    0 -0.16107493894E+04  0.11289720498E+04  0.97773266217E+03  0.21966006137E+04  0.12699999809E+01 0. -1.
       -4    1    3    3    0  502  0.16107493894E+04 -0.11289720498E+04  0.13766876545E+03  0.19718128173E+04  0.12699999809E+01 0.  1.
</event>
<event>
 5   0  0.1879500E-08  0.3987181E+04  0.7818609E-02  0.8007137E-01
       -1   -1    0    0    0  501  0.00000000000E+00  0.00000000000E+00  0.16029590723E+04  0.16029590723E+04  0.50400001928E-02 0.  1.
        1   -1    0    0  501    0  0.00000000000E+00  0.00000000000E+00 -0.24794169745E+04  0.24794169745E+04  0.50400001928E-02 0. -1.
    10030    2    1    2    0    0  0.00000000000E+00  0.00000000000E+00 -0.87645790224E+03  0.40823760468E+04  0.39871814272E+04 0.  0.
        4    1    3    3  502    0 -0.64847698018E+03  0.72898832532E+03  0.13417997273E+04  0.16590281774E+04  0.12699999809E+01 0.  1.
       -4    1    3    3    0  502  0.64847698018E+03 -0.72898832532E+03 -0.22182576295E+04  0.24233478694E+04  0.12699999809E+01 0. -1.
</event>
<event>
 5   0  0.1879500E-08  0.3936420E+04  0.7818609E-02  0.8017497E-01
       -1   -1    0    0    0  501  0.00000000000E+00  0.00000000000E+00  0.24958011214E+04  0.24958011214E+04  0.50400001928E-02 0. -1.
        1   -1    0    0  501    0  0.00000000000E+00  0.00000000000E+00 -0.15521472020E+04  0.15521472020E+04  0.50400001928E-02 0.  1.
    10030    2    1    2    0    0  0.00000000000E+00  0.00000000000E+00  0.94365391942E+03  0.40479483235E+04  0.39364200627E+04 0.  0.
        3    1    3    3  502    0 -0.10115644533E+03  0.85489598644E+03  0.22919378325E+04  0.24482767026E+04  0.10100000352E+00 0. -1.
       -3    1    3    3    0  502  0.10115644533E+03 -0.85489598644E+03 -0.13482839131E+04  0.15996716209E+04  0.10100000352E+00 0.  1.
</event>
<event>
 5   0  0.5888700E-08  0.3996878E+04  0.7818609E-02  0.8005177E-01
        2   -1    0    0  501    0  0.00000000000E+00  0.00000000000E+00  0.22029475073E+04  0.22029475073E+04  0.25500000920E-02 0. -1.
       -2   -1    0    0    0  501  0.00000000000E+00  0.00000000000E+00 -0.18129156829E+04  0.18129156829E+04  0.25500000920E-02 0.  1.
    10030    2    1    2    0    0  0.00000000000E+00  0.00000000000E+00  0.39003182440E+03  0.40158631902E+04  0.39968778238E+04 0.  0.
        5    1    3    3  502    0  0.61315219404E+03 -0.14539334543E+04  0.14271598249E+04  0.21276008456E+04  0.46999998093E+01 0.  1.
       -5    1    3    3    0  502 -0.61315219404E+03  0.14539334543E+04 -0.10371280005E+04  0.18882623446E+04  0.46999998093E+01 0. -1.
</event>
<event>
 5   0  0.5951623E-08  0.4003705E+04  0.7818609E-02  0.8003799E-01
        2   -1    0    0  501    0  0.00000000000E+00  0.00000000000E+00  0.21414723721E+04  0.21414723721E+04  0.25500000920E-02 0.  1.
       -2   -1    0    0    0  501  0.00000000000E+00  0.00000000000E+00 -0.18713358830E+04  0.18713358830E+04  0.25500000920E-02 0. -1.
    10030    2    1    2    0    0  0.00000000000E+00  0.00000000000E+00  0.27013648915E+03  0.40128082551E+04  0.40037053300E+04 0.  0.
        2    1    3    3  502    0 -0.24746161692E+03 -0.18186326459E+04 -0.66596858834E+03  0.19524794783E+04  0.25500000920E-02 0. -1.
       -2    1    3    3    0  502  0.24746161692E+03  0.18186326459E+04  0.93610507749E+03  0.20603287768E+04  0.25500000920E-02 0.  1.
</event>
<event>
 5   0  0.1879500E-08  0.3987119E+04  0.7818609E-02  0.8007150E-01
       -1   -1    0    0    0  501  0.00000000000E+00  0.00000000000E+00  0.19905595449E+04  0.19905595449E+04  0.50400001928E-02 0. -1.
        1   -1    0    0  501    0  0.00000000000E+00  0.00000000000E+00 -0.19965636393E+04  0.19965636393E+04  0.50400001928E-02 0.  1.
    10030    2    1    2    0    0  0.00000000000E+00  0.00000000000E+00 -0.60040943829E+01  0.39871231842E+04  0.39871186635E+04 0.  0.
        2    1    3    3  502    0 -0.37828246672E+03  0.62899819769E+03  0.18505216895E+04  0.19907704239E+04  0.25500000920E-02 0. -1.
       -2    1    3    3    0  502  0.37828246672E+03 -0.62899819769E+03 -0.18565257839E+04  0.19963527603E+04  0.25500000920E-02 0.  1.
</event>
<event>
 5   0  0.1879500E-08  0.4004665E+04  0.7818609E-02  0.8003606E-01
       -1   -1    0    0    0  501  0.00000000000E+00  0.00000000000E+00  0.20029193949E+04  0.20029193949E+04  0.50400001928E-02 0.  1.
        1   -1    0    0  501    0  0.00000000000E+00  0.00000000000E+00 -0.20017462646E+04  0.20017462646E+04  0.50400001928E-02 0. -1.
    10030    2    1    2    0    0  0.00000000000E+00  0.00000000000E+00  0.11731302730E+01  0.40046656595E+04  0.40046654877E+04 0.  0.
        1    1    3    3  502    0  0.75725767789E+02 -0.61215143900E+03 -0.19043735269E+04  0.20017747891E+04  0.50400001928E-02 0. -1.
       -1    1    3    3    0  502 -0.75725767789E+02  0.61215143900E+03  0.19055466572E+04  0.20028908704E+04  0.50400001928E-02 0.  1.
</event>
<event>
 5   0  0.1879500E-08  0.3989025E+04  0.7818609E-02  0.8006764E-01
        1   -1    0    0  501    0  0.00000000000E+00  0.00000000000E+00  0.17098768397E+04  0.17098768397E+04  0.50400001928E-02 0. -1.
       -1   -1    0    0    0  501  0.00000000000E+00  0.00000000000E+00 -0.23265300682E+04  0.23265300682E+04  0.50400001928E-02 0.  1.
    10030    2    1    2    0    0  0.00000000000E+00  0.00000000000E+00 -0.61665322853E+03  0.40364069079E+04  0.39890248836E+04 0.  0.
        3    1    3    3  502    0  0.57262103366E+03  0.19091597725E+04 -0.38195063943E+03  0.20294512032E+04  0.10100000352E+00 0.  1.
       -3    1    3    3    0  502 -0.57262103366E+03 -0.19091597725E+04 -0.23470258910E+03  0.20069557047E+04  0.10100000352E+00 0. -1.
</event>
<event>
 5   0  0.1879500E-08  0.3993062E+04  0.7818609E-02  0.8005948E-01
        1   -1    0    0  501    0  0.00000000000E+00  0.00000000000E+00  0.24396494653E+04  0.24396494653E+04  0.50400001928E-02 0.  1.
       -1   -1    0    0    0  501  0.00000000000E+00  0.00000000000E+00 -0.16338973503E+04  0.16338973503E+04  0.50400001928E-02 0. -1.
    10030    2    1    2    0    0  0.00000000000E+00  0.00000000000E+00  0.80575211499E+03  0.40735468156E+04  0.39930623822E+04 0.  0.
        1    1    3    3  502    0 -0.17361976279E+03  0.40008511699E+03  0.23904597328E+04  0.24299196812E+04  0.50400001928E-02 0.  1.
       -1    1    3    3    0  502  0.17361976279E+03 -0.40008511699E+03 -0.15847076178E+04  0.16436271344E+04  0.50400001928E-02 0. -1.
</event>
<event>
 5   0  0.1879500E-08  0.4016157E+04  0.7818609E-02  0.8001295E-01
        1   -1    0    0  501    0  0.00000000000E+00  0.00000000000E+00  0.22782190308E+04  0.22782190308E+04  0.50400001928E-02 0.  1.
       -1   -1    0    0    0  501  0.00000000000E+00  0.00000000000E+00 -0.17699695974E+04  0.17699695974E+04  0.50400001928E-02 0. -1.
    10030    2    1    2    0    0  0.00000000000E+00  0.00000000000E+00  0.50824943343E+03  0.40481886282E+04  0.40161565810E+04 0.  0.
        4    1    3    3  502    0 -0.55857356833E+03 -0.13996150442E+04 -0.10836570634E+04  0.18561360260E+04  0.12699999809E+01 0. -1.
       -4    1    3    3    0  502  0.55857356833E+03  0.13996150442E+04  0.15919064968E+04  0.21920526022E+04  0.12699999809E+01 0.  1.
</event>
<event>
 5   0  0.1879500E-08  0.3995277E+04  0.7818609E-02  0.8005500E-01
        1   -1    0    0  501    0  0.00000000000E+00  0.00000000000E+00  0.21077915542E+04  0.21077915542E+04  0.50400001928E-02 0.  1.
       -1   -1    0    0    0  501  0.00000000000E+00  0.00000000000E+00 -0.18932416203E+04  0.18932416203E+04  0.50400001928E-02 0. -1.
    10030    2    1    2    0    0  0.00000000000E+00  0.00000000000E+00  0.21454993391E+03  0.40010331744E+04  0.39952765597E+04 0.  0.
        4    1    3    3  502    0  0.35007303742E+03 -0.19550419404E+04  0.32163235631E+03  0.20120112092E+04  0.12699999809E+01 0.  1.
       -4    1    3    3    0  502 -0.35007303742E+03  0.19550419404E+04 -0.10708242240E+03  0.19890219653E+04  0.12699999809E+01 0. -1.
</event>
<event>
 5   0  0.1879500E-08  0.3988733E+04  0.7818609E-02  0.8006823E-01
        1   -1    0    0  501    0  0.00000000000E+00  0.00000000000E+00  0.23152059186E+04  0.23152059187E+04  0.50400001928E-02 0. -1.
       -1   -1    0    0    0  501  0.00000000000E+00  0.00000000000E+00 -0.17179886197E+04  0.17179886197E+04  0.50400001928E-02 0.  1.
    10030    2    1    2    0    0  0.00000000000E+00  0.00000000000E+00  0.59721729894E+03  0.40331945384E+04  0.39887328417E+04 0.  0.
        3    1    3    3  502    0  0.11617017598E+04  0.15468590571E+04  0.78896115953E+03  0.20892064624E+04  0.10100000352E+00 0. -1.
       -3    1    3    3    0  502 -0.11617017598E+04 -0.15468590571E+04 -0.19174386059E+03  0.19439880759E+04  0.10100000352E+00 0.  1.
</event>
<event>
 5   0  0.5951623E-08  0.4000684E+04  0.7818609E-02  0.8004408E-01
        2   -1    0    0  501    0  0.00000000000E+00  0.00000000000E+00  0.27038016405E+04  0.27038016405E+04  0.25500000920E-02 0. -1.
       -2   -1    0    0    0  501  0.00000000000E+00  0.00000000000E+00 -0.14799047984E+04  0.14799047984E+04  0.25500000920E-02 0.  1.
    10030    2    1    2    0    0  0.00000000000E+00  0.00000000000E+00  0.12238968421E+04  0.41837064389E+04  0.40006844523E+04 0.  0.
        2    1    3    3  502    0  0.18941326425E+03  0.23038588902E+03 -0.14565219578E+04  0.14867451887E+04  0.25500000920E-02 0.  1.
       -2    1    3    3    0  502 -0.18941326425E+03 -0.23038588902E+03  0.26804187999E+04  0.26969612502E+04  0.25500000920E-02 0. -1.
</event>
<event>
 5   0  0.6161563E-08  0.3979603E+04  0.7818609E-02  0.8008674E-01
       -2   -1    0    0    0  501  0.00000000000E+00  0.00000000000E+00  0.29184644433E+04  0.29184644433E+04  0.25500000920E-02 0.  1.
        2   -1    0    0  501    0  0.00000000000E+00  0.00000000000E+00 -0.13566416402E+04  0.13566416402E+04  0.25500000920E-02 0. -1.
    10030    2    1    2    0    0  0.00000000000E+00  0.00000000000E+00  0.15618228031E+04  0.42751060835E+04  0.39796031909E+04 0.  0.
        1    1    3    3  502    0  0.52970801046E+03 -0.11401001424E+04  0.24378043161E+04  0.27428650704E+04  0.50400001928E-02 0.  1.
       -1    1    3    3    0  502 -0.52970801046E+03  0.11401001424E+04 -0.87598151303E+03  0.15322410131E+04  0.50400001928E-02 0. -1.
</event>
<event>
 5   0  0.1879500E-08  0.4004251E+04  0.7818609E-02  0.8003690E-01
       -1   -1    0    0    0  501  0.00000000000E+00  0.00000000000E+00  0.28263098496E+04  0.28263098496E+04  0.50400001928E-02 0.  1.
        1   -1    0    0  501    0  0.00000000000E+00  0.00000000000E+00 -0.14182825325E+04  0.14182825325E+04  0.50400001928E-02 0. -1.
    10030    2    1    2    0    0  0.00000000000E+00  0.00000000000E+00  0.14080273171E+04  0.42445923821E+04  0.40042506871E+04 0.  0.
        3    1    3    3  502    0  0.14382037076E+04 -0.37860447513E+03 -0.71686404874E+03  0.16509589115E+04  0.10100000352E+00 0. -1.
       -3    1    3    3    0  502 -0.14382037076E+04  0.37860447513E+03  0.21248913658E+04  0.25936334706E+04  0.10100000352E+00 0.  1.
</event>
<event>
 5   0  0.6161563E-08  0.4003037E+04  0.7818609E-02  0.8003934E-01
       -2   -1    0    0    0  501  0.00000000000E+00  0.00000000000E+00  0.24479258688E+04  0.24479258688E+04  0.25500000920E-02 0.  1.
        2   -1    0    0  501    0  0.00000000000E+00  0.00000000000E+00 -0.16365190139E+04  0.16365190139E+04  0.25500000920E-02 0. -1.
    10030    2    1    2    0    0  0.00000000000E+00  0.00000000000E+00  0.81140685483E+03  0.40844448827E+04  0.40030374612E+04 0.  0.
        1    1    3    3  502    0 -0.59274442496E+03  0.19070681853E+04  0.26948866101E+03  0.20151623148E+04  0.50400001928E-02 0. -1.
       -1    1    3    3    0  502  0.59274442496E+03 -0.19070681853E+04  0.54191819382E+03  0.20692825678E+04  0.50400001928E-02 0.  1.
</event>
<event>
 5   0  0.1879500E-08  0.3998523E+04  0.7818609E-02  0.8004845E-01
        1   -1    0    0  501    0  0.00000000000E+00  0.00000000000E+00  0.26431927964E+04  0.26431927964E+04  0.50400001928E-02 0. -1.
       -1   -1    0    0    0  501  0.00000000000E+00  0.00000000000E+00 -0.15122039528E+04  0.15122039528E+04  0.50400001928E-02 0.  1.
    10030    2    1    2    0    0  0.00000000000E+00  0.00000000000E+00  0.11309888436E+04  0.41553967492E+04  0.39985230247E+04 0.  0.
        1    1    3    3  502    0 -0.75098648377E+02  0.17831433672E+04 -0.37085762025E+03  0.18228481696E+04  0.50400001928E-02 0.  1.
       -1    1    3    3    0  502  0.75098648377E+02 -0.17831433672E+04  0.15018464639E+04  0.23325485796E+04  0.50400001928E-02 0. -1.
</event>
<event>
 5   0  0.5888700E-08  0.3994777E+04  0.7818609E-02  0.8005601E-01
       -2   -1    0    0    0  501  0.00000000000E+00  0.00000000000E+00  0.27633053804E+04  0.27633053804E+04  0.25500000920E-02 0. -1.
        2   -1    0    0  501    0  0.00000000000E+00  0.00000000000E+00 -0.14437637019E+04  0.14437637019E+04  0.25500000920E-02 0.  1.
    10030    2    1    2    0    0  0.00000000000E+00  0.00000000000E+00  0.13195416785E+04  0.42070690823E+04  0.39947765922E+04 0.  0.
        5    1    3    3  502    0 -0.13003018009E+04  0.45828759959E+03  0.21818170691E+04  0.25809223372E+04  0.46999998093E+01 0. -1.
       -5    1    3    3    0  502  0.13003018009E+04 -0.45828759959E+03 -0.86227539062E+03  0.16261467451E+04  0.46999998093E+01 0.  1.
</event>
<event>
 5   0  0.1879500E-08  0.4015513E+04  0.7818609E-02  0.8001424E-01
       -1   -1    0    0    0  501  0.00000000000E+00  0.00000000000E+00  0.29407766935E+04  0.29407766935E+04  0.50400001928E-02 0. -1.
        1   -1    0    0  501    0  0.00000000000E+00  0.00000000000E+00 -0.13707553697E+04  0.13707553697E+04  0.50400001928E-02 0.  1.
    10030    2    1    2    0    0  0.00000000000E+00  0.00000000000E+00  0.15700213238E+04  0.43115320631E+04  0.40155126415E+04 0.  0.
        2    1    3    3  502    0  0.11455327899E+04 -0.16473383346E+04  0.86181333797E+03  0.21837333150E+04  0.25500000920E-02 0.  1.
       -2    1    3    3    0  502 -0.11455327899E+04  0.16473383346E+04  0.70820798583E+03  0.21277987481E+04  0.25500000920E-02 0. -1.
</event>
<event>
 5   0  0.5945387E-08  0.3999118E+04  0.7818609E-02  0.8004725E-01
       -2   -1    0    0    0  501  0.00000000000E+00  0.00000000000E+00  0.20170171703E+04  0.20170171703E+04  0.25500000920E-02 0.  1.
        2   -1    0    0  501    0  0.00000000000E+00  0.00000000000E+00 -0.19822514595E+04  0.19822514595E+04  0.25500000920E-02 0. -1.
    10030    2    1    2    0    0  0.00000000000E+00  0.00000000000E+00  0.34765710804E+02  0.39992686299E+04  0.39991175176E+04 0.  0.
        3    1    3    3  502    0 -0.12566258825E+03 -0.84405390969E+03  0.18257700540E+04  0.20153546559E+04  0.10100000352E+00 0.  1.
       -3    1    3    3    0  502  0.12566258825E+03  0.84405390969E+03 -0.17910043432E+04  0.19839139740E+04  0.10100000352E+00 0. -1.
</event>
<event>
 5   0  0.5951623E-08  0.3998133E+04  0.7818609E-02  0.8004923E-01
        2   -1    0    0  501    0  0.00000000000E+00  0.00000000000E+00  0.20054878805E+04  0.20054878805E+04  0.25500000920E-02 0. -1.
       -2   -1    0    0    0  501  0.00000000000E+00  0.00000000000E+00 -0.19926659935E+04  0.19926659935E+04  0.25500000920E-02 0.  1.
    10030    2    1    2    0    0  0.00000000000E+00  0.00000000000E+00  0.12821887037E+02  0.39981538740E+04  0.39981333143E+04 0.  0.
        2    1    3    3  502    0 -0.11387717110E+04 -0.16315206429E+04  0.20033687905E+03  0.19996988481E+04  0.25500000920E-02 0.  1.
       -2    1    3    3    0  502  0.11387717110E+04  0.16315206429E+04 -0.18751499201E+03  0.19984550258E+04  0.25500000920E-02 0. -1.
</event>
<event>
 5   0  0.1879500E-08  0.3999383E+04  0.7818609E-02  0.8004671E-01
       -1   -1    0    0    0  501  0.00000000000E+00  0.00000000000E+00  0.25780508612E+04  0.25780508612E+04  0.50400001928E-02 0.  1.
        1   -1    0    0  501    0  0.00000000000E+00  0.00000000000E+00 -0.15510810886E+04  0.15510810887E+04  0.50400001928E-02 0. -1.
    10030    2    1    2    0    0  0.00000000000E+00  0.00000000000E+00  0.10269697726E+04  0.41291319499E+04  0.39993829206E+04 0.  0.
        2    1    3    3  502    0  0.26020793971E+03 -0.97689534982E+03  0.22947794081E+04  0.25075975012E+04  0.25500000920E-02 0.  1.
       -2    1    3    3    0  502 -0.26020793971E+03  0.97689534982E+03 -0.12678096355E+04  0.16215344487E+04  0.25500000920E-02 0. -1.
</event>
<event>
 5   0  0.5888700E-08  0.3977613E+04  0.7818609E-02  0.8009078E-01
        2   -1    0    0  501    0  0.00000000000E+00  0.00000000000E+00  0.25765198373E+04  0.25765198373E+04  0.25500000920E-02 0.  1.
       -2   -1    0    0    0  501  0.00000000000E+00  0.00000000000E+00 -0.15351528297E+04  0.15351528297E+04  0.25500000920E-02 0. -1.
    10030    2    1    2    0    0  0.00000000000E+00  0.00000000000E+00  0.10413670076E+04  0.41116726670E+04  0.39776132135E+04 0.  0.
        5    1    3    3  502    0 -0.17635497592E+04 -0.33203738182E+03  0.14068833930E+04  0.22802849707E+04  0.46999998093E+01 0.  1.
       -5    1    3    3    0  502  0.17635497592E+04  0.33203738182E+03 -0.36551638541E+03  0.18313876963E+04  0.46999998093E+01 0. -1.
</event>
<event>
 5   0  0.5888700E-08  0.4000141E+04  0.7818609E-02  0.8004518E-01
        2   -1    0    0  501    0  0.00000000000E+00  0.00000000000E+00  0.20757965008E+04  0.20757965008E+04  0.25500000920E-02 0. -1.
       -2   -1    0    0    0  501  0.00000000000E+00  0.00000000000E+00 -0.19271070759E+04  0.19271070759E+04  0.25500000920E-02 0.  1.
    10030    2    1    2    0    0  0.00000000000E+00  0.00000000000E+00  0.14868942490E+03  0.40029035767E+04  0.40001410600E+04 0.  0.
        5    1    3    3  502    0  0.15233525184E+04 -0.57020697838E+03  0.12389874323E+04  0.20447128994E+04  0.46999998093E+01 0. -1.
       -5    1    3    3    0  502 -0.15233525184E+04  0.57020697838E+03 -0.10902980074E+04  0.19581906773E+04  0.46999998093E+01 0.  1.
</event>
<event>
 5   0  0.5945387E-08  0.4003710E+04  0.7818609E-02  0.8003798E-01
       -2   -1    0    0    0  501  0.00000000000E+00  0.00000000000E+00  0.19138118398E+04  0.19138118398E+04  0.25500000920E-02 0.  1.
        2   -1    0    0  501    0  0.00000000000E+00  0.00000000000E+00 -0.20939489941E+04  0.20939489941E+04  0.25500000920E-02 0. -1.
    10030    2    1    2    0    0  0.00000000000E+00  0.00000000000E+00 -0.18013715428E+03  0.40077608339E+04  0.40037104675E+04 0.  0.
        3    1    3    3  502    0 -0.92180291872E+03  0.92518242879E+03  0.14286152947E+04  0.19356200087E+04  0.10100000352E+00 0.  1.
       -3    1    3    3    0  502  0.92180291872E+03 -0.92518242879E+03 -0.16087524490E+04  0.20721408253E+04  0.10100000352E+00 0. -1.
</event>
<event>
 5   0  0.6161563E-08  0.3982640E+04  0.7818609E-02  0.8008058E-01
        2   -1    0    0  501    0  0.00000000000E+00  0.00000000000E+00  0.22166310917E+04  0.22166310917E+04  0.25500000920E-02 0.  1.
       -2   -1    0    0    0  501  0.00000000000E+00  0.00000000000E+00 -0.17889112432E+04  0.17889112432E+04  0.25500000920E-02 0. -1.
    10030    2    1    2    0    0  0.00000000000E+00  0.00000000000E+00  0.42771984847E+03  0.40055423349E+04  0.39826404718E+04 0.  0.
        1    1    3    3  502    0  0.17900935147E+04 -0.41112531089E+03  0.98763273459E+03  0.20853961809E+04  0.50400001928E-02 0.  1.
       -1    1    3    3    0  502 -0.17900935147E+04  0.41112531089E+03 -0.55991288612E+03  0.19201461540E+04  0.50400001928E-02 0. -1.
</event>
<event>
 5   0  0.1879500E-08  0.4012386E+04  0.7818609E-02  0.8002052E-01
       -1   -1    0    0    0  501  0.00000000000E+00  0.00000000000E+00  0.15312762383E+04  0.15312762383E+04  0.50400001928E-02 0.  1.
        1   -1    0    0  501    0  0.00000000000E+00  0.00000000000E+00 -0.26284031868E+04  0.26284031868E+04  0.50400001928E-02 0. -1.
    10030    2    1    2    0    0  0.00000000000E+00  0.00000000000E+00 -0.10971269485E+04  0.41596794251E+04  0.40123864941E+04 0.  0.
        5    1    3    3  502    0 -0.59493130338E+03  0.19041074771E+04 -0.32810549985E+03  0.20216933123E+04  0.46999998093E+01 0.  1.
       -5    1    3    3    0  502  0.59493130338E+03 -0.19041074771E+04 -0.76902144869E+03  0.21379861128E+04  0.46999998093E+01 0. -1.
</event>
<event>
 5   0  0.1879500E-08  0.3970562E+04  0.7818609E-02  0.8010512E-01
        1   -1    0    0  501    0  0.00000000000E+00  0.00000000000E+00  0.18060478784E+04  0.18060478784E+04  0.50400001928E-02 0.  1.
       -1   -1    0    0    0  501  0.00000000000E+00  0.00000000000E+00 -0.21823009693E+04  0.21823009693E+04  0.50400001928E-02 0. -1.
    10030    2    1    2    0    0  0.00000000000E+00  0.00000000000E+00 -0.37625309094E+03  0.39883488477E+04  0.39705616911E+04 0.  0.
        1    1    3    3  502    0 -0.17313660497E+04  0.76810013343E+03  0.40929307721E+03  0.19378150159E+04  0.50400001928E-02 0.  1.
       -1    1    3    3    0  502  0.17313660497E+04 -0.76810013343E+03 -0.78554616815E+03  0.20505338318E+04  0.50400001928E-02 0. -1.
</event>
<event>
 5   0  0.5951623E-08  0.4001666E+04  0.7818609E-02  0.8004211E-01
       -2   -1    0    0    0  501  0.00000000000E+00  0.00000000000E+00  0.33745445662E+04  0.33745445662E+04  0.25500000920E-02 0. -1.
        2   -1    0    0  501    0  0.00000000000E+00  0.00000000000E+00 -0.11863328491E+04  0.11863328491E+04  0.25500000920E-02 0.  1.
    10030    2    1    2    0    0  0.00000000000E+00  0.00000000000E+00  0.21882117171E+04  0.45608774154E+04  0.40016661879E+04 0.  0.
        2    1    3    3  502    0  0.18438358094E+04  0.53854184702E+03  0.45587406428E+03  0.19742287039E+04  0.25500000920E-02 0.  1.
       -2    1    3    3    0  502 -0.18438358094E+04 -0.53854184702E+03  0.17323376528E+04  0.25866487114E+04  0.25500000920E-02 0. -1.
</event>
<event>
 5   0  0.1879500E-08  0.3988859E+04  0.7818609E-02  0.8006798E-01
        1   -1    0    0  501    0  0.00000000000E+00  0.00000000000E+00  0.20813046792E+04  0.20813046792E+04  0.50400001928E-02 0.  1.
       -1   -1    0    0    0  501  0.00000000000E+00  0.00000000000E+00 -0.19111802295E+04  0.19111802295E+04  0.50400001928E-02 0. -1.
    10030    2    1    2    0    0  0.00000000000E+00  0.00000000000E+00  0.17012444971E+03  0.39924849087E+04  0.39888586610E+04 0.  0.
        2    1    3    3  502    0 -0.16433835198E+04  0.11237823487E+04 -0.34008918241E+02  0.19911686937E+04  0.25500000920E-02 0.  1.
       -2    1    3    3    0  502  0.16433835198E+04 -0.11237823487E+04  0.20413336795E+03  0.20013162150E+04  0.25500000920E-02 0. -1.
</event>
<event>
 5   0  0.6161563E-08  0.3995868E+04  0.7818609E-02  0.8005381E-01
       -2   -1    0    0    0  501  0.00000000000E+00  0.00000000000E+00  0.28473013567E+04  0.28473013567E+04  0.25500000920E-02 0. -1.
        2   -1    0    0  501    0  0.00000000000E+00  0.00000000000E+00 -0.14019383444E+04  0.14019383444E+04  0.25500000920E-02 0.  1.
    10030    2    1    2    0    0  0.00000000000E+00  0.00000000000E+00  0.14453630122E+04  0.42492397011E+04  0.39958683412E+04 0.  0.
        1    1    3    3  502    0 -0.17321316010E+04 -0.97179327717E+03  0.95341634927E+03  0.22031034456E+04  0.50400001928E-02 0.  1.
       -1    1    3    3    0  502  0.17321316010E+04  0.97179327717E+03  0.49194666297E+03  0.20461362555E+04  0.50400001928E-02 0. -1.
</event>
<event>
 5   0  0.5888700E-08  0.3980681E+04  0.7818609E-02  0.8008455E-01
       -2   -1    0    0    0  501  0.00000000000E+00  0.00000000000E+00  0.21525857392E+04  0.21525857392E+04  0.25500000920E-02 0. -1.
        2   -1    0    0  501    0  0.00000000000E+00  0.00000000000E+00 -0.18403244846E+04  0.18403244846E+04  0.25500000920E-02 0.  1.
    10030    2    1    2    0    0  0.00000000000E+00  0.00000000000E+00  0.31226125466E+03  0.39929102238E+04  0.39806814699E+04 0.  0.
        5    1    3    3  502    0  0.97289930223E+03  0.94005807897E+03 -0.13082143356E+04  0.18819375872E+04  0.46999998093E+01 0.  1.
       -5    1    3    3    0  502 -0.97289930223E+03 -0.94005807897E+03  0.16204755903E+04  0.21109726367E+04  0.46999998093E+01 0. -1.
</event>
<event>
 5   0  0.1879500E-08  0.3997647E+04  0.7818609E-02  0.8005021E-01
        1   -1    0    0  501    0  0.00000000000E+00  0.00000000000E+00  0.15855362083E+04  0.15855362083E+04  0.50400001928E-02 0. -1.
       -1   -1    0    0    0  501  0.00000000000E+00  0.00000000000E+00 -0.25198392007E+04  0.25198392007E+04  0.50400001928E-02 0.  1.
    10030    2    1    2    0    0  0.00000000000E+00  0.00000000000E+00 -0.93430299240E+03  0.41053754090E+04  0.39976474541E+04 0.  0.
        5    1    3    3  502    0 -0.38879722680E+03 -0.19222553503E+04 -0.86361891929E+03  0.21429159206E+04  0.46999998093E+01 0.  1.
       -5    1    3    3    0  502  0.38879722680E+03  0.19222553503E+04 -0.70684073111E+02  0.19624594883E+04  0.46999998093E+01 0. -1.
</event>
<event>
 5   0  0.1879500E-08  0.4012585E+04  0.7818609E-02  0.8002013E-01
        1   -1    0    0  501    0  0.00000000000E+00  0.00000000000E+00  0.20787833165E+04  0.20787833165E+04  0.50400001928E-02 0. -1.
       -1   -1    0    0    0  501  0.00000000000E+00  0.00000000000E+00 -0.19363293994E+04  0.19363293994E+04  0.50400001928E-02 0.  1.
    10030    2    1    2    0    0  0.00000000000E+00  0.00000000000E+00  0.14245391714E+03  0.40151127159E+04  0.40125848281E+04 0.  0.
        5    1    3    3  502    0  0.19899778929E+04 -0.11677040499E+03 -0.15593989376E+03  0.19994966072E+04  0.46999998093E+01 0.  1.
       -5    1    3    3    0  502 -0.19899778929E+04  0.11677040499E+03  0.29839381090E+03  0.20156161088E+04  0.46999998093E+01 0. -1.
</event>
<event>
 5   0  0.6161563E-08  0.3996828E+04  0.7818609E-02  0.8005187E-01
        2   -1    0    0  501    0  0.00000000000E+00  0.00000000000E+00  0.22422387580E+04  0.22422387580E+04  0.25500000920E-02 0. -1.
       -2   -1    0    0    0  501  0.00000000000E+00  0.00000000000E+00 -0.17811035188E+04  0.17811035188E+04  0.25500000920E-02 0.  1.
    10030    2    1    2    0    0  0.00000000000E+00  0.00000000000E+00  0.46113523917E+03  0.40233422768E+04  0.39968284136E+04 0.  0.
        1    1    3    3  502    0  0.12499648332E+04  0.42281163618E+03 -0.12802140781E+04  0.18385129452E+04  0.50400001928E-02 0.  1.
       -1    1    3    3    0  502 -0.12499648332E+04 -0.42281163618E+03  0.17413493172E+04  0.21848293316E+04  0.50400001928E-02 0. -1.
</event>
<event>
 5   0  0.5846812E-08  0.4021219E+04  0.7818609E-02  0.8000280E-01
       -2   -1    0    0    0  501  0.00000000000E+00  0.00000000000E+00  0.13604711218E+04  0.13604711218E+04  0.25500000920E-02 0.  1.
        2   -1    0    0  501    0  0.00000000000E+00  0.00000000000E+00 -0.29714340524E+04  0.29714340524E+04  0.25500000920E-02 0. -1.
    10030    2    1    2    0    0  0.00000000000E+00  0.00000000000E+00 -0.16109629306E+04  0.43319051742E+04  0.40212188295E+04 0.  0.
        4    1    3    3  502    0  0.92082640831E+03 -0.14146619188E+04 -0.19822926512E+04  0.26035889435E+04  0.12699999809E+01 0. -1.
       -4    1    3    3    0  502 -0.92082640831E+03  0.14146619188E+04  0.37132972067E+03  0.17283162307E+04  0.12699999809E+01 0.  1.
</event>
<event>
 5   0  0.1879500E-08  0.4002519E+04  0.7818609E-02  0.8004039E-01
        1   -1    0    0  501    0  0.00000000000E+00  0.00000000000E+00  0.27683473269E+04  0.27683473269E+04  0.50400001928E-02 0.  1.
       -1   -1    0    0    0  501  0.00000000000E+00  0.00000000000E+00 -0.14467256452E+04  0.14467256452E+04  0.50400001928E-02 0. -1.
    10030    2    1    2    0    0  0.00000000000E+00  0.00000000000E+00  0.13216216817E+04  0.42150729721E+04  0.40025187433E+04 0.  0.
        2    1    3    3  502    0 -0.49309308407E+03  0.90355969064E+03 -0.11465698049E+04  0.15408384800E+04  0.25500000920E-02 0. -1.
       -2    1    3    3    0  502  0.49309308407E+03 -0.90355969064E+03  0.24681914866E+04  0.26742344921E+04  0.25500000920E-02 0.  1.
</event>
<event>
 5   0  0.1879500E-08  0.3976450E+04  0.7818609E-02  0.8009314E-01
        1   -1    0    0  501    0  0.00000000000E+00  0.00000000000E+00  0.11420724293E+04  0.11420724293E+04  0.50400001928E-02 0.  1.
       -1   -1    0    0    0  501  0.00000000000E+00  0.00000000000E+00 -0.34612847684E+04  0.34612847684E+04  0.50400001928E-02 0. -1.
    10030    2    1    2    0    0  0.00000000000E+00  0.00000000000E+00 -0.23192123391E+04  0.46033571978E+04  0.39764496245E+04 0.  0.
        4    1    3    3  502    0  0.46548300209E+03  0.65141786243E+02 -0.33960443487E+04  0.34284160642E+04  0.12699999809E+01 0. -1.
       -4    1    3    3    0  502 -0.46548300209E+03 -0.65141786243E+02  0.10768320096E+04  0.11749411336E+04  0.12699999809E+01 0.  1.
</event>
<event>
 5   0  0.5945387E-08  0.3992503E+04  0.7818609E-02  0.8006061E-01
       -2   -1    0    0    0  501  0.00000000000E+00  0.00000000000E+00  0.19213107959E+04  0.19213107959E+04  0.25500000920E-02 0.  1.
        2   -1    0    0  501    0  0.00000000000E+00  0.00000000000E+00 -0.20741149571E+04  0.20741149571E+04  0.25500000920E-02 0. -1.
    10030    2    1    2    0    0  0.00000000000E+00  0.00000000000E+00 -0.15280416119E+03  0.39954257530E+04  0.39925027034E+04 0.  0.
        3    1    3    3  502    0 -0.49348116014E+03  0.39989922690E+03  0.18174888123E+04  0.19252814444E+04  0.10100000352E+00 0.  1.
       -3    1    3    3    0  502  0.49348116014E+03 -0.39989922690E+03 -0.19702929735E+04  0.20701443087E+04  0.10100000352E+00 0. -1.
</event>
<event>
 5   0  0.1879500E-08  0.4024446E+04  0.7818609E-02  0.7999633E-01
       -1   -1    0    0    0  501  0.00000000000E+00  0.00000000000E+00  0.27748950555E+04  0.27748950555E+04  0.50400001928E-02 0.  1.
        1   -1    0    0  501    0  0.00000000000E+00  0.00000000000E+00 -0.14591692639E+04  0.14591692639E+04  0.50400001928E-02 0. -1.
    10030    2    1    2    0    0  0.00000000000E+00  0.00000000000E+00  0.13157257916E+04  0.42340643195E+04  0.40244460864E+04 0.  0.
        1    1    3    3  502    0  0.12150227114E+04  0.12684251114E+04  0.16907625179E+04  0.24380033521E+04  0.50400001928E-02 0.  1.
       -1    1    3    3    0  502 -0.12150227114E+04 -0.12684251114E+04 -0.37503672633E+03  0.17960609674E+04  0.50400001928E-02 0. -1.
</event>
<event>
 5   0  0.5945387E-08  0.3795665E+04  0.7818609E-02  0.8047086E-01
       -2   -1    0    0    0  501  0.00000000000E+00  0.00000000000E+00  0.15578628737E+04  0.15578628737E+04  0.25500000920E-02 0. -1.
        2   -1    0    0  501    0  0.00000000000E+00  0.00000000000E+00 -0.23119926559E+04  0.23119926559E+04  0.25500000920E-02 0.  1.
    10030    2    1    2    0    0  0.00000000000E+00  0.00000000000E+00 -0.75412978216E+03  0.38698555296E+04  0.37956646443E+04 0.  0.
        3    1    3    3  502    0 -0.15554170734E+04  0.41291156748E+03 -0.14026844397E+04  0.21347931709E+04  0.10100000352E+00 0.  1.
       -3    1    3    3    0  502  0.15554170734E+04 -0.41291156748E+03  0.64855465755E+03  0.17350623588E+04  0.10100000352E+00 0. -1.
</event>
<event>
 5   0  0.1879500E-08  0.4001826E+04  0.7818609E-02  0.8004178E-01
        1   -1    0    0  501    0  0.00000000000E+00  0.00000000000E+00  0.17341109847E+04  0.17341109847E+04  0.50400001928E-02 0.  1.
       -1   -1    0    0    0  501  0.00000000000E+00  0.00000000000E+00 -0.23087638800E+04  0.23087638800E+04  0.50400001928E-02 0. -1.
    10030    2    1    2    0    0  0.00000000000E+00  0.00000000000E+00 -0.57465289536E+03  0.40428748647E+04  0.40018259859E+04 0.  0.
        2    1    3    3  502    0 -0.18262092278E+04  0.46720205819E+03 -0.96527993832E+03  0.21178015172E+04  0.25500000920E-02 0. -1.
       -2    1    3    3    0  502  0.18262092278E+04 -0.46720205819E+03  0.39062704296E+03  0.19250733475E+04  0.25500000920E-02 0.  1.
</event>
<event>
 5   0  0.6161563E-08  0.3999929E+04  0.7818609E-02  0.8004561E-01
        2   -1    0    0  501    0  0.00000000000E+00  0.00000000000E+00  0.24024321836E+04  0.24024321836E+04  0.25500000920E-02 0.  1.
       -2   -1    0    0    0  501  0.00000000000E+00  0.00000000000E+00 -0.16649198733E+04  0.16649198733E+04  0.25500000920E-02 0. -1.
    10030    2    1    2    0    0  0.00000000000E+00  0.00000000000E+00  0.73751231029E+03  0.40673520568E+04  0.39999285426E+04 0.  0.
        1    1    3    3  502    0 -0.98613850391E+03 -0.70203982701E+03  0.19876116384E+04  0.23272148789E+04  0.50400001928E-02 0.  1.
       -1    1    3    3    0  502  0.98613850391E+03  0.70203982701E+03 -0.12500993281E+04  0.17401371779E+04  0.50400001928E-02 0. -1.
</event>
<event>
 5   0  0.5951623E-08  0.3899544E+04  0.7818609E-02  0.8025124E-01
        2   -1    0    0  501    0  0.00000000000E+00  0.00000000000E+00  0.21210945237E+04  0.21210945237E+04  0.25500000920E-02 0. -1.
       -2   -1    0    0    0  501  0.00000000000E+00  0.00000000000E+00 -0.17922873413E+04  0.17922873413E+04  0.25500000920E-02 0.  1.
    10030    2    1    2    0    0  0.00000000000E+00  0.00000000000E+00  0.32880718241E+03  0.39133818651E+04  0.38995440065E+04 0.  0.
        2    1    3    3  502    0 -0.20331514147E+03  0.72846049121E+03  0.19678949129E+04  0.21082225030E+04  0.25500000920E-02 0. -1.
       -2    1    3    3    0  502  0.20331514147E+03 -0.72846049121E+03 -0.16390877305E+04  0.18051593620E+04  0.25500000920E-02 0.  1.
</event>
<event>
 5   0  0.1879500E-08  0.4005339E+04  0.7818609E-02  0.8003470E-01
        1   -1    0    0  501    0  0.00000000000E+00  0.00000000000E+00  0.20998903898E+04  0.20998903898E+04  0.50400001928E-02 0. -1.
       -1   -1    0    0    0  501  0.00000000000E+00  0.00000000000E+00 -0.19099492873E+04  0.19099492873E+04  0.50400001928E-02 0.  1.
    10030    2    1    2    0    0  0.00000000000E+00  0.00000000000E+00  0.18994110256E+03  0.40098396771E+04  0.40053385142E+04 0.  0.
        4    1    3    3  502    0  0.99177595561E+03 -0.27708839384E+03  0.18145401919E+04  0.20863737070E+04  0.12699999809E+01 0. -1.
       -4    1    3    3    0  502 -0.99177595561E+03  0.27708839384E+03 -0.16245990894E+04  0.19234659701E+04  0.12699999809E+01 0.  1.
</event>
<event>
 5   0  0.5846812E-08  0.4038209E+04  0.7818609E-02  0.7996883E-01
        2   -1    0    0  501    0  0.00000000000E+00  0.00000000000E+00  0.13243185799E+04  0.13243185799E+04  0.25500000920E-02 0.  1.
       -2   -1    0    0    0  501  0.00000000000E+00  0.00000000000E+00 -0.30784009276E+04  0.30784009276E+04  0.25500000920E-02 0. -1.
    10030    2    1    2    0    0  0.00000000000E+00  0.00000000000E+00 -0.17540823477E+04  0.44027195075E+04  0.40382092788E+04 0.  0.
        4    1    3    3  502    0 -0.16417813320E+04  0.11317975699E+04 -0.53163133808E+03  0.20637454237E+04  0.12699999809E+01 0.  1.
       -4    1    3    3    0  502  0.16417813320E+04 -0.11317975699E+04 -0.12224510096E+04  0.23389740839E+04  0.12699999809E+01 0. -1.
</event>
<event>
 5   0  0.5888700E-08  0.3996528E+04  0.7818609E-02  0.8005247E-01
       -2   -1    0    0    0  501  0.00000000000E+00  0.00000000000E+00  0.24831412581E+04  0.24831412581E+04  0.25500000920E-02 0. -1.
        2   -1    0    0  501    0  0.00000000000E+00  0.00000000000E+00 -0.16080676850E+04  0.16080676850E+04  0.25500000920E-02 0.  1.
    10030    2    1    2    0    0  0.00000000000E+00  0.00000000000E+00  0.87507357309E+03  0.40912089431E+04  0.39965281004E+04 0.  0.
        5    1    3    3  502    0 -0.93463195159E+02 -0.15491549967E+03 -0.15996600512E+04  0.16098660038E+04  0.46999998093E+01 0.  1.
       -5    1    3    3    0  502  0.93463195159E+02  0.15491549967E+03  0.24747336243E+04  0.24813429392E+04  0.46999998093E+01 0. -1.
</event>
<event>
 5   0  0.1879500E-08  0.4013550E+04  0.7818609E-02  0.8001819E-01
       -1   -1    0    0    0  501  0.00000000000E+00  0.00000000000E+00  0.14272528235E+04  0.14272528235E+04  0.50400001928E-02 0. -1.
        1   -1    0    0  501    0  0.00000000000E+00  0.00000000000E+00 -0.28216071287E+04  0.28216071287E+04  0.50400001928E-02 0.  1.
    10030    2    1    2    0    0  0.00000000000E+00  0.00000000000E+00 -0.13943543051E+04  0.42488599522E+04  0.40135504189E+04 0.  0.
        1    1    3    3  502    0  0.19651382387E+04 -0.34470181963E+03 -0.46875091840E+03  0.20494670198E+04  0.50400001928E-02 0. -1.
       -1    1    3    3    0  502 -0.19651382387E+04  0.34470181963E+03 -0.92560338675E+03  0.21993929324E+04  0.50400001928E-02 0.  1.
</event>
<event>
 5   0  0.5846812E-08  0.4001661E+04  0.7818609E-02  0.8004212E-01
        2   -1    0    0  501    0  0.00000000000E+00  0.00000000000E+00  0.19611344601E+04  0.19611344601E+04  0.25500000920E-02 0.  1.
       -2   -1    0    0    0  501  0.00000000000E+00  0.00000000000E+00 -0.20413303484E+04  0.20413303484E+04  0.25500000920E-02 0. -1.
    10030    2    1    2    0    0  0.00000000000E+00  0.00000000000E+00 -0.80195888325E+02  0.40024648085E+04  0.40016613004E+04 0.  0.
        4    1    3    3  502    0 -0.14565274617E+04  0.11047753460E+04  0.77328171551E+03  0.19849350206E+04  0.12699999809E+01 0. -1.
       -4    1    3    3    0  502  0.14565274617E+04 -0.11047753460E+04 -0.85347760383E+03  0.20175297879E+04  0.12699999809E+01 0.  1.
</event>
<event>
 5   0  0.1879500E-08  0.3999985E+04  0.7818609E-02  0.8004550E-01
        1   -1    0    0  501    0  0.00000000000E+00  0.00000000000E+00  0.21296407231E+04  0.21296407232E+04  0.50400001928E-02 0. -1.
       -1   -1    0    0    0  501  0.00000000000E+00  0.00000000000E+00 -0.18782366623E+04  0.18782366623E+04  0.50400001928E-02 0.  1.
    10030    2    1    2    0    0  0.00000000000E+00  0.00000000000E+00  0.25140406085E+03  0.40078773855E+04  0.39999846419E+04 0.  0.
        5    1    3    3  502    0 -0.18523076893E+04 -0.41897683127E+03  0.75412523359E+03  0.20433580986E+04  0.46999998093E+01 0. -1.
       -5    1    3    3    0  502  0.18523076893E+04  0.41897683127E+03 -0.50272117275E+03  0.19645192869E+04  0.46999998093E+01 0.  1.
</event>
<event>
 5   0  0.1879500E-08  0.3988313E+04  0.7818609E-02  0.8006908E-01
        1   -1    0    0  501    0  0.00000000000E+00  0.00000000000E+00  0.20008474865E+04  0.20008474865E+04  0.50400001928E-02 0. -1.
       -1   -1    0    0    0  501  0.00000000000E+00  0.00000000000E+00 -0.19874881070E+04  0.19874881070E+04  0.50400001928E-02 0.  1.
    10030    2    1    2    0    0  0.00000000000E+00  0.00000000000E+00  0.13359379517E+02  0.39883355935E+04  0.39883132191E+04 0.  0.
        2    1    3    3  502    0  0.12388524854E+04  0.15615904196E+04 -0.51117383353E+02  0.19939741989E+04  0.25500000920E-02 0.  1.
       -2    1    3    3    0  502 -0.12388524854E+04 -0.15615904196E+04  0.64476762870E+02  0.19943613946E+04  0.25500000920E-02 0. -1.
</event>
<event>
 5   0  0.1879500E-08  0.3978766E+04  0.7818609E-02  0.8008844E-01
       -1   -1    0    0    0  501  0.00000000000E+00  0.00000000000E+00  0.20793359777E+04  0.20793359777E+04  0.50400001928E-02 0. -1.
        1   -1    0    0  501    0  0.00000000000E+00  0.00000000000E+00 -0.19033215030E+04  0.19033215030E+04  0.50400001928E-02 0.  1.
    10030    2    1    2    0    0  0.00000000000E+00  0.00000000000E+00  0.17601447473E+03  0.39826574808E+04  0.39787660793E+04 0.  0.
        2    1    3    3  502    0  0.27800350403E+03 -0.13305561173E+04  0.15420047151E+04  0.20555884975E+04  0.25500000920E-02 0. -1.
       -2    1    3    3    0  502 -0.27800350403E+03  0.13305561173E+04 -0.13659902404E+04  0.19270689833E+04  0.25500000920E-02 0.  1.
</event>
<event>
 5   0  0.1879500E-08  0.3995838E+04  0.7818609E-02  0.8005387E-01
       -1   -1    0    0    0  501  0.00000000000E+00  0.00000000000E+00  0.18087177064E+04  0.18087177064E+04  0.50400001928E-02 0. -1.
        1   -1    0    0  501    0  0.00000000000E+00  0.00000000000E+00 -0.22069122234E+04  0.22069122234E+04  0.50400001928E-02 0.  1.
    10030    2    1    2    0    0  0.00000000000E+00  0.00000000000E+00 -0.39819451697E+03  0.40156299298E+04  0.39958384426E+04 0.  0.
        3    1    3    3  502    0 -0.18253647879E+04 -0.79006599156E+03 -0.38849911278E+03  0.20265962722E+04  0.10100000352E+00 0.  1.
       -3    1    3    3    0  502  0.18253647879E+04  0.79006599156E+03 -0.96954041841E+01  0.19890336576E+04  0.10100000352E+00 0. -1.
</event>
<event>
 5   0  0.1879500E-08  0.3999822E+04  0.7818609E-02  0.8004582E-01
       -1   -1    0    0    0  501  0.00000000000E+00  0.00000000000E+00  0.21046632374E+04  0.21046632374E+04  0.50400001928E-02 0.  1.
        1   -1    0    0  501    0  0.00000000000E+00  0.00000000000E+00 -0.19003727756E+04  0.19003727756E+04  0.50400001928E-02 0. -1.
    10030    2    1    2    0    0  0.00000000000E+00  0.00000000000E+00  0.20429046180E+03  0.40050360131E+04  0.39998223552E+04 0.  0.
        5    1    3    3  502    0  0.13891062475E+04 -0.11140559217E+04 -0.80947318308E+03  0.19560178137E+04  0.46999998093E+01 0. -1.
       -5    1    3    3    0  502 -0.13891062475E+04  0.11140559217E+04  0.10137636449E+04  0.20490181993E+04  0.46999998093E+01 0.  1.
</event>
<event>
 5   0  0.1879500E-08  0.4007225E+04  0.7818609E-02  0.8003091E-01
        1   -1    0    0  501    0  0.00000000000E+00  0.00000000000E+00  0.17600418939E+04  0.17600418939E+04  0.50400001928E-02 0.  1.
       -1   -1    0    0    0  501  0.00000000000E+00  0.00000000000E+00 -0.22808908121E+04  0.22808908121E+04  0.50400001928E-02 0. -1.
    10030    2    1    2    0    0  0.00000000000E+00  0.00000000000E+00 -0.52084891822E+03  0.40409327060E+04  0.40072251670E+04 0.  0.
        2    1    3    3  502    0 -0.58919429252E+03 -0.14005755106E+04 -0.15774354954E+04  0.21902201756E+04  0.25500000920E-02 0. -1.
       -2    1    3    3    0  502  0.58919429252E+03  0.14005755106E+04  0.10565865771E+04  0.18507125305E+04  0.25500000920E-02 0.  1.
</event>
<event>
 5   0  0.5846812E-08  0.3986754E+04  0.7818609E-02  0.8007224E-01
       -2   -1    0    0    0  501  0.00000000000E+00  0.00000000000E+00  0.17497866527E+04  0.17497866527E+04  0.25500000920E-02 0.  1.
        2   -1    0    0  501    0  0.00000000000E+00  0.00000000000E+00 -0.22708781619E+04  0.22708781619E+04  0.25500000920E-02 0. -1.
    10030    2    1    2    0    0  0.00000000000E+00  0.00000000000E+00 -0.52109150911E+03  0.40206648146E+04  0.39867542175E+04 0.  0.
        4    1    3    3  502    0  0.15771146678E+04 -0.11572185066E+04  0.12625972896E+03  0.19602011324E+04  0.12699999809E+01 0. -1.
       -4    1    3    3    0  502 -0.15771146678E+04  0.11572185066E+04 -0.64735123807E+03  0.20604636822E+04  0.12699999809E+01 0.  1.
</event>
<event>
 5   0  0.5846812E-08  0.3944672E+04  0.7818609E-02  0.8015802E-01
       -2   -1    0    0    0  501  0.00000000000E+00  0.00000000000E+00  0.17054648488E+04  0.17054648488E+04  0.25500000920E-02 0.  1.
        2   -1    0    0  501    0  0.00000000000E+00  0.00000000000E+00 -0.22809674180E+04  0.22809674180E+04  0.25500000920E-02 0. -1.
    10030    2    1    2    0    0  0.00000000000E+00  0.00000000000E+00 -0.57550256920E+03  0.39864322667E+04  0.39446722310E+04 0.  0.
        4    1    3    3  502    0 -0.75863866399E+03  0.36471943862E+03  0.15148231247E+04  0.17329869022E+04  0.12699999809E+01 0.  1.
       -4    1    3    3    0  502  0.75863866399E+03 -0.36471943862E+03 -0.20903256939E+04  0.22534453645E+04  0.12699999809E+01 0. -1.
</event>
<event>
 5   0  0.5846812E-08  0.4013109E+04  0.7818609E-02  0.8001907E-01
        2   -1    0    0  501    0  0.00000000000E+00  0.00000000000E+00  0.16535653841E+04  0.16535653841E+04  0.25500000920E-02 0.  1.
       -2   -1    0    0    0  501  0.00000000000E+00  0.00000000000E+00 -0.24348961430E+04  0.24348961430E+04  0.25500000920E-02 0. -1.
    10030    2    1    2    0    0  0.00000000000E+00  0.00000000000E+00 -0.78133075895E+03  0.40884615271E+04  0.40131085088E+04 0.  0.
        4    1    3    3  502    0 -0.11869755334E+04  0.78271449389E+03 -0.18331271109E+04  0.23198942893E+04  0.12699999809E+01 0. -1.
       -4    1    3    3    0  502  0.11869755334E+04 -0.78271449389E+03  0.10517963520E+04  0.17685672378E+04  0.12699999809E+01 0.  1.
</event>
<event>
 5   0  0.1879500E-08  0.4079114E+04  0.7818609E-02  0.7988774E-01
       -1   -1    0    0    0  501  0.00000000000E+00  0.00000000000E+00  0.25159080152E+04  0.25159080152E+04  0.50400001928E-02 0. -1.
        1   -1    0    0  501    0  0.00000000000E+00  0.00000000000E+00 -0.16533964733E+04  0.16533964733E+04  0.50400001928E-02 0.  1.
    10030    2    1    2    0    0  0.00000000000E+00  0.00000000000E+00  0.86251154187E+03  0.41693044885E+04  0.40791143350E+04 0.  0.
        4    1    3    3  502    0 -0.28102574661E+03 -0.17839208211E+04  0.14000754809E+04  0.22850737256E+04  0.12699999809E+01 0. -1.
       -4    1    3    3    0  502  0.28102574661E+03  0.17839208211E+04 -0.53756393907E+03  0.18842307629E+04  0.12699999809E+01 0.  1.
</event>
<event>
 5   0  0.1879500E-08  0.3882177E+04  0.7818609E-02  0.8028746E-01
       -1   -1    0    0    0  501  0.00000000000E+00  0.00000000000E+00  0.17510652937E+04  0.17510652937E+04  0.50400001928E-02 0. -1.
        1   -1    0    0  501    0  0.00000000000E+00  0.00000000000E+00 -0.21517332482E+04  0.21517332482E+04  0.50400001928E-02 0.  1.
    10030    2    1    2    0    0  0.00000000000E+00  0.00000000000E+00 -0.40066795457E+03  0.39027985419E+04  0.38821774366E+04 0.  0.
        4    1    3    3  502    0 -0.10532452324E+03 -0.88479326334E+02  0.17461587889E+04  0.17515690038E+04  0.12699999809E+01 0. -1.
       -4    1    3    3    0  502  0.10532452324E+03  0.88479326334E+02 -0.21468267434E+04  0.21512295381E+04  0.12699999809E+01 0.  1.
</event>
<event>
 5   0  0.5888700E-08  0.3998174E+04  0.7818609E-02  0.8004915E-01
       -2   -1    0    0    0  501  0.00000000000E+00  0.00000000000E+00  0.24131350289E+04  0.24131350289E+04  0.25500000920E-02 0. -1.
        2   -1    0    0  501    0  0.00000000000E+00  0.00000000000E+00 -0.16560815066E+04  0.16560815066E+04  0.25500000920E-02 0.  1.
    10030    2    1    2    0    0  0.00000000000E+00  0.00000000000E+00  0.75705352229E+03  0.40692165355E+04  0.39981737302E+04 0.  0.
        5    1    3    3  502    0 -0.82314428796E+03  0.13146693775E+03 -0.14707555693E+04  0.16905602944E+04  0.46999998093E+01 0.  1.
       -5    1    3    3    0  502  0.82314428796E+03 -0.13146693775E+03  0.22278090916E+04  0.23786562410E+04  0.46999998093E+01 0. -1.
</event>
<event>
 5   0  0.1879500E-08  0.3986179E+04  0.7818609E-02  0.8007340E-01
       -1   -1    0    0    0  501  0.00000000000E+00  0.00000000000E+00  0.16501051000E+04  0.16501051000E+04  0.50400001928E-02 0.  1.
        1   -1    0    0  501    0  0.00000000000E+00  0.00000000000E+00 -0.24073657648E+04  0.24073657648E+04  0.50400001928E-02 0. -1.
    10030    2    1    2    0    0  0.00000000000E+00  0.00000000000E+00 -0.75726066478E+03  0.40574708648E+04  0.39861793869E+04 0.  0.
        5    1    3    3  502    0  0.19590615548E+03 -0.67131352753E+03  0.15211208087E+04  0.16741779113E+04  0.46999998093E+01 0.  1.
       -5    1    3    3    0  502 -0.19590615548E+03  0.67131352753E+03 -0.22783814734E+04  0.23832929536E+04  0.46999998093E+01 0. -1.
</event>
<event>
 5   0  0.5951623E-08  0.4028151E+04  0.7818609E-02  0.7998892E-01
        2   -1    0    0  501    0  0.00000000000E+00  0.00000000000E+00  0.20660223992E+04  0.20660223992E+04  0.25500000920E-02 0. -1.
       -2   -1    0    0    0  501  0.00000000000E+00  0.00000000000E+00 -0.19634349285E+04  0.19634349285E+04  0.25500000920E-02 0.  1.
    10030    2    1    2    0    0  0.00000000000E+00  0.00000000000E+00  0.10258747072E+03  0.40294573277E+04  0.40281512095E+04 0.  0.
        2    1    3    3  502    0 -0.12193152479E+04  0.20120989113E+03  0.16421821484E+04  0.20552316907E+04  0.25500000920E-02 0. -1.
       -2    1    3    3    0  502  0.12193152479E+04 -0.20120989113E+03 -0.15395946777E+04  0.19742256370E+04  0.25500000920E-02 0.  1.
</event>
<event>
 5   0  0.1879500E-08  0.4013472E+04  0.7818609E-02  0.8001834E-01
       -1   -1    0    0    0  501  0.00000000000E+00  0.00000000000E+00  0.21359823731E+04  0.21359823731E+04  0.50400001928E-02 0. -1.
        1   -1    0    0  501    0  0.00000000000E+00  0.00000000000E+00 -0.18853099226E+04  0.18853099226E+04  0.50400001928E-02 0.  1.
    10030    2    1    2    0    0  0.00000000000E+00  0.00000000000E+00  0.25067245053E+03  0.40212922956E+04  0.40134716954E+04 0.  0.
        3    1    3    3  502    0 -0.17883031272E+03  0.28438908259E+03  0.21076077094E+04  0.21342136018E+04  0.10100000352E+00 0. -1.
       -3    1    3    3    0  502  0.17883031272E+03 -0.28438908259E+03 -0.18569352589E+04  0.18870786939E+04  0.10100000352E+00 0.  1.
</event>
<event>
 5   0  0.5945387E-08  0.4019409E+04  0.7818609E-02  0.8000643E-01
       -2   -1    0    0    0  501  0.00000000000E+00  0.00000000000E+00  0.13905716848E+04  0.13905716848E+04  0.25500000920E-02 0.  1.
        2   -1    0    0  501    0  0.00000000000E+00  0.00000000000E+00 -0.29044974246E+04  0.29044974246E+04  0.25500000920E-02 0. -1.
    10030    2    1    2    0    0  0.00000000000E+00  0.00000000000E+00 -0.15139257397E+04  0.42950691094E+04  0.40194088507E+04 0.  0.
        3    1    3    3  502    0  0.62040250919E+03 -0.22762438955E+02  0.12855377574E+04  0.14275940382E+04  0.10100000352E+00 0.  1.
       -3    1    3    3    0  502 -0.62040250919E+03  0.22762438955E+02 -0.27994634971E+04  0.28674750712E+04  0.10100000352E+00 0. -1.
</event>
<event>
 5   0  0.5846812E-08  0.4005818E+04  0.7818609E-02  0.8003374E-01
       -2   -1    0    0    0  501  0.00000000000E+00  0.00000000000E+00  0.19909965409E+04  0.19909965409E+04  0.25500000920E-02 0.  1.
        2   -1    0    0  501    0  0.00000000000E+00  0.00000000000E+00 -0.20148926168E+04  0.20148926168E+04  0.25500000920E-02 0. -1.
    10030    2    1    2    0    0  0.00000000000E+00  0.00000000000E+00 -0.23896075907E+02  0.40058891577E+04  0.40058178842E+04 0.  0.
        4    1    3    3  502    0 -0.15472219445E+04  0.43120860375E+03 -0.12085502957E+04  0.20100825942E+04  0.12699999809E+01 0. -1.
       -4    1    3    3    0  502  0.15472219445E+04 -0.43120860375E+03  0.11846542198E+04  0.19958065635E+04  0.12699999809E+01 0.  1.
</event>
<event>
 5   0  0.5846812E-08  0.3998697E+04  0.7818609E-02  0.8004809E-01
       -2   -1    0    0    0  501  0.00000000000E+00  0.00000000000E+00  0.23554298623E+04  0.23554298623E+04  0.25500000920E-02 0.  1.
        2   -1    0    0  501    0  0.00000000000E+00  0.00000000000E+00 -0.16970979623E+04  0.16970979623E+04  0.25500000920E-02 0. -1.
    10030    2    1    2    0    0  0.00000000000E+00  0.00000000000E+00  0.65833189998E+03  0.40525278246E+04  0.39986973978E+04 0.  0.
        4    1    3    3  502    0  0.88962472200E+03  0.81718059216E+03  0.19437789567E+04  0.22885572992E+04  0.12699999809E+01 0.  1.
       -4    1    3    3    0  502 -0.88962472200E+03 -0.81718059216E+03 -0.12854470567E+04  0.17639705255E+04  0.12699999809E+01 0. -1.
</event>
<event>
 5   0  0.1879500E-08  0.4016063E+04  0.7818609E-02  0.8001314E-01
       -1   -1    0    0    0  501  0.00000000000E+00  0.00000000000E+00  0.14379617962E+04  0.14379617962E+04  0.50400001928E-02 0.  1.
        1   -1    0    0  501    0  0.00000000000E+00  0.00000000000E+00 -0.28041009874E+04  0.28041009874E+04  0.50400001928E-02 0. -1.
    10030    2    1    2    0    0  0.00000000000E+00  0.00000000000E+00 -0.13661391912E+04  0.42420627835E+04  0.40160627945E+04 0.  0.
        2    1    3    3  502    0  0.16696997645E+03 -0.15353465556E+04  0.67251400728E+03  0.16844711659E+04  0.25500000920E-02 0.  1.
       -2    1    3    3    0  502 -0.16696997645E+03  0.15353465556E+04 -0.20386531985E+04  0.25575916176E+04  0.25500000920E-02 0. -1.
</event>
<event>
 5   0  0.6161563E-08  0.4042456E+04  0.7818609E-02  0.7996036E-01
       -2   -1    0    0    0  501  0.00000000000E+00  0.00000000000E+00  0.14050336109E+04  0.14050336109E+04  0.25500000920E-02 0.  1.
        2   -1    0    0  501    0  0.00000000000E+00  0.00000000000E+00 -0.29076619885E+04  0.29076619885E+04  0.25500000920E-02 0. -1.
    10030    2    1    2    0    0  0.00000000000E+00  0.00000000000E+00 -0.15026283776E+04  0.43126955994E+04  0.40424560964E+04 0.  0.
        1    1    3    3  502    0  0.30701711221E+03 -0.15248900782E+04  0.62563112055E+03  0.16765928417E+04  0.50400001928E-02 0.  1.
       -1    1    3    3    0  502 -0.30701711221E+03  0.15248900782E+04 -0.21282594981E+04  0.26361027577E+04  0.50400001928E-02 0. -1.
</event>
<event>
 5   0  0.1879500E-08  0.4017126E+04  0.7818609E-02  0.8001101E-01
        1   -1    0    0  501    0  0.00000000000E+00  0.00000000000E+00  0.17668062859E+04  0.17668062859E+04  0.50400001928E-02 0. -1.
       -1   -1    0    0    0  501  0.00000000000E+00  0.00000000000E+00 -0.22834001865E+04  0.22834001865E+04  0.50400001928E-02 0.  1.
    10030    2    1    2    0    0  0.00000000000E+00  0.00000000000E+00 -0.51659390059E+03  0.40502064723E+04  0.40171262378E+04 0.  0.
        1    1    3    3  502    0 -0.67086237562E+03  0.18318616764E+04  0.22371128358E+03  0.19636242683E+04  0.50400001928E-02 0. -1.
       -1    1    3    3    0  502  0.67086237562E+03 -0.18318616764E+04 -0.74030518417E+03  0.20865822041E+04  0.50400001928E-02 0.  1.
</event>
<event>
 5   0  0.1879500E-08  0.3996140E+04  0.7818609E-02  0.8005326E-01
       -3   -1    0    0    0  501  0.00000000000E+00  0.00000000000E+00  0.17591556517E+04  0.17591556546E+04  0.10100000352E+00 0. -1.
        3   -1    0    0  501    0  0.00000000000E+00  0.00000000000E+00 -0.22694323065E+04  0.22694323087E+04  0.10100000352E+00 0.  1.
    10030    2    1    2    0    0  0.00000000000E+00  0.00000000000E+00 -0.51027665477E+03  0.40285879633E+04  0.39961404773E+04 0.  0.
        1    1    3    3  502    0  0.14572483551E+04  0.14273953516E+03  0.11154364087E+04  0.18406916431E+04  0.50400001928E-02 0. -1.
       -1    1    3    3    0  502 -0.14572483551E+04 -0.14273953516E+03 -0.16257130634E+04  0.21878963202E+04  0.50400001928E-02 0.  1.
</event>
<event>
 5   0  0.6161563E-08  0.3983163E+04  0.7818609E-02  0.8007952E-01
       -2   -1    0    0    0  501  0.00000000000E+00  0.00000000000E+00  0.13947698908E+04  0.13947698908E+04  0.25500000920E-02 0. -1.
        2   -1    0    0  501    0  0.00000000000E+00  0.00000000000E+00 -0.28437639510E+04  0.28437639510E+04  0.25500000920E-02 0.  1.
    10030    2    1    2    0    0  0.00000000000E+00  0.00000000000E+00 -0.14489940602E+04  0.42385338418E+04  0.39831627309E+04 0.  0.
        1    1    3    3  502    0  0.92753274344E+02  0.18579609015E+04 -0.14812707640E+04  0.23779791752E+04  0.50400001928E-02 0.  1.
       -1    1    3    3    0  502 -0.92753274344E+02 -0.18579609015E+04  0.32276703732E+02  0.18605546665E+04  0.50400001928E-02 0. -1.
</event>
<event>
 5   0  0.1879500E-08  0.3997923E+04  0.7818609E-02  0.8004966E-01
        1   -1    0    0  501    0  0.00000000000E+00  0.00000000000E+00  0.13649504172E+04  0.13649504172E+04  0.50400001928E-02 0. -1.
       -1   -1    0    0    0  501  0.00000000000E+00  0.00000000000E+00 -0.29274673822E+04  0.29274673822E+04  0.50400001928E-02 0.  1.
    10030    2    1    2    0    0  0.00000000000E+00  0.00000000000E+00 -0.15625169650E+04  0.42924177994E+04  0.39979233733E+04 0.  0.
        5    1    3    3  502    0 -0.91121399490E+03 -0.59531575488E+03  0.10188834387E+04  0.14909249961E+04  0.46999998093E+01 0. -1.
       -5    1    3    3    0  502  0.91121399490E+03  0.59531575488E+03 -0.25814004037E+04  0.28014928032E+04  0.46999998093E+01 0.  1.
</event>
<event>
 5   0  0.1879500E-08  0.3995311E+04  0.7818609E-02  0.8005493E-01
       -1   -1    0    0    0  501  0.00000000000E+00  0.00000000000E+00  0.20654908387E+04  0.20654908387E+04  0.50400001928E-02 0. -1.
        1   -1    0    0  501    0  0.00000000000E+00  0.00000000000E+00 -0.19320475548E+04  0.19320475548E+04  0.50400001928E-02 0.  1.
    10030    2    1    2    0    0  0.00000000000E+00  0.00000000000E+00  0.13344328390E+03  0.39975383935E+04  0.39953105133E+04 0.  0.
        5    1    3    3  502    0  0.81342708233E+03  0.15513565362E+04 -0.89414386345E+03  0.19666941956E+04  0.46999998093E+01 0.  1.
       -5    1    3    3    0  502 -0.81342708233E+03 -0.15513565362E+04  0.10275871474E+04  0.20308441979E+04  0.46999998093E+01 0. -1.
</event>
<event>
 5   0  0.1879500E-08  0.3773610E+04  0.7818609E-02  0.8051842E-01
       -1   -1    0    0    0  501  0.00000000000E+00  0.00000000000E+00  0.18431128625E+04  0.18431128625E+04  0.50400001928E-02 0. -1.
        1   -1    0    0  501    0  0.00000000000E+00  0.00000000000E+00 -0.19315326680E+04  0.19315326680E+04  0.50400001928E-02 0.  1.
    10030    2    1    2    0    0  0.00000000000E+00  0.00000000000E+00 -0.88419805554E+02  0.37746455305E+04  0.37736097863E+04 0.  0.
        4    1    3    3  502    0  0.14381652993E+04 -0.12211929193E+04 -0.64203319506E+02  0.18877911043E+04  0.12699999809E+01 0.  1.
       -4    1    3    3    0  502 -0.14381652993E+04  0.12211929193E+04 -0.24216486048E+02  0.18868544262E+04  0.12699999809E+01 0. -1.
</event>
<event>
 5   0  0.5888700E-08  0.3996648E+04  0.7818609E-02  0.8005223E-01
        2   -1    0    0  501    0  0.00000000000E+00  0.00000000000E+00  0.20557186246E+04  0.20557186246E+04  0.25500000920E-02 0. -1.
       -2   -1    0    0    0  501  0.00000000000E+00  0.00000000000E+00 -0.19425320668E+04  0.19425320668E+04  0.25500000920E-02 0.  1.
    10030    2    1    2    0    0  0.00000000000E+00  0.00000000000E+00  0.11318655783E+03  0.39982506914E+04  0.39966482700E+04 0.  0.
        5    1    3    3  502    0 -0.10274615122E+04 -0.18875795615E+03  0.17607933962E+04  0.20473695805E+04  0.46999998093E+01 0. -1.
       -5    1    3    3    0  502  0.10274615122E+04  0.18875795615E+03 -0.16476068383E+04  0.19508811109E+04  0.46999998093E+01 0.  1.
</event>
<event>
 5   0  0.6161563E-08  0.4004810E+04  0.7818609E-02  0.8003577E-01
       -2   -1    0    0    0  501  0.00000000000E+00  0.00000000000E+00  0.18361790756E+04  0.18361790756E+04  0.25500000920E-02 0.  1.
        2   -1    0    0  501    0  0.00000000000E+00  0.00000000000E+00 -0.21836791318E+04  0.21836791318E+04  0.25500000920E-02 0. -1.
    10030    2    1    2    0    0  0.00000000000E+00  0.00000000000E+00 -0.34750005617E+03  0.40198582074E+04  0.40048100728E+04 0.  0.
        1    1    3    3  502    0 -0.41868696310E+01 -0.68357639046E+03 -0.20629303960E+04  0.21732409048E+04  0.50400001928E-02 0. -1.
       -1    1    3    3    0  502  0.41868696310E+01  0.68357639046E+03  0.17154303399E+04  0.18466173026E+04  0.50400001928E-02 0.  1.
</event>
<event>
 5   0  0.1879500E-08  0.3999357E+04  0.7818609E-02  0.8004676E-01
        1   -1    0    0  501    0  0.00000000000E+00  0.00000000000E+00  0.21325022432E+04  0.21325022432E+04  0.50400001928E-02 0.  1.
       -1   -1    0    0    0  501  0.00000000000E+00  0.00000000000E+00 -0.18751278421E+04  0.18751278421E+04  0.50400001928E-02 0. -1.
    10030    2    1    2    0    0  0.00000000000E+00  0.00000000000E+00  0.25737440109E+03  0.40076300853E+04  0.39993571131E+04 0.  0.
        2    1    3    3  502    0 -0.13948870395E+04 -0.14047165012E+04 -0.15434356592E+03  0.19856384963E+04  0.25500000920E-02 0. -1.
       -2    1    3    3    0  502  0.13948870395E+04  0.14047165012E+04  0.41171796701E+03  0.20219915890E+04  0.25500000920E-02 0.  1.
</event>
<event>
 5   0  0.1879500E-08  0.4004495E+04  0.7818609E-02  0.8003640E-01
        1   -1    0    0  501    0  0.00000000000E+00  0.00000000000E+00  0.15466491471E+04  0.15466491471E+04  0.50400001928E-02 0.  1.
       -1   -1    0    0    0  501  0.00000000000E+00  0.00000000000E+00 -0.25920523982E+04  0.25920523982E+04  0.50400001928E-02 0. -1.
    10030    2    1    2    0    0  0.00000000000E+00  0.00000000000E+00 -0.10454032511E+04  0.41387015453E+04  0.40044952895E+04 0.  0.
        5    1    3    3  502    0 -0.25446386616E+03  0.19742002976E+04 -0.29922622035E+03  0.20129026542E+04  0.46999998093E+01 0.  1.
       -5    1    3    3    0  502  0.25446386616E+03 -0.19742002976E+04 -0.74617703078E+03  0.21257988911E+04  0.46999998093E+01 0. -1.
</event>
<event>
 5   0  0.5945387E-08  0.4003574E+04  0.7818609E-02  0.8003826E-01
        2   -1    0    0  501    0  0.00000000000E+00  0.00000000000E+00  0.15911220719E+04  0.15911220719E+04  0.25500000920E-02 0.  1.
       -2   -1    0    0    0  501  0.00000000000E+00  0.00000000000E+00 -0.25184432166E+04  0.25184432166E+04  0.25500000920E-02 0. -1.
    10030    2    1    2    0    0  0.00000000000E+00  0.00000000000E+00 -0.92732114475E+03  0.41095652885E+04  0.40035736979E+04 0.  0.
        3    1    3    3  502    0 -0.16083557056E+04  0.56832895553E+03 -0.15389356809E+04  0.22974178805E+04  0.10100000352E+00 0. -1.
       -3    1    3    3    0  502  0.16083557056E+04 -0.56832895553E+03  0.61161453614E+03  0.18121474080E+04  0.10100000352E+00 0.  1.
</event>
<event>
 5   0  0.6161563E-08  0.4010450E+04  0.7818609E-02  0.8002442E-01
       -2   -1    0    0    0  501  0.00000000000E+00  0.00000000000E+00  0.30107592376E+04  0.30107592376E+04  0.25500000920E-02 0. -1.
        2   -1    0    0  501    0  0.00000000000E+00  0.00000000000E+00 -0.13355196836E+04  0.13355196836E+04  0.25500000920E-02 0.  1.
    10030    2    1    2    0    0  0.00000000000E+00  0.00000000000E+00  0.16752395541E+04  0.43462789212E+04  0.40104504606E+04 0.  0.
        1    1    3    3  502    0  0.99113156638E+02 -0.18491808207E+04  0.40318752279E+01  0.18518394589E+04  0.50400001928E-02 0.  1.
       -1    1    3    3    0  502 -0.99113156638E+02  0.18491808207E+04  0.16712076788E+04  0.24944394623E+04  0.50400001928E-02 0. -1.
</event>
<event>
 5   0  0.1879500E-08  0.3995168E+04  0.7818609E-02  0.8005522E-01
       -1   -1    0    0    0  501  0.00000000000E+00  0.00000000000E+00  0.12949830071E+04  0.12949830071E+04  0.50400001928E-02 0. -1.
        1   -1    0    0  501    0  0.00000000000E+00  0.00000000000E+00 -0.30813859628E+04  0.30813859628E+04  0.50400001928E-02 0.  1.
    10030    2    1    2    0    0  0.00000000000E+00  0.00000000000E+00 -0.17864029556E+04  0.43763689699E+04  0.39951683120E+04 0.  0.
        2    1    3    3  502    0  0.16245728200E+04  0.13318598290E+03 -0.21580942714E+04  0.27045048045E+04  0.25500000920E-02 0.  1.
       -2    1    3    3    0  502 -0.16245728200E+04 -0.13318598290E+03  0.37169131575E+03  0.16718641654E+04  0.25500000920E-02 0. -1.
</event>
<event>
 5   0  0.1879500E-08  0.3986791E+04  0.7818609E-02  0.8007216E-01
       -1   -1    0    0    0  501  0.00000000000E+00  0.00000000000E+00  0.19522820526E+04  0.19522820526E+04  0.50400001928E-02 0.  1.
        1   -1    0    0  501    0  0.00000000000E+00  0.00000000000E+00 -0.20353752146E+04  0.20353752146E+04  0.50400001928E-02 0. -1.
    10030    2    1    2    0    0  0.00000000000E+00  0.00000000000E+00 -0.83093161981E+02  0.39876572672E+04  0.39867914427E+04 0.  0.
        5    1    3    3  502    0  0.71306441879E+03  0.16431070779E+04  0.83348206829E+03  0.19755951465E+04  0.46999998093E+01 0.  1.
       -5    1    3    3    0  502 -0.71306441879E+03 -0.16431070779E+04 -0.91657523027E+03  0.20120621207E+04  0.46999998093E+01 0. -1.
</event>
<event>
 5   0  0.1879500E-08  0.3934987E+04  0.7818609E-02  0.8017792E-01
        1   -1    0    0  501    0  0.00000000000E+00  0.00000000000E+00  0.22113461589E+04  0.22113461589E+04  0.50400001928E-02 0.  1.
       -1   -1    0    0    0  501  0.00000000000E+00  0.00000000000E+00 -0.17505310486E+04  0.17505310486E+04  0.50400001928E-02 0. -1.
    10030    2    1    2    0    0  0.00000000000E+00  0.00000000000E+00  0.46081511035E+03  0.39618772075E+04  0.39349867143E+04 0.  0.
        2    1    3    3  502    0  0.57958352693E+03  0.75405853263E+03 -0.15037180841E+04  0.17792384359E+04  0.25500000920E-02 0. -1.
       -2    1    3    3    0  502 -0.57958352693E+03 -0.75405853263E+03  0.19645331945E+04  0.21826387716E+04  0.25500000920E-02 0.  1.
</event>
<event>
 5   0  0.1879500E-08  0.3999974E+04  0.7818609E-02  0.8004552E-01
       -3   -1    0    0    0  501  0.00000000000E+00  0.00000000000E+00  0.20794954441E+04  0.20794954466E+04  0.10100000352E+00 0.  1.
        3   -1    0    0  501    0  0.00000000000E+00  0.00000000000E+00 -0.19235189844E+04  0.19235189870E+04  0.10100000352E+00 0. -1.
    10030    2    1    2    0    0  0.00000000000E+00  0.00000000000E+00  0.15597645975E+03  0.40030144336E+04  0.39999744874E+04 0.  0.
        4    1    3    3  502    0  0.87858494538E+03 -0.10737724925E+04  0.15195858598E+04  0.20576787092E+04  0.12699999809E+01 0.  1.
       -4    1    3    3    0  502 -0.87858494538E+03  0.10737724925E+04 -0.13636094000E+04  0.19453357244E+04  0.12699999809E+01 0. -1.
</event>
<event>
 5   0  0.1879500E-08  0.4002592E+04  0.7818609E-02  0.8004024E-01
       -1   -1    0    0    0  501  0.00000000000E+00  0.00000000000E+00  0.20489435245E+04  0.20489435246E+04  0.50400001928E-02 0.  1.
        1   -1    0    0  501    0  0.00000000000E+00  0.00000000000E+00 -0.19547560456E+04  0.19547560456E+04  0.50400001928E-02 0. -1.
    10030    2    1    2    0    0  0.00000000000E+00  0.00000000000E+00  0.94187478936E+02  0.40036995702E+04  0.40025915314E+04 0.  0.
        2    1    3    3  502    0  0.72223637372E+03 -0.16179531120E+04 -0.88364065236E+03  0.19799541547E+04  0.25500000920E-02 0. -1.
       -2    1    3    3    0  502 -0.72223637372E+03  0.16179531120E+04  0.97782813130E+03  0.20237454155E+04  0.25500000920E-02 0.  1.
</event>
<event>
 5   0  0.5945387E-08  0.3997870E+04  0.7818609E-02  0.8004976E-01
       -2   -1    0    0    0  501  0.00000000000E+00  0.00000000000E+00  0.22076046958E+04  0.22076046958E+04  0.25500000920E-02 0.  1.
        2   -1    0    0  501    0  0.00000000000E+00  0.00000000000E+00 -0.18099897631E+04  0.18099897631E+04  0.25500000920E-02 0. -1.
    10030    2    1    2    0    0  0.00000000000E+00  0.00000000000E+00  0.39761493270E+03  0.40175944589E+04  0.39978703832E+04 0.  0.
        3    1    3    3  502    0  0.14230124996E+04  0.80556337813E+03 -0.95657998546E+03  0.18944503712E+04  0.10100000352E+00 0. -1.
       -3    1    3    3    0  502 -0.14230124996E+04 -0.80556337813E+03  0.13541949182E+04  0.21231440876E+04  0.10100000352E+00 0.  1.
</event>
<event>
 5   0  0.5951623E-08  0.4003123E+04  0.7818609E-02  0.8003917E-01
        2   -1    0    0  501    0  0.00000000000E+00  0.00000000000E+00  0.20401520172E+04  0.20401520172E+04  0.25500000920E-02 0.  1.
       -2   -1    0    0    0  501  0.00000000000E+00  0.00000000000E+00 -0.19637008418E+04  0.19637008418E+04  0.25500000920E-02 0. -1.
    10030    2    1    2    0    0  0.00000000000E+00  0.00000000000E+00  0.76451175423E+02  0.40038528591E+04  0.40031228978E+04 0.  0.
        2    1    3    3  502    0 -0.99017269530E+03  0.16005105221E+04 -0.64320058808E+03  0.19889150043E+04  0.25500000920E-02 0. -1.
       -2    1    3    3    0  502  0.99017269530E+03 -0.16005105221E+04  0.71965176351E+03  0.20149378548E+04  0.25500000920E-02 0.  1.
</event>
<event>
 5   0  0.6161563E-08  0.3984597E+04  0.7818609E-02  0.8007661E-01
        2   -1    0    0  501    0  0.00000000000E+00  0.00000000000E+00  0.17935169627E+04  0.17935169627E+04  0.25500000920E-02 0. -1.
       -2   -1    0    0    0  501  0.00000000000E+00  0.00000000000E+00 -0.22131115920E+04  0.22131115921E+04  0.25500000920E-02 0.  1.
    10030    2    1    2    0    0  0.00000000000E+00  0.00000000000E+00 -0.41959462936E+03  0.40066285547E+04  0.39845969335E+04 0.  0.
        1    1    3    3  502    0  0.99504535839E+03  0.76796834627E+03  0.13445057749E+04  0.18405397102E+04  0.50400001928E-02 0. -1.
       -1    1    3    3    0  502 -0.99504535839E+03 -0.76796834627E+03 -0.17641004042E+04  0.21660888445E+04  0.50400001928E-02 0.  1.
</event>
<event>
 5   0  0.1879500E-08  0.3998490E+04  0.7818609E-02  0.8004851E-01
        1   -1    0    0  501    0  0.00000000000E+00  0.00000000000E+00  0.24182752400E+04  0.24182752400E+04  0.50400001928E-02 0. -1.
       -1   -1    0    0    0  501  0.00000000000E+00  0.00000000000E+00 -0.16528225457E+04  0.16528225457E+04  0.50400001928E-02 0.  1.
    10030    2    1    2    0    0  0.00000000000E+00  0.00000000000E+00  0.76545269425E+03  0.40710977857E+04  0.39984896340E+04 0.  0.
        2    1    3    3  502    0 -0.47297322270E+02  0.37131489683E+03  0.23822794858E+04  0.24115072750E+04  0.25500000920E-02 0. -1.
       -2    1    3    3    0  502  0.47297322270E+02 -0.37131489683E+03 -0.16168267915E+04  0.16595905106E+04  0.25500000920E-02 0.  1.
</event>
<event>
 5   0  0.5846812E-08  0.3986188E+04  0.7818609E-02  0.8007339E-01
       -2   -1    0    0    0  501  0.00000000000E+00  0.00000000000E+00  0.18624514437E+04  0.18624514437E+04  0.25500000920E-02 0. -1.
        2   -1    0    0  501    0  0.00000000000E+00  0.00000000000E+00 -0.21329008183E+04  0.21329008183E+04  0.25500000920E-02 0.  1.
    10030    2    1    2    0    0  0.00000000000E+00  0.00000000000E+00 -0.27044937466E+03  0.39953522620E+04  0.39861882586E+04 0.  0.
        4    1    3    3  502    0 -0.17979657455E+04  0.61683482838E+03  0.46553340403E+03  0.19570102173E+04  0.12699999809E+01 0. -1.
       -4    1    3    3    0  502  0.17979657455E+04 -0.61683482838E+03 -0.73598277868E+03  0.20383420447E+04  0.12699999809E+01 0.  1.
</event>
<event>
 5   0  0.1879500E-08  0.4004582E+04  0.7818609E-02  0.8003623E-01
       -1   -1    0    0    0  501  0.00000000000E+00  0.00000000000E+00  0.16816994678E+04  0.16816994678E+04  0.50400001928E-02 0.  1.
        1   -1    0    0  501    0  0.00000000000E+00  0.00000000000E+00 -0.23839983689E+04  0.23839983689E+04  0.50400001928E-02 0. -1.
    10030    2    1    2    0    0  0.00000000000E+00  0.00000000000E+00 -0.70229890110E+03  0.40656978367E+04  0.40045817700E+04 0.  0.
        1    1    3    3  502    0 -0.15982594317E+04 -0.41225331556E+03  0.79963182379E+03  0.18340657188E+04  0.50400001928E-02 0.  1.
       -1    1    3    3    0  502  0.15982594317E+04  0.41225331556E+03 -0.15019307249E+04  0.22316321179E+04  0.50400001928E-02 0. -1.
</event>
<event>
 5   0  0.1879500E-08  0.4005454E+04  0.7818609E-02  0.8003447E-01
        1   -1    0    0  501    0  0.00000000000E+00  0.00000000000E+00  0.17333451824E+04  0.17333451824E+04  0.50400001928E-02 0.  1.
       -1   -1    0    0    0  501  0.00000000000E+00  0.00000000000E+00 -0.23139742894E+04  0.23139742894E+04  0.50400001928E-02 0. -1.
    10030    2    1    2    0    0  0.00000000000E+00  0.00000000000E+00 -0.58062910706E+03  0.40473194718E+04  0.40054543746E+04 0.  0.
        4    1    3    3  502    0 -0.14058573596E+04  0.91647862635E+02 -0.17285964934E+04  0.22299958960E+04  0.12699999809E+01 0. -1.
       -4    1    3    3    0  502  0.14058573596E+04 -0.91647862635E+02  0.11479673863E+04  0.18173235758E+04  0.12699999809E+01 0.  1.
</event>
<event>
 5   0  0.5945387E-08  0.3917593E+04  0.7818609E-02  0.8021380E-01
       -2   -1    0    0    0  501  0.00000000000E+00  0.00000000000E+00  0.11815192524E+04  0.11815192524E+04  0.25500000920E-02 0.  1.
        2   -1    0    0  501    0  0.00000000000E+00  0.00000000000E+00 -0.32474145073E+04  0.32474145073E+04  0.25500000920E-02 0. -1.
    10030    2    1    2    0    0  0.00000000000E+00  0.00000000000E+00 -0.20658952550E+04  0.44289337597E+04  0.39175925060E+04 0.  0.
        3    1    3    3  502    0 -0.54683247820E+03  0.17521736728E+04 -0.25976118824E+03  0.18538107304E+04  0.10100000352E+00 0.  1.
       -3    1    3    3    0  502  0.54683247820E+03 -0.17521736728E+04 -0.18061340667E+04  0.25751230293E+04  0.10100000352E+00 0. -1.
</event>
<event>
 5   0  0.1879500E-08  0.3995713E+04  0.7818609E-02  0.8005412E-01
        1   -1    0    0  501    0  0.00000000000E+00  0.00000000000E+00  0.19429054604E+04  0.19429054604E+04  0.50400001928E-02 0. -1.
       -1   -1    0    0    0  501  0.00000000000E+00  0.00000000000E+00 -0.20543618467E+04  0.20543618467E+04  0.50400001928E-02 0.  1.
    10030    2    1    2    0    0  0.00000000000E+00  0.00000000000E+00 -0.11145638623E+03  0.39972673071E+04  0.39957131276E+04 0.  0.
        5    1    3    3  502    0 -0.13614507086E+04 -0.14500754171E+04 -0.24326313773E+03  0.20038627177E+04  0.46999998093E+01 0.  1.
       -5    1    3    3    0  502  0.13614507086E+04  0.14500754171E+04  0.13180675150E+03  0.19934045894E+04  0.46999998093E+01 0. -1.
</event>
<event>
 5   0  0.5945387E-08  0.3964269E+04  0.7818609E-02  0.8011794E-01
        2   -1    0    0  501    0  0.00000000000E+00  0.00000000000E+00  0.21991110223E+04  0.21991110223E+04  0.25500000920E-02 0.  1.
       -2   -1    0    0    0  501  0.00000000000E+00  0.00000000000E+00 -0.17865657849E+04  0.17865657849E+04  0.25500000920E-02 0. -1.
    10030    2    1    2    0    0  0.00000000000E+00  0.00000000000E+00  0.41254523734E+03  0.39856768072E+04  0.39642686638E+04 0.  0.
        3    1    3    3  502    0  0.19495617658E+04  0.20552121253E+03 -0.88270973666E+02  0.19623510956E+04  0.10100000352E+00 0. -1.
       -3    1    3    3    0  502 -0.19495617658E+04 -0.20552121253E+03  0.50081621101E+03  0.20233257115E+04  0.10100000352E+00 0.  1.
</event>
<event>
 5   0  0.1879500E-08  0.4056043E+04  0.7818609E-02  0.7993335E-01
        1   -1    0    0  501    0  0.00000000000E+00  0.00000000000E+00  0.15280548316E+04  0.15280548316E+04  0.50400001928E-02 0. -1.
       -1   -1    0    0    0  501  0.00000000000E+00  0.00000000000E+00 -0.26915736754E+04  0.26915736754E+04  0.50400001928E-02 0.  1.
    10030    2    1    2    0    0  0.00000000000E+00  0.00000000000E+00 -0.11635188439E+04  0.42196285070E+04  0.40560434708E+04 0.  0.
        4    1    3    3  502    0 -0.89141946922E+03 -0.16499537380E+04 -0.13848348158E+04  0.23312539732E+04  0.12699999809E+01 0.  1.
       -4    1    3    3    0  502  0.89141946922E+03  0.16499537380E+04  0.22131597191E+03  0.18883745338E+04  0.12699999809E+01 0. -1.
</event>
<event>
 5   0  0.1879500E-08  0.3994965E+04  0.7818609E-02  0.8005563E-01
        3   -1    0    0  501    0  0.00000000000E+00  0.00000000000E+00  0.24689366372E+04  0.24689366392E+04  0.10100000352E+00 0. -1.
       -3   -1    0    0    0  501  0.00000000000E+00  0.00000000000E+00 -0.16160548104E+04  0.16160548135E+04  0.10100000352E+00 0.  1.
    10030    2    1    2    0    0  0.00000000000E+00  0.00000000000E+00  0.85288182681E+03  0.40849914528E+04  0.39949653013E+04 0.  0.
        4    1    3    3  502    0 -0.14999261009E+04 -0.11790558868E+04  0.10313670947E+04  0.21687947781E+04  0.12699999809E+01 0. -1.
       -4    1    3    3    0  502  0.14999261009E+04  0.11790558868E+04 -0.17848526786E+03  0.19161966747E+04  0.12699999809E+01 0.  1.
</event>
<event>
 5   0  0.5888700E-08  0.3923968E+04  0.7818609E-02  0.8020063E-01
        2   -1    0    0  501    0  0.00000000000E+00  0.00000000000E+00  0.18312926195E+04  0.18312926195E+04  0.25500000920E-02 0. -1.
       -2   -1    0    0    0  501  0.00000000000E+00  0.00000000000E+00 -0.21020020842E+04  0.21020020842E+04  0.25500000920E-02 0.  1.
    10030    2    1    2    0    0  0.00000000000E+00  0.00000000000E+00 -0.27070946471E+03  0.39332947038E+04  0.39239678404E+04 0.  0.
        5    1    3    3  502    0 -0.60098181151E+03  0.13356301234E+04  0.11732258847E+04  0.18765841390E+04  0.46999998093E+01 0. -1.
       -5    1    3    3    0  502  0.60098181151E+03 -0.13356301234E+04 -0.14439353494E+04  0.20567105648E+04  0.46999998093E+01 0.  1.
</event>
<event>
 5   0  0.1879500E-08  0.4001160E+04  0.7818609E-02  0.8004313E-01
       -1   -1    0    0    0  501  0.00000000000E+00  0.00000000000E+00  0.19264155255E+04  0.19264155255E+04  0.50400001928E-02 0. -1.
        1   -1    0    0  501    0  0.00000000000E+00  0.00000000000E+00 -0.20775992869E+04  0.20775992869E+04  0.50400001928E-02 0.  1.
    10030    2    1    2    0    0  0.00000000000E+00  0.00000000000E+00 -0.15118376138E+03  0.40040148124E+04  0.40011595929E+04 0.  0.
        1    1    3    3  502    0  0.42862620229E+03  0.17101046736E+04 -0.10218569999E+04  0.20377365248E+04  0.50400001928E-02 0.  1.
       -1    1    3    3    0  502 -0.42862620229E+03 -0.17101046736E+04  0.87067323850E+03  0.19662782876E+04  0.50400001928E-02 0. -1.
</event>
<event>
 5   0  0.5888700E-08  0.3913148E+04  0.7818609E-02  0.8022300E-01
        2   -1    0    0  501    0  0.00000000000E+00  0.00000000000E+00  0.16389475965E+04  0.16389475965E+04  0.25500000920E-02 0. -1.
       -2   -1    0    0    0  501  0.00000000000E+00  0.00000000000E+00 -0.23357563523E+04  0.23357563523E+04  0.25500000920E-02 0.  1.
    10030    2    1    2    0    0  0.00000000000E+00  0.00000000000E+00 -0.69680875584E+03  0.39747039488E+04  0.39131482259E+04 0.  0.
        5    1    3    3  502    0 -0.53004706686E+03  0.12827812595E+04 -0.17491120078E+04  0.22329112295E+04  0.46999998093E+01 0.  1.
       -5    1    3    3    0  502  0.53004706686E+03 -0.12827812595E+04  0.10523032520E+04  0.17417927193E+04  0.46999998093E+01 0. -1.
</event>
<event>
 5   0  0.1879500E-08  0.4016513E+04  0.7818609E-02  0.8001224E-01
       -1   -1    0    0    0  501  0.00000000000E+00  0.00000000000E+00  0.24062885806E+04  0.24062885806E+04  0.50400001928E-02 0. -1.
        1   -1    0    0  501    0  0.00000000000E+00  0.00000000000E+00 -0.16760640824E+04  0.16760640824E+04  0.50400001928E-02 0.  1.
    10030    2    1    2    0    0  0.00000000000E+00  0.00000000000E+00  0.73022449822E+03  0.40823526631E+04  0.40165128467E+04 0.  0.
        2    1    3    3  502    0 -0.24102025220E+03 -0.26095318721E+03 -0.16438781900E+04  0.16818212840E+04  0.25500000920E-02 0.  1.
       -2    1    3    3    0  502  0.24102025220E+03  0.26095318721E+03  0.23741026882E+04  0.24005313791E+04  0.25500000920E-02 0. -1.
</event>
<event>
 5   0  0.1879500E-08  0.4002154E+04  0.7818609E-02  0.8004112E-01
       -1   -1    0    0    0  501  0.00000000000E+00  0.00000000000E+00  0.13656730625E+04  0.13656730625E+04  0.50400001928E-02 0.  1.
        1   -1    0    0  501    0  0.00000000000E+00  0.00000000000E+00 -0.29321140715E+04  0.29321140715E+04  0.50400001928E-02 0. -1.
    10030    2    1    2    0    0  0.00000000000E+00  0.00000000000E+00 -0.15664410090E+04  0.42977871341E+04  0.40021540219E+04 0.  0.
        3    1    3    3  502    0  0.55420822630E+02 -0.89590705026E+03 -0.27037910943E+04  0.28488957865E+04  0.10100000352E+00 0. -1.
       -3    1    3    3    0  502 -0.55420822630E+02  0.89590705026E+03  0.11373500853E+04  0.14488913476E+04  0.10100000352E+00 0.  1.
</event>
<event>
 5   0  0.1879500E-08  0.4004418E+04  0.7818609E-02  0.8003656E-01
       -1   -1    0    0    0  501  0.00000000000E+00  0.00000000000E+00  0.18356751525E+04  0.18356751525E+04  0.50400001928E-02 0. -1.
        1   -1    0    0  501    0  0.00000000000E+00  0.00000000000E+00 -0.21838511928E+04  0.21838511928E+04  0.50400001928E-02 0.  1.
    10030    2    1    2    0    0  0.00000000000E+00  0.00000000000E+00 -0.34817604035E+03  0.40195263453E+04  0.40044182456E+04 0.  0.
        5    1    3    3  502    0  0.12293675578E+04  0.90612832458E+03 -0.14737340084E+04  0.21223400176E+04  0.46999998093E+01 0.  1.
       -5    1    3    3    0  502 -0.12293675578E+04 -0.90612832458E+03  0.11255579681E+04  0.18971863277E+04  0.46999998093E+01 0. -1.
</event>
<event>
 5   0  0.5951623E-08  0.3998149E+04  0.7818609E-02  0.8004920E-01
       -2   -1    0    0    0  501  0.00000000000E+00  0.00000000000E+00  0.18790995444E+04  0.18790995444E+04  0.25500000920E-02 0. -1.
        2   -1    0    0  501    0  0.00000000000E+00  0.00000000000E+00 -0.21267091125E+04  0.21267091125E+04  0.25500000920E-02 0.  1.
    10030    2    1    2    0    0  0.00000000000E+00  0.00000000000E+00 -0.24760956813E+03  0.40058086569E+04  0.39981486337E+04 0.  0.
        2    1    3    3  502    0  0.82657678052E+03 -0.16650889703E+04 -0.86043285694E+03  0.20484372469E+04  0.25500000920E-02 0.  1.
       -2    1    3    3    0  502 -0.82657678052E+03  0.16650889703E+04  0.61282328880E+03  0.19573714100E+04  0.25500000920E-02 0. -1.
</event>
<event>
 5   0  0.6161563E-08  0.3999666E+04  0.7818609E-02  0.8004614E-01
       -2   -1    0    0    0  501  0.00000000000E+00  0.00000000000E+00  0.24117409663E+04  0.24117409663E+04  0.25500000920E-02 0.  1.
        2   -1    0    0  501    0  0.00000000000E+00  0.00000000000E+00 -0.16582762744E+04  0.16582762744E+04  0.25500000920E-02 0. -1.
    10030    2    1    2    0    0  0.00000000000E+00  0.00000000000E+00  0.75346469189E+03  0.40700172406E+04  0.39996663982E+04 0.  0.
        1    1    3    3  502    0 -0.13586126055E+04  0.48892635222E+03  0.17847079591E+04  0.22956610571E+04  0.50400001928E-02 0.  1.
       -1    1    3    3    0  502  0.13586126055E+04 -0.48892635222E+03 -0.10312432672E+04  0.17743561835E+04  0.50400001928E-02 0. -1.
</event>
<event>
 5   0  0.1879500E-08  0.4014515E+04  0.7818609E-02  0.8001625E-01
        1   -1    0    0  501    0  0.00000000000E+00  0.00000000000E+00  0.27553065880E+04  0.27553065880E+04  0.50400001928E-02 0. -1.
       -1   -1    0    0    0  501  0.00000000000E+00  0.00000000000E+00 -0.14622990222E+04  0.14622990223E+04  0.50400001928E-02 0.  1.
    10030    2    1    2    0    0  0.00000000000E+00  0.00000000000E+00  0.12930075658E+04  0.42176056102E+04  0.40145147301E+04 0.  0.
        1    1    3    3  502    0  0.49509270355E+03  0.12822997147E+04 -0.89025814271E+03  0.16376717938E+04  0.50400001928E-02 0.  1.
       -1    1    3    3    0  502 -0.49509270355E+03 -0.12822997147E+04  0.21832657085E+04  0.25799338165E+04  0.50400001928E-02 0. -1.
</event>
<event>
 5   0  0.1879500E-08  0.3793879E+04  0.7818609E-02  0.8047470E-01
        1   -1    0    0  501    0  0.00000000000E+00  0.00000000000E+00  0.13589088979E+04  0.13589088979E+04  0.50400001928E-02 0.  1.
       -1   -1    0    0    0  501  0.00000000000E+00  0.00000000000E+00 -0.26479921845E+04  0.26479921845E+04  0.50400001928E-02 0. -1.
    10030    2    1    2    0    0  0.00000000000E+00  0.00000000000E+00 -0.12890832866E+04  0.40069010824E+04  0.37938793555E+04 0.  0.
        3    1    3    3  502    0 -0.12578294566E+03 -0.15134596296E+04  0.55594172720E+03  0.16172361034E+04  0.10100000352E+00 0.  1.
       -3    1    3    3    0  502  0.12578294566E+03  0.15134596296E+04 -0.18450250138E+04  0.23896649790E+04  0.10100000352E+00 0. -1.
</event>
<event>
 5   0  0.1879500E-08  0.3995829E+04  0.7818609E-02  0.8005389E-01
       -1   -1    0    0    0  501  0.00000000000E+00  0.00000000000E+00  0.18426709558E+04  0.18426709559E+04  0.50400001928E-02 0. -1.
        1   -1    0    0  501    0  0.00000000000E+00  0.00000000000E+00 -0.21662368661E+04  0.21662368661E+04  0.50400001928E-02 0.  1.
    10030    2    1    2    0    0  0.00000000000E+00  0.00000000000E+00 -0.32356591023E+03  0.40089078219E+04  0.39958287034E+04 0.  0.
        3    1    3    3  502    0 -0.59551714118E+03 -0.18792300071E+04  0.16411202504E+03  0.19781503613E+04  0.10100000352E+00 0. -1.
       -3    1    3    3    0  502  0.59551714118E+03  0.18792300071E+04 -0.48767793527E+03  0.20307574606E+04  0.10100000352E+00 0.  1.
</event>
<event>
 5   0  0.1879500E-08  0.3972476E+04  0.7818609E-02  0.8010122E-01
        1   -1    0    0  501    0  0.00000000000E+00  0.00000000000E+00  0.15523581838E+04  0.15523581838E+04  0.50400001928E-02 0.  1.
       -1   -1    0    0    0  501  0.00000000000E+00  0.00000000000E+00 -0.25413856966E+04  0.25413856966E+04  0.50400001928E-02 0. -1.
    10030    2    1    2    0    0  0.00000000000E+00  0.00000000000E+00 -0.98902751280E+03  0.40937438805E+04  0.39724757441E+04 0.  0.
        4    1    3    3  502    0 -0.91516918581E+03 -0.28785271549E+03  0.12977578716E+04  0.16138683127E+04  0.12699999809E+01 0.  1.
       -4    1    3    3    0  502  0.91516918581E+03  0.28785271549E+03 -0.22867853844E+04  0.24798755678E+04  0.12699999809E+01 0. -1.
</event>
<event>
 5   0  0.6161563E-08  0.3991134E+04  0.7818609E-02  0.8006337E-01
        2   -1    0    0  501    0  0.00000000000E+00  0.00000000000E+00  0.23916259801E+04  0.23916259801E+04  0.25500000920E-02 0. -1.
       -2   -1    0    0    0  501  0.00000000000E+00  0.00000000000E+00 -0.16650967214E+04  0.16650967214E+04  0.25500000920E-02 0.  1.
    10030    2    1    2    0    0  0.00000000000E+00  0.00000000000E+00  0.72652925876E+03  0.40567227015E+04  0.39911344644E+04 0.  0.
        1    1    3    3  502    0  0.11524985959E+04  0.12374826795E+04 -0.71370992798E+03  0.18354831127E+04  0.50400001928E-02 0.  1.
       -1    1    3    3    0  502 -0.11524985959E+04 -0.12374826795E+04  0.14402391867E+04  0.22212395888E+04  0.50400001928E-02 0. -1.
</event>
<event>
 5   0  0.5945387E-08  0.3998506E+04  0.7818609E-02  0.8004848E-01
       -2   -1    0    0    0  501  0.00000000000E+00  0.00000000000E+00  0.14283596735E+04  0.14283596735E+04  0.25500000920E-02 0.  1.
        2   -1    0    0  501    0  0.00000000000E+00  0.00000000000E+00 -0.27983234817E+04  0.27983234817E+04  0.25500000920E-02 0. -1.
    10030    2    1    2    0    0  0.00000000000E+00  0.00000000000E+00 -0.13699638082E+04  0.42266831552E+04  0.39985059283E+04 0.  0.
        3    1    3    3  502    0 -0.51603028289E+03  0.71445002311E+03 -0.25819026753E+04  0.27281765932E+04  0.10100000352E+00 0. -1.
       -3    1    3    3    0  502  0.51603028289E+03 -0.71445002311E+03  0.12119388672E+04  0.14985065620E+04  0.10100000352E+00 0.  1.
</event>
<event>
 5   0  0.1879500E-08  0.3930459E+04  0.7818609E-02  0.8018724E-01
       -1   -1    0    0    0  501  0.00000000000E+00  0.00000000000E+00  0.26692051570E+04  0.26692051570E+04  0.50400001928E-02 0. -1.
        1   -1    0    0  501    0  0.00000000000E+00  0.00000000000E+00 -0.14469198835E+04  0.14469198835E+04  0.50400001928E-02 0.  1.
    10030    2    1    2    0    0  0.00000000000E+00  0.00000000000E+00  0.12222852735E+04  0.41161250405E+04  0.39304585050E+04 0.  0.
        3    1    3    3  502    0 -0.90707827764E+03 -0.22804796071E+03 -0.11988919794E+04  0.15205718867E+04  0.10100000352E+00 0.  1.
       -3    1    3    3    0  502  0.90707827764E+03  0.22804796071E+03  0.24211772529E+04  0.25955531538E+04  0.10100000352E+00 0. -1.
</event>
<event>
 5   0  0.5846812E-08  0.3998616E+04  0.7818609E-02  0.8004826E-01
       -2   -1    0    0    0  501  0.00000000000E+00  0.00000000000E+00  0.24008706950E+04  0.24008706950E+04  0.25500000920E-02 0. -1.
        2   -1    0    0  501    0  0.00000000000E+00  0.00000000000E+00 -0.16649091460E+04  0.16649091460E+04  0.25500000920E-02 0.  1.
    10030    2    1    2    0    0  0.00000000000E+00  0.00000000000E+00  0.73596154902E+03  0.40657798410E+04  0.39986155496E+04 0.  0.
        4    1    3    3  502    0 -0.18484968752E+03 -0.25205380537E+03  0.23758725892E+04  0.23963456972E+04  0.12699999809E+01 0. -1.
       -4    1    3    3    0  502  0.18484968752E+03  0.25205380537E+03 -0.16399110401E+04  0.16694341437E+04  0.12699999809E+01 0.  1.
</event>
<event>
 5   0  0.1879500E-08  0.3997888E+04  0.7818609E-02  0.8004973E-01
        1   -1    0    0  501    0  0.00000000000E+00  0.00000000000E+00  0.14727587628E+04  0.14727587628E+04  0.50400001928E-02 0. -1.
       -1   -1    0    0    0  501  0.00000000000E+00  0.00000000000E+00 -0.27131242445E+04  0.27131242445E+04  0.50400001928E-02 0.  1.
    10030    2    1    2    0    0  0.00000000000E+00  0.00000000000E+00 -0.12403654817E+04  0.41858830074E+04  0.39978881954E+04 0.  0.
        3    1    3    3  502    0  0.84435610852E+03  0.15482923082E+03  0.12699392606E+04  0.15328584620E+04  0.10100000352E+00 0. -1.
       -3    1    3    3    0  502 -0.84435610852E+03 -0.15482923082E+03 -0.25103047423E+04  0.26530245453E+04  0.10100000352E+00 0.  1.
</event>
<event>
 5   0  0.1879500E-08  0.4001111E+04  0.7818609E-02  0.8004323E-01
        1   -1    0    0  501    0  0.00000000000E+00  0.00000000000E+00  0.19974607639E+04  0.19974607639E+04  0.50400001928E-02 0. -1.
       -1   -1    0    0    0  501  0.00000000000E+00  0.00000000000E+00 -0.20036546921E+04  0.20036546921E+04  0.50400001928E-02 0.  1.
    10030    2    1    2    0    0  0.00000000000E+00  0.00000000000E+00 -0.61939282670E+01  0.40011154560E+04  0.40011106617E+04 0.  0.
        5    1    3    3  502    0  0.83512747655E+03 -0.13952213823E+04  0.11622880319E+04  0.19987536533E+04  0.46999998093E+01 0. -1.
       -5    1    3    3    0  502 -0.83512747655E+03  0.13952213823E+04 -0.11684819601E+04  0.20023618027E+04  0.46999998093E+01 0.  1.
</event>
<event>
 5   0  0.5945387E-08  0.3990926E+04  0.7818609E-02  0.8006380E-01
        2   -1    0    0  501    0  0.00000000000E+00  0.00000000000E+00  0.25241004312E+04  0.25241004312E+04  0.25500000920E-02 0. -1.
       -2   -1    0    0    0  501  0.00000000000E+00  0.00000000000E+00 -0.15775409961E+04  0.15775409961E+04  0.25500000920E-02 0.  1.
    10030    2    1    2    0    0  0.00000000000E+00  0.00000000000E+00  0.94655943507E+03  0.41016414274E+04  0.39909256614E+04 0.  0.
        3    1    3    3  502    0 -0.69921850764E+03 -0.87072282392E+03  0.21728823897E+04  0.24430478193E+04  0.10100000352E+00 0. -1.
       -3    1    3    3    0  502  0.69921850764E+03  0.87072282392E+03 -0.12263229546E+04  0.16585936081E+04  0.10100000352E+00 0.  1.
</event>
<event>
 5   0  0.1879500E-08  0.4008205E+04  0.7818609E-02  0.8002893E-01
        1   -1    0    0  501    0  0.00000000000E+00  0.00000000000E+00  0.24649727353E+04  0.24649727353E+04  0.50400001928E-02 0.  1.
       -1   -1    0    0    0  501  0.00000000000E+00  0.00000000000E+00 -0.16293997449E+04  0.16293997449E+04  0.50400001928E-02 0. -1.
    10030    2    1    2    0    0  0.00000000000E+00  0.00000000000E+00  0.83557299036E+03  0.40943724802E+04  0.40082045587E+04 0.  0.
        4    1    3    3  502    0 -0.94866300658E+03 -0.14168142774E+04  0.14935649724E+04  0.22667293920E+04  0.12699999809E+01 0.  1.
       -4    1    3    3    0  502  0.94866300658E+03  0.14168142774E+04 -0.65799198206E+03  0.18276430882E+04  0.12699999809E+01 0. -1.
</event>
<event>
 5   0  0.1879500E-08  0.4004417E+04  0.7818609E-02  0.8003656E-01
        1   -1    0    0  501    0  0.00000000000E+00  0.00000000000E+00  0.23305050503E+04  0.23305050503E+04  0.50400001928E-02 0.  1.
       -1   -1    0    0    0  501  0.00000000000E+00  0.00000000000E+00 -0.17201592525E+04  0.17201592525E+04  0.50400001928E-02 0. -1.
    10030    2    1    2    0    0  0.00000000000E+00  0.00000000000E+00  0.61034579780E+03  0.40506643028E+04  0.40044174733E+04 0.  0.
        3    1    3    3  502    0 -0.68063313949E+02 -0.70387857413E+03  0.21999750534E+04  0.23108370578E+04  0.10100000352E+00 0.  1.
       -3    1    3    3    0  502  0.68063313949E+02  0.70387857413E+03 -0.15896292556E+04  0.17398272450E+04  0.10100000352E+00 0. -1.
</event>
<event>
 5   0  0.5951623E-08  0.3836297E+04  0.7818609E-02  0.8038410E-01
       -2   -1    0    0    0  501  0.00000000000E+00  0.00000000000E+00  0.28446248657E+04  0.28446248657E+04  0.25500000920E-02 0.  1.
        2   -1    0    0  501    0  0.00000000000E+00  0.00000000000E+00 -0.12934193099E+04  0.12934193099E+04  0.25500000920E-02 0. -1.
    10030    2    1    2    0    0  0.00000000000E+00  0.00000000000E+00  0.15512055558E+04  0.41380441756E+04  0.38362965113E+04 0.  0.
        2    1    3    3  502    0  0.10578654457E+04 -0.15246639586E+04  0.25202307293E+03  0.18727506821E+04  0.25500000920E-02 0. -1.
       -2    1    3    3    0  502 -0.10578654457E+04  0.15246639586E+04  0.12991824829E+04  0.22652934935E+04  0.25500000920E-02 0.  1.
</event>
<event>
 5   0  0.1879500E-08  0.4003240E+04  0.7818609E-02  0.8003893E-01
        1   -1    0    0  501    0  0.00000000000E+00  0.00000000000E+00  0.29537658774E+04  0.29537658774E+04  0.50400001928E-02 0. -1.
       -1   -1    0    0    0  501  0.00000000000E+00  0.00000000000E+00 -0.13563978985E+04  0.13563978985E+04  0.50400001928E-02 0.  1.
    10030    2    1    2    0    0  0.00000000000E+00  0.00000000000E+00  0.15973679789E+04  0.43101637759E+04  0.40032396025E+04 0.  0.
        1    1    3    3  502    0 -0.90149380290E+03  0.82036561361E+03 -0.91074320685E+03  0.15215597279E+04  0.50400001928E-02 0.  1.
       -1    1    3    3    0  502  0.90149380290E+03 -0.82036561361E+03  0.25081111858E+04  0.27886040481E+04  0.50400001928E-02 0. -1.
</event>
<event>
 5   0  0.6161563E-08  0.3994620E+04  0.7818609E-02  0.8005633E-01
        2   -1    0    0  501    0  0.00000000000E+00  0.00000000000E+00  0.27580054834E+04  0.27580054834E+04  0.25500000920E-02 0.  1.
       -2   -1    0    0    0  501  0.00000000000E+00  0.00000000000E+00 -0.14464248347E+04  0.14464248347E+04  0.25500000920E-02 0. -1.
    10030    2    1    2    0    0  0.00000000000E+00  0.00000000000E+00  0.13115806487E+04  0.42044303182E+04  0.39946201950E+04 0.  0.
        1    1    3    3  502    0 -0.19928359740E+04  0.13236326133E+03  0.67497898282E+03  0.21082011004E+04  0.50400001928E-02 0. -1.
       -1    1    3    3    0  502  0.19928359740E+04 -0.13236326133E+03  0.63660166588E+03  0.20962292178E+04  0.50400001928E-02 0.  1.
</event>
<event>
 5   0  0.1879500E-08  0.4000800E+04  0.7818609E-02  0.8004385E-01
       -1   -1    0    0    0  501  0.00000000000E+00  0.00000000000E+00  0.25487292466E+04  0.25487292467E+04  0.50400001928E-02 0.  1.
        1   -1    0    0  501    0  0.00000000000E+00  0.00000000000E+00 -0.15700372613E+04  0.15700372613E+04  0.50400001928E-02 0. -1.
    10030    2    1    2    0    0  0.00000000000E+00  0.00000000000E+00  0.97869198531E+03  0.41187665080E+04  0.40007998632E+04 0.  0.
        2    1    3    3  502    0 -0.62155012699E+03  0.13733271543E+04 -0.86443673401E+03  0.17377004633E+04  0.25500000920E-02 0. -1.
       -2    1    3    3    0  502  0.62155012699E+03 -0.13733271543E+04  0.18431287193E+04  0.23810660447E+04  0.25500000920E-02 0.  1.
</event>
<event>
 5   0  0.1879500E-08  0.4004046E+04  0.7818609E-02  0.8003731E-01
        1   -1    0    0  501    0  0.00000000000E+00  0.00000000000E+00  0.18121579648E+04  0.18121579648E+04  0.50400001928E-02 0.  1.
       -1   -1    0    0    0  501  0.00000000000E+00  0.00000000000E+00 -0.22117804872E+04  0.22117804872E+04  0.50400001928E-02 0. -1.
    10030    2    1    2    0    0  0.00000000000E+00  0.00000000000E+00 -0.39962252236E+03  0.40239384520E+04  0.40040457672E+04 0.  0.
        4    1    3    3  502    0 -0.49553788052E+03  0.48694962663E+03  0.16871261694E+04  0.18245750339E+04  0.12699999809E+01 0.  1.
       -4    1    3    3    0  502  0.49553788052E+03 -0.48694962663E+03 -0.20867486917E+04  0.21993634182E+04  0.12699999809E+01 0. -1.
</event>
<event>
 5   0  0.5945387E-08  0.4019320E+04  0.7818609E-02  0.8000660E-01
       -2   -1    0    0    0  501  0.00000000000E+00  0.00000000000E+00  0.23261709880E+04  0.23261709880E+04  0.25500000920E-02 0.  1.
        2   -1    0    0  501    0  0.00000000000E+00  0.00000000000E+00 -0.17362151782E+04  0.17362151782E+04  0.25500000920E-02 0. -1.
    10030    2    1    2    0    0  0.00000000000E+00  0.00000000000E+00  0.58995580979E+03  0.40623861661E+04  0.40193200302E+04 0.  0.
        3    1    3    3  502    0  0.80274116851E+03  0.15764817768E+04  0.12586324050E+04  0.21711388065E+04  0.10100000352E+00 0.  1.
       -3    1    3    3    0  502 -0.80274116851E+03 -0.15764817768E+04 -0.66867659520E+03  0.18912473596E+04  0.10100000352E+00 0. -1.
</event>
<event>
 5   0  0.1879500E-08  0.4076570E+04  0.7818609E-02  0.7989276E-01
        1   -1    0    0  501    0  0.00000000000E+00  0.00000000000E+00  0.26283015619E+04  0.26283015619E+04  0.50400001928E-02 0. -1.
       -1   -1    0    0    0  501  0.00000000000E+00  0.00000000000E+00 -0.15807186706E+04  0.15807186707E+04  0.50400001928E-02 0.  1.
    10030    2    1    2    0    0  0.00000000000E+00  0.00000000000E+00  0.10475828912E+04  0.42090202325E+04  0.40765698085E+04 0.  0.
        3    1    3    3  502    0  0.41775282735E+03 -0.12699820022E+04  0.21123626673E+04  0.24998895493E+04  0.10100000352E+00 0. -1.
       -3    1    3    3    0  502 -0.41775282735E+03  0.12699820022E+04 -0.10647797760E+04  0.17091306832E+04  0.10100000352E+00 0.  1.
</event>
<event>
 5   0  0.5951623E-08  0.4000096E+04  0.7818609E-02  0.8004527E-01
       -2   -1    0    0    0  501  0.00000000000E+00  0.00000000000E+00  0.21896065979E+04  0.21896065979E+04  0.25500000920E-02 0.  1.
        2   -1    0    0  501    0  0.00000000000E+00  0.00000000000E+00 -0.18269002499E+04  0.18269002499E+04  0.25500000920E-02 0. -1.
    10030    2    1    2    0    0  0.00000000000E+00  0.00000000000E+00  0.36270634798E+03  0.40165068478E+04  0.40000964193E+04 0.  0.
        2    1    3    3  502    0 -0.19896465032E+04 -0.19662968747E+03  0.12787682858E+03  0.20034242998E+04  0.25500000920E-02 0.  1.
       -2    1    3    3    0  502  0.19896465032E+04  0.19662968747E+03  0.23482951940E+03  0.20130825480E+04  0.25500000920E-02 0. -1.
</event>
<event>
 5   0  0.5945387E-08  0.3988948E+04  0.7818609E-02  0.8006780E-01
       -2   -1    0    0    0  501  0.00000000000E+00  0.00000000000E+00  0.20778983265E+04  0.20778983265E+04  0.25500000920E-02 0.  1.
        2   -1    0    0  501    0  0.00000000000E+00  0.00000000000E+00 -0.19143993646E+04  0.19143993646E+04  0.25500000920E-02 0. -1.
    10030    2    1    2    0    0  0.00000000000E+00  0.00000000000E+00  0.16349896192E+03  0.39922976911E+04  0.39889483506E+04 0.  0.
        3    1    3    3  502    0 -0.15441596604E+04 -0.50439453555E+02 -0.11806398636E+04  0.19444494575E+04  0.10100000352E+00 0. -1.
       -3    1    3    3    0  502  0.15441596604E+04  0.50439453555E+02  0.13441388255E+04  0.20478482336E+04  0.10100000352E+00 0.  1.
</event>
<event>
 5   0  0.5951623E-08  0.3968379E+04  0.7818609E-02  0.8010956E-01
       -2   -1    0    0    0  501  0.00000000000E+00  0.00000000000E+00  0.17084155296E+04  0.17084155296E+04  0.25500000920E-02 0. -1.
        2   -1    0    0  501    0  0.00000000000E+00  0.00000000000E+00 -0.23044792759E+04  0.23044792759E+04  0.25500000920E-02 0.  1.
    10030    2    1    2    0    0  0.00000000000E+00  0.00000000000E+00 -0.59606374628E+03  0.40128948055E+04  0.39683791062E+04 0.  0.
        2    1    3    3  502    0 -0.15196596297E+04 -0.79848865566E+03  0.70814674516E+03  0.18569925514E+04  0.25500000920E-02 0. -1.
       -2    1    3    3    0  502  0.15196596297E+04  0.79848865566E+03 -0.13042104914E+04  0.21559022541E+04  0.25500000920E-02 0.  1.
</event>
<event>
 5   0  0.5951623E-08  0.3986574E+04  0.7818609E-02  0.8007260E-01
       -2   -1    0    0    0  501  0.00000000000E+00  0.00000000000E+00  0.22831556400E+04  0.22831556400E+04  0.25500000920E-02 0.  1.
        2   -1    0    0  501    0  0.00000000000E+00  0.00000000000E+00 -0.17402203398E+04  0.17402203398E+04  0.25500000920E-02 0. -1.
    10030    2    1    2    0    0  0.00000000000E+00  0.00000000000E+00  0.54293530013E+03  0.40233759798E+04  0.39865744110E+04 0.  0.
        2    1    3    3  502    0 -0.14836974737E+04  0.10187424751E+04  0.11361142023E+04  0.21283678969E+04  0.25500000920E-02 0.  1.
       -2    1    3    3    0  502  0.14836974737E+04 -0.10187424751E+04 -0.59317890218E+03  0.18950080829E+04  0.25500000920E-02 0. -1.
</event>
<event>
 5   0  0.1879500E-08  0.3942413E+04  0.7818609E-02  0.8016266E-01
       -3   -1    0    0    0  501  0.00000000000E+00  0.00000000000E+00  0.14258340486E+04  0.14258340522E+04  0.10100000352E+00 0.  1.
        3   -1    0    0  501    0  0.00000000000E+00  0.00000000000E+00 -0.27251802704E+04  0.27251802723E+04  0.10100000352E+00 0. -1.
    10030    2    1    2    0    0  0.00000000000E+00  0.00000000000E+00 -0.12993462218E+04  0.41510143244E+04  0.39424128802E+04 0.  0.
        2    1    3    3  502    0 -0.48983165743E+03 -0.16606113385E+04  0.34257563361E+03  0.17649144838E+04  0.25500000920E-02 0.  1.
       -2    1    3    3    0  502  0.48983165743E+03  0.16606113385E+04 -0.16419218554E+04  0.23860998407E+04  0.25500000920E-02 0. -1.
</event>
<event>
 5   0  0.1879500E-08  0.4004725E+04  0.7818609E-02  0.8003594E-01
       -1   -1    0    0    0  501  0.00000000000E+00  0.00000000000E+00  0.18132826006E+04  0.18132826006E+04  0.50400001928E-02 0. -1.
        1   -1    0    0  501    0  0.00000000000E+00  0.00000000000E+00 -0.22111591644E+04  0.22111591644E+04  0.50400001928E-02 0.  1.
    10030    2    1    2    0    0  0.00000000000E+00  0.00000000000E+00 -0.39787656384E+03  0.40244417651E+04  0.40047254288E+04 0.  0.
        1    1    3    3  502    0  0.88902393912E+03  0.10769529823E+04 -0.16410172296E+04  0.21547920638E+04  0.50400001928E-02 0.  1.
       -1    1    3    3    0  502 -0.88902393912E+03 -0.10769529823E+04  0.12431406658E+04  0.18696497012E+04  0.50400001928E-02 0. -1.
</event>
<event>
 5   0  0.5951623E-08  0.3995372E+04  0.7818609E-02  0.8005481E-01
       -2   -1    0    0    0  501  0.00000000000E+00  0.00000000000E+00  0.24618415147E+04  0.24618415147E+04  0.25500000920E-02 0. -1.
        2   -1    0    0  501    0  0.00000000000E+00  0.00000000000E+00 -0.16210424246E+04  0.16210424246E+04  0.25500000920E-02 0.  1.
    10030    2    1    2    0    0  0.00000000000E+00  0.00000000000E+00  0.84079909009E+03  0.40828839393E+04  0.39953720918E+04 0.  0.
        2    1    3    3  502    0  0.81375490876E+03  0.17539159412E+04 -0.92929000037E+02  0.19357308644E+04  0.25500000920E-02 0. -1.
       -2    1    3    3    0  502 -0.81375490876E+03 -0.17539159412E+04  0.93372809012E+03  0.21471530748E+04  0.25500000920E-02 0.  1.
</event>
<event>
 5   0  0.5951623E-08  0.4005848E+04  0.7818609E-02  0.8003368E-01
        2   -1    0    0  501    0  0.00000000000E+00  0.00000000000E+00  0.16575484302E+04  0.16575484302E+04  0.25500000920E-02 0.  1.
       -2   -1    0    0    0  501  0.00000000000E+00  0.00000000000E+00 -0.24202633183E+04  0.24202633184E+04  0.25500000920E-02 0. -1.
    10030    2    1    2    0    0  0.00000000000E+00  0.00000000000E+00 -0.76271488815E+03  0.40778117486E+04  0.40058475578E+04 0.  0.
        2    1    3    3  502    0 -0.97961182864E+03  0.12387679369E+04 -0.16353637691E+04  0.22734555183E+04  0.25500000920E-02 0. -1.
       -2    1    3    3    0  502  0.97961182864E+03 -0.12387679369E+04  0.87264888098E+03  0.18043562303E+04  0.25500000920E-02 0.  1.
</event>
<event>
 5   0  0.5945387E-08  0.4044118E+04  0.7818609E-02  0.7995705E-01
        2   -1    0    0  501    0  0.00000000000E+00  0.00000000000E+00  0.17846058524E+04  0.17846058524E+04  0.25500000920E-02 0.  1.
       -2   -1    0    0    0  501  0.00000000000E+00  0.00000000000E+00 -0.22911069047E+04  0.22911069047E+04  0.25500000920E-02 0. -1.
    10030    2    1    2    0    0  0.00000000000E+00  0.00000000000E+00 -0.50650105233E+03  0.40757127571E+04  0.40441180945E+04 0.  0.
        3    1    3    3  502    0  0.51451375845E+03  0.10302001501E+03  0.17147947287E+04  0.17932814902E+04  0.10100000352E+00 0.  1.
       -3    1    3    3    0  502 -0.51451375845E+03 -0.10302001501E+03 -0.22212957811E+04  0.22824312669E+04  0.10100000352E+00 0. -1.
</event>
<event>
 5   0  0.1879500E-08  0.4095361E+04  0.7818609E-02  0.7985581E-01
       -1   -1    0    0    0  501  0.00000000000E+00  0.00000000000E+00  0.33388559964E+04  0.33388559964E+04  0.50400001928E-02 0.  1.
        1   -1    0    0  501    0  0.00000000000E+00  0.00000000000E+00 -0.12558179949E+04  0.12558179949E+04  0.50400001928E-02 0. -1.
    10030    2    1    2    0    0  0.00000000000E+00  0.00000000000E+00  0.20830380016E+04  0.45946739913E+04  0.40953610061E+04 0.  0.
        2    1    3    3  502    0  0.16780921054E+02  0.10135118423E+04 -0.95458971395E+03  0.13923826255E+04  0.25500000920E-02 0. -1.
       -2    1    3    3    0  502 -0.16780921054E+02 -0.10135118423E+04  0.30376277155E+04  0.32022913659E+04  0.25500000920E-02 0.  1.
</event>
<event>
 5   0  0.1879500E-08  0.3966238E+04  0.7818609E-02  0.8011392E-01
       -1   -1    0    0    0  501  0.00000000000E+00  0.00000000000E+00  0.20146223501E+04  0.20146223501E+04  0.50400001928E-02 0.  1.
        1   -1    0    0  501    0  0.00000000000E+00  0.00000000000E+00 -0.19521087688E+04  0.19521087688E+04  0.50400001928E-02 0. -1.
    10030    2    1    2    0    0  0.00000000000E+00  0.00000000000E+00  0.62513581258E+02  0.39667311189E+04  0.39662384978E+04 0.  0.
        1    1    3    3  502    0 -0.19067312039E+03  0.15435179219E+04 -0.11993260968E+04  0.19639722250E+04  0.50400001928E-02 0. -1.
       -1    1    3    3    0  502  0.19067312039E+03 -0.15435179219E+04  0.12618396781E+04  0.20027588939E+04  0.50400001928E-02 0.  1.
</event>
<event>
 5   0  0.5951623E-08  0.3999753E+04  0.7818609E-02  0.8004596E-01
        2   -1    0    0  501    0  0.00000000000E+00  0.00000000000E+00  0.20642885023E+04  0.20642885023E+04  0.25500000920E-02 0.  1.
       -2   -1    0    0    0  501  0.00000000000E+00  0.00000000000E+00 -0.19374744306E+04  0.19374744306E+04  0.25500000920E-02 0. -1.
    10030    2    1    2    0    0  0.00000000000E+00  0.00000000000E+00  0.12681407166E+03  0.40017629329E+04  0.39997530877E+04 0.  0.
        2    1    3    3  502    0  0.16610614704E+02 -0.41387141730E+03 -0.18940884856E+04  0.19388493118E+04  0.25500000920E-02 0. -1.
       -2    1    3    3    0  502 -0.16610614704E+02  0.41387141730E+03  0.20209025572E+04  0.20629136212E+04  0.25500000920E-02 0.  1.
</event>
<event>
 5   0  0.5888700E-08  0.4013811E+04  0.7818609E-02  0.8001766E-01
        2   -1    0    0  501    0  0.00000000000E+00  0.00000000000E+00  0.23463435312E+04  0.23463435312E+04  0.25500000920E-02 0. -1.
       -2   -1    0    0    0  501  0.00000000000E+00  0.00000000000E+00 -0.17165732119E+04  0.17165732119E+04  0.25500000920E-02 0.  1.
    10030    2    1    2    0    0  0.00000000000E+00  0.00000000000E+00  0.62977031929E+03  0.40629167432E+04  0.40138113816E+04 0.  0.
        5    1    3    3  502    0 -0.87855659869E+03 -0.15210109027E+04  0.12974889579E+04  0.21837663677E+04  0.46999998093E+01 0. -1.
       -5    1    3    3    0  502  0.87855659869E+03  0.15210109027E+04 -0.66771863857E+03  0.18791503754E+04  0.46999998093E+01 0.  1.
</event>
<event>
 5   0  0.1879500E-08  0.4006209E+04  0.7818609E-02  0.8003295E-01
       -1   -1    0    0    0  501  0.00000000000E+00  0.00000000000E+00  0.15445964782E+04  0.15445964782E+04  0.50400001928E-02 0. -1.
        1   -1    0    0  501    0  0.00000000000E+00  0.00000000000E+00 -0.25977187672E+04  0.25977187672E+04  0.50400001928E-02 0.  1.
    10030    2    1    2    0    0  0.00000000000E+00  0.00000000000E+00 -0.10531222890E+04  0.41423152454E+04  0.40062088109E+04 0.  0.
        2    1    3    3  502    0 -0.13500282175E+04 -0.13184638579E+04 -0.12213301365E+04  0.22477923470E+04  0.25500000920E-02 0.  1.
       -2    1    3    3    0  502  0.13500282175E+04  0.13184638579E+04  0.16820784743E+03  0.18945228984E+04  0.25500000920E-02 0. -1.
</event>
<event>
 5   0  0.1879500E-08  0.4000006E+04  0.7818609E-02  0.8004545E-01
        1   -1    0    0  501    0  0.00000000000E+00  0.00000000000E+00  0.26487563150E+04  0.26487563150E+04  0.50400001928E-02 0.  1.
       -1   -1    0    0    0  501  0.00000000000E+00  0.00000000000E+00 -0.15101470420E+04  0.15101470420E+04  0.50400001928E-02 0. -1.
    10030    2    1    2    0    0  0.00000000000E+00  0.00000000000E+00  0.11386092730E+04  0.41589033570E+04  0.40000057571E+04 0.  0.
        5    1    3    3  502    0 -0.16080668411E+04 -0.10682002223E+04  0.11126128321E+04  0.22281965991E+04  0.46999998093E+01 0.  1.
       -5    1    3    3    0  502  0.16080668411E+04  0.10682002223E+04  0.25996440943E+02  0.19307067579E+04  0.46999998093E+01 0. -1.
</event>
<event>
 5   0  0.5846812E-08  0.4001209E+04  0.7818609E-02  0.8004303E-01
       -2   -1    0    0    0  501  0.00000000000E+00  0.00000000000E+00  0.14549447573E+04  0.14549447573E+04  0.25500000920E-02 0.  1.
        2   -1    0    0  501    0  0.00000000000E+00  0.00000000000E+00 -0.27509073796E+04  0.27509073796E+04  0.25500000920E-02 0. -1.
    10030    2    1    2    0    0  0.00000000000E+00  0.00000000000E+00 -0.12959626223E+04  0.42058521370E+04  0.40012089523E+04 0.  0.
        4    1    3    3  502    0  0.10066411880E+04  0.16303670185E+04 -0.43235956474E+02  0.19165839551E+04  0.12699999809E+01 0. -1.
       -4    1    3    3    0  502 -0.10066411880E+04 -0.16303670185E+04 -0.12527266658E+04  0.22892681818E+04  0.12699999809E+01 0.  1.
</event>
<event>
 5   0  0.1879500E-08  0.3988290E+04  0.7818609E-02  0.8006913E-01
       -1   -1    0    0    0  501  0.00000000000E+00  0.00000000000E+00  0.14400677529E+04  0.14400677529E+04  0.50400001928E-02 0.  1.
        1   -1    0    0  501    0  0.00000000000E+00  0.00000000000E+00 -0.27614079197E+04  0.27614079197E+04  0.50400001928E-02 0. -1.
    10030    2    1    2    0    0  0.00000000000E+00  0.00000000000E+00 -0.13213401669E+04  0.42014756726E+04  0.39882901087E+04 0.  0.
        3    1    3    3  502    0 -0.22759579303E+03 -0.16066421210E+04  0.56038847185E+03  0.17167218760E+04  0.10100000352E+00 0.  1.
       -3    1    3    3    0  502  0.22759579303E+03  0.16066421210E+04 -0.18817286387E+04  0.24847537966E+04  0.10100000352E+00 0. -1.
</event>
<event>
 5   0  0.1879500E-08  0.3995361E+04  0.7818609E-02  0.8005483E-01
        1   -1    0    0  501    0  0.00000000000E+00  0.00000000000E+00  0.33273963601E+04  0.33273963602E+04  0.50400001928E-02 0.  1.
       -1   -1    0    0    0  501  0.00000000000E+00  0.00000000000E+00 -0.11993543727E+04  0.11993543727E+04  0.50400001928E-02 0. -1.
    10030    2    1    2    0    0  0.00000000000E+00  0.00000000000E+00  0.21280419874E+04  0.45267507329E+04  0.39953609971E+04 0.  0.
        2    1    3    3  502    0 -0.71990586105E+03 -0.16262663616E+04  0.20948163398E+04  0.27479560086E+04  0.25500000920E-02 0.  1.
       -2    1    3    3    0  502  0.71990586105E+03  0.16262663616E+04  0.33225647676E+02  0.17787947243E+04  0.25500000920E-02 0. -1.
</event>
<event>
 5   0  0.5951623E-08  0.3993956E+04  0.7818609E-02  0.8005767E-01
        2   -1    0    0  501    0  0.00000000000E+00  0.00000000000E+00  0.31688261843E+04  0.31688261843E+04  0.25500000920E-02 0. -1.
       -2   -1    0    0    0  501  0.00000000000E+00  0.00000000000E+00 -0.12584855909E+04  0.12584855909E+04  0.25500000920E-02 0.  1.
    10030    2    1    2    0    0  0.00000000000E+00  0.00000000000E+00  0.19103405934E+04  0.44273117752E+04  0.39939564810E+04 0.  0.
        2    1    3    3  502    0 -0.93520690402E+03 -0.42214039608E+03 -0.94393389976E+03  0.13942114884E+04  0.25500000920E-02 0.  1.
       -2    1    3    3    0  502  0.93520690402E+03  0.42214039608E+03  0.28542744931E+04  0.30331002867E+04  0.25500000920E-02 0. -1.
</event>
<event>
 5   0  0.5945387E-08  0.3996284E+04  0.7818609E-02  0.8005297E-01
       -2   -1    0    0    0  501  0.00000000000E+00  0.00000000000E+00  0.26510146780E+04  0.26510146780E+04  0.25500000920E-02 0. -1.
        2   -1    0    0  501    0  0.00000000000E+00  0.00000000000E+00 -0.15060538585E+04  0.15060538585E+04  0.25500000920E-02 0.  1.
    10030    2    1    2    0    0  0.00000000000E+00  0.00000000000E+00  0.11449608195E+04  0.41570685365E+04  0.39962837160E+04 0.  0.
        3    1    3    3  502    0  0.85145142624E+03  0.79071004570E+03  0.22634212876E+04  0.25442617481E+04  0.10100000352E+00 0. -1.
       -3    1    3    3    0  502 -0.85145142624E+03 -0.79071004570E+03 -0.11184604681E+04  0.16128067883E+04  0.10100000352E+00 0.  1.
</event>
<event>
 5   0  0.1879500E-08  0.4005622E+04  0.7818609E-02  0.8003413E-01
        1   -1    0    0  501    0  0.00000000000E+00  0.00000000000E+00  0.25405500932E+04  0.25405500932E+04  0.50400001928E-02 0.  1.
       -1   -1    0    0    0  501  0.00000000000E+00  0.00000000000E+00 -0.15788914512E+04  0.15788914512E+04  0.50400001928E-02 0. -1.
    10030    2    1    2    0    0  0.00000000000E+00  0.00000000000E+00  0.96165864193E+03  0.41194415444E+04  0.40056224602E+04 0.  0.
        4    1    3    3  502    0  0.85852205009E+03  0.18054725152E+04  0.60449635129E+03  0.20885900903E+04  0.12699999809E+01 0. -1.
       -4    1    3    3    0  502 -0.85852205009E+03 -0.18054725152E+04  0.35716229065E+03  0.20308514541E+04  0.12699999809E+01 0.  1.
</event>
<event>
 5   0  0.5945387E-08  0.3998072E+04  0.7818609E-02  0.8004936E-01
       -2   -1    0    0    0  501  0.00000000000E+00  0.00000000000E+00  0.21850758572E+04  0.21850758572E+04  0.25500000920E-02 0. -1.
        2   -1    0    0  501    0  0.00000000000E+00  0.00000000000E+00 -0.18288354559E+04  0.18288354559E+04  0.25500000920E-02 0.  1.
    10030    2    1    2    0    0  0.00000000000E+00  0.00000000000E+00  0.35624040125E+03  0.40139113131E+04  0.39980716359E+04 0.  0.
        3    1    3    3  502    0 -0.18599869283E+04  0.66391731997E+03  0.48887292006E+03  0.20345354073E+04  0.10100000352E+00 0. -1.
       -3    1    3    3    0  502  0.18599869283E+04 -0.66391731997E+03 -0.13263251880E+03  0.19793759058E+04  0.10100000352E+00 0.  1.
</event>
<event>
 5   0  0.1879500E-08  0.3995238E+04  0.7818609E-02  0.8005508E-01
       -1   -1    0    0    0  501  0.00000000000E+00  0.00000000000E+00  0.27421604304E+04  0.27421604304E+04  0.50400001928E-02 0. -1.
        1   -1    0    0  501    0  0.00000000000E+00  0.00000000000E+00 -0.14552327729E+04  0.14552327729E+04  0.50400001928E-02 0.  1.
    10030    2    1    2    0    0  0.00000000000E+00  0.00000000000E+00  0.12869276575E+04  0.41973932033E+04  0.39952380289E+04 0.  0.
        3    1    3    3  502    0  0.11777585755E+04 -0.99843940179E+03  0.19750686613E+04  0.25069688327E+04  0.10100000352E+00 0. -1.
       -3    1    3    3    0  502 -0.11777585755E+04  0.99843940179E+03 -0.68814100382E+03  0.16904243706E+04  0.10100000352E+00 0.  1.
</event>
<event>
 5   0  0.5951623E-08  0.3985167E+04  0.7818609E-02  0.8007546E-01
        2   -1    0    0  501    0  0.00000000000E+00  0.00000000000E+00  0.23264846439E+04  0.23264846439E+04  0.25500000920E-02 0.  1.
       -2   -1    0    0    0  501  0.00000000000E+00  0.00000000000E+00 -0.17066042498E+04  0.17066042498E+04  0.25500000920E-02 0. -1.
    10030    2    1    2    0    0  0.00000000000E+00  0.00000000000E+00  0.61988039411E+03  0.40330888937E+04  0.39851667872E+04 0.  0.
        2    1    3    3  502    0 -0.23928284370E+02  0.11300442631E+04 -0.13507729748E+04  0.17612950431E+04  0.25500000920E-02 0. -1.
       -2    1    3    3    0  502  0.23928284370E+02 -0.11300442631E+04  0.19706533689E+04  0.22717938506E+04  0.25500000920E-02 0.  1.
</event>
<event>
 5   0  0.5945387E-08  0.3998313E+04  0.7818609E-02  0.8004887E-01
        2   -1    0    0  501    0  0.00000000000E+00  0.00000000000E+00  0.13272699605E+04  0.13272699605E+04  0.25500000920E-02 0.  1.
       -2   -1    0    0    0  501  0.00000000000E+00  0.00000000000E+00 -0.30111633253E+04  0.30111633253E+04  0.25500000920E-02 0. -1.
    10030    2    1    2    0    0  0.00000000000E+00  0.00000000000E+00 -0.16838933648E+04  0.43384332858E+04  0.39983129582E+04 0.  0.
        3    1    3    3  502    0 -0.17573081876E+04 -0.15712158003E+03  0.17813499318E+03  0.17732882854E+04  0.10100000352E+00 0.  1.
       -3    1    3    3    0  502  0.17573081876E+04  0.15712158003E+03 -0.18620283579E+04  0.25651450004E+04  0.10100000352E+00 0. -1.
</event>
<event>
 5   0  0.6161563E-08  0.3995489E+04  0.7818609E-02  0.8005457E-01
        2   -1    0    0  501    0  0.00000000000E+00  0.00000000000E+00  0.14336512355E+04  0.14336512355E+04  0.25500000920E-02 0. -1.
       -2   -1    0    0    0  501  0.00000000000E+00  0.00000000000E+00 -0.27837900038E+04  0.27837900038E+04  0.25500000920E-02 0.  1.
    10030    2    1    2    0    0  0.00000000000E+00  0.00000000000E+00 -0.13501387684E+04  0.42174412393E+04  0.39954894460E+04 0.  0.
        1    1    3    3  502    0  0.17786471857E+04  0.67959420447E+03 -0.13132628862E+04  0.23130269134E+04  0.50400001928E-02 0.  1.
       -1    1    3    3    0  502 -0.17786471857E+04 -0.67959420447E+03 -0.36875882192E+02  0.19044143259E+04  0.50400001928E-02 0. -1.
</event>
<event>
 5   0  0.1879500E-08  0.3985017E+04  0.7818609E-02  0.8007576E-01
       -1   -1    0    0    0  501  0.00000000000E+00  0.00000000000E+00  0.12816330417E+04  0.12816330417E+04  0.50400001928E-02 0.  1.
        1   -1    0    0  501    0  0.00000000000E+00  0.00000000000E+00 -0.30976800939E+04  0.30976800939E+04  0.50400001928E-02 0. -1.
    10030    2    1    2    0    0  0.00000000000E+00  0.00000000000E+00 -0.18160470522E+04  0.43793131356E+04  0.39850165174E+04 0.  0.
        1    1    3    3  502    0  0.17162557918E+04  0.99841927779E+03 -0.72507590581E+03  0.21137904499E+04  0.50400001928E-02 0. -1.
       -1    1    3    3    0  502 -0.17162557918E+04 -0.99841927779E+03 -0.10909711464E+04  0.22655226857E+04  0.50400001928E-02 0.  1.
</event>
<event>
 5   0  0.5945387E-08  0.3967905E+04  0.7818609E-02  0.8011053E-01
       -2   -1    0    0    0  501  0.00000000000E+00  0.00000000000E+00  0.16597892217E+04  0.16597892217E+04  0.25500000920E-02 0. -1.
        2   -1    0    0  501    0  0.00000000000E+00  0.00000000000E+00 -0.23714264270E+04  0.23714264270E+04  0.25500000920E-02 0.  1.
    10030    2    1    2    0    0  0.00000000000E+00  0.00000000000E+00 -0.71163720531E+03  0.40312156487E+04  0.39679052526E+04 0.  0.
        3    1    3    3  502    0  0.89025503213E+03  0.38631218502E+03  0.14021888704E+04  0.17052638403E+04  0.10100000352E+00 0. -1.
       -3    1    3    3    0  502 -0.89025503213E+03 -0.38631218502E+03 -0.21138260757E+04  0.23259518084E+04  0.10100000352E+00 0.  1.
</event>
<event>
 5   0  0.1879500E-08  0.3728963E+04  0.7818609E-02  0.8061573E-01
       -1   -1    0    0    0  501  0.00000000000E+00  0.00000000000E+00  0.29326098114E+04  0.29326098114E+04  0.50400001928E-02 0. -1.
        1   -1    0    0  501    0  0.00000000000E+00  0.00000000000E+00 -0.11853916141E+04  0.11853916141E+04  0.50400001928E-02 0.  1.
    10030    2    1    2    0    0  0.00000000000E+00  0.00000000000E+00  0.17472181973E+04  0.41180014255E+04  0.37289629003E+04 0.  0.
        4    1    3    3  502    0  0.10469372766E+04  0.10886865440E+04 -0.33358624442E+03  0.15468023298E+04  0.12699999809E+01 0.  1.
       -4    1    3    3    0  502 -0.10469372766E+04 -0.10886865440E+04  0.20808044417E+04  0.25711990957E+04  0.12699999809E+01 0. -1.
</event>
<event>
 5   0  0.5888700E-08  0.3986483E+04  0.7818609E-02  0.8007279E-01
        2   -1    0    0  501    0  0.00000000000E+00  0.00000000000E+00  0.32500539138E+04  0.32500539138E+04  0.25500000920E-02 0. -1.
       -2   -1    0    0    0  501  0.00000000000E+00  0.00000000000E+00 -0.12224448063E+04  0.12224448063E+04  0.25500000920E-02 0.  1.
    10030    2    1    2    0    0  0.00000000000E+00  0.00000000000E+00  0.20276091075E+04  0.44724987202E+04  0.39864829247E+04 0.  0.
        5    1    3    3  502    0  0.95318399544E+03 -0.14032511378E+04  0.21879719669E+04  0.27685586327E+04  0.46999998093E+01 0. -1.
       -5    1    3    3    0  502 -0.95318399544E+03  0.14032511378E+04 -0.16036285943E+03  0.17039400874E+04  0.46999998093E+01 0.  1.
</event>
<event>
 5   0  0.1879500E-08  0.3924110E+04  0.7818609E-02  0.8020033E-01
       -1   -1    0    0    0  501  0.00000000000E+00  0.00000000000E+00  0.29761930783E+04  0.29761930783E+04  0.50400001928E-02 0. -1.
        1   -1    0    0  501    0  0.00000000000E+00  0.00000000000E+00 -0.12934846666E+04  0.12934846666E+04  0.50400001928E-02 0.  1.
    10030    2    1    2    0    0  0.00000000000E+00  0.00000000000E+00  0.16827084117E+04  0.42696777449E+04  0.39241101471E+04 0.  0.
        4    1    3    3  502    0  0.63876401503E+03 -0.13214321309E+04  0.22581171532E+04  0.26931945778E+04  0.12699999809E+01 0.  1.
       -4    1    3    3    0  502 -0.63876401503E+03  0.13214321309E+04 -0.57540874151E+03  0.15764831671E+04  0.12699999809E+01 0. -1.
</event>
<event>
 5   0  0.1879500E-08  0.4006301E+04  0.7818609E-02  0.8003277E-01
        1   -1    0    0  501    0  0.00000000000E+00  0.00000000000E+00  0.23294279888E+04  0.23294279888E+04  0.50400001928E-02 0. -1.
       -1   -1    0    0    0  501  0.00000000000E+00  0.00000000000E+00 -0.17225742491E+04  0.17225742491E+04  0.50400001928E-02 0.  1.
    10030    2    1    2    0    0  0.00000000000E+00  0.00000000000E+00  0.60685373968E+03  0.40520022379E+04  0.40063013709E+04 0.  0.
        5    1    3    3  502    0  0.11378564343E+04 -0.59103656525E+03 -0.12531381132E+04  0.17928800036E+04  0.46999998093E+01 0.  1.
       -5    1    3    3    0  502 -0.11378564343E+04  0.59103656525E+03  0.18599918529E+04  0.22591222343E+04  0.46999998093E+01 0. -1.
</event>
<event>
 5   0  0.6161563E-08  0.4013468E+04  0.7818609E-02  0.8001835E-01
       -2   -1    0    0    0  501  0.00000000000E+00  0.00000000000E+00  0.16557704607E+04  0.16557704607E+04  0.25500000920E-02 0.  1.
        2   -1    0    0  501    0  0.00000000000E+00  0.00000000000E+00 -0.24320885387E+04  0.24320885387E+04  0.25500000920E-02 0. -1.
    10030    2    1    2    0    0  0.00000000000E+00  0.00000000000E+00 -0.77631807802E+03  0.40878589994E+04  0.40134675084E+04 0.  0.
        1    1    3    3  502    0 -0.17937636642E+04 -0.13674960441E+03  0.51753139295E+03  0.18719314304E+04  0.50400001928E-02 0. -1.
       -1    1    3    3    0  502  0.17937636642E+04  0.13674960441E+03 -0.12938494710E+04  0.22159275690E+04  0.50400001928E-02 0.  1.
</event>
<event>
 5   0  0.5846812E-08  0.3995753E+04  0.7818609E-02  0.8005404E-01
       -2   -1    0    0    0  501  0.00000000000E+00  0.00000000000E+00  0.14744405813E+04  0.14744405813E+04  0.25500000920E-02 0. -1.
        2   -1    0    0  501    0  0.00000000000E+00  0.00000000000E+00 -0.27071353010E+04  0.27071353010E+04  0.25500000920E-02 0.  1.
    10030    2    1    2    0    0  0.00000000000E+00  0.00000000000E+00 -0.12326947198E+04  0.41815758823E+04  0.39957528186E+04 0.  0.
        4    1    3    3  502    0 -0.17561447684E+04  0.23172804153E+03  0.35061784491E+03  0.18057344265E+04  0.12699999809E+01 0. -1.
       -4    1    3    3    0  502  0.17561447684E+04 -0.23172804153E+03 -0.15833125647E+04  0.23758414558E+04  0.12699999809E+01 0.  1.
</event>
<event>
 5   0  0.5945387E-08  0.3998667E+04  0.7818609E-02  0.8004815E-01
        2   -1    0    0  501    0  0.00000000000E+00  0.00000000000E+00  0.22892496593E+04  0.22892496593E+04  0.25500000920E-02 0. -1.
       -2   -1    0    0    0  501  0.00000000000E+00  0.00000000000E+00 -0.17461333193E+04  0.17461333193E+04  0.25500000920E-02 0.  1.
    10030    2    1    2    0    0  0.00000000000E+00  0.00000000000E+00  0.54311633996E+03  0.40353829786E+04  0.39986673312E+04 0.  0.
        3    1    3    3  502    0 -0.16368359202E+04 -0.10058965993E+04  0.83006111664E+03  0.20928595905E+04  0.10100000352E+00 0. -1.
       -3    1    3    3    0  502  0.16368359202E+04  0.10058965993E+04 -0.28694477668E+03  0.19425233881E+04  0.10100000352E+00 0.  1.
</event>
<event>
 5   0  0.1879500E-08  0.3988276E+04  0.7818609E-02  0.8006916E-01
        1   -1    0    0  501    0  0.00000000000E+00  0.00000000000E+00  0.21869759390E+04  0.21869759390E+04  0.50400001928E-02 0.  1.
       -1   -1    0    0    0  501  0.00000000000E+00  0.00000000000E+00 -0.18183037983E+04  0.18183037983E+04  0.50400001928E-02 0. -1.
    10030    2    1    2    0    0  0.00000000000E+00  0.00000000000E+00  0.36867214070E+03  0.40052797374E+04  0.39882761473E+04 0.  0.
        4    1    3    3  502    0  0.18655593306E+04 -0.43596027010E+03  0.74005960021E+03  0.20537922967E+04  0.12699999809E+01 0.  1.
       -4    1    3    3    0  502 -0.18655593306E+04  0.43596027010E+03 -0.37138745951E+03  0.19514874407E+04  0.12699999809E+01 0. -1.
</event>
<event>
 5   0  0.1879500E-08  0.3976086E+04  0.7818609E-02  0.8009388E-01
       -1   -1    0    0    0  501  0.00000000000E+00  0.00000000000E+00  0.12905177869E+04  0.12905177869E+04  0.50400001928E-02 0.  1.
        1   -1    0    0  501    0  0.00000000000E+00  0.00000000000E+00 -0.30625806484E+04  0.30625806484E+04  0.50400001928E-02 0. -1.
    10030    2    1    2    0    0  0.00000000000E+00  0.00000000000E+00 -0.17720628615E+04  0.43530984353E+04  0.39760859148E+04 0.  0.
        2    1    3    3  502    0  0.95463293361E+03 -0.79852631106E+03 -0.25833013795E+04  0.28674752527E+04  0.25500000920E-02 0. -1.
       -2    1    3    3    0  502 -0.95463293361E+03  0.79852631106E+03  0.81123851801E+03  0.14856231825E+04  0.25500000920E-02 0.  1.
</event>
<event>
 5   0  0.5888700E-08  0.4040369E+04  0.7818609E-02  0.7996452E-01
        2   -1    0    0  501    0  0.00000000000E+00  0.00000000000E+00  0.27676798050E+04  0.27676798050E+04  0.25500000920E-02 0. -1.
       -2   -1    0    0    0  501  0.00000000000E+00  0.00000000000E+00 -0.14745731185E+04  0.14745731185E+04  0.25500000920E-02 0.  1.
    10030    2    1    2    0    0  0.00000000000E+00  0.00000000000E+00  0.12931066866E+04  0.42422529235E+04  0.40403694093E+04 0.  0.
        5    1    3    3  502    0 -0.32348726522E+03 -0.64252572373E+03 -0.13355324408E+04  0.15169549456E+04  0.46999998093E+01 0.  1.
       -5    1    3    3    0  502  0.32348726522E+03  0.64252572373E+03  0.26286391274E+04  0.27252979779E+04  0.46999998093E+01 0. -1.
</event>
<event>
 5   0  0.1879500E-08  0.4004318E+04  0.7818609E-02  0.8003676E-01
       -1   -1    0    0    0  501  0.00000000000E+00  0.00000000000E+00  0.26470163726E+04  0.26470163726E+04  0.50400001928E-02 0. -1.
        1   -1    0    0  501    0  0.00000000000E+00  0.00000000000E+00 -0.15143995074E+04  0.15143995074E+04  0.50400001928E-02 0.  1.
    10030    2    1    2    0    0  0.00000000000E+00  0.00000000000E+00  0.11326168652E+04  0.41614158800E+04  0.40043178150E+04 0.  0.
        1    1    3    3  502    0  0.14623258990E+04 -0.85207346288E+03 -0.54533683303E+03  0.17781502980E+04  0.50400001928E-02 0.  1.
       -1    1    3    3    0  502 -0.14623258990E+04  0.85207346288E+03  0.16779536982E+04  0.23832655820E+04  0.50400001928E-02 0. -1.
</event>
<event>
 5   0  0.5945387E-08  0.3989880E+04  0.7818609E-02  0.8006591E-01
       -2   -1    0    0    0  501  0.00000000000E+00  0.00000000000E+00  0.15464698688E+04  0.15464698688E+04  0.25500000920E-02 0. -1.
        2   -1    0    0  501    0  0.00000000000E+00  0.00000000000E+00 -0.25734640476E+04  0.25734640476E+04  0.25500000920E-02 0.  1.
    10030    2    1    2    0    0  0.00000000000E+00  0.00000000000E+00 -0.10269941787E+04  0.41199339164E+04  0.39898795010E+04 0.  0.
        3    1    3    3  502    0 -0.28347923600E+03 -0.18330573639E+04 -0.12718226144E+04  0.22489981212E+04  0.10100000352E+00 0.  1.
       -3    1    3    3    0  502  0.28347923600E+03  0.18330573639E+04  0.24482843561E+03  0.18709357952E+04  0.10100000352E+00 0. -1.
</event>
<event>
 5   0  0.1879500E-08  0.3951640E+04  0.7818609E-02  0.8014374E-01
        1   -1    0    0  501    0  0.00000000000E+00  0.00000000000E+00  0.20732378599E+04  0.20732378599E+04  0.50400001928E-02 0. -1.
       -1   -1    0    0    0  501  0.00000000000E+00  0.00000000000E+00 -0.18829791918E+04  0.18829791918E+04  0.50400001928E-02 0.  1.
    10030    2    1    2    0    0  0.00000000000E+00  0.00000000000E+00  0.19025866810E+03  0.39562170517E+04  0.39516395330E+04 0.  0.
        2    1    3    3  502    0  0.90699507473E+03 -0.15578260712E+04 -0.71475867776E+03  0.19391601536E+04  0.25500000920E-02 0.  1.
       -2    1    3    3    0  502 -0.90699507473E+03  0.15578260712E+04  0.90501734586E+03  0.20170568981E+04  0.25500000920E-02 0. -1.
</event>
<event>
 5   0  0.1879500E-08  0.3986506E+04  0.7818609E-02  0.8007274E-01
        1   -1    0    0  501    0  0.00000000000E+00  0.00000000000E+00  0.22290181643E+04  0.22290181643E+04  0.50400001928E-02 0. -1.
       -1   -1    0    0    0  501  0.00000000000E+00  0.00000000000E+00 -0.17824249783E+04  0.17824249783E+04  0.50400001928E-02 0.  1.
    10030    2    1    2    0    0  0.00000000000E+00  0.00000000000E+00  0.44659318604E+03  0.40114431426E+04  0.39865060657E+04 0.  0.
        4    1    3    3  502    0 -0.98865165618E+03 -0.88086038782E+03 -0.12758918490E+04  0.18388172132E+04  0.12699999809E+01 0.  1.
       -4    1    3    3    0  502  0.98865165618E+03  0.88086038782E+03  0.17224850351E+04  0.21726259294E+04  0.12699999809E+01 0. -1.
</event>
<event>
 5   0  0.5846812E-08  0.3994012E+04  0.7818609E-02  0.8005756E-01
       -2   -1    0    0    0  501  0.00000000000E+00  0.00000000000E+00  0.19152134572E+04  0.19152134572E+04  0.25500000920E-02 0. -1.
        2   -1    0    0  501    0  0.00000000000E+00  0.00000000000E+00 -0.20822915497E+04  0.20822915497E+04  0.25500000920E-02 0.  1.
    10030    2    1    2    0    0  0.00000000000E+00  0.00000000000E+00 -0.16707809251E+03  0.39975050069E+04  0.39940119167E+04 0.  0.
        4    1    3    3  502    0  0.96168961039E+03 -0.15376622267E+04 -0.92020024901E+03  0.20337212546E+04  0.12699999809E+01 0.  1.
       -4    1    3    3    0  502 -0.96168961039E+03  0.15376622267E+04  0.75312215650E+03  0.19637837523E+04  0.12699999809E+01 0. -1.
</event>
<event>
 5   0  0.1879500E-08  0.4002810E+04  0.7818609E-02  0.8003980E-01
       -1   -1    0    0    0  501  0.00000000000E+00  0.00000000000E+00  0.15552728534E+04  0.15552728534E+04  0.50400001928E-02 0. -1.
        1   -1    0    0  501    0  0.00000000000E+00  0.00000000000E+00 -0.25755113517E+04  0.25755113517E+04  0.50400001928E-02 0.  1.
    10030    2    1    2    0    0  0.00000000000E+00  0.00000000000E+00 -0.10202384983E+04  0.41307842051E+04  0.40028104571E+04 0.  0.
        5    1    3    3  502    0  0.13951590509E+04  0.76547813398E+03 -0.17626681458E+04  0.23747519098E+04  0.46999998093E+01 0.  1.
       -5    1    3    3    0  502 -0.13951590509E+04 -0.76547813398E+03  0.74242964750E+03  0.17560322953E+04  0.46999998093E+01 0. -1.
</event>
<event>
 5   0  0.5951623E-08  0.3995516E+04  0.7818609E-02  0.8005452E-01
        2   -1    0    0  501    0  0.00000000000E+00  0.00000000000E+00  0.21292055344E+04  0.21292055344E+04  0.25500000920E-02 0.  1.
       -2   -1    0    0    0  501  0.00000000000E+00  0.00000000000E+00 -0.18744251558E+04  0.18744251558E+04  0.25500000920E-02 0. -1.
    10030    2    1    2    0    0  0.00000000000E+00  0.00000000000E+00  0.25478037855E+03  0.40036306902E+04  0.39955156942E+04 0.  0.
        2    1    3    3  502    0  0.58158027073E+03  0.44669282985E+03 -0.17346806773E+04  0.18833181217E+04  0.25500000920E-02 0. -1.
       -2    1    3    3    0  502 -0.58158027073E+03 -0.44669282985E+03  0.19894610558E+04  0.21203125685E+04  0.25500000920E-02 0.  1.
</event>
<event>
 5   0  0.1879500E-08  0.3998236E+04  0.7818609E-02  0.8004903E-01
       -1   -1    0    0    0  501  0.00000000000E+00  0.00000000000E+00  0.32306202300E+04  0.32306202300E+04  0.50400001928E-02 0.  1.
        1   -1    0    0  501    0  0.00000000000E+00  0.00000000000E+00 -0.12370603794E+04  0.12370603794E+04  0.50400001928E-02 0. -1.
    10030    2    1    2    0    0  0.00000000000E+00  0.00000000000E+00  0.19935598506E+04  0.44676806094E+04  0.39982357547E+04 0.  0.
        4    1    3    3  502    0  0.14240128860E+04 -0.31733778356E+02  0.25642084595E+04  0.29332552512E+04  0.12699999809E+01 0.  1.
       -4    1    3    3    0  502 -0.14240128860E+04  0.31733778356E+02 -0.57064860889E+03  0.15344253582E+04  0.12699999809E+01 0. -1.
</event>
<event>
 5   0  0.1879500E-08  0.3991619E+04  0.7818609E-02  0.8006239E-01
       -1   -1    0    0    0  501  0.00000000000E+00  0.00000000000E+00  0.18114593215E+04  0.18114593215E+04  0.50400001928E-02 0.  1.
        1   -1    0    0  501    0  0.00000000000E+00  0.00000000000E+00 -0.21989204068E+04  0.21989204068E+04  0.50400001928E-02 0. -1.
    10030    2    1    2    0    0  0.00000000000E+00  0.00000000000E+00 -0.38746108529E+03  0.40103797283E+04  0.39916186532E+04 0.  0.
        1    1    3    3  502    0  0.19114200962E+04 -0.57386589550E+03 -0.21397512941E+03  0.20071457860E+04  0.50400001928E-02 0.  1.
       -1    1    3    3    0  502 -0.19114200962E+04  0.57386589550E+03 -0.17348595588E+03  0.20032339422E+04  0.50400001928E-02 0. -1.
</event>
<event>
 5   0  0.5951623E-08  0.3903157E+04  0.7818609E-02  0.8024373E-01
        2   -1    0    0  501    0  0.00000000000E+00  0.00000000000E+00  0.14518385019E+04  0.14518385019E+04  0.25500000920E-02 0. -1.
       -2   -1    0    0    0  501  0.00000000000E+00  0.00000000000E+00 -0.26233345304E+04  0.26233345304E+04  0.25500000920E-02 0.  1.
    10030    2    1    2    0    0  0.00000000000E+00  0.00000000000E+00 -0.11714960284E+04  0.40751730323E+04  0.39031567095E+04 0.  0.
        2    1    3    3  502    0 -0.17893797365E+04 -0.60664879871E+03 -0.10959083957E+04  0.21842430768E+04  0.25500000920E-02 0. -1.
       -2    1    3    3    0  502  0.17893797365E+04  0.60664879871E+03 -0.75587632684E+02  0.18909299555E+04  0.25500000920E-02 0.  1.
</event>
<event>
 5   0  0.5846812E-08  0.3994074E+04  0.7818609E-02  0.8005743E-01
       -2   -1    0    0    0  501  0.00000000000E+00  0.00000000000E+00  0.18880147848E+04  0.18880147848E+04  0.25500000920E-02 0. -1.
        2   -1    0    0  501    0  0.00000000000E+00  0.00000000000E+00 -0.21123541680E+04  0.21123541680E+04  0.25500000920E-02 0.  1.
    10030    2    1    2    0    0  0.00000000000E+00  0.00000000000E+00 -0.22433938313E+03  0.40003689528E+04  0.39940735597E+04 0.  0.
        4    1    3    3  502    0 -0.18519286375E+04 -0.73267002446E+03 -0.25974249880E+03  0.20084603112E+04  0.12699999809E+01 0.  1.
       -4    1    3    3    0  502  0.18519286375E+04  0.73267002446E+03  0.35403115661E+02  0.19919086416E+04  0.12699999809E+01 0. -1.
</event>
<event>
 5   0  0.1879500E-08  0.4013287E+04  0.7818609E-02  0.8001871E-01
       -1   -1    0    0    0  501  0.00000000000E+00  0.00000000000E+00  0.17200390102E+04  0.17200390102E+04  0.50400001928E-02 0. -1.
        1   -1    0    0  501    0  0.00000000000E+00  0.00000000000E+00 -0.23410044028E+04  0.23410044029E+04  0.50400001928E-02 0.  1.
    10030    2    1    2    0    0  0.00000000000E+00  0.00000000000E+00 -0.62096539263E+03  0.40610434131E+04  0.40132873787E+04 0.  0.
        2    1    3    3  502    0  0.15859526584E+04  0.85848778873E+03  0.57997262018E+03  0.18943641039E+04  0.25500000920E-02 0. -1.
       -2    1    3    3    0  502 -0.15859526584E+04 -0.85848778873E+03 -0.12009380128E+04  0.21666793091E+04  0.25500000920E-02 0.  1.
</event>
<event>
 5   0  0.1879500E-08  0.4028797E+04  0.7818609E-02  0.7998762E-01
       -1   -1    0    0    0  501  0.00000000000E+00  0.00000000000E+00  0.21753775629E+04  0.21753775629E+04  0.50400001928E-02 0.  1.
        1   -1    0    0  501    0  0.00000000000E+00  0.00000000000E+00 -0.18653317312E+04  0.18653317312E+04  0.50400001928E-02 0. -1.
    10030    2    1    2    0    0  0.00000000000E+00  0.00000000000E+00  0.31004583170E+03  0.40407092941E+04  0.40287967412E+04 0.  0.
        3    1    3    3  502    0  0.10628190468E+04 -0.41617049532E+03 -0.15097098031E+04  0.18926187960E+04  0.10100000352E+00 0. -1.
       -3    1    3    3    0  502 -0.10628190468E+04  0.41617049532E+03  0.18197556348E+04  0.21480904981E+04  0.10100000352E+00 0.  1.
</event>
<event>
 5   0  0.1879500E-08  0.3996562E+04  0.7818609E-02  0.8005240E-01
        1   -1    0    0  501    0  0.00000000000E+00  0.00000000000E+00  0.21689786067E+04  0.21689786067E+04  0.50400001928E-02 0.  1.
       -1   -1    0    0    0  501  0.00000000000E+00  0.00000000000E+00 -0.18410174959E+04  0.18410174959E+04  0.50400001928E-02 0. -1.
    10030    2    1    2    0    0  0.00000000000E+00  0.00000000000E+00  0.32796111077E+03  0.40099961027E+04  0.39965623044E+04 0.  0.
        1    1    3    3  502    0 -0.10747538987E+04  0.13776412021E+04  0.11368460105E+04  0.20845647210E+04  0.50400001928E-02 0.  1.
       -1    1    3    3    0  502  0.10747538987E+04 -0.13776412021E+04 -0.80888489968E+03  0.19254313817E+04  0.50400001928E-02 0. -1.
</event>
<event>
 5   0  0.5846812E-08  0.3975304E+04  0.7818609E-02  0.8009547E-01
        2   -1    0    0  501    0  0.00000000000E+00  0.00000000000E+00  0.21351851006E+04  0.21351851006E+04  0.25500000920E-02 0. -1.
       -2   -1    0    0    0  501  0.00000000000E+00  0.00000000000E+00 -0.18503126073E+04  0.18503126073E+04  0.25500000920E-02 0.  1.
    10030    2    1    2    0    0  0.00000000000E+00  0.00000000000E+00  0.28487249333E+03  0.39854977079E+04  0.39753037170E+04 0.  0.
        4    1    3    3  502    0 -0.10039083967E+04  0.69232812034E+03  0.17160496715E+04  0.21052264447E+04  0.12699999809E+01 0. -1.
       -4    1    3    3    0  502  0.10039083967E+04 -0.69232812034E+03 -0.14311771782E+04  0.18802712633E+04  0.12699999809E+01 0.  1.
</event>
<event>
 5   0  0.1879500E-08  0.4027781E+04  0.7818609E-02  0.7998966E-01
        1   -1    0    0  501    0  0.00000000000E+00  0.00000000000E+00  0.18646817819E+04  0.18646817820E+04  0.50400001928E-02 0.  1.
       -1   -1    0    0    0  501  0.00000000000E+00  0.00000000000E+00 -0.21750387876E+04  0.21750387876E+04  0.50400001928E-02 0. -1.
    10030    2    1    2    0    0  0.00000000000E+00  0.00000000000E+00 -0.31035700567E+03  0.40397205696E+04  0.40277811273E+04 0.  0.
        3    1    3    3  502    0  0.14261386576E+04  0.52172156428E+03 -0.14818581267E+04  0.21217842442E+04  0.10100000352E+00 0. -1.
       -3    1    3    3    0  502 -0.14261386576E+04 -0.52172156428E+03  0.11715011210E+04  0.19179363253E+04  0.10100000352E+00 0.  1.
</event>
<event>
 5   0  0.1879500E-08  0.4000516E+04  0.7818609E-02  0.8004442E-01
        1   -1    0    0  501    0  0.00000000000E+00  0.00000000000E+00  0.12306675755E+04  0.12306675755E+04  0.50400001928E-02 0.  1.
       -1   -1    0    0    0  501  0.00000000000E+00  0.00000000000E+00 -0.32511075451E+04  0.32511075451E+04  0.50400001928E-02 0. -1.
    10030    2    1    2    0    0  0.00000000000E+00  0.00000000000E+00 -0.20204399696E+04  0.44817751206E+04  0.40005162868E+04 0.  0.
        1    1    3    3  502    0 -0.13722818683E+03 -0.15497422430E+04  0.39819706841E+03  0.16059556346E+04  0.50400001928E-02 0.  1.
       -1    1    3    3    0  502  0.13722818683E+03  0.15497422430E+04 -0.24186370380E+04  0.28758194861E+04  0.50400001928E-02 0. -1.
</event>
<event>
 5   0  0.1879500E-08  0.4006758E+04  0.7818609E-02  0.8003185E-01
       -1   -1    0    0    0  501  0.00000000000E+00  0.00000000000E+00  0.22559567333E+04  0.22559567333E+04  0.50400001928E-02 0. -1.
        1   -1    0    0  501    0  0.00000000000E+00  0.00000000000E+00 -0.17790803568E+04  0.17790803569E+04  0.50400001928E-02 0.  1.
    10030    2    1    2    0    0  0.00000000000E+00  0.00000000000E+00  0.47687637645E+03  0.40350370902E+04  0.40067584455E+04 0.  0.
        1    1    3    3  502    0 -0.91332397776E+03 -0.68729075080E+03 -0.14184699133E+04  0.18216987016E+04  0.50400001928E-02 0.  1.
       -1    1    3    3    0  502  0.91332397776E+03  0.68729075080E+03  0.18953462897E+04  0.22133383886E+04  0.50400001928E-02 0. -1.
</event>
<event>
 5   0  0.5846812E-08  0.3746437E+04  0.7818609E-02  0.8057748E-01
       -2   -1    0    0    0  501  0.00000000000E+00  0.00000000000E+00  0.14200233232E+04  0.14200233232E+04  0.25500000920E-02 0. -1.
        2   -1    0    0  501    0  0.00000000000E+00  0.00000000000E+00 -0.24710494744E+04  0.24710494744E+04  0.25500000920E-02 0.  1.
    10030    2    1    2    0    0  0.00000000000E+00  0.00000000000E+00 -0.10510261511E+04  0.38910727976E+04  0.37464371803E+04 0.  0.
        4    1    3    3  502    0 -0.15209942095E+03 -0.18006964717E+04 -0.10378147255E+04  0.20839153136E+04  0.12699999809E+01 0.  1.
       -4    1    3    3    0  502  0.15209942095E+03  0.18006964717E+04 -0.13211425657E+02  0.18071574839E+04  0.12699999809E+01 0. -1.
</event>
<event>
 5   0  0.5945387E-08  0.3998579E+04  0.7818609E-02  0.8004833E-01
       -2   -1    0    0    0  501  0.00000000000E+00  0.00000000000E+00  0.19859385845E+04  0.19859385845E+04  0.25500000920E-02 0. -1.
        2   -1    0    0  501    0  0.00000000000E+00  0.00000000000E+00 -0.20127299278E+04  0.20127299278E+04  0.25500000920E-02 0.  1.
    10030    2    1    2    0    0  0.00000000000E+00  0.00000000000E+00 -0.26791343308E+02  0.39986685124E+04  0.39985787595E+04 0.  0.
        3    1    3    3  502    0  0.70463024845E+03  0.24716944364E+03  0.18412514389E+04  0.19869079980E+04  0.10100000352E+00 0. -1.
       -3    1    3    3    0  502 -0.70463024845E+03 -0.24716944364E+03 -0.18680427822E+04  0.20117605144E+04  0.10100000352E+00 0.  1.
</event>
<event>
 5   0  0.5888700E-08  0.4004051E+04  0.7818609E-02  0.8003730E-01
       -2   -1    0    0    0  501  0.00000000000E+00  0.00000000000E+00  0.17119211757E+04  0.17119211757E+04  0.25500000920E-02 0.  1.
        2   -1    0    0  501    0  0.00000000000E+00  0.00000000000E+00 -0.23412915129E+04  0.23412915129E+04  0.25500000920E-02 0. -1.
    10030    2    1    2    0    0  0.00000000000E+00  0.00000000000E+00 -0.62937033721E+03  0.40532126885E+04  0.40040512081E+04 0.  0.
        5    1    3    3  502    0 -0.18951684746E+03 -0.63368987690E+03  0.15981197103E+04  0.17295919154E+04  0.46999998093E+01 0.  1.
       -5    1    3    3    0  502  0.18951684746E+03  0.63368987690E+03 -0.22274900475E+04  0.23236207731E+04  0.46999998093E+01 0. -1.
</event>
<event>
 5   0  0.5945387E-08  0.3985780E+04  0.7818609E-02  0.8007421E-01
       -2   -1    0    0    0  501  0.00000000000E+00  0.00000000000E+00  0.32516830156E+04  0.32516830156E+04  0.25500000920E-02 0. -1.
        2   -1    0    0  501    0  0.00000000000E+00  0.00000000000E+00 -0.12214013030E+04  0.12214013030E+04  0.25500000920E-02 0.  1.
    10030    2    1    2    0    0  0.00000000000E+00  0.00000000000E+00  0.20302817126E+04  0.44730843186E+04  0.39857796589E+04 0.  0.
        3    1    3    3  502    0 -0.77252284411E+03  0.21372422185E+03 -0.10325285691E+04  0.13071284726E+04  0.10100000352E+00 0.  1.
       -3    1    3    3    0  502  0.77252284411E+03 -0.21372422185E+03  0.30628102817E+04  0.31659558461E+04  0.10100000352E+00 0. -1.
</event>
<event>
 5   0  0.1879500E-08  0.4008550E+04  0.7818609E-02  0.8002824E-01
        1   -1    0    0  501    0  0.00000000000E+00  0.00000000000E+00  0.28152856577E+04  0.28152856577E+04  0.50400001928E-02 0. -1.
       -1   -1    0    0    0  501  0.00000000000E+00  0.00000000000E+00 -0.14268951978E+04  0.14268951978E+04  0.50400001928E-02 0.  1.
    10030    2    1    2    0    0  0.00000000000E+00  0.00000000000E+00  0.13883904599E+04  0.42421808555E+04  0.40085496557E+04 0.  0.
        5    1    3    3  502    0  0.15818019617E+04 -0.22846745880E+03 -0.58575913934E+03  0.17021840926E+04  0.46999998093E+01 0.  1.
       -5    1    3    3    0  502 -0.15818019617E+04  0.22846745880E+03  0.19741495992E+04  0.25399967629E+04  0.46999998093E+01 0. -1.
</event>
<event>
 5   0  0.5888700E-08  0.4008215E+04  0.7818609E-02  0.8002891E-01
       -2   -1    0    0    0  501  0.00000000000E+00  0.00000000000E+00  0.19632623243E+04  0.19632623243E+04  0.25500000920E-02 0.  1.
        2   -1    0    0  501    0  0.00000000000E+00  0.00000000000E+00 -0.20458029563E+04  0.20458029563E+04  0.25500000920E-02 0. -1.
    10030    2    1    2    0    0  0.00000000000E+00  0.00000000000E+00 -0.82540631983E+02  0.40090652806E+04  0.40082154967E+04 0.  0.
        5    1    3    3  502    0  0.95478715214E+03 -0.93558306576E+03  0.14521944642E+04  0.19737844438E+04  0.46999998093E+01 0.  1.
       -5    1    3    3    0  502 -0.95478715214E+03  0.93558306576E+03 -0.15347350962E+04  0.20352808367E+04  0.46999998093E+01 0. -1.
</event>
<event>
 5   0  0.5951623E-08  0.3928610E+04  0.7818609E-02  0.8019105E-01
        2   -1    0    0  501    0  0.00000000000E+00  0.00000000000E+00  0.26373211562E+04  0.26373211562E+04  0.25500000920E-02 0. -1.
       -2   -1    0    0    0  501  0.00000000000E+00  0.00000000000E+00 -0.14630354226E+04  0.14630354226E+04  0.25500000920E-02 0.  1.
    10030    2    1    2    0    0  0.00000000000E+00  0.00000000000E+00  0.11742857336E+04  0.41003565787E+04  0.39286100708E+04 0.  0.
        2    1    3    3  502    0 -0.10453583190E+04  0.11077459664E+04  0.18817806106E+04  0.24209447346E+04  0.25500000920E-02 0. -1.
       -2    1    3    3    0  502  0.10453583190E+04 -0.11077459664E+04 -0.70749487706E+03  0.16794118442E+04  0.25500000920E-02 0.  1.
</event>
<event>
 5   0  0.5888700E-08  0.4025627E+04  0.7818609E-02  0.7999397E-01
       -2   -1    0    0    0  501  0.00000000000E+00  0.00000000000E+00  0.18484757960E+04  0.18484757960E+04  0.25500000920E-02 0. -1.
        2   -1    0    0  501    0  0.00000000000E+00  0.00000000000E+00 -0.21917615411E+04  0.21917615411E+04  0.25500000920E-02 0.  1.
    10030    2    1    2    0    0  0.00000000000E+00  0.00000000000E+00 -0.34328574506E+03  0.40402373371E+04  0.40256269869E+04 0.  0.
        5    1    3    3  502    0  0.99781818721E+03  0.80047120296E+03  0.13880244939E+04  0.18875988364E+04  0.46999998093E+01 0. -1.
       -5    1    3    3    0  502 -0.99781818721E+03 -0.80047120296E+03 -0.17313102389E+04  0.21526385007E+04  0.46999998093E+01 0.  1.
</event>
<event>
 5   0  0.1879500E-08  0.3997897E+04  0.7818609E-02  0.8004971E-01
       -1   -1    0    0    0  501  0.00000000000E+00  0.00000000000E+00  0.20178687905E+04  0.20178687905E+04  0.50400001928E-02 0. -1.
        1   -1    0    0  501    0  0.00000000000E+00  0.00000000000E+00 -0.19802055343E+04  0.19802055344E+04  0.50400001928E-02 0.  1.
    10030    2    1    2    0    0  0.00000000000E+00  0.00000000000E+00  0.37663256187E+02  0.39980743249E+04  0.39978969204E+04 0.  0.
        1    1    3    3  502    0  0.96467807454E+03 -0.16419686340E+04  0.62641941985E+03  0.20047608516E+04  0.50400001928E-02 0.  1.
       -1    1    3    3    0  502 -0.96467807454E+03  0.16419686340E+04 -0.58875616366E+03  0.19933134733E+04  0.50400001928E-02 0. -1.
</event>
<event>
 5   0  0.5951623E-08  0.3970202E+04  0.7818609E-02  0.8010585E-01
       -2   -1    0    0    0  501  0.00000000000E+00  0.00000000000E+00  0.15522606154E+04  0.15522606154E+04  0.25500000920E-02 0. -1.
        2   -1    0    0  501    0  0.00000000000E+00  0.00000000000E+00 -0.25386366218E+04  0.25386366218E+04  0.25500000920E-02 0.  1.
    10030    2    1    2    0    0  0.00000000000E+00  0.00000000000E+00 -0.98637600641E+03  0.40908972372E+04  0.39702018311E+04 0.  0.
        2    1    3    3  502    0 -0.14902009863E+04  0.30642343154E+03  0.82073659027E+03  0.17286419090E+04  0.25500000920E-02 0. -1.
       -2    1    3    3    0  502  0.14902009863E+04 -0.30642343154E+03 -0.18071125967E+04  0.23622553283E+04  0.25500000920E-02 0.  1.
</event>
<event>
 5   0  0.1879500E-08  0.4000240E+04  0.7818609E-02  0.8004498E-01
       -1   -1    0    0    0  501  0.00000000000E+00  0.00000000000E+00  0.14616506359E+04  0.14616506359E+04  0.50400001928E-02 0.  1.
        1   -1    0    0  501    0  0.00000000000E+00  0.00000000000E+00 -0.27369606330E+04  0.27369606330E+04  0.50400001928E-02 0. -1.
    10030    2    1    2    0    0  0.00000000000E+00  0.00000000000E+00 -0.12753099971E+04  0.41986112688E+04  0.40002401176E+04 0.  0.
        5    1    3    3  502    0  0.92340279567E+03 -0.23416153179E+03 -0.24835471511E+04  0.26599873849E+04  0.46999998093E+01 0. -1.
       -5    1    3    3    0  502 -0.92340279567E+03  0.23416153179E+03  0.12082371540E+04  0.15386238840E+04  0.46999998093E+01 0.  1.
</event>
<event>
 5   0  0.1879500E-08  0.4007136E+04  0.7818609E-02  0.8003109E-01
       -1   -1    0    0    0  501  0.00000000000E+00  0.00000000000E+00  0.15542930130E+04  0.15542930131E+04  0.50400001928E-02 0.  1.
        1   -1    0    0  501    0  0.00000000000E+00  0.00000000000E+00 -0.25827071868E+04  0.25827071868E+04  0.50400001928E-02 0. -1.
    10030    2    1    2    0    0  0.00000000000E+00  0.00000000000E+00 -0.10284141738E+04  0.41370001999E+04  0.40071355032E+04 0.  0.
        5    1    3    3  502    0 -0.80738231471E+03 -0.59166362108E+02 -0.24063316051E+04  0.25388620963E+04  0.46999998093E+01 0. -1.
       -5    1    3    3    0  502  0.80738231471E+03  0.59166362108E+02  0.13779174313E+04  0.15981381036E+04  0.46999998093E+01 0.  1.
</event>
<event>
 5   0  0.5846812E-08  0.4185754E+04  0.7818609E-02  0.7968088E-01
       -2   -1    0    0    0  501  0.00000000000E+00  0.00000000000E+00  0.15520395302E+04  0.15520395302E+04  0.25500000920E-02 0. -1.
        2   -1    0    0  501    0  0.00000000000E+00  0.00000000000E+00 -0.28221788306E+04  0.28221788306E+04  0.25500000920E-02 0.  1.
    10030    2    1    2    0    0  0.00000000000E+00  0.00000000000E+00 -0.12701393005E+04  0.43742183608E+04  0.41857535075E+04 0.  0.
        4    1    3    3  502    0 -0.12824847188E+04  0.11346678573E+04 -0.18925322810E+04  0.25522378901E+04  0.12699999809E+01 0.  1.
       -4    1    3    3    0  502  0.12824847188E+04 -0.11346678573E+04  0.62239298052E+03  0.18219804707E+04  0.12699999809E+01 0. -1.
</event>
<event>
 5   0  0.1879500E-08  0.3998829E+04  0.7818609E-02  0.8004783E-01
       -1   -1    0    0    0  501  0.00000000000E+00  0.00000000000E+00  0.24727086119E+04  0.24727086119E+04  0.50400001928E-02 0.  1.
        1   -1    0    0  501    0  0.00000000000E+00  0.00000000000E+00 -0.16167124223E+04  0.16167124223E+04  0.50400001928E-02 0. -1.
    10030    2    1    2    0    0  0.00000000000E+00  0.00000000000E+00  0.85599618957E+03  0.40894210341E+04  0.39988291934E+04 0.  0.
        5    1    3    3  502    0 -0.15369732824E+04  0.73122308864E+02 -0.87764104462E+03  0.17714145862E+04  0.46999998093E+01 0. -1.
       -5    1    3    3    0  502  0.15369732824E+04 -0.73122308864E+02  0.17336372342E+04  0.23180064480E+04  0.46999998093E+01 0.  1.
</event>
<event>
 5   0  0.1879500E-08  0.4002468E+04  0.7818609E-02  0.8004049E-01
        1   -1    0    0  501    0  0.00000000000E+00  0.00000000000E+00  0.18130969919E+04  0.18130969919E+04  0.50400001928E-02 0. -1.
       -1   -1    0    0    0  501  0.00000000000E+00  0.00000000000E+00 -0.22088934885E+04  0.22088934885E+04  0.50400001928E-02 0.  1.
    10030    2    1    2    0    0  0.00000000000E+00  0.00000000000E+00 -0.39579649657E+03  0.40219904804E+04  0.40024683082E+04 0.  0.
        1    1    3    3  502    0 -0.73262669820E+03  0.64921073721E+03  0.15561015049E+04  0.18383874330E+04  0.50400001928E-02 0. -1.
       -1    1    3    3    0  502  0.73262669820E+03 -0.64921073721E+03 -0.19518980015E+04  0.21836030474E+04  0.50400001928E-02 0.  1.
</event>
<event>
 5   0  0.1879500E-08  0.4023281E+04  0.7818609E-02  0.7999867E-01
       -1   -1    0    0    0  501  0.00000000000E+00  0.00000000000E+00  0.17168698336E+04  0.17168698337E+04  0.50400001928E-02 0.  1.
        1   -1    0    0  501    0  0.00000000000E+00  0.00000000000E+00 -0.23570201415E+04  0.23570201415E+04  0.50400001928E-02 0. -1.
    10030    2    1    2    0    0  0.00000000000E+00  0.00000000000E+00 -0.64015030780E+03  0.40738899751E+04  0.40232806406E+04 0.  0.
        5    1    3    3  502    0  0.19943198821E+04  0.26218660223E+03 -0.34531015405E+03  0.20409102869E+04  0.46999998093E+01 0.  1.
       -5    1    3    3    0  502 -0.19943198821E+04 -0.26218660223E+03 -0.29484015375E+03  0.20329796882E+04  0.46999998093E+01 0. -1.
</event>
<event>
 5   0  0.5888700E-08  0.3991684E+04  0.7818609E-02  0.8006226E-01
        2   -1    0    0  501    0  0.00000000000E+00  0.00000000000E+00  0.19397575059E+04  0.19397575059E+04  0.25500000920E-02 0.  1.
       -2   -1    0    0    0  501  0.00000000000E+00  0.00000000000E+00 -0.20535481103E+04  0.20535481103E+04  0.25500000920E-02 0. -1.
    10030    2    1    2    0    0  0.00000000000E+00  0.00000000000E+00 -0.11379060443E+03  0.39933056162E+04  0.39916840359E+04 0.  0.
        5    1    3    3  502    0  0.18604180465E+04 -0.40460737047E+03 -0.65588793335E+03  0.20137213072E+04  0.46999998093E+01 0. -1.
       -5    1    3    3    0  502 -0.18604180465E+04  0.40460737047E+03  0.54209732893E+03  0.19795843089E+04  0.46999998093E+01 0.  1.
</event>
<event>
 5   0  0.1879500E-08  0.3989308E+04  0.7818609E-02  0.8006707E-01
       -1   -1    0    0    0  501  0.00000000000E+00  0.00000000000E+00  0.16580745219E+04  0.16580745220E+04  0.50400001928E-02 0. -1.
        1   -1    0    0  501    0  0.00000000000E+00  0.00000000000E+00 -0.23995575000E+04  0.23995575000E+04  0.50400001928E-02 0.  1.
    10030    2    1    2    0    0  0.00000000000E+00  0.00000000000E+00 -0.74148297802E+03  0.40576320219E+04  0.39893082882E+04 0.  0.
        1    1    3    3  502    0 -0.19416395957E+04  0.19110092185E+03  0.51287994368E+02  0.19516952478E+04  0.50400001928E-02 0. -1.
       -1    1    3    3    0  502  0.19416395957E+04 -0.19110092185E+03 -0.79277097239E+03  0.21059367741E+04  0.50400001928E-02 0.  1.
</event>
<event>
 5   0  0.5888700E-08  0.4004091E+04  0.7818609E-02  0.8003722E-01
        2   -1    0    0  501    0  0.00000000000E+00  0.00000000000E+00  0.25578993049E+04  0.25578993049E+04  0.25500000920E-02 0. -1.
       -2   -1    0    0    0  501  0.00000000000E+00  0.00000000000E+00 -0.15669835742E+04  0.15669835742E+04  0.25500000920E-02 0.  1.
    10030    2    1    2    0    0  0.00000000000E+00  0.00000000000E+00  0.99091573070E+03  0.41248828790E+04  0.40040910055E+04 0.  0.
        5    1    3    3  502    0 -0.89603546038E+03  0.51978097117E+03  0.22603576229E+04  0.24864212188E+04  0.46999998093E+01 0. -1.
       -5    1    3    3    0  502  0.89603546038E+03 -0.51978097117E+03 -0.12694418922E+04  0.16384616602E+04  0.46999998093E+01 0.  1.
</event>
<event>
 5   0  0.1879500E-08  0.4026095E+04  0.7818609E-02  0.7999303E-01
        1   -1    0    0  501    0  0.00000000000E+00  0.00000000000E+00  0.21150096888E+04  0.21150096888E+04  0.50400001928E-02 0.  1.
       -1   -1    0    0    0  501  0.00000000000E+00  0.00000000000E+00 -0.19160006539E+04  0.19160006539E+04  0.50400001928E-02 0. -1.
    10030    2    1    2    0    0  0.00000000000E+00  0.00000000000E+00  0.19900903486E+03  0.40310103427E+04  0.40260948557E+04 0.  0.
        5    1    3    3  502    0  0.93094737186E+03 -0.13199607224E+04  0.13023782233E+04  0.20748904656E+04  0.46999998093E+01 0.  1.
       -5    1    3    3    0  502 -0.93094737186E+03  0.13199607224E+04 -0.11033691884E+04  0.19561198771E+04  0.46999998093E+01 0. -1.
</event>
<event>
 5   0  0.5846812E-08  0.3984368E+04  0.7818609E-02  0.8007708E-01
       -2   -1    0    0    0  501  0.00000000000E+00  0.00000000000E+00  0.18426259626E+04  0.18426259626E+04  0.25500000920E-02 0. -1.
        2   -1    0    0  501    0  0.00000000000E+00  0.00000000000E+00 -0.21538806288E+04  0.21538806288E+04  0.25500000920E-02 0.  1.
    10030    2    1    2    0    0  0.00000000000E+00  0.00000000000E+00 -0.31125466618E+03  0.39965065913E+04  0.39843676371E+04 0.  0.
        4    1    3    3  502    0  0.53497889373E+03  0.18177833319E+04 -0.77252637706E+03  0.20462984325E+04  0.12699999809E+01 0.  1.
       -4    1    3    3    0  502 -0.53497889373E+03 -0.18177833319E+04  0.46127171087E+03  0.19502081588E+04  0.12699999809E+01 0. -1.
</event>
<event>
 5   0  0.1879500E-08  0.4010871E+04  0.7818609E-02  0.8002357E-01
        1   -1    0    0  501    0  0.00000000000E+00  0.00000000000E+00  0.19663198672E+04  0.19663198672E+04  0.50400001928E-02 0. -1.
       -1   -1    0    0    0  501  0.00000000000E+00  0.00000000000E+00 -0.20453289087E+04  0.20453289088E+04  0.50400001928E-02 0.  1.
    10030    2    1    2    0    0  0.00000000000E+00  0.00000000000E+00 -0.79009041518E+02  0.40116487760E+04  0.40108706627E+04 0.  0.
        4    1    3    3  502    0 -0.18286803527E+04  0.81052650910E+03 -0.18356093572E+03  0.20086615654E+04  0.12699999809E+01 0.  1.
       -4    1    3    3    0  502  0.18286803527E+04 -0.81052650910E+03  0.10455189421E+03  0.20029872106E+04  0.12699999809E+01 0. -1.
</event>
<event>
 5   0  0.1879500E-08  0.4005689E+04  0.7818609E-02  0.8003400E-01
        1   -1    0    0  501    0  0.00000000000E+00  0.00000000000E+00  0.18287604593E+04  0.18287604593E+04  0.50400001928E-02 0.  1.
       -1   -1    0    0    0  501  0.00000000000E+00  0.00000000000E+00 -0.21934998058E+04  0.21934998058E+04  0.50400001928E-02 0. -1.
    10030    2    1    2    0    0  0.00000000000E+00  0.00000000000E+00 -0.36473934650E+03  0.40222602650E+04  0.40056888108E+04 0.  0.
        2    1    3    3  502    0  0.89149903328E+03  0.81400816148E+03 -0.17871068330E+04  0.21566480116E+04  0.25500000920E-02 0. -1.
       -2    1    3    3    0  502 -0.89149903328E+03 -0.81400816148E+03  0.14223674865E+04  0.18656122534E+04  0.25500000920E-02 0.  1.
</event>
<event>
 5   0  0.1879500E-08  0.3998308E+04  0.7818609E-02  0.8004888E-01
       -1   -1    0    0    0  501  0.00000000000E+00  0.00000000000E+00  0.18801089477E+04  0.18801089477E+04  0.50400001928E-02 0. -1.
        1   -1    0    0  501    0  0.00000000000E+00  0.00000000000E+00 -0.21257365149E+04  0.21257365149E+04  0.50400001928E-02 0.  1.
    10030    2    1    2    0    0  0.00000000000E+00  0.00000000000E+00 -0.24562756715E+03  0.40058454626E+04  0.39983077631E+04 0.  0.
        3    1    3    3  502    0 -0.79048082774E+03 -0.83155845180E+02  0.17149947772E+04  0.18902333003E+04  0.10100000352E+00 0. -1.
       -3    1    3    3    0  502  0.79048082774E+03  0.83155845180E+02 -0.19606223444E+04  0.21156121622E+04  0.10100000352E+00 0.  1.
</event>
<event>
 5   0  0.5945387E-08  0.4017734E+04  0.7818609E-02  0.8000979E-01
        2   -1    0    0  501    0  0.00000000000E+00  0.00000000000E+00  0.21332350909E+04  0.21332350909E+04  0.25500000920E-02 0. -1.
       -2   -1    0    0    0  501  0.00000000000E+00  0.00000000000E+00 -0.18917497195E+04  0.18917497195E+04  0.25500000920E-02 0.  1.
    10030    2    1    2    0    0  0.00000000000E+00  0.00000000000E+00  0.24148537142E+03  0.40249848104E+04  0.40177341300E+04 0.  0.
        3    1    3    3  502    0  0.16312737744E+03  0.15974483121E+04 -0.10885377278E+04  0.19399397017E+04  0.10100000352E+00 0.  1.
       -3    1    3    3    0  502 -0.16312737744E+03 -0.15974483121E+04  0.13300230992E+04  0.20850451088E+04  0.10100000352E+00 0. -1.
</event>
<event>
 5   0  0.1879500E-08  0.3990353E+04  0.7818609E-02  0.8006496E-01
       -1   -1    0    0    0  501  0.00000000000E+00  0.00000000000E+00  0.12975804084E+04  0.12975804084E+04  0.50400001928E-02 0.  1.
        1   -1    0    0  501    0  0.00000000000E+00  0.00000000000E+00 -0.30678086309E+04  0.30678086309E+04  0.50400001928E-02 0. -1.
    10030    2    1    2    0    0  0.00000000000E+00  0.00000000000E+00 -0.17702282225E+04  0.43653890394E+04  0.39903525540E+04 0.  0.
        2    1    3    3  502    0  0.18863027399E+03  0.33065858662E+03 -0.30277103416E+04  0.30515481962E+04  0.25500000920E-02 0. -1.
       -2    1    3    3    0  502 -0.18863027399E+03 -0.33065858662E+03  0.12574821191E+04  0.13138408431E+04  0.25500000920E-02 0.  1.
</event>
<event>
 5   0  0.1879500E-08  0.3995349E+04  0.7818609E-02  0.8005485E-01
        1   -1    0    0  501    0  0.00000000000E+00  0.00000000000E+00  0.19900449546E+04  0.19900449546E+04  0.50400001928E-02 0.  1.
       -1   -1    0    0    0  501  0.00000000000E+00  0.00000000000E+00 -0.20053335649E+04  0.20053335649E+04  0.50400001928E-02 0. -1.
    10030    2    1    2    0    0  0.00000000000E+00  0.00000000000E+00 -0.15288610362E+02  0.39953785195E+04  0.39953492679E+04 0.  0.
        2    1    3    3  502    0  0.47252158672E+03 -0.18749411105E+04 -0.50966702946E+03  0.19996102867E+04  0.25500000920E-02 0. -1.
       -2    1    3    3    0  502 -0.47252158672E+03  0.18749411105E+04  0.49437841910E+03  0.19957682328E+04  0.25500000920E-02 0.  1.
</event>
<event>
 5   0  0.5888700E-08  0.3981717E+04  0.7818609E-02  0.8008245E-01
        2   -1    0    0  501    0  0.00000000000E+00  0.00000000000E+00  0.19245057738E+04  0.19245057738E+04  0.25500000920E-02 0. -1.
       -2   -1    0    0    0  501  0.00000000000E+00  0.00000000000E+00 -0.20594989588E+04  0.20594989588E+04  0.25500000920E-02 0.  1.
    10030    2    1    2    0    0  0.00000000000E+00  0.00000000000E+00 -0.13499318507E+03  0.39840047326E+04  0.39817170353E+04 0.  0.
        5    1    3    3  502    0  0.91901541084E+03  0.17610060185E+04  0.65861734818E+02  0.19874836806E+04  0.46999998093E+01 0.  1.
       -5    1    3    3    0  502 -0.91901541084E+03 -0.17610060185E+04 -0.20085491989E+03  0.19965210520E+04  0.46999998093E+01 0. -1.
</event>
<event>
 5   0  0.5846812E-08  0.4009128E+04  0.7818609E-02  0.8002708E-01
       -2   -1    0    0    0  501  0.00000000000E+00  0.00000000000E+00  0.23792837907E+04  0.23792837907E+04  0.25500000920E-02 0.  1.
        2   -1    0    0  501    0  0.00000000000E+00  0.00000000000E+00 -0.16888602378E+04  0.16888602378E+04  0.25500000920E-02 0. -1.
    10030    2    1    2    0    0  0.00000000000E+00  0.00000000000E+00  0.69042355288E+03  0.40681440286E+04  0.40091284782E+04 0.  0.
        4    1    3    3  502    0 -0.22197894950E+03 -0.30113103397E+03  0.23435466018E+04  0.23732186670E+04  0.12699999809E+01 0.  1.
       -4    1    3    3    0  502  0.22197894950E+03  0.30113103397E+03 -0.16531230489E+04  0.16949253616E+04  0.12699999809E+01 0. -1.
</event>
<event>
 5   0  0.1879500E-08  0.3989879E+04  0.7818609E-02  0.8006591E-01
        1   -1    0    0  501    0  0.00000000000E+00  0.00000000000E+00  0.11513817537E+04  0.11513817537E+04  0.50400001928E-02 0. -1.
       -1   -1    0    0    0  501  0.00000000000E+00  0.00000000000E+00 -0.34565282160E+04  0.34565282160E+04  0.50400001928E-02 0.  1.
    10030    2    1    2    0    0  0.00000000000E+00  0.00000000000E+00 -0.23051464623E+04  0.46079099697E+04  0.39898789550E+04 0.  0.
        2    1    3    3  502    0 -0.15922491434E+04  0.11531716692E+04 -0.15437438861E+04  0.24996414582E+04  0.25500000920E-02 0.  1.
       -2    1    3    3    0  502  0.15922491434E+04 -0.11531716692E+04 -0.76140257620E+03  0.21082685115E+04  0.25500000920E-02 0. -1.
</event>
<event>
 5   0  0.1879500E-08  0.3985932E+04  0.7818609E-02  0.8007390E-01
        1   -1    0    0  501    0  0.00000000000E+00  0.00000000000E+00  0.25073253011E+04  0.25073253011E+04  0.50400001928E-02 0.  1.
       -1   -1    0    0    0  501  0.00000000000E+00  0.00000000000E+00 -0.15841240300E+04  0.15841240300E+04  0.50400001928E-02 0. -1.
    10030    2    1    2    0    0  0.00000000000E+00  0.00000000000E+00  0.92320127107E+03  0.40914493311E+04  0.39859323931E+04 0.  0.
        3    1    3    3  502    0 -0.10451752804E+04  0.10219810402E+04  0.18521117687E+04  0.23594818557E+04  0.10100000352E+00 0.  1.
       -3    1    3    3    0  502  0.10451752804E+04 -0.10219810402E+04 -0.92891049761E+03  0.17319674755E+04  0.10100000352E+00 0. -1.
</event>
<event>
 5   0  0.1879500E-08  0.3997226E+04  0.7818609E-02  0.8005106E-01
        1   -1    0    0  501    0  0.00000000000E+00  0.00000000000E+00  0.26807473671E+04  0.26807473671E+04  0.50400001928E-02 0. -1.
       -1   -1    0    0    0  501  0.00000000000E+00  0.00000000000E+00 -0.14900520817E+04  0.14900520818E+04  0.50400001928E-02 0.  1.
    10030    2    1    2    0    0  0.00000000000E+00  0.00000000000E+00  0.11906952853E+04  0.41707994488E+04  0.39972256354E+04 0.  0.
        5    1    3    3  502    0  0.10001007579E+04 -0.16437720529E+04  0.31278016273E+02  0.19243670368E+04  0.46999998093E+01 0.  1.
       -5    1    3    3    0  502 -0.10001007579E+04  0.16437720529E+04  0.11594172691E+04  0.22464324120E+04  0.46999998093E+01 0. -1.
</event>
<event>
 5   0  0.5951623E-08  0.4002592E+04  0.7818609E-02  0.8004024E-01
        2   -1    0    0  501    0  0.00000000000E+00  0.00000000000E+00  0.15355750081E+04  0.15355750081E+04  0.25500000920E-02 0. -1.
       -2   -1    0    0    0  501  0.00000000000E+00  0.00000000000E+00 -0.26082646600E+04  0.26082646600E+04  0.25500000920E-02 0.  1.
    10030    2    1    2    0    0  0.00000000000E+00  0.00000000000E+00 -0.10726896519E+04  0.41438396682E+04  0.40025921733E+04 0.  0.
        2    1    3    3  502    0 -0.32740177882E+03  0.16964214115E+04  0.50932192401E+03  0.18012346744E+04  0.25500000920E-02 0. -1.
       -2    1    3    3    0  502  0.32740177882E+03 -0.16964214115E+04 -0.15820115759E+04  0.23426049937E+04  0.25500000920E-02 0.  1.
</event>
<event>
 5   0  0.1879500E-08  0.3986683E+04  0.7818609E-02  0.8007238E-01
       -1   -1    0    0    0  501  0.00000000000E+00  0.00000000000E+00  0.19451161442E+04  0.19451161442E+04  0.50400001928E-02 0. -1.
        1   -1    0    0  501    0  0.00000000000E+00  0.00000000000E+00 -0.20427624146E+04  0.20427624146E+04  0.50400001928E-02 0.  1.
    10030    2    1    2    0    0  0.00000000000E+00  0.00000000000E+00 -0.97646270331E+02  0.39878785588E+04  0.39866829076E+04 0.  0.
        1    1    3    3  502    0  0.11977679108E+04  0.14798623197E+04  0.54192125065E+03  0.19794744493E+04  0.50400001928E-02 0. -1.
       -1    1    3    3    0  502 -0.11977679108E+04 -0.14798623197E+04 -0.63956752098E+03  0.20084041095E+04  0.50400001928E-02 0.  1.
</event>
<event>
 5   0  0.5888700E-08  0.3995647E+04  0.7818609E-02  0.8005425E-01
        2   -1    0    0  501    0  0.00000000000E+00  0.00000000000E+00  0.24059815060E+04  0.24059815060E+04  0.25500000920E-02 0. -1.
       -2   -1    0    0    0  501  0.00000000000E+00  0.00000000000E+00 -0.16589068256E+04  0.16589068256E+04  0.25500000920E-02 0.  1.
    10030    2    1    2    0    0  0.00000000000E+00  0.00000000000E+00  0.74707468043E+03  0.40648883315E+04  0.39956472029E+04 0.  0.
        5    1    3    3  502    0  0.14871178060E+04  0.11305185033E+04 -0.34703452479E+03  0.19000122385E+04  0.46999998093E+01 0.  1.
       -5    1    3    3    0  502 -0.14871178060E+04 -0.11305185033E+04  0.10941092052E+04  0.21648760930E+04  0.46999998093E+01 0. -1.
</event>
<event>
 5   0  0.1879500E-08  0.3995736E+04  0.7818609E-02  0.8005407E-01
        1   -1    0    0  501    0  0.00000000000E+00  0.00000000000E+00  0.15154763829E+04  0.15154763829E+04  0.50400001928E-02 0.  1.
       -1   -1    0    0    0  501  0.00000000000E+00  0.00000000000E+00 -0.26338091533E+04  0.26338091533E+04  0.50400001928E-02 0. -1.
    10030    2    1    2    0    0  0.00000000000E+00  0.00000000000E+00 -0.11183327703E+04  0.41492855362E+04  0.39957355112E+04 0.  0.
        3    1    3    3  502    0 -0.85640856320E+03  0.18029441963E+04 -0.64868926001E+03  0.20987713473E+04  0.10100000352E+00 0.  1.
       -3    1    3    3    0  502  0.85640856320E+03 -0.18029441963E+04 -0.46964351032E+03  0.20505141889E+04  0.10100000352E+00 0. -1.
</event>
<event>
 5   0  0.5951623E-08  0.4006279E+04  0.7818609E-02  0.8003281E-01
       -2   -1    0    0    0  501  0.00000000000E+00  0.00000000000E+00  0.15408020139E+04  0.15408020139E+04  0.25500000920E-02 0. -1.
        2   -1    0    0  501    0  0.00000000000E+00  0.00000000000E+00 -0.26042067371E+04  0.26042067371E+04  0.25500000920E-02 0.  1.
    10030    2    1    2    0    0  0.00000000000E+00  0.00000000000E+00 -0.10634047232E+04  0.41450087511E+04  0.40062785651E+04 0.  0.
        2    1    3    3  502    0 -0.12168406561E+04  0.12987272922E+04  0.41946551157E+03  0.18284816317E+04  0.25500000920E-02 0. -1.
       -2    1    3    3    0  502  0.12168406561E+04 -0.12987272922E+04 -0.14828702348E+04  0.23165271194E+04  0.25500000920E-02 0.  1.
</event>
<event>
 5   0  0.5888700E-08  0.4009183E+04  0.7818609E-02  0.8002697E-01
       -2   -1    0    0    0  501  0.00000000000E+00  0.00000000000E+00  0.27019155646E+04  0.27019155646E+04  0.25500000920E-02 0. -1.
        2   -1    0    0  501    0  0.00000000000E+00  0.00000000000E+00 -0.14872366012E+04  0.14872366012E+04  0.25500000920E-02 0.  1.
    10030    2    1    2    0    0  0.00000000000E+00  0.00000000000E+00  0.12146789634E+04  0.41891521658E+04  0.40091833188E+04 0.  0.
        5    1    3    3  502    0 -0.27199302618E+03 -0.16105927477E+04  0.18215602167E+04  0.24466493248E+04  0.46999998093E+01 0. -1.
       -5    1    3    3    0  502  0.27199302618E+03  0.16105927477E+04 -0.60688125327E+03  0.17425028410E+04  0.46999998093E+01 0.  1.
</event>
<event>
 5   0  0.1879500E-08  0.3988369E+04  0.7818609E-02  0.8006897E-01
        1   -1    0    0  501    0  0.00000000000E+00  0.00000000000E+00  0.14564391444E+04  0.14564391444E+04  0.50400001928E-02 0. -1.
       -1   -1    0    0    0  501  0.00000000000E+00  0.00000000000E+00 -0.27304763282E+04  0.27304763282E+04  0.50400001928E-02 0.  1.
    10030    2    1    2    0    0  0.00000000000E+00  0.00000000000E+00 -0.12740371838E+04  0.41869154726E+04  0.39883693947E+04 0.  0.
        1    1    3    3  502    0 -0.16093232260E+04 -0.79514055999E+03  0.27490413476E+03  0.18159686229E+04  0.50400001928E-02 0. -1.
       -1    1    3    3    0  502  0.16093232260E+04  0.79514055999E+03 -0.15489413186E+04  0.23709468497E+04  0.50400001928E-02 0.  1.
</event>
<event>
 5   0  0.1879500E-08  0.4015589E+04  0.7818609E-02  0.8001409E-01
       -1   -1    0    0    0  501  0.00000000000E+00  0.00000000000E+00  0.16600741394E+04  0.16600741394E+04  0.50400001928E-02 0. -1.
        1   -1    0    0  501    0  0.00000000000E+00  0.00000000000E+00 -0.24283483505E+04  0.24283483505E+04  0.50400001928E-02 0.  1.
    10030    2    1    2    0    0  0.00000000000E+00  0.00000000000E+00 -0.76827421109E+03  0.40884224899E+04  0.40155887728E+04 0.  0.
        4    1    3    3  502    0  0.67536723798E+03  0.10808855558E+04 -0.19636629515E+04  0.23410271871E+04  0.12699999809E+01 0.  1.
       -4    1    3    3    0  502 -0.67536723798E+03 -0.10808855558E+04  0.11953887404E+04  0.17473953028E+04  0.12699999809E+01 0. -1.
</event>
<event>
 5   0  0.5945387E-08  0.4006911E+04  0.7818609E-02  0.8003154E-01
       -2   -1    0    0    0  501  0.00000000000E+00  0.00000000000E+00  0.13469559969E+04  0.13469559969E+04  0.25500000920E-02 0.  1.
        2   -1    0    0  501    0  0.00000000000E+00  0.00000000000E+00 -0.29799290510E+04  0.29799290510E+04  0.25500000920E-02 0. -1.
    10030    2    1    2    0    0  0.00000000000E+00  0.00000000000E+00 -0.16329730541E+04  0.43268850480E+04  0.40069106832E+04 0.  0.
        3    1    3    3  502    0 -0.18348308241E+04  0.23369088517E+03  0.14804340836E+02  0.18497120753E+04  0.10100000352E+00 0.  1.
       -3    1    3    3    0  502  0.18348308241E+04 -0.23369088517E+03 -0.16477773949E+04  0.24771729726E+04  0.10100000352E+00 0. -1.
</event>
<event>
 5   0  0.1879500E-08  0.3995170E+04  0.7818609E-02  0.8005522E-01
       -1   -1    0    0    0  501  0.00000000000E+00  0.00000000000E+00  0.15041632116E+04  0.15041632116E+04  0.50400001928E-02 0.  1.
        1   -1    0    0  501    0  0.00000000000E+00  0.00000000000E+00 -0.26528671939E+04  0.26528671939E+04  0.50400001928E-02 0. -1.
    10030    2    1    2    0    0  0.00000000000E+00  0.00000000000E+00 -0.11487039823E+04  0.41570304055E+04  0.39951697027E+04 0.  0.
        5    1    3    3  502    0 -0.85157587352E+03 -0.10593362968E+04  0.94883708096E+03  0.16576153819E+04  0.46999998093E+01 0.  1.
       -5    1    3    3    0  502  0.85157587352E+03  0.10593362968E+04 -0.20975410633E+04  0.24994150236E+04  0.46999998093E+01 0. -1.
</event>
<event>
 5   0  0.6161563E-08  0.4001351E+04  0.7818609E-02  0.8004274E-01
       -2   -1    0    0    0  501  0.00000000000E+00  0.00000000000E+00  0.22668199480E+04  0.22668199480E+04  0.25500000920E-02 0.  1.
        2   -1    0    0  501    0  0.00000000000E+00  0.00000000000E+00 -0.17657783297E+04  0.17657783297E+04  0.25500000920E-02 0. -1.
    10030    2    1    2    0    0  0.00000000000E+00  0.00000000000E+00  0.50104161836E+03  0.40325982777E+04  0.40013505427E+04 0.  0.
        1    1    3    3  502    0 -0.65578537022E+03 -0.15580818680E+04 -0.82789540885E+03  0.18823082551E+04  0.50400001928E-02 0. -1.
       -1    1    3    3    0  502  0.65578537022E+03  0.15580818680E+04  0.13289370272E+04  0.21502900226E+04  0.50400001928E-02 0.  1.
</event>
<event>
 5   0  0.1879500E-08  0.3998596E+04  0.7818609E-02  0.8004830E-01
        1   -1    0    0  501    0  0.00000000000E+00  0.00000000000E+00  0.19084804932E+04  0.19084804932E+04  0.50400001928E-02 0.  1.
       -1   -1    0    0    0  501  0.00000000000E+00  0.00000000000E+00 -0.20944376651E+04  0.20944376651E+04  0.50400001928E-02 0. -1.
    10030    2    1    2    0    0  0.00000000000E+00  0.00000000000E+00 -0.18595717185E+03  0.40029181583E+04  0.39985964678E+04 0.  0.
        1    1    3    3  502    0 -0.16191329915E+04 -0.58080557987E+03 -0.11130335826E+04  0.20488461440E+04  0.50400001928E-02 0. -1.
       -1    1    3    3    0  502  0.16191329915E+04  0.58080557987E+03  0.92707641070E+03  0.19540720143E+04  0.50400001928E-02 0.  1.
</event>
<event>
 5   0  0.5951623E-08  0.3994867E+04  0.7818609E-02  0.8005583E-01
       -2   -1    0    0    0  501  0.00000000000E+00  0.00000000000E+00  0.16906520810E+04  0.16906520810E+04  0.25500000920E-02 0.  1.
        2   -1    0    0  501    0  0.00000000000E+00  0.00000000000E+00 -0.23598828214E+04  0.23598828214E+04  0.25500000920E-02 0. -1.
    10030    2    1    2    0    0  0.00000000000E+00  0.00000000000E+00 -0.66923074037E+03  0.40505349024E+04  0.39948671082E+04 0.  0.
        2    1    3    3  502    0 -0.47410601823E+02  0.17513046551E+04  0.63814138439E+03  0.18645482527E+04  0.25500000920E-02 0. -1.
       -2    1    3    3    0  502  0.47410601823E+02 -0.17513046551E+04 -0.13073721248E+04  0.21859866497E+04  0.25500000920E-02 0.  1.
</event>
<event>
 5   0  0.1879500E-08  0.3996338E+04  0.7818609E-02  0.8005286E-01
        1   -1    0    0  501    0  0.00000000000E+00  0.00000000000E+00  0.23045240924E+04  0.23045240924E+04  0.50400001928E-02 0.  1.
       -1   -1    0    0    0  501  0.00000000000E+00  0.00000000000E+00 -0.17325393885E+04  0.17325393885E+04  0.50400001928E-02 0. -1.
    10030    2    1    2    0    0  0.00000000000E+00  0.00000000000E+00  0.57198470390E+03  0.40370634808E+04  0.39963377043E+04 0.  0.
        3    1    3    3  502    0  0.13537938154E+04  0.14691426088E+04  0.24633606828E+03  0.20129131050E+04  0.10100000352E+00 0.  1.
       -3    1    3    3    0  502 -0.13537938154E+04 -0.14691426088E+04  0.32564863562E+03  0.20241503758E+04  0.10100000352E+00 0. -1.
</event>
<event>
 5   0  0.5846812E-08  0.3974451E+04  0.7818609E-02  0.8009720E-01
        2   -1    0    0  501    0  0.00000000000E+00  0.00000000000E+00  0.14811612365E+04  0.14811612365E+04  0.25500000920E-02 0.  1.
       -2   -1    0    0    0  501  0.00000000000E+00  0.00000000000E+00 -0.26661955020E+04  0.26661955020E+04  0.25500000920E-02 0. -1.
    10030    2    1    2    0    0  0.00000000000E+00  0.00000000000E+00 -0.11850342656E+04  0.41473567385E+04  0.39744511200E+04 0.  0.
        4    1    3    3  502    0  0.81337553978E+03 -0.12580474355E+04 -0.19549999686E+04  0.24629838832E+04  0.12699999809E+01 0. -1.
       -4    1    3    3    0  502 -0.81337553978E+03  0.12580474355E+04  0.76996570305E+03  0.16843728553E+04  0.12699999809E+01 0.  1.
</event>
<event>
 5   0  0.6161563E-08  0.4008584E+04  0.7818609E-02  0.8002817E-01
       -2   -1    0    0    0  501  0.00000000000E+00  0.00000000000E+00  0.18405289262E+04  0.18405289262E+04  0.25500000920E-02 0. -1.
        2   -1    0    0  501    0  0.00000000000E+00  0.00000000000E+00 -0.21826256191E+04  0.21826256191E+04  0.25500000920E-02 0.  1.
    10030    2    1    2    0    0  0.00000000000E+00  0.00000000000E+00 -0.34209669287E+03  0.40231545453E+04  0.40085835837E+04 0.  0.
        1    1    3    3  502    0 -0.84931703936E+03 -0.16939930371E+03  0.16430478438E+04  0.18573211285E+04  0.50400001928E-02 0. -1.
       -1    1    3    3    0  502  0.84931703936E+03  0.16939930371E+03 -0.19851445367E+04  0.21658334167E+04  0.50400001928E-02 0.  1.
</event>
<event>
 5   0  0.1879500E-08  0.4236692E+04  0.7818609E-02  0.7958429E-01
       -1   -1    0    0    0  501  0.00000000000E+00  0.00000000000E+00  0.20855813704E+04  0.20855813704E+04  0.50400001928E-02 0. -1.
        1   -1    0    0  501    0  0.00000000000E+00  0.00000000000E+00 -0.21516249400E+04  0.21516249400E+04  0.50400001928E-02 0.  1.
    10030    2    1    2    0    0  0.00000000000E+00  0.00000000000E+00 -0.66043569566E+02  0.42372063104E+04  0.42366915823E+04 0.  0.
        3    1    3    3  502    0 -0.21313961280E+03 -0.21028683797E+04 -0.17412387755E+03  0.21208024547E+04  0.10100000352E+00 0. -1.
       -3    1    3    3    0  502  0.21313961280E+03  0.21028683797E+04  0.10808030798E+03  0.21164038556E+04  0.10100000352E+00 0.  1.
</event>
<event>
 5   0  0.1879500E-08  0.4170904E+04  0.7818609E-02  0.7970930E-01
       -1   -1    0    0    0  501  0.00000000000E+00  0.00000000000E+00  0.22292596982E+04  0.22292596982E+04  0.50400001928E-02 0. -1.
        1   -1    0    0  501    0  0.00000000000E+00  0.00000000000E+00 -0.19509211498E+04  0.19509211498E+04  0.50400001928E-02 0.  1.
    10030    2    1    2    0    0  0.00000000000E+00  0.00000000000E+00  0.27833854835E+03  0.41801808480E+04  0.41709039278E+04 0.  0.
        5    1    3    3  502    0  0.20191803895E+04 -0.76167055063E+02  0.65625959973E+03  0.21245210326E+04  0.46999998093E+01 0. -1.
       -5    1    3    3    0  502 -0.20191803895E+04  0.76167055063E+02 -0.37792105138E+03  0.20556598154E+04  0.46999998093E+01 0.  1.
</event>
<event>
 5   0  0.1879500E-08  0.3959568E+04  0.7818609E-02  0.8012753E-01
        1   -1    0    0  501    0  0.00000000000E+00  0.00000000000E+00  0.21448039666E+04  0.21448039666E+04  0.50400001928E-02 0.  1.
       -1   -1    0    0    0  501  0.00000000000E+00  0.00000000000E+00 -0.18274608031E+04  0.18274608031E+04  0.50400001928E-02 0. -1.
    10030    2    1    2    0    0  0.00000000000E+00  0.00000000000E+00  0.31734316350E+03  0.39722647698E+04  0.39595682489E+04 0.  0.
        3    1    3    3  502    0 -0.63277301248E+03  0.16501845673E+04  0.10537400693E+04  0.20576391655E+04  0.10100000352E+00 0.  1.
       -3    1    3    3    0  502  0.63277301248E+03 -0.16501845673E+04 -0.73639690576E+03  0.19146256043E+04  0.10100000352E+00 0. -1.
</event>
<event>
 5   0  0.5951623E-08  0.4003878E+04  0.7818609E-02  0.8003765E-01
        2   -1    0    0  501    0  0.00000000000E+00  0.00000000000E+00  0.25024715157E+04  0.25024715158E+04  0.25500000920E-02 0.  1.
       -2   -1    0    0    0  501  0.00000000000E+00  0.00000000000E+00 -0.16015203641E+04  0.16015203641E+04  0.25500000920E-02 0. -1.
    10030    2    1    2    0    0  0.00000000000E+00  0.00000000000E+00  0.90095115161E+03  0.41039918799E+04  0.40038776670E+04 0.  0.
        2    1    3    3  502    0 -0.15971684794E+02  0.15253508094E+04  0.17793528165E+04  0.23437249480E+04  0.25500000920E-02 0.  1.
       -2    1    3    3    0  502  0.15971684794E+02 -0.15253508094E+04 -0.87840166492E+03  0.17602669318E+04  0.25500000920E-02 0. -1.
</event>
<event>
 5   0  0.1879500E-08  0.4004425E+04  0.7818609E-02  0.8003655E-01
       -1   -1    0    0    0  501  0.00000000000E+00  0.00000000000E+00  0.28403042373E+04  0.28403042373E+04  0.50400001928E-02 0.  1.
        1   -1    0    0  501    0  0.00000000000E+00  0.00000000000E+00 -0.14114172609E+04  0.14114172609E+04  0.50400001928E-02 0. -1.
    10030    2    1    2    0    0  0.00000000000E+00  0.00000000000E+00  0.14288869763E+04  0.42517214982E+04  0.40044247661E+04 0.  0.
        3    1    3    3  502    0 -0.10079968186E+04  0.14236324754E+04  0.17580298265E+04  0.24765814932E+04  0.10100000352E+00 0.  1.
       -3    1    3    3    0  502  0.10079968186E+04 -0.14236324754E+04 -0.32914285018E+03  0.17751400050E+04  0.10100000352E+00 0. -1.
</event>
<event>
 5   0  0.6161563E-08  0.4008429E+04  0.7818609E-02  0.8002848E-01
        2   -1    0    0  501    0  0.00000000000E+00  0.00000000000E+00  0.14369532394E+04  0.14369532394E+04  0.25500000920E-02 0. -1.
       -2   -1    0    0    0  501  0.00000000000E+00  0.00000000000E+00 -0.27954122596E+04  0.27954122596E+04  0.25500000920E-02 0.  1.
    10030    2    1    2    0    0  0.00000000000E+00  0.00000000000E+00 -0.13584590203E+04  0.42323654990E+04  0.40084294689E+04 0.  0.
        1    1    3    3  502    0  0.88177381211E+03 -0.13671110461E+04 -0.19152512310E+04  0.25129076676E+04  0.50400001928E-02 0.  1.
       -1    1    3    3    0  502 -0.88177381211E+03  0.13671110461E+04  0.55679221075E+03  0.17194578314E+04  0.50400001928E-02 0. -1.
</event>
<event>
 5   0  0.5846812E-08  0.4016194E+04  0.7818609E-02  0.8001288E-01
        2   -1    0    0  501    0  0.00000000000E+00  0.00000000000E+00  0.11731742184E+04  0.11731742184E+04  0.25500000920E-02 0.  1.
       -2   -1    0    0    0  501  0.00000000000E+00  0.00000000000E+00 -0.34372169976E+04  0.34372169976E+04  0.25500000920E-02 0. -1.
    10030    2    1    2    0    0  0.00000000000E+00  0.00000000000E+00 -0.22640427792E+04  0.46103912160E+04  0.40161943999E+04 0.  0.
        4    1    3    3  502    0 -0.17090185345E+03  0.17675705847E+04 -0.22082450929E+04  0.28337009756E+04  0.12699999809E+01 0. -1.
       -4    1    3    3    0  502  0.17090185345E+03 -0.17675705847E+04 -0.55797686259E+02  0.17766902404E+04  0.12699999809E+01 0.  1.
</event>
<event>
 5   0  0.1879500E-08  0.4004465E+04  0.7818609E-02  0.8003646E-01
        1   -1    0    0  501    0  0.00000000000E+00  0.00000000000E+00  0.21481546266E+04  0.21481546266E+04  0.50400001928E-02 0. -1.
       -1   -1    0    0    0  501  0.00000000000E+00  0.00000000000E+00 -0.18662228406E+04  0.18662228406E+04  0.50400001928E-02 0.  1.
    10030    2    1    2    0    0  0.00000000000E+00  0.00000000000E+00  0.28193178600E+03  0.40143774672E+04  0.40044651225E+04 0.  0.
        5    1    3    3  502    0  0.10754662920E+04 -0.16556148481E+04 -0.19336356342E+03  0.19837086046E+04  0.46999998093E+01 0.  1.
       -5    1    3    3    0  502 -0.10754662920E+04  0.16556148481E+04  0.47529534942E+03  0.20306688626E+04  0.46999998093E+01 0. -1.
</event>
<event>
 5   0  0.5945387E-08  0.4013176E+04  0.7818609E-02  0.8001894E-01
        2   -1    0    0  501    0  0.00000000000E+00  0.00000000000E+00  0.15038549934E+04  0.15038549934E+04  0.25500000920E-02 0. -1.
       -2   -1    0    0    0  501  0.00000000000E+00  0.00000000000E+00 -0.26773832633E+04  0.26773832633E+04  0.25500000920E-02 0.  1.
    10030    2    1    2    0    0  0.00000000000E+00  0.00000000000E+00 -0.11735282699E+04  0.41812382566E+04  0.40131763926E+04 0.  0.
        3    1    3    3  502    0  0.76069835006E+03 -0.14596896548E+04  0.60891926659E+03  0.17550323506E+04  0.10100000352E+00 0. -1.
       -3    1    3    3    0  502 -0.76069835006E+03  0.14596896548E+04 -0.17824475365E+04  0.24262059061E+04  0.10100000352E+00 0.  1.
</event>
<event>
 5   0  0.5945387E-08  0.3999654E+04  0.7818609E-02  0.8004616E-01
        2   -1    0    0  501    0  0.00000000000E+00  0.00000000000E+00  0.23258682524E+04  0.23258682524E+04  0.25500000920E-02 0.  1.
       -2   -1    0    0    0  501  0.00000000000E+00  0.00000000000E+00 -0.17194903830E+04  0.17194903830E+04  0.25500000920E-02 0. -1.
    10030    2    1    2    0    0  0.00000000000E+00  0.00000000000E+00  0.60637786935E+03  0.40453586354E+04  0.39996540311E+04 0.  0.
        3    1    3    3  502    0 -0.85830185297E+03  0.12609772241E+03  0.21256463137E+04  0.22958560424E+04  0.10100000352E+00 0.  1.
       -3    1    3    3    0  502  0.85830185297E+03 -0.12609772241E+03 -0.15192684444E+04  0.17495025929E+04  0.10100000352E+00 0. -1.
</event>
<event>
 5   0  0.1879500E-08  0.4010666E+04  0.7818609E-02  0.8002398E-01
       -1   -1    0    0    0  501  0.00000000000E+00  0.00000000000E+00  0.29687363997E+04  0.29687363997E+04  0.50400001928E-02 0. -1.
        1   -1    0    0  501    0  0.00000000000E+00  0.00000000000E+00 -0.13545700558E+04  0.13545700558E+04  0.50400001928E-02 0.  1.
    10030    2    1    2    0    0  0.00000000000E+00  0.00000000000E+00  0.16141663439E+04  0.43233064555E+04  0.40106664935E+04 0.  0.
        2    1    3    3  502    0  0.57620533636E+03  0.16101775270E+04  0.19359400240E+04  0.25831275684E+04  0.25500000920E-02 0. -1.
       -2    1    3    3    0  502 -0.57620533636E+03 -0.16101775270E+04 -0.32177368005E+03  0.17401788871E+04  0.25500000920E-02 0.  1.
</event>
<event>
 5   0  0.1879500E-08  0.3984592E+04  0.7818609E-02  0.8007662E-01
       -1   -1    0    0    0  501  0.00000000000E+00  0.00000000000E+00  0.29883120622E+04  0.29883120622E+04  0.50400001928E-02 0. -1.
        1   -1    0    0  501    0  0.00000000000E+00  0.00000000000E+00 -0.13282558390E+04  0.13282558390E+04  0.50400001928E-02 0.  1.
    10030    2    1    2    0    0  0.00000000000E+00  0.00000000000E+00  0.16600562233E+04  0.43165679012E+04  0.39845917961E+04 0.  0.
        5    1    3    3  502    0  0.11385140270E+02 -0.14485896601E+03  0.29825580664E+04  0.29860992031E+04  0.46999998093E+01 0. -1.
       -5    1    3    3    0  502 -0.11385140270E+02  0.14485896601E+03 -0.13225018432E+04  0.13304686981E+04  0.46999998093E+01 0.  1.
</event>
<event>
 5   0  0.1879500E-08  0.3992871E+04  0.7818609E-02  0.8005986E-01
        1   -1    0    0  501    0  0.00000000000E+00  0.00000000000E+00  0.18683269860E+04  0.18683269860E+04  0.50400001928E-02 0. -1.
       -1   -1    0    0    0  501  0.00000000000E+00  0.00000000000E+00 -0.21333282860E+04  0.21333282860E+04  0.50400001928E-02 0.  1.
    10030    2    1    2    0    0  0.00000000000E+00  0.00000000000E+00 -0.26500130001E+03  0.40016552719E+04  0.39928710506E+04 0.  0.
        1    1    3    3  502    0 -0.61850611724E+03  0.18739480214E+04  0.17069391807E+03  0.19807492061E+04  0.50400001928E-02 0. -1.
       -1    1    3    3    0  502  0.61850611724E+03 -0.18739480214E+04 -0.43569521808E+03  0.20209060658E+04  0.50400001928E-02 0.  1.
</event>
<event>
 5   0  0.5888700E-08  0.3999019E+04  0.7818609E-02  0.8004745E-01
       -2   -1    0    0    0  501  0.00000000000E+00  0.00000000000E+00  0.22090771320E+04  0.22090771320E+04  0.25500000920E-02 0. -1.
        2   -1    0    0  501    0  0.00000000000E+00  0.00000000000E+00 -0.18098227245E+04  0.18098227245E+04  0.25500000920E-02 0.  1.
    10030    2    1    2    0    0  0.00000000000E+00  0.00000000000E+00  0.39925440754E+03  0.40188998565E+04  0.39990188765E+04 0.  0.
        5    1    3    3  502    0  0.58101313248E+03  0.90776385644E+03 -0.14929083777E+04  0.18413063280E+04  0.46999998093E+01 0.  1.
       -5    1    3    3    0  502 -0.58101313248E+03 -0.90776385644E+03  0.18921627853E+04  0.21775935285E+04  0.46999998093E+01 0. -1.
</event>
<event>
 5   0  0.5945387E-08  0.4009198E+04  0.7818609E-02  0.8002694E-01
       -2   -1    0    0    0  501  0.00000000000E+00  0.00000000000E+00  0.20327504495E+04  0.20327504495E+04  0.25500000920E-02 0. -1.
        2   -1    0    0  501    0  0.00000000000E+00  0.00000000000E+00 -0.19768374596E+04  0.19768374596E+04  0.25500000920E-02 0.  1.
    10030    2    1    2    0    0  0.00000000000E+00  0.00000000000E+00  0.55912989847E+02  0.40095879091E+04  0.40091980418E+04 0.  0.
        3    1    3    3  502    0  0.46894161897E+03 -0.99399506923E+03 -0.16486565828E+04  0.19814138835E+04  0.10100000352E+00 0.  1.
       -3    1    3    3    0  502 -0.46894161897E+03  0.99399506923E+03  0.17045695727E+04  0.20281740255E+04  0.10100000352E+00 0. -1.
</event>
<event>
 5   0  0.5846812E-08  0.3996768E+04  0.7818609E-02  0.8005199E-01
       -2   -1    0    0    0  501  0.00000000000E+00  0.00000000000E+00  0.17734749215E+04  0.17734749215E+04  0.25500000920E-02 0.  1.
        2   -1    0    0  501    0  0.00000000000E+00  0.00000000000E+00 -0.22518152615E+04  0.22518152615E+04  0.25500000920E-02 0. -1.
    10030    2    1    2    0    0  0.00000000000E+00  0.00000000000E+00 -0.47834034004E+03  0.40252901830E+04  0.39967676410E+04 0.  0.
        4    1    3    3  502    0  0.13836923013E+04  0.14417703737E+04 -0.25444699710E+03  0.20144604942E+04  0.12699999809E+01 0.  1.
       -4    1    3    3    0  502 -0.13836923013E+04 -0.14417703737E+04 -0.22389334294E+03  0.20108296888E+04  0.12699999809E+01 0. -1.
</event>
<event>
 5   0  0.5945387E-08  0.3946441E+04  0.7818609E-02  0.8015439E-01
       -2   -1    0    0    0  501  0.00000000000E+00  0.00000000000E+00  0.20241959784E+04  0.20241959784E+04  0.25500000920E-02 0. -1.
        2   -1    0    0  501    0  0.00000000000E+00  0.00000000000E+00 -0.19235289669E+04  0.19235289669E+04  0.25500000920E-02 0.  1.
    10030    2    1    2    0    0  0.00000000000E+00  0.00000000000E+00  0.10066701152E+03  0.39477249453E+04  0.39464412319E+04 0.  0.
        3    1    3    3  502    0 -0.15346732953E+03  0.19383411063E+04 -0.28575364397E+03  0.19652922482E+04  0.10100000352E+00 0. -1.
       -3    1    3    3    0  502  0.15346732953E+03 -0.19383411063E+04  0.38642065549E+03  0.19824326972E+04  0.10100000352E+00 0.  1.
</event>
<event>
 5   0  0.1879500E-08  0.4000864E+04  0.7818609E-02  0.8004372E-01
       -1   -1    0    0    0  501  0.00000000000E+00  0.00000000000E+00  0.24160440365E+04  0.24160440365E+04  0.50400001928E-02 0.  1.
        1   -1    0    0  501    0  0.00000000000E+00  0.00000000000E+00 -0.16563145319E+04  0.16563145319E+04  0.50400001928E-02 0. -1.
    10030    2    1    2    0    0  0.00000000000E+00  0.00000000000E+00  0.75972950465E+03  0.40723585684E+04  0.40008643303E+04 0.  0.
        5    1    3    3  502    0  0.10988790385E+04 -0.14544905819E+04 -0.45864538450E+03  0.18797488324E+04  0.46999998093E+01 0. -1.
       -5    1    3    3    0  502 -0.10988790385E+04  0.14544905819E+04  0.12183748891E+04  0.21926097360E+04  0.46999998093E+01 0.  1.
</event>
<event>
 5   0  0.1879500E-08  0.3990350E+04  0.7818609E-02  0.8006496E-01
        1   -1    0    0  501    0  0.00000000000E+00  0.00000000000E+00  0.18382043852E+04  0.18382043852E+04  0.50400001928E-02 0.  1.
       -1   -1    0    0    0  501  0.00000000000E+00  0.00000000000E+00 -0.21655497624E+04  0.21655497624E+04  0.50400001928E-02 0. -1.
    10030    2    1    2    0    0  0.00000000000E+00  0.00000000000E+00 -0.32734537720E+03  0.40037541476E+04  0.39903498942E+04 0.  0.
        4    1    3    3  502    0  0.21244395988E+03  0.65387244498E+03 -0.20429405294E+04  0.21555252793E+04  0.12699999809E+01 0. -1.
       -4    1    3    3    0  502 -0.21244395988E+03 -0.65387244498E+03  0.17155951522E+04  0.18482288682E+04  0.12699999809E+01 0.  1.
</event>
<event>
 5   0  0.1879500E-08  0.4000519E+04  0.7818609E-02  0.8004442E-01
       -1   -1    0    0    0  501  0.00000000000E+00  0.00000000000E+00  0.14482398503E+04  0.14482398503E+04  0.50400001928E-02 0. -1.
        1   -1    0    0  501    0  0.00000000000E+00  0.00000000000E+00 -0.27626898741E+04  0.27626898741E+04  0.50400001928E-02 0.  1.
    10030    2    1    2    0    0  0.00000000000E+00  0.00000000000E+00 -0.13144500237E+04  0.42109297244E+04  0.40005187513E+04 0.  0.
        5    1    3    3  502    0  0.14387511171E+04 -0.71633675981E+03  0.59614774252E+03  0.17142220834E+04  0.46999998093E+01 0. -1.
       -5    1    3    3    0  502 -0.14387511171E+04  0.71633675981E+03 -0.19105977663E+04  0.24967076410E+04  0.46999998093E+01 0.  1.
</event>
<event>
 5   0  0.1879500E-08  0.3988861E+04  0.7818609E-02  0.8006797E-01
       -1   -1    0    0    0  501  0.00000000000E+00  0.00000000000E+00  0.13242115627E+04  0.13242115627E+04  0.50400001928E-02 0.  1.
        1   -1    0    0  501    0  0.00000000000E+00  0.00000000000E+00 -0.30038655425E+04  0.30038655425E+04  0.50400001928E-02 0. -1.
    10030    2    1    2    0    0  0.00000000000E+00  0.00000000000E+00 -0.16796539798E+04  0.43280771052E+04  0.39888612331E+04 0.  0.
        4    1    3    3  502    0 -0.39424552889E+03  0.12262706955E+04  0.81235292922E+03  0.15228552952E+04  0.12699999809E+01 0.  1.
       -4    1    3    3    0  502  0.39424552889E+03 -0.12262706955E+04 -0.24920069091E+04  0.28052218100E+04  0.12699999809E+01 0. -1.
</event>
<event>
 5   0  0.5945387E-08  0.3994910E+04  0.7818609E-02  0.8005574E-01
        2   -1    0    0  501    0  0.00000000000E+00  0.00000000000E+00  0.21359763247E+04  0.21359763247E+04  0.25500000920E-02 0. -1.
       -2   -1    0    0    0  501  0.00000000000E+00  0.00000000000E+00 -0.18679169092E+04  0.18679169092E+04  0.25500000920E-02 0.  1.
    10030    2    1    2    0    0  0.00000000000E+00  0.00000000000E+00  0.26805941554E+03  0.40038932339E+04  0.39949099086E+04 0.  0.
        3    1    3    3  502    0 -0.45477979235E+02 -0.14206152445E+04 -0.12725542469E+04  0.19077762556E+04  0.10100000352E+00 0.  1.
       -3    1    3    3    0  502  0.45477979235E+02  0.14206152445E+04  0.15406136625E+04  0.20961169783E+04  0.10100000352E+00 0. -1.
</event>
<event>
 5   0  0.1879500E-08  0.4014131E+04  0.7818609E-02  0.8001702E-01
       -1   -1    0    0    0  501  0.00000000000E+00  0.00000000000E+00  0.28287795470E+04  0.28287795470E+04  0.50400001928E-02 0. -1.
        1   -1    0    0  501    0  0.00000000000E+00  0.00000000000E+00 -0.14240457515E+04  0.14240457515E+04  0.50400001928E-02 0.  1.
    10030    2    1    2    0    0  0.00000000000E+00  0.00000000000E+00  0.14047337956E+04  0.42528252985E+04  0.40141307880E+04 0.  0.
        3    1    3    3  502    0 -0.27119306641E+03 -0.13668828482E+04  0.22326948394E+04  0.26318891800E+04  0.10100000352E+00 0. -1.
       -3    1    3    3    0  502  0.27119306641E+03  0.13668828482E+04 -0.82796104380E+03  0.16209361185E+04  0.10100000352E+00 0.  1.
</event>
<event>
 5   0  0.5888700E-08  0.4014628E+04  0.7818609E-02  0.8001602E-01
        2   -1    0    0  501    0  0.00000000000E+00  0.00000000000E+00  0.25226463490E+04  0.25226463490E+04  0.25500000920E-02 0. -1.
       -2   -1    0    0    0  501  0.00000000000E+00  0.00000000000E+00 -0.15972546787E+04  0.15972546787E+04  0.25500000920E-02 0.  1.
    10030    2    1    2    0    0  0.00000000000E+00  0.00000000000E+00  0.92539167029E+03  0.41199010277E+04  0.40146275960E+04 0.  0.
        5    1    3    3  502    0  0.12885582745E+04 -0.91943052567E+03  0.17293851646E+04  0.23444679686E+04  0.46999998093E+01 0. -1.
       -5    1    3    3    0  502 -0.12885582745E+04  0.91943052567E+03 -0.80399349434E+03  0.17754330591E+04  0.46999998093E+01 0.  1.
</event>
<event>
 5   0  0.5945387E-08  0.4032211E+04  0.7818609E-02  0.7998080E-01
        2   -1    0    0  501    0  0.00000000000E+00  0.00000000000E+00  0.26091337658E+04  0.26091337658E+04  0.25500000920E-02 0. -1.
       -2   -1    0    0    0  501  0.00000000000E+00  0.00000000000E+00 -0.15578661365E+04  0.15578661365E+04  0.25500000920E-02 0.  1.
    10030    2    1    2    0    0  0.00000000000E+00  0.00000000000E+00  0.10512676293E+04  0.41669999023E+04  0.40322108771E+04 0.  0.
        3    1    3    3  502    0  0.11202778057E+04  0.15237588832E+04  0.12474207234E+04  0.22655952788E+04  0.10100000352E+00 0. -1.
       -3    1    3    3    0  502 -0.11202778057E+04 -0.15237588832E+04 -0.19615309413E+03  0.19014046235E+04  0.10100000352E+00 0.  1.
</event>
<event>
 5   0  0.1879500E-08  0.3995312E+04  0.7818609E-02  0.8005493E-01
       -1   -1    0    0    0  501  0.00000000000E+00  0.00000000000E+00  0.16948671463E+04  0.16948671463E+04  0.50400001928E-02 0. -1.
        1   -1    0    0  501    0  0.00000000000E+00  0.00000000000E+00 -0.23545387605E+04  0.23545387605E+04  0.50400001928E-02 0.  1.
    10030    2    1    2    0    0  0.00000000000E+00  0.00000000000E+00 -0.65967161420E+03  0.40494059067E+04  0.39953124482E+04 0.  0.
        3    1    3    3  502    0  0.34640948753E+03  0.85312792441E+02 -0.23219890177E+04  0.23492362194E+04  0.10100000352E+00 0.  1.
       -3    1    3    3    0  502 -0.34640948753E+03 -0.85312792441E+02  0.16623174035E+04  0.17001696874E+04  0.10100000352E+00 0. -1.
</event>
<event>
 5   0  0.5846812E-08  0.4039058E+04  0.7818609E-02  0.7996713E-01
       -2   -1    0    0    0  501  0.00000000000E+00  0.00000000000E+00  0.28984836659E+04  0.28984836659E+04  0.25500000920E-02 0.  1.
        2   -1    0    0  501    0  0.00000000000E+00  0.00000000000E+00 -0.14071138041E+04  0.14071138041E+04  0.25500000920E-02 0. -1.
    10030    2    1    2    0    0  0.00000000000E+00  0.00000000000E+00  0.14913698618E+04  0.43055974700E+04  0.40390575026E+04 0.  0.
        4    1    3    3  502    0  0.13387110889E+04  0.11218938347E+03  0.23530916845E+04  0.27095711701E+04  0.12699999809E+01 0.  1.
       -4    1    3    3    0  502 -0.13387110889E+04 -0.11218938347E+03 -0.86172182271E+03  0.15960262999E+04  0.12699999809E+01 0. -1.
</event>
<event>
 5   0  0.5888700E-08  0.4004543E+04  0.7818609E-02  0.8003631E-01
       -2   -1    0    0    0  501  0.00000000000E+00  0.00000000000E+00  0.29356469717E+04  0.29356469717E+04  0.25500000920E-02 0. -1.
        2   -1    0    0  501    0  0.00000000000E+00  0.00000000000E+00 -0.13656584559E+04  0.13656584559E+04  0.25500000920E-02 0.  1.
    10030    2    1    2    0    0  0.00000000000E+00  0.00000000000E+00  0.15699885158E+04  0.43013054276E+04  0.40045429754E+04 0.  0.
        5    1    3    3  502    0 -0.56938523661E+03 -0.17617053213E+04  0.16039001093E+04  0.24495556408E+04  0.46999998093E+01 0. -1.
       -5    1    3    3    0  502  0.56938523661E+03  0.17617053213E+04 -0.33911593489E+02  0.18517497868E+04  0.46999998093E+01 0.  1.
</event>
<event>
 5   0  0.1879500E-08  0.3999227E+04  0.7818609E-02  0.8004703E-01
        1   -1    0    0  501    0  0.00000000000E+00  0.00000000000E+00  0.19343673764E+04  0.19343673764E+04  0.50400001928E-02 0.  1.
       -1   -1    0    0    0  501  0.00000000000E+00  0.00000000000E+00 -0.20670601821E+04  0.20670601821E+04  0.50400001928E-02 0. -1.
    10030    2    1    2    0    0  0.00000000000E+00  0.00000000000E+00 -0.13269280573E+03  0.40014275586E+04  0.39992268160E+04 0.  0.
        2    1    3    3  502    0  0.81030737704E+03 -0.51067217059E+03  0.16899171250E+04  0.19424736808E+04  0.25500000920E-02 0.  1.
       -2    1    3    3    0  502 -0.81030737704E+03  0.51067217059E+03 -0.18226099308E+04  0.20589538778E+04  0.25500000920E-02 0. -1.
</event>
<event>
 5   0  0.1879500E-08  0.3987169E+04  0.7818609E-02  0.8007140E-01
       -1   -1    0    0    0  501  0.00000000000E+00  0.00000000000E+00  0.18028041059E+04  0.18028041059E+04  0.50400001928E-02 0.  1.
        1   -1    0    0  501    0  0.00000000000E+00  0.00000000000E+00 -0.22045537805E+04  0.22045537805E+04  0.50400001928E-02 0. -1.
    10030    2    1    2    0    0  0.00000000000E+00  0.00000000000E+00 -0.40174967462E+03  0.40073578863E+04  0.39871687233E+04 0.  0.
        4    1    3    3  502    0 -0.16833880556E+04  0.10642184052E+04 -0.29088743421E+03  0.20127029766E+04  0.12699999809E+01 0. -1.
       -4    1    3    3    0  502  0.16833880556E+04 -0.10642184052E+04 -0.11086224041E+03  0.19946549097E+04  0.12699999809E+01 0.  1.
</event>
<event>
 5   0  0.1879500E-08  0.3998545E+04  0.7818609E-02  0.8004840E-01
        1   -1    0    0  501    0  0.00000000000E+00  0.00000000000E+00  0.20097068742E+04  0.20097068742E+04  0.50400001928E-02 0. -1.
       -1   -1    0    0    0  501  0.00000000000E+00  0.00000000000E+00 -0.19888922607E+04  0.19888922607E+04  0.50400001928E-02 0.  1.
    10030    2    1    2    0    0  0.00000000000E+00  0.00000000000E+00  0.20814613521E+02  0.39985991348E+04  0.39985449595E+04 0.  0.
        3    1    3    3  502    0 -0.48249614234E+03 -0.15278880240E+04 -0.11853706168E+04  0.19930749736E+04  0.10100000352E+00 0.  1.
       -3    1    3    3    0  502  0.48249614234E+03  0.15278880240E+04  0.12061852303E+04  0.20055241612E+04  0.10100000352E+00 0. -1.
</event>
<event>
 5   0  0.1879500E-08  0.4086194E+04  0.7818609E-02  0.7987381E-01
        1   -1    0    0  501    0  0.00000000000E+00  0.00000000000E+00  0.24940614144E+04  0.24940614144E+04  0.50400001928E-02 0. -1.
       -1   -1    0    0    0  501  0.00000000000E+00  0.00000000000E+00 -0.16736735174E+04  0.16736735174E+04  0.50400001928E-02 0.  1.
    10030    2    1    2    0    0  0.00000000000E+00  0.00000000000E+00  0.82038789699E+03  0.41677349317E+04  0.40861936028E+04 0.  0.
        5    1    3    3  502    0  0.13852851875E+04 -0.14779650449E+04  0.68163762678E+03  0.21372991529E+04  0.46999998093E+01 0.  1.
       -5    1    3    3    0  502 -0.13852851875E+04  0.14779650449E+04  0.13875027022E+03  0.20304357789E+04  0.46999998093E+01 0. -1.
</event>
<event>
 5   0  0.6161563E-08  0.3993695E+04  0.7818609E-02  0.8005820E-01
       -2   -1    0    0    0  501  0.00000000000E+00  0.00000000000E+00  0.15063579355E+04  0.15063579355E+04  0.25500000920E-02 0.  1.
        2   -1    0    0  501    0  0.00000000000E+00  0.00000000000E+00 -0.26470466546E+04  0.26470466547E+04  0.25500000920E-02 0. -1.
    10030    2    1    2    0    0  0.00000000000E+00  0.00000000000E+00 -0.11406887191E+04  0.41534045902E+04  0.39936948977E+04 0.  0.
        1    1    3    3  502    0  0.18748161527E+04  0.45342230726E+03 -0.11076001885E+04  0.22242539362E+04  0.50400001928E-02 0. -1.
       -1    1    3    3    0  502 -0.18748161527E+04 -0.45342230726E+03 -0.33088530660E+02  0.19291506540E+04  0.50400001928E-02 0.  1.
</event>
<event>
 5   0  0.1879500E-08  0.4004717E+04  0.7818609E-02  0.8003596E-01
       -1   -1    0    0    0  501  0.00000000000E+00  0.00000000000E+00  0.16968929775E+04  0.16968929775E+04  0.50400001928E-02 0. -1.
        1   -1    0    0  501    0  0.00000000000E+00  0.00000000000E+00 -0.23628122437E+04  0.23628122437E+04  0.50400001928E-02 0.  1.
    10030    2    1    2    0    0  0.00000000000E+00  0.00000000000E+00 -0.66591926624E+03  0.40597052212E+04  0.40047169705E+04 0.  0.
        1    1    3    3  502    0 -0.17602634298E+04  0.19957988543E+03  0.61317230037E+03  0.18746572334E+04  0.50400001928E-02 0. -1.
       -1    1    3    3    0  502  0.17602634298E+04 -0.19957988543E+03 -0.12790915666E+04  0.21850479877E+04  0.50400001928E-02 0.  1.
</event>
<event>
 5   0  0.6161563E-08  0.3995103E+04  0.7818609E-02  0.8005535E-01
       -2   -1    0    0    0  501  0.00000000000E+00  0.00000000000E+00  0.16101882206E+04  0.16101882206E+04  0.25500000920E-02 0. -1.
        2   -1    0    0  501    0  0.00000000000E+00  0.00000000000E+00 -0.24781027406E+04  0.24781027406E+04  0.25500000920E-02 0.  1.
    10030    2    1    2    0    0  0.00000000000E+00  0.00000000000E+00 -0.86791452005E+03  0.40882909612E+04  0.39951029235E+04 0.  0.
        1    1    3    3  502    0  0.85589450665E+03  0.27817884190E+03  0.13909719530E+04  0.16567262443E+04  0.50400001928E-02 0. -1.
       -1    1    3    3    0  502 -0.85589450665E+03 -0.27817884190E+03 -0.22588864730E+04  0.24315647169E+04  0.50400001928E-02 0.  1.
</event>
<event>
 5   0  0.1879500E-08  0.4007921E+04  0.7818609E-02  0.8002951E-01
        1   -1    0    0  501    0  0.00000000000E+00  0.00000000000E+00  0.20881969966E+04  0.20881969966E+04  0.50400001928E-02 0.  1.
       -1   -1    0    0    0  501  0.00000000000E+00  0.00000000000E+00 -0.19231219624E+04  0.19231219624E+04  0.50400001928E-02 0. -1.
    10030    2    1    2    0    0  0.00000000000E+00  0.00000000000E+00  0.16507503421E+03  0.40113189591E+04  0.40079209104E+04 0.  0.
        3    1    3    3  502    0  0.16568419409E+04  0.91422061313E+03  0.74259112345E+03  0.20328222090E+04  0.10100000352E+00 0. -1.
       -3    1    3    3    0  502 -0.16568419409E+04 -0.91422061313E+03 -0.57751608924E+03  0.19784967501E+04  0.10100000352E+00 0.  1.
</event>
<event>
 5   0  0.1879500E-08  0.4002682E+04  0.7818609E-02  0.8004006E-01
       -1   -1    0    0    0  501  0.00000000000E+00  0.00000000000E+00  0.13719789890E+04  0.13719789890E+04  0.50400001928E-02 0. -1.
        1   -1    0    0  501    0  0.00000000000E+00  0.00000000000E+00 -0.29194079571E+04  0.29194079571E+04  0.50400001928E-02 0.  1.
    10030    2    1    2    0    0  0.00000000000E+00  0.00000000000E+00 -0.15474289682E+04  0.42913869461E+04  0.40026822894E+04 0.  0.
        2    1    3    3  502    0  0.11292532798E+04 -0.59151051421E+03 -0.24278060637E+04  0.27421414882E+04  0.25500000920E-02 0.  1.
       -2    1    3    3    0  502 -0.11292532798E+04  0.59151051421E+03  0.88037709555E+03  0.15492454579E+04  0.25500000920E-02 0. -1.
</event>
<event>
 5   0  0.1879500E-08  0.3999286E+04  0.7818609E-02  0.8004691E-01
       -3   -1    0    0    0  501  0.00000000000E+00  0.00000000000E+00  0.14895326611E+04  0.14895326645E+04  0.10100000352E+00 0. -1.
        3   -1    0    0  501    0  0.00000000000E+00  0.00000000000E+00 -0.26844471783E+04  0.26844471802E+04  0.10100000352E+00 0.  1.
    10030    2    1    2    0    0  0.00000000000E+00  0.00000000000E+00 -0.11949145172E+04  0.41739798447E+04  0.39992858163E+04 0.  0.
        1    1    3    3  502    0  0.97173885615E+03 -0.93295176953E+03  0.94489621563E+03  0.16454495638E+04  0.50400001928E-02 0. -1.
       -1    1    3    3    0  502 -0.97173885615E+03  0.93295176953E+03 -0.21398107328E+04  0.25285302809E+04  0.50400001928E-02 0.  1.
</event>
<event>
 5   0  0.5888700E-08  0.3998412E+04  0.7818609E-02  0.8004867E-01
       -2   -1    0    0    0  501  0.00000000000E+00  0.00000000000E+00  0.16505950226E+04  0.16505950226E+04  0.25500000920E-02 0.  1.
        2   -1    0    0  501    0  0.00000000000E+00  0.00000000000E+00 -0.24214446292E+04  0.24214446292E+04  0.25500000920E-02 0. -1.
    10030    2    1    2    0    0  0.00000000000E+00  0.00000000000E+00 -0.77084960658E+03  0.40720396518E+04  0.39984119110E+04 0.  0.
        5    1    3    3  502    0  0.55641644613E+03  0.15614666479E+04 -0.15236023997E+04  0.22514803389E+04  0.46999998093E+01 0. -1.
       -5    1    3    3    0  502 -0.55641644613E+03 -0.15614666479E+04  0.75275279315E+03  0.18205593129E+04  0.46999998093E+01 0.  1.
</event>
<event>
 5   0  0.5888700E-08  0.4004169E+04  0.7818609E-02  0.8003706E-01
        2   -1    0    0  501    0  0.00000000000E+00  0.00000000000E+00  0.34645741155E+04  0.34645741155E+04  0.25500000920E-02 0.  1.
       -2   -1    0    0    0  501  0.00000000000E+00  0.00000000000E+00 -0.11569507989E+04  0.11569507989E+04  0.25500000920E-02 0. -1.
    10030    2    1    2    0    0  0.00000000000E+00  0.00000000000E+00  0.23076233166E+04  0.46215249143E+04  0.40041687230E+04 0.  0.
        5    1    3    3  502    0 -0.19742157128E+04  0.22590074720E+03  0.87166078785E+03  0.21698786711E+04  0.46999998093E+01 0.  1.
       -5    1    3    3    0  502  0.19742157128E+04 -0.22590074720E+03  0.14359625288E+04  0.24516462433E+04  0.46999998093E+01 0. -1.
</event>
<event>
 5   0  0.5888700E-08  0.4000162E+04  0.7818609E-02  0.8004514E-01
        2   -1    0    0  501    0  0.00000000000E+00  0.00000000000E+00  0.24247154840E+04  0.24247154840E+04  0.25500000920E-02 0. -1.
       -2   -1    0    0    0  501  0.00000000000E+00  0.00000000000E+00 -0.16498119381E+04  0.16498119381E+04  0.25500000920E-02 0.  1.
    10030    2    1    2    0    0  0.00000000000E+00  0.00000000000E+00  0.77490354595E+03  0.40745274221E+04  0.40001622727E+04 0.  0.
        5    1    3    3  502    0 -0.11479319282E+04  0.14543052665E+03 -0.12742577021E+04  0.17212357571E+04  0.46999998093E+01 0.  1.
       -5    1    3    3    0  502  0.11479319282E+04 -0.14543052665E+03  0.20491612481E+04  0.23532916650E+04  0.46999998093E+01 0. -1.
</event>
<event>
 5   0  0.1879500E-08  0.3993027E+04  0.7818609E-02  0.8005955E-01
       -1   -1    0    0    0  501  0.00000000000E+00  0.00000000000E+00  0.16304645252E+04  0.16304645252E+04  0.50400001928E-02 0. -1.
        1   -1    0    0  501    0  0.00000000000E+00  0.00000000000E+00 -0.24447426113E+04  0.24447426114E+04  0.50400001928E-02 0.  1.
    10030    2    1    2    0    0  0.00000000000E+00  0.00000000000E+00 -0.81427808612E+03  0.40752071366E+04  0.39930269727E+04 0.  0.
        4    1    3    3  502    0  0.10349430023E+04 -0.16693644405E+04 -0.77252958245E+03  0.21106132336E+04  0.12699999809E+01 0.  1.
       -4    1    3    3    0  502 -0.10349430023E+04  0.16693644405E+04 -0.41748503671E+02  0.19645939030E+04  0.12699999809E+01 0. -1.
</event>
<event>
 5   0  0.5951623E-08  0.3965013E+04  0.7818609E-02  0.8011642E-01
        2   -1    0    0  501    0  0.00000000000E+00  0.00000000000E+00  0.19479080847E+04  0.19479080847E+04  0.25500000920E-02 0. -1.
       -2   -1    0    0    0  501  0.00000000000E+00  0.00000000000E+00 -0.20177190888E+04  0.20177190888E+04  0.25500000920E-02 0.  1.
    10030    2    1    2    0    0  0.00000000000E+00  0.00000000000E+00 -0.69811004105E+02  0.39656271736E+04  0.39650126486E+04 0.  0.
        2    1    3    3  502    0  0.42844700943E+03 -0.18172369424E+04 -0.70165294202E+03  0.19945510261E+04  0.25500000920E-02 0.  1.
       -2    1    3    3    0  502 -0.42844700943E+03  0.18172369424E+04  0.63184193791E+03  0.19710761475E+04  0.25500000920E-02 0. -1.
</event>
<event>
 5   0  0.5945387E-08  0.4002934E+04  0.7818609E-02  0.8003955E-01
        2   -1    0    0  501    0  0.00000000000E+00  0.00000000000E+00  0.22666153746E+04  0.22666153746E+04  0.25500000920E-02 0.  1.
       -2   -1    0    0    0  501  0.00000000000E+00  0.00000000000E+00 -0.17673353831E+04  0.17673353831E+04  0.25500000920E-02 0. -1.
    10030    2    1    2    0    0  0.00000000000E+00  0.00000000000E+00  0.49927999148E+03  0.40339507576E+04  0.40029336998E+04 0.  0.
        3    1    3    3  502    0 -0.19975332358E+04 -0.12362851972E+03  0.22834566959E+03  0.20143397911E+04  0.10100000352E+00 0. -1.
       -3    1    3    3    0  502  0.19975332358E+04  0.12362851972E+03  0.27093432189E+03  0.20196109665E+04  0.10100000352E+00 0.  1.
</event>
<event>
 5   0  0.1879500E-08  0.4003018E+04  0.7818609E-02  0.8003938E-01
       -1   -1    0    0    0  501  0.00000000000E+00  0.00000000000E+00  0.25717099024E+04  0.25717099024E+04  0.50400001928E-02 0.  1.
        1   -1    0    0  501    0  0.00000000000E+00  0.00000000000E+00 -0.15577333910E+04  0.15577333910E+04  0.50400001928E-02 0. -1.
    10030    2    1    2    0    0  0.00000000000E+00  0.00000000000E+00  0.10139765114E+04  0.41294432935E+04  0.40030180550E+04 0.  0.
        3    1    3    3  502    0  0.17117074131E+04  0.60522041345E+03 -0.36211882673E+03  0.18513141473E+04  0.10100000352E+00 0.  1.
       -3    1    3    3    0  502 -0.17117074131E+04 -0.60522041345E+03  0.13760953381E+04  0.22781291462E+04  0.10100000352E+00 0. -1.
</event>
<event>
 5   0  0.5945387E-08  0.3987052E+04  0.7818609E-02  0.8007164E-01
       -2   -1    0    0    0  501  0.00000000000E+00  0.00000000000E+00  0.19098980674E+04  0.19098980674E+04  0.25500000920E-02 0.  1.
        2   -1    0    0  501    0  0.00000000000E+00  0.00000000000E+00 -0.20808159582E+04  0.20808159582E+04  0.25500000920E-02 0. -1.
    10030    2    1    2    0    0  0.00000000000E+00  0.00000000000E+00 -0.17091789079E+03  0.39907140256E+04  0.39870522330E+04 0.  0.
        3    1    3    3  502    0 -0.63031304909E+03  0.17471472160E+04 -0.81022924251E+03  0.20263981272E+04  0.10100000352E+00 0. -1.
       -3    1    3    3    0  502  0.63031304909E+03 -0.17471472160E+04  0.63931135172E+03  0.19643158984E+04  0.10100000352E+00 0.  1.
</event>
<event>
 5   0  0.1879500E-08  0.3989131E+04  0.7818609E-02  0.8006743E-01
       -1   -1    0    0    0  501  0.00000000000E+00  0.00000000000E+00  0.28436163245E+04  0.28436163245E+04  0.50400001928E-02 0.  1.
        1   -1    0    0  501    0  0.00000000000E+00  0.00000000000E+00 -0.13990256773E+04  0.13990256774E+04  0.50400001928E-02 0. -1.
    10030    2    1    2    0    0  0.00000000000E+00  0.00000000000E+00  0.14445906472E+04  0.42426420019E+04  0.39891313614E+04 0.  0.
        1    1    3    3  502    0 -0.52254507619E+03  0.11357332718E+04 -0.93061000730E+03  0.15585180162E+04  0.50400001928E-02 0. -1.
       -1    1    3    3    0  502  0.52254507619E+03 -0.11357332718E+04  0.23752006545E+04  0.26841239857E+04  0.50400001928E-02 0.  1.
</event>
<event>
 5   0  0.5888700E-08  0.3995527E+04  0.7818609E-02  0.8005449E-01
        2   -1    0    0  501    0  0.00000000000E+00  0.00000000000E+00  0.22789147885E+04  0.22789147885E+04  0.25500000920E-02 0. -1.
       -2   -1    0    0    0  501  0.00000000000E+00  0.00000000000E+00 -0.17512983994E+04  0.17512983994E+04  0.25500000920E-02 0.  1.
    10030    2    1    2    0    0  0.00000000000E+00  0.00000000000E+00  0.52761638914E+03  0.40302131879E+04  0.39955274102E+04 0.  0.
        5    1    3    3  502    0  0.13478708336E+04  0.10747504258E+04 -0.75450699412E+03  0.18817936009E+04  0.46999998093E+01 0.  1.
       -5    1    3    3    0  502 -0.13478708336E+04 -0.10747504258E+04  0.12821233833E+04  0.21484195870E+04  0.46999998093E+01 0. -1.
</event>
<event>
 5   0  0.1879500E-08  0.3979672E+04  0.7818609E-02  0.8008660E-01
       -1   -1    0    0    0  501  0.00000000000E+00  0.00000000000E+00  0.13010610750E+04  0.13010610750E+04  0.50400001928E-02 0.  1.
        1   -1    0    0  501    0  0.00000000000E+00  0.00000000000E+00 -0.30432445582E+04  0.30432445582E+04  0.50400001928E-02 0. -1.
    10030    2    1    2    0    0  0.00000000000E+00  0.00000000000E+00 -0.17421834832E+04  0.43443056332E+04  0.39796718641E+04 0.  0.
        3    1    3    3  502    0 -0.29444043740E+03  0.19362505727E+04 -0.48717890571E+03  0.20181934366E+04  0.10100000352E+00 0.  1.
       -3    1    3    3    0  502  0.29444043740E+03 -0.19362505727E+04 -0.12550045775E+04  0.23261121966E+04  0.10100000352E+00 0. -1.
</event>
<event>
 5   0  0.5951623E-08  0.4007390E+04  0.7818609E-02  0.8003057E-01
       -2   -1    0    0    0  501  0.00000000000E+00  0.00000000000E+00  0.12732781157E+04  0.12732781157E+04  0.25500000920E-02 0.  1.
        2   -1    0    0  501    0  0.00000000000E+00  0.00000000000E+00 -0.31531154192E+04  0.31531154192E+04  0.25500000920E-02 0. -1.
    10030    2    1    2    0    0  0.00000000000E+00  0.00000000000E+00 -0.18798373036E+04  0.44263935349E+04  0.40073896040E+04 0.  0.
        2    1    3    3  502    0  0.18534763707E+04  0.54735352999E+03 -0.15242102336E+04  0.24613385341E+04  0.25500000920E-02 0. -1.
       -2    1    3    3    0  502 -0.18534763707E+04 -0.54735352999E+03 -0.35562706995E+03  0.19650550008E+04  0.25500000920E-02 0.  1.
</event>
<event>
 5   0  0.1879500E-08  0.3997026E+04  0.7818609E-02  0.8005147E-01
        1   -1    0    0  501    0  0.00000000000E+00  0.00000000000E+00  0.18071657689E+04  0.18071657689E+04  0.50400001928E-02 0.  1.
       -1   -1    0    0    0  501  0.00000000000E+00  0.00000000000E+00 -0.22101202949E+04  0.22101202949E+04  0.50400001928E-02 0. -1.
    10030    2    1    2    0    0  0.00000000000E+00  0.00000000000E+00 -0.40295452608E+03  0.40172860638E+04  0.39970257653E+04 0.  0.
        5    1    3    3  502    0 -0.11776748653E+04  0.12770831798E+04 -0.11944995810E+04  0.21082482956E+04  0.46999998093E+01 0. -1.
       -5    1    3    3    0  502  0.11776748653E+04 -0.12770831798E+04  0.79154505494E+03  0.19090377683E+04  0.46999998093E+01 0.  1.
</event>
<event>
 5   0  0.1879500E-08  0.3992171E+04  0.7818609E-02  0.8006128E-01
        1   -1    0    0  501    0  0.00000000000E+00  0.00000000000E+00  0.21969017459E+04  0.21969017459E+04  0.50400001928E-02 0.  1.
       -1   -1    0    0    0  501  0.00000000000E+00  0.00000000000E+00 -0.18136258806E+04  0.18136258806E+04  0.50400001928E-02 0. -1.
    10030    2    1    2    0    0  0.00000000000E+00  0.00000000000E+00  0.38327586529E+03  0.40105276266E+04  0.39921712707E+04 0.  0.
        2    1    3    3  502    0 -0.19230058610E+03  0.16076335141E+04 -0.98116002537E+03  0.18931825128E+04  0.25500000920E-02 0. -1.
       -2    1    3    3    0  502  0.19230058610E+03 -0.16076335141E+04  0.13644358907E+04  0.21173451138E+04  0.25500000920E-02 0.  1.
</event>
<event>
 5   0  0.1879500E-08  0.3986821E+04  0.7818609E-02  0.8007210E-01
        3   -1    0    0  501    0  0.00000000000E+00  0.00000000000E+00  0.17784626770E+04  0.17784626799E+04  0.10100000352E+00 0.  1.
       -3   -1    0    0    0  501  0.00000000000E+00  0.00000000000E+00 -0.22343371836E+04  0.22343371859E+04  0.10100000352E+00 0. -1.
    10030    2    1    2    0    0  0.00000000000E+00  0.00000000000E+00 -0.45587450659E+03  0.40127998657E+04  0.39868209386E+04 0.  0.
        3    1    3    3  502    0 -0.15920081352E+02  0.28271538009E+03  0.17581168456E+04  0.17807740699E+04  0.10100000352E+00 0.  1.
       -3    1    3    3    0  502  0.15920081352E+02 -0.28271538009E+03 -0.22139913522E+04  0.22320257958E+04  0.10100000352E+00 0. -1.
</event>
<event>
 5   0  0.5888700E-08  0.3943506E+04  0.7818609E-02  0.8016041E-01
        2   -1    0    0  501    0  0.00000000000E+00  0.00000000000E+00  0.17275550069E+04  0.17275550069E+04  0.25500000920E-02 0.  1.
       -2   -1    0    0    0  501  0.00000000000E+00  0.00000000000E+00 -0.22504700666E+04  0.22504700666E+04  0.25500000920E-02 0. -1.
    10030    2    1    2    0    0  0.00000000000E+00  0.00000000000E+00 -0.52291505973E+03  0.39780250736E+04  0.39435064760E+04 0.  0.
        5    1    3    3  502    0  0.30971865973E+03  0.19354686530E+04 -0.47739715393E+03  0.20173979993E+04  0.46999998093E+01 0.  1.
       -5    1    3    3    0  502 -0.30971865973E+03 -0.19354686530E+04 -0.45517905795E+02  0.19606270743E+04  0.46999998093E+01 0. -1.
</event>
<event>
 5   0  0.1879500E-08  0.3904795E+04  0.7818609E-02  0.8024033E-01
        3   -1    0    0  501    0  0.00000000000E+00  0.00000000000E+00  0.19743853969E+04  0.19743853995E+04  0.10100000352E+00 0.  1.
       -3   -1    0    0    0  501  0.00000000000E+00  0.00000000000E+00 -0.19306549465E+04  0.19306549492E+04  0.10100000352E+00 0. -1.
    10030    2    1    2    0    0  0.00000000000E+00  0.00000000000E+00  0.43730450432E+02  0.39050403487E+04  0.39047954841E+04 0.  0.
        1    1    3    3  502    0  0.12011955129E+03  0.44247266383E+03 -0.18760541359E+04  0.19312663943E+04  0.50400001928E-02 0. -1.
       -1    1    3    3    0  502 -0.12011955129E+03 -0.44247266383E+03  0.19197845864E+04  0.19737739544E+04  0.50400001928E-02 0.  1.
</event>
<event>
 5   0  0.6161563E-08  0.4003204E+04  0.7818609E-02  0.8003901E-01
        2   -1    0    0  501    0  0.00000000000E+00  0.00000000000E+00  0.15561879644E+04  0.15561879644E+04  0.25500000920E-02 0. -1.
       -2   -1    0    0    0  501  0.00000000000E+00  0.00000000000E+00 -0.25745026939E+04  0.25745026939E+04  0.25500000920E-02 0.  1.
    10030    2    1    2    0    0  0.00000000000E+00  0.00000000000E+00 -0.10183147295E+04  0.41306906582E+04  0.40032037702E+04 0.  0.
        1    1    3    3  502    0  0.15418320100E+04 -0.15957227626E+02  0.80777495771E+03  0.17406897950E+04  0.50400001928E-02 0. -1.
       -1    1    3    3    0  502 -0.15418320100E+04  0.15957227626E+02 -0.18260896872E+04  0.23900008632E+04  0.50400001928E-02 0.  1.
</event>
<event>
 5   0  0.5888700E-08  0.3981588E+04  0.7818609E-02  0.8008271E-01
       -2   -1    0    0    0  501  0.00000000000E+00  0.00000000000E+00  0.12808311040E+04  0.12808311040E+04  0.25500000920E-02 0. -1.
        2   -1    0    0  501    0  0.00000000000E+00  0.00000000000E+00 -0.30942877676E+04  0.30942877676E+04  0.25500000920E-02 0.  1.
    10030    2    1    2    0    0  0.00000000000E+00  0.00000000000E+00 -0.18134566637E+04  0.43751188716E+04  0.39815876318E+04 0.  0.
        5    1    3    3  502    0 -0.84935422715E+03 -0.60777232608E+03  0.95561468857E+03  0.14156310701E+04  0.46999998093E+01 0. -1.
       -5    1    3    3    0  502  0.84935422715E+03  0.60777232608E+03 -0.27690713523E+04  0.29594878015E+04  0.46999998093E+01 0.  1.
</event>
<event>
 5   0  0.5888700E-08  0.4036405E+04  0.7818609E-02  0.7997243E-01
       -2   -1    0    0    0  501  0.00000000000E+00  0.00000000000E+00  0.33653598820E+04  0.33653598820E+04  0.25500000920E-02 0. -1.
        2   -1    0    0  501    0  0.00000000000E+00  0.00000000000E+00 -0.12103135388E+04  0.12103135388E+04  0.25500000920E-02 0.  1.
    10030    2    1    2    0    0  0.00000000000E+00  0.00000000000E+00  0.21550463433E+04  0.45756734208E+04  0.40364046517E+04 0.  0.
        5    1    3    3  502    0 -0.11650700460E+04  0.43462605961E+03 -0.72445023930E+03  0.14391449764E+04  0.46999998093E+01 0.  1.
       -5    1    3    3    0  502  0.11650700460E+04 -0.43462605961E+03  0.28794965826E+04  0.31365284444E+04  0.46999998093E+01 0. -1.
</event>
<event>
 5   0  0.1879500E-08  0.4028440E+04  0.7818609E-02  0.7998834E-01
       -1   -1    0    0    0  501  0.00000000000E+00  0.00000000000E+00  0.14178843956E+04  0.14178843956E+04  0.50400001928E-02 0.  1.
        1   -1    0    0  501    0  0.00000000000E+00  0.00000000000E+00 -0.28613633561E+04  0.28613633561E+04  0.50400001928E-02 0. -1.
    10030    2    1    2    0    0  0.00000000000E+00  0.00000000000E+00 -0.14434789605E+04  0.42792477517E+04  0.40284401213E+04 0.  0.
        5    1    3    3  502    0 -0.10867613376E+04 -0.12827641938E+04 -0.19000939339E+04  0.25371072562E+04  0.46999998093E+01 0. -1.
       -5    1    3    3    0  502  0.10867613376E+04  0.12827641938E+04  0.45661497341E+03  0.17421404954E+04  0.46999998093E+01 0.  1.
</event>
<event>
 5   0  0.1879500E-08  0.3982868E+04  0.7818609E-02  0.8008012E-01
        3   -1    0    0  501    0  0.00000000000E+00  0.00000000000E+00  0.19055731799E+04  0.19055731826E+04  0.10100000352E+00 0.  1.
       -3   -1    0    0    0  501  0.00000000000E+00  0.00000000000E+00 -0.20811632958E+04  0.20811632982E+04  0.10100000352E+00 0. -1.
    10030    2    1    2    0    0  0.00000000000E+00  0.00000000000E+00 -0.17559011581E+03  0.39867364808E+04  0.39828677958E+04 0.  0.
        1    1    3    3  502    0 -0.42450919289E+03 -0.16902773147E+04 -0.10523510574E+04  0.20358507322E+04  0.50400001928E-02 0. -1.
       -1    1    3    3    0  502  0.42450919289E+03  0.16902773147E+04  0.87676094161E+03  0.19508857487E+04  0.50400001928E-02 0.  1.
</event>
<event>
 5   0  0.5888700E-08  0.4002808E+04  0.7818609E-02  0.8003980E-01
       -2   -1    0    0    0  501  0.00000000000E+00  0.00000000000E+00  0.30134032764E+04  0.30134032764E+04  0.25500000920E-02 0. -1.
        2   -1    0    0  501    0  0.00000000000E+00  0.00000000000E+00 -0.13292672195E+04  0.13292672195E+04  0.25500000920E-02 0.  1.
    10030    2    1    2    0    0  0.00000000000E+00  0.00000000000E+00  0.16841360569E+04  0.43426704959E+04  0.40028081116E+04 0.  0.
        5    1    3    3  502    0 -0.15585776182E+04 -0.10119689857E+04  0.16483734040E+04  0.24840294662E+04  0.46999998093E+01 0. -1.
       -5    1    3    3    0  502  0.15585776182E+04  0.10119689857E+04  0.35762652863E+02  0.18586410297E+04  0.46999998093E+01 0.  1.
</event>
<event>
 5   0  0.1879500E-08  0.4004771E+04  0.7818609E-02  0.8003585E-01
       -1   -1    0    0    0  501  0.00000000000E+00  0.00000000000E+00  0.31997990502E+04  0.31997990502E+04  0.50400001928E-02 0.  1.
        1   -1    0    0  501    0  0.00000000000E+00  0.00000000000E+00 -0.12530624002E+04  0.12530624002E+04  0.50400001928E-02 0. -1.
    10030    2    1    2    0    0  0.00000000000E+00  0.00000000000E+00  0.19467366500E+04  0.44528614504E+04  0.40047710935E+04 0.  0.
        4    1    3    3  502    0 -0.10196023705E+04 -0.49373764443E+03  0.28092250349E+04  0.30290448602E+04  0.12699999809E+01 0.  1.
       -4    1    3    3    0  502  0.10196023705E+04  0.49373764443E+03 -0.86248838492E+03  0.14238165901E+04  0.12699999809E+01 0. -1.
</event>
<event>
 5   0  0.6161563E-08  0.3979142E+04  0.7818609E-02  0.8008768E-01
        2   -1    0    0  501    0  0.00000000000E+00  0.00000000000E+00  0.22708213349E+04  0.22708213349E+04  0.25500000920E-02 0.  1.
       -2   -1    0    0    0  501  0.00000000000E+00  0.00000000000E+00 -0.17431544669E+04  0.17431544669E+04  0.25500000920E-02 0. -1.
    10030    2    1    2    0    0  0.00000000000E+00  0.00000000000E+00  0.52766686803E+03  0.40139758018E+04  0.39791417937E+04 0.  0.
        1    1    3    3  502    0 -0.31279450430E+03  0.17908127211E+04  0.10793297492E+04  0.21141909355E+04  0.50400001928E-02 0.  1.
       -1    1    3    3    0  502  0.31279450430E+03 -0.17908127211E+04 -0.55166288114E+03  0.18997848664E+04  0.50400001928E-02 0. -1.
</event>
<event>
 5   0  0.1879500E-08  0.4019186E+04  0.7818609E-02  0.8000687E-01
       -1   -1    0    0    0  501  0.00000000000E+00  0.00000000000E+00  0.18329653542E+04  0.18329653542E+04  0.50400001928E-02 0. -1.
        1   -1    0    0  501    0  0.00000000000E+00  0.00000000000E+00 -0.22032412034E+04  0.22032412034E+04  0.50400001928E-02 0.  1.
    10030    2    1    2    0    0  0.00000000000E+00  0.00000000000E+00 -0.37027584919E+03  0.40362065576E+04  0.40191863817E+04 0.  0.
        5    1    3    3  502    0  0.75729072110E+03 -0.85332837901E+03 -0.18464664038E+04  0.21705111907E+04  0.46999998093E+01 0.  1.
       -5    1    3    3    0  502 -0.75729072110E+03  0.85332837901E+03  0.14761905546E+04  0.18656953669E+04  0.46999998093E+01 0. -1.
</event>
<event>
 5   0  0.1879500E-08  0.4000014E+04  0.7818609E-02  0.8004544E-01
        1   -1    0    0  501    0  0.00000000000E+00  0.00000000000E+00  0.24825262948E+04  0.24825262948E+04  0.50400001928E-02 0. -1.
       -1   -1    0    0    0  501  0.00000000000E+00  0.00000000000E+00 -0.16112727991E+04  0.16112727991E+04  0.50400001928E-02 0.  1.
    10030    2    1    2    0    0  0.00000000000E+00  0.00000000000E+00  0.87125349569E+03  0.40937990940E+04  0.40000135460E+04 0.  0.
        1    1    3    3  502    0  0.11490911429E+03  0.21615959763E+03  0.24671349323E+04  0.24792506630E+04  0.50400001928E-02 0. -1.
       -1    1    3    3    0  502 -0.11490911429E+03 -0.21615959763E+03 -0.15958814366E+04  0.16145484309E+04  0.50400001928E-02 0.  1.
</event>
<event>
 5   0  0.1879500E-08  0.3980613E+04  0.7818609E-02  0.8008469E-01
        1   -1    0    0  501    0  0.00000000000E+00  0.00000000000E+00  0.25370760014E+04  0.25370760014E+04  0.50400001928E-02 0.  1.
       -1   -1    0    0    0  501  0.00000000000E+00  0.00000000000E+00 -0.15613724033E+04  0.15613724033E+04  0.50400001928E-02 0. -1.
    10030    2    1    2    0    0  0.00000000000E+00  0.00000000000E+00  0.97570359809E+03  0.40984484047E+04  0.39806132460E+04 0.  0.
        1    1    3    3  502    0 -0.91447739491E+03 -0.23985217037E+03 -0.13154290298E+04  0.16199233013E+04  0.50400001928E-02 0. -1.
       -1    1    3    3    0  502  0.91447739491E+03  0.23985217037E+03  0.22911326279E+04  0.24785251034E+04  0.50400001928E-02 0.  1.
</event>
<event>
 5   0  0.1879500E-08  0.3993203E+04  0.7818609E-02  0.8005919E-01
       -1   -1    0    0    0  501  0.00000000000E+00  0.00000000000E+00  0.30134399771E+04  0.30134399771E+04  0.50400001928E-02 0.  1.
        1   -1    0    0  501    0  0.00000000000E+00  0.00000000000E+00 -0.13228792268E+04  0.13228792268E+04  0.50400001928E-02 0. -1.
    10030    2    1    2    0    0  0.00000000000E+00  0.00000000000E+00  0.16905607504E+04  0.43363192039E+04  0.39932027982E+04 0.  0.
        4    1    3    3  502    0 -0.79196650464E+03 -0.16015640114E+04  0.18130323854E+04  0.25454481473E+04  0.12699999809E+01 0.  1.
       -4    1    3    3    0  502  0.79196650464E+03  0.16015640114E+04 -0.12247163506E+03  0.17908710566E+04  0.12699999809E+01 0. -1.
</event>
<event>
 5   0  0.5846812E-08  0.3997075E+04  0.7818609E-02  0.8005137E-01
       -2   -1    0    0    0  501  0.00000000000E+00  0.00000000000E+00  0.13048714561E+04  0.13048714561E+04  0.25500000920E-02 0.  1.
        2   -1    0    0  501    0  0.00000000000E+00  0.00000000000E+00 -0.30609542024E+04  0.30609542024E+04  0.25500000920E-02 0. -1.
    10030    2    1    2    0    0  0.00000000000E+00  0.00000000000E+00 -0.17560827463E+04  0.43658256586E+04  0.39970748141E+04 0.  0.
        4    1    3    3  502    0 -0.39606393897E+03  0.19522559291E+04 -0.70198726073E+03  0.21120979105E+04  0.12699999809E+01 0. -1.
       -4    1    3    3    0  502  0.39606393897E+03 -0.19522559291E+04 -0.10540954856E+04  0.22537277480E+04  0.12699999809E+01 0.  1.
</event>
<event>
 5   0  0.6161563E-08  0.4002849E+04  0.7818609E-02  0.8003972E-01
       -2   -1    0    0    0  501  0.00000000000E+00  0.00000000000E+00  0.13021353326E+04  0.13021353326E+04  0.25500000920E-02 0.  1.
        2   -1    0    0  501    0  0.00000000000E+00  0.00000000000E+00 -0.30762542490E+04  0.30762542490E+04  0.25500000920E-02 0. -1.
    10030    2    1    2    0    0  0.00000000000E+00  0.00000000000E+00 -0.17741189164E+04  0.43783895817E+04  0.40028486605E+04 0.  0.
        1    1    3    3  502    0 -0.15993880167E+03 -0.18811986354E+04 -0.16050493370E+03  0.18947956512E+04  0.50400001928E-02 0.  1.
       -1    1    3    3    0  502  0.15993880167E+03  0.18811986354E+04 -0.16136139827E+04  0.24835939304E+04  0.50400001928E-02 0. -1.
</event>
<event>
 5   0  0.1879500E-08  0.4005320E+04  0.7818609E-02  0.8003474E-01
        1   -1    0    0  501    0  0.00000000000E+00  0.00000000000E+00  0.21042219441E+04  0.21042219442E+04  0.50400001928E-02 0. -1.
       -1   -1    0    0    0  501  0.00000000000E+00  0.00000000000E+00 -0.19060000815E+04  0.19060000815E+04  0.50400001928E-02 0.  1.
    10030    2    1    2    0    0  0.00000000000E+00  0.00000000000E+00  0.19822186266E+03  0.40102220256E+04  0.40053200606E+04 0.  0.
        1    1    3    3  502    0 -0.24590351222E+03  0.19561804815E+04  0.45101880595E+03  0.20225055196E+04  0.50400001928E-02 0. -1.
       -1    1    3    3    0  502  0.24590351222E+03 -0.19561804815E+04 -0.25279694329E+03  0.19877165060E+04  0.50400001928E-02 0.  1.
</event>
<event>
 5   0  0.5888700E-08  0.3990429E+04  0.7818609E-02  0.8006480E-01
        2   -1    0    0  501    0  0.00000000000E+00  0.00000000000E+00  0.14400564253E+04  0.14400564253E+04  0.25500000920E-02 0.  1.
       -2   -1    0    0    0  501  0.00000000000E+00  0.00000000000E+00 -0.27643927274E+04  0.27643927274E+04  0.25500000920E-02 0. -1.
    10030    2    1    2    0    0  0.00000000000E+00  0.00000000000E+00 -0.13243363021E+04  0.42044491527E+04  0.39904293048E+04 0.  0.
        5    1    3    3  502    0  0.63588217247E+03  0.97243078260E+03  0.10468275299E+04  0.15639174312E+04  0.46999998093E+01 0.  1.
       -5    1    3    3    0  502 -0.63588217247E+03 -0.97243078260E+03 -0.23711638320E+04  0.26405317215E+04  0.46999998093E+01 0. -1.
</event>
<event>
 5   0  0.5945387E-08  0.3990486E+04  0.7818609E-02  0.8006469E-01
        2   -1    0    0  501    0  0.00000000000E+00  0.00000000000E+00  0.12617640434E+04  0.12617640434E+04  0.25500000920E-02 0.  1.
       -2   -1    0    0    0  501  0.00000000000E+00  0.00000000000E+00 -0.31551023736E+04  0.31551023736E+04  0.25500000920E-02 0. -1.
    10030    2    1    2    0    0  0.00000000000E+00  0.00000000000E+00 -0.18933383302E+04  0.44168664170E+04  0.39904860497E+04 0.  0.
        3    1    3    3  502    0  0.41969792601E+03  0.10846553853E+03  0.12090127335E+04  0.12843764721E+04  0.10100000352E+00 0.  1.
       -3    1    3    3    0  502 -0.41969792601E+03 -0.10846553853E+03 -0.31023510637E+04  0.31324899449E+04  0.10100000352E+00 0. -1.
</event>
<event>
 5   0  0.5846812E-08  0.4016709E+04  0.7818609E-02  0.8001184E-01
        2   -1    0    0  501    0  0.00000000000E+00  0.00000000000E+00  0.21829686249E+04  0.21829686249E+04  0.25500000920E-02 0.  1.
       -2   -1    0    0    0  501  0.00000000000E+00  0.00000000000E+00 -0.18477080022E+04  0.18477080022E+04  0.25500000920E-02 0. -1.
    10030    2    1    2    0    0  0.00000000000E+00  0.00000000000E+00  0.33526062270E+03  0.40306766270E+04  0.40167093978E+04 0.  0.
        4    1    3    3  502    0 -0.60292156492E+03 -0.11036536344E+04 -0.14036758057E+04  0.18846413819E+04  0.12699999809E+01 0. -1.
       -4    1    3    3    0  502  0.60292156492E+03  0.11036536344E+04  0.17389364284E+04  0.21460352451E+04  0.12699999809E+01 0.  1.
</event>
<event>
 5   0  0.5951623E-08  0.3998557E+04  0.7818609E-02  0.8004838E-01
        2   -1    0    0  501    0  0.00000000000E+00  0.00000000000E+00  0.28835498067E+04  0.28835498067E+04  0.25500000920E-02 0.  1.
       -2   -1    0    0    0  501  0.00000000000E+00  0.00000000000E+00 -0.13861782931E+04  0.13861782931E+04  0.25500000920E-02 0. -1.
    10030    2    1    2    0    0  0.00000000000E+00  0.00000000000E+00  0.14973715136E+04  0.42697280997E+04  0.39985568141E+04 0.  0.
        2    1    3    3  502    0 -0.11177188381E+04  0.91481080536E+03  0.22248016868E+04  0.26525302555E+04  0.25500000920E-02 0.  1.
       -2    1    3    3    0  502  0.11177188381E+04 -0.91481080536E+03 -0.72743017319E+03  0.16171978443E+04  0.25500000920E-02 0. -1.
</event>
<event>
 5   0  0.5951623E-08  0.3999716E+04  0.7818609E-02  0.8004604E-01
        2   -1    0    0  501    0  0.00000000000E+00  0.00000000000E+00  0.27347840716E+04  0.27347840716E+04  0.25500000920E-02 0.  1.
       -2   -1    0    0    0  501  0.00000000000E+00  0.00000000000E+00 -0.14624307101E+04  0.14624307101E+04  0.25500000920E-02 0. -1.
    10030    2    1    2    0    0  0.00000000000E+00  0.00000000000E+00  0.12723533615E+04  0.41972147817E+04  0.39997160958E+04 0.  0.
        2    1    3    3  502    0 -0.11020124001E+04  0.28655767789E+03  0.23614021404E+04  0.26215962125E+04  0.25500000920E-02 0.  1.
       -2    1    3    3    0  502  0.11020124001E+04 -0.28655767789E+03 -0.10890487789E+04  0.15756185691E+04  0.25500000920E-02 0. -1.
</event>
<event>
 5   0  0.5951623E-08  0.4000307E+04  0.7818609E-02  0.8004485E-01
        2   -1    0    0  501    0  0.00000000000E+00  0.00000000000E+00  0.21845043529E+04  0.21845043529E+04  0.25500000920E-02 0.  1.
       -2   -1    0    0    0  501  0.00000000000E+00  0.00000000000E+00 -0.18313602945E+04  0.18313602945E+04  0.25500000920E-02 0. -1.
    10030    2    1    2    0    0  0.00000000000E+00  0.00000000000E+00  0.35314405834E+03  0.40158646474E+04  0.40003072557E+04 0.  0.
        2    1    3    3  502    0 -0.14691080518E+04  0.12148145983E+04  0.78436990262E+03  0.20613803919E+04  0.25500000920E-02 0.  1.
       -2    1    3    3    0  502  0.14691080518E+04 -0.12148145983E+04 -0.43122584427E+03  0.19544842555E+04  0.25500000920E-02 0. -1.
</event>
<event>
 5   0  0.5945387E-08  0.3989263E+04  0.7818609E-02  0.8006716E-01
       -2   -1    0    0    0  501  0.00000000000E+00  0.00000000000E+00  0.18405449721E+04  0.18405449721E+04  0.25500000920E-02 0. -1.
        2   -1    0    0  501    0  0.00000000000E+00  0.00000000000E+00 -0.21616178306E+04  0.21616178306E+04  0.25500000920E-02 0.  1.
    10030    2    1    2    0    0  0.00000000000E+00  0.00000000000E+00 -0.32107285847E+03  0.40021628026E+04  0.39892630044E+04 0.  0.
        3    1    3    3  502    0  0.61089168994E+02 -0.15395016390E+04  0.11103501901E+04  0.18991247295E+04  0.10100000352E+00 0. -1.
       -3    1    3    3    0  502 -0.61089168994E+02  0.15395016390E+04 -0.14314230486E+04  0.21030380732E+04  0.10100000352E+00 0.  1.
</event>
<event>
 5   0  0.5846812E-08  0.4010222E+04  0.7818609E-02  0.8002488E-01
        2   -1    0    0  501    0  0.00000000000E+00  0.00000000000E+00  0.24641998649E+04  0.24641998649E+04  0.25500000920E-02 0.  1.
       -2   -1    0    0    0  501  0.00000000000E+00  0.00000000000E+00 -0.16315523236E+04  0.16315523236E+04  0.25500000920E-02 0. -1.
    10030    2    1    2    0    0  0.00000000000E+00  0.00000000000E+00  0.83264754134E+03  0.40957521885E+04  0.40102224454E+04 0.  0.
        4    1    3    3  502    0 -0.10931247955E+03  0.18289516187E+04  0.12482241535E+04  0.22169976076E+04  0.12699999809E+01 0.  1.
       -4    1    3    3    0  502  0.10931247955E+03 -0.18289516187E+04 -0.41557661220E+03  0.18787545809E+04  0.12699999809E+01 0. -1.
</event>
<event>
 5   0  0.6161563E-08  0.3958844E+04  0.7818609E-02  0.8012901E-01
        2   -1    0    0  501    0  0.00000000000E+00  0.00000000000E+00  0.18260150779E+04  0.18260150779E+04  0.25500000920E-02 0.  1.
       -2   -1    0    0    0  501  0.00000000000E+00  0.00000000000E+00 -0.21457168149E+04  0.21457168149E+04  0.25500000920E-02 0. -1.
    10030    2    1    2    0    0  0.00000000000E+00  0.00000000000E+00 -0.31970173706E+03  0.39717318928E+04  0.39588439004E+04 0.  0.
        1    1    3    3  502    0 -0.18810962198E+04  0.30036627989E+03  0.37983006270E+03  0.19424247133E+04  0.50400001928E-02 0.  1.
       -1    1    3    3    0  502  0.18810962198E+04 -0.30036627989E+03 -0.69953179976E+03  0.20293071796E+04  0.50400001928E-02 0. -1.
</event>
<event>
 5   0  0.1879500E-08  0.4011769E+04  0.7818609E-02  0.8002176E-01
        1   -1    0    0  501    0  0.00000000000E+00  0.00000000000E+00  0.20371180186E+04  0.20371180186E+04  0.50400001928E-02 0.  1.
       -1   -1    0    0    0  501  0.00000000000E+00  0.00000000000E+00 -0.19751303317E+04  0.19751303317E+04  0.50400001928E-02 0. -1.
    10030    2    1    2    0    0  0.00000000000E+00  0.00000000000E+00  0.61987686903E+02  0.40122483503E+04  0.40117694788E+04 0.  0.
        1    1    3    3  502    0  0.13136226834E+04  0.45655267354E+03 -0.14146989177E+04  0.19837887805E+04  0.50400001928E-02 0. -1.
       -1    1    3    3    0  502 -0.13136226834E+04 -0.45655267354E+03  0.14766866046E+04  0.20284595698E+04  0.50400001928E-02 0.  1.
</event>
<event>
 5   0  0.1879500E-08  0.4040279E+04  0.7818609E-02  0.7996470E-01
        1   -1    0    0  501    0  0.00000000000E+00  0.00000000000E+00  0.19069480052E+04  0.19069480052E+04  0.50400001928E-02 0. -1.
       -1   -1    0    0    0  501  0.00000000000E+00  0.00000000000E+00 -0.21400492557E+04  0.21400492557E+04  0.50400001928E-02 0.  1.
    10030    2    1    2    0    0  0.00000000000E+00  0.00000000000E+00 -0.23310125044E+03  0.40469972609E+04  0.40402785346E+04 0.  0.
        3    1    3    3  502    0  0.57584345909E+03  0.68025913647E+03  0.16993663380E+04  0.19189044122E+04  0.10100000352E+00 0. -1.
       -3    1    3    3    0  502 -0.57584345909E+03 -0.68025913647E+03 -0.19324675885E+04  0.21280928487E+04  0.10100000352E+00 0.  1.
</event>
<event>
 5   0  0.1879500E-08  0.4008502E+04  0.7818609E-02  0.8002834E-01
        1   -1    0    0  501    0  0.00000000000E+00  0.00000000000E+00  0.18399629694E+04  0.18399629694E+04  0.50400001928E-02 0. -1.
       -1   -1    0    0    0  501  0.00000000000E+00  0.00000000000E+00 -0.21832077495E+04  0.21832077495E+04  0.50400001928E-02 0.  1.
    10030    2    1    2    0    0  0.00000000000E+00  0.00000000000E+00 -0.34324478012E+03  0.40231707190E+04  0.40085016721E+04 0.  0.
        1    1    3    3  502    0 -0.74830736529E+03 -0.11009441377E+04 -0.16754310558E+04  0.21398857750E+04  0.50400001928E-02 0.  1.
       -1    1    3    3    0  502  0.74830736529E+03  0.11009441377E+04  0.13321862756E+04  0.18832849440E+04  0.50400001928E-02 0. -1.
</event>
<event>
 5   0  0.5846812E-08  0.4001254E+04  0.7818609E-02  0.8004294E-01
       -2   -1    0    0    0  501  0.00000000000E+00  0.00000000000E+00  0.13738168406E+04  0.13738168406E+04  0.25500000920E-02 0.  1.
        2   -1    0    0  501    0  0.00000000000E+00  0.00000000000E+00 -0.29134223001E+04  0.29134223001E+04  0.25500000920E-02 0. -1.
    10030    2    1    2    0    0  0.00000000000E+00  0.00000000000E+00 -0.15396054595E+04  0.42872391408E+04  0.40012541133E+04 0.  0.
        4    1    3    3  502    0 -0.13080629402E+04 -0.81903311821E+03 -0.21338453734E+04  0.26334657003E+04  0.12699999809E+01 0. -1.
       -4    1    3    3    0  502  0.13080629402E+04  0.81903311821E+03  0.59423991391E+03  0.16537734405E+04  0.12699999809E+01 0.  1.
</event>
<event>
 5   0  0.5951623E-08  0.3989964E+04  0.7818609E-02  0.8006574E-01
        2   -1    0    0  501    0  0.00000000000E+00  0.00000000000E+00  0.17452817781E+04  0.17452817781E+04  0.25500000920E-02 0.  1.
       -2   -1    0    0    0  501  0.00000000000E+00  0.00000000000E+00 -0.22804077330E+04  0.22804077330E+04  0.25500000920E-02 0. -1.
    10030    2    1    2    0    0  0.00000000000E+00  0.00000000000E+00 -0.53512595492E+03  0.40256895111E+04  0.39899644425E+04 0.  0.
        2    1    3    3  502    0  0.95518724843E+03 -0.13909490430E+04 -0.13414387200E+04  0.21555926701E+04  0.25500000920E-02 0. -1.
       -2    1    3    3    0  502 -0.95518724843E+03  0.13909490430E+04  0.80631276504E+03  0.18700968411E+04  0.25500000920E-02 0.  1.
</event>
<event>
 5   0  0.5951623E-08  0.4005382E+04  0.7818609E-02  0.8003462E-01
        2   -1    0    0  501    0  0.00000000000E+00  0.00000000000E+00  0.22054666766E+04  0.22054666767E+04  0.25500000920E-02 0. -1.
       -2   -1    0    0    0  501  0.00000000000E+00  0.00000000000E+00 -0.18185587271E+04  0.18185587271E+04  0.25500000920E-02 0.  1.
    10030    2    1    2    0    0  0.00000000000E+00  0.00000000000E+00  0.38690794956E+03  0.40240254037E+04  0.40053817157E+04 0.  0.
        2    1    3    3  502    0 -0.79613757555E+03 -0.15883875723E+04 -0.73494725641E+03  0.19227474064E+04  0.25500000920E-02 0.  1.
       -2    1    3    3    0  502  0.79613757555E+03  0.15883875723E+04  0.11218552060E+04  0.21012779974E+04  0.25500000920E-02 0. -1.
</event>
<event>
 5   0  0.6161563E-08  0.4000142E+04  0.7818609E-02  0.8004518E-01
       -2   -1    0    0    0  501  0.00000000000E+00  0.00000000000E+00  0.12328483710E+04  0.12328483710E+04  0.25500000920E-02 0.  1.
        2   -1    0    0  501    0  0.00000000000E+00  0.00000000000E+00 -0.32447488196E+04  0.32447488196E+04  0.25500000920E-02 0. -1.
    10030    2    1    2    0    0  0.00000000000E+00  0.00000000000E+00 -0.20119004486E+04  0.44775971907E+04  0.40001416459E+04 0.  0.
        1    1    3    3  502    0 -0.39477914914E+03  0.78148044157E+03  0.10069438785E+04  0.13343531136E+04  0.50400001928E-02 0.  1.
       -1    1    3    3    0  502  0.39477914914E+03 -0.78148044157E+03 -0.30188443271E+04  0.31432440771E+04  0.50400001928E-02 0. -1.
</event>
<event>
 5   0  0.5888700E-08  0.4000475E+04  0.7818609E-02  0.8004451E-01
        2   -1    0    0  501    0  0.00000000000E+00  0.00000000000E+00  0.19999352166E+04  0.19999352166E+04  0.25500000920E-02 0.  1.
       -2   -1    0    0    0  501  0.00000000000E+00  0.00000000000E+00 -0.20005398000E+04  0.20005398000E+04  0.25500000920E-02 0. -1.
    10030    2    1    2    0    0  0.00000000000E+00  0.00000000000E+00 -0.60458338350E+00  0.40004750167E+04  0.40004749710E+04 0.  0.
        5    1    3    3  502    0 -0.59004005240E+02 -0.15576860228E+04  0.12531173212E+04  0.20000480817E+04  0.46999998093E+01 0.  1.
       -5    1    3    3    0  502  0.59004005240E+02  0.15576860228E+04 -0.12537219046E+04  0.20004269350E+04  0.46999998093E+01 0. -1.
</event>
<event>
 5   0  0.1879500E-08  0.3961409E+04  0.7818609E-02  0.8012377E-01
        1   -1    0    0  501    0  0.00000000000E+00  0.00000000000E+00  0.20387897766E+04  0.20387897766E+04  0.50400001928E-02 0. -1.
       -1   -1    0    0    0  501  0.00000000000E+00  0.00000000000E+00 -0.19242741796E+04  0.19242741796E+04  0.50400001928E-02 0.  1.
    10030    2    1    2    0    0  0.00000000000E+00  0.00000000000E+00  0.11451559705E+03  0.39630639562E+04  0.39614091052E+04 0.  0.
        2    1    3    3  502    0  0.97533395540E+03 -0.62456764912E+03  0.16647362540E+04  0.20279812298E+04  0.25500000920E-02 0. -1.
       -2    1    3    3    0  502 -0.97533395540E+03  0.62456764912E+03 -0.15502206570E+04  0.19350827264E+04  0.25500000920E-02 0.  1.
</event>
<event>
 5   0  0.1879500E-08  0.4007373E+04  0.7818609E-02  0.8003061E-01
        1   -1    0    0  501    0  0.00000000000E+00  0.00000000000E+00  0.16647278665E+04  0.16647278665E+04  0.50400001928E-02 0. -1.
       -1   -1    0    0    0  501  0.00000000000E+00  0.00000000000E+00 -0.24116606452E+04  0.24116606452E+04  0.50400001928E-02 0.  1.
    10030    2    1    2    0    0  0.00000000000E+00  0.00000000000E+00 -0.74693277872E+03  0.40763885118E+04  0.40073725460E+04 0.  0.
        3    1    3    3  502    0 -0.14480597330E+04  0.11957884937E+04 -0.10840465949E+04  0.21683966755E+04  0.10100000352E+00 0.  1.
       -3    1    3    3    0  502  0.14480597330E+04 -0.11957884937E+04  0.33711381623E+03  0.19079918363E+04  0.10100000352E+00 0. -1.
</event>
<event>
 5   0  0.1879500E-08  0.3995336E+04  0.7818609E-02  0.8005488E-01
        1   -1    0    0  501    0  0.00000000000E+00  0.00000000000E+00  0.13143716325E+04  0.13143716325E+04  0.50400001928E-02 0. -1.
       -1   -1    0    0    0  501  0.00000000000E+00  0.00000000000E+00 -0.30361859317E+04  0.30361859317E+04  0.50400001928E-02 0.  1.
    10030    2    1    2    0    0  0.00000000000E+00  0.00000000000E+00 -0.17218142992E+04  0.43505575641E+04  0.39953356102E+04 0.  0.
        1    1    3    3  502    0  0.82488812828E+03  0.15380202506E+04 -0.19192965789E+04  0.25941561390E+04  0.50400001928E-02 0.  1.
       -1    1    3    3    0  502 -0.82488812828E+03 -0.15380202506E+04  0.19748227969E+03  0.17564014252E+04  0.50400001928E-02 0. -1.
</event>
<event>
 5   0  0.1879500E-08  0.4008939E+04  0.7818609E-02  0.8002746E-01
        1   -1    0    0  501    0  0.00000000000E+00  0.00000000000E+00  0.24492746640E+04  0.24492746640E+04  0.50400001928E-02 0. -1.
       -1   -1    0    0    0  501  0.00000000000E+00  0.00000000000E+00 -0.16404442092E+04  0.16404442092E+04  0.50400001928E-02 0.  1.
    10030    2    1    2    0    0  0.00000000000E+00  0.00000000000E+00  0.80883045480E+03  0.40897188732E+04  0.40089392309E+04 0.  0.
        2    1    3    3  502    0 -0.47188276968E+03 -0.15464824322E+04 -0.80420071867E+03  0.18058294652E+04  0.25500000920E-02 0.  1.
       -2    1    3    3    0  502  0.47188276968E+03  0.15464824322E+04  0.16130311735E+04  0.22838894080E+04  0.25500000920E-02 0. -1.
</event>
<event>
 5   0  0.5945387E-08  0.3996678E+04  0.7818609E-02  0.8005217E-01
        2   -1    0    0  501    0  0.00000000000E+00  0.00000000000E+00  0.18385560317E+04  0.18385560317E+04  0.25500000920E-02 0. -1.
       -2   -1    0    0    0  501  0.00000000000E+00  0.00000000000E+00 -0.21720077375E+04  0.21720077375E+04  0.25500000920E-02 0.  1.
    10030    2    1    2    0    0  0.00000000000E+00  0.00000000000E+00 -0.33345170576E+03  0.40105637692E+04  0.39966775835E+04 0.  0.
        3    1    3    3  502    0 -0.16111185847E+03  0.14615061050E+04  0.11912686444E+04  0.18923736733E+04  0.10100000352E+00 0. -1.
       -3    1    3    3    0  502  0.16111185847E+03 -0.14615061050E+04 -0.15247203502E+04  0.21181900959E+04  0.10100000352E+00 0.  1.
</event>
<event>
 5   0  0.1879500E-08  0.3994400E+04  0.7818609E-02  0.8005677E-01
       -1   -1    0    0    0  501  0.00000000000E+00  0.00000000000E+00  0.20075493204E+04  0.20075493204E+04  0.50400001928E-02 0.  1.
        1   -1    0    0  501    0  0.00000000000E+00  0.00000000000E+00 -0.19869044256E+04  0.19869044256E+04  0.50400001928E-02 0. -1.
    10030    2    1    2    0    0  0.00000000000E+00  0.00000000000E+00  0.20644894727E+02  0.39944537460E+04  0.39944003952E+04 0.  0.
        2    1    3    3  502    0 -0.18584029949E+04  0.72964077490E+03  0.62966074492E+02  0.19974989558E+04  0.25500000920E-02 0. -1.
       -2    1    3    3    0  502  0.18584029949E+04 -0.72964077490E+03 -0.42321179765E+02  0.19969547902E+04  0.25500000920E-02 0.  1.
</event>
<event>
 5   0  0.5888700E-08  0.4007365E+04  0.7818609E-02  0.8003062E-01
       -2   -1    0    0    0  501  0.00000000000E+00  0.00000000000E+00  0.20110241588E+04  0.20110241588E+04  0.25500000920E-02 0. -1.
        2   -1    0    0  501    0  0.00000000000E+00  0.00000000000E+00 -0.19963675082E+04  0.19963675082E+04  0.25500000920E-02 0.  1.
    10030    2    1    2    0    0  0.00000000000E+00  0.00000000000E+00  0.14656650615E+02  0.40073916670E+04  0.40073648643E+04 0.  0.
        5    1    3    3  502    0  0.53448261508E+03 -0.19239477773E+04 -0.15842706888E+03  0.20030895991E+04  0.46999998093E+01 0. -1.
       -5    1    3    3    0  502 -0.53448261508E+03  0.19239477773E+04  0.17308371950E+03  0.20043020680E+04  0.46999998093E+01 0.  1.
</event>
<event>
 5   0  0.5846812E-08  0.3996616E+04  0.7818609E-02  0.8005230E-01
        2   -1    0    0  501    0  0.00000000000E+00  0.00000000000E+00  0.31581857925E+04  0.31581857925E+04  0.25500000920E-02 0.  1.
       -2   -1    0    0    0  501  0.00000000000E+00  0.00000000000E+00 -0.12644079177E+04  0.12644079177E+04  0.25500000920E-02 0. -1.
    10030    2    1    2    0    0  0.00000000000E+00  0.00000000000E+00  0.18937778748E+04  0.44225937102E+04  0.39966161295E+04 0.  0.
        4    1    3    3  502    0  0.64513728531E+03  0.17252679974E+04  0.89388192740E+02  0.18441105286E+04  0.12699999809E+01 0.  1.
       -4    1    3    3    0  502 -0.64513728531E+03 -0.17252679974E+04  0.18043896821E+04  0.25784831816E+04  0.12699999809E+01 0. -1.
</event>
<event>
 5   0  0.1879500E-08  0.4054136E+04  0.7818609E-02  0.7993714E-01
       -1   -1    0    0    0  501  0.00000000000E+00  0.00000000000E+00  0.17611491645E+04  0.17611491645E+04  0.50400001928E-02 0. -1.
        1   -1    0    0  501    0  0.00000000000E+00  0.00000000000E+00 -0.23331382874E+04  0.23331382874E+04  0.50400001928E-02 0.  1.
    10030    2    1    2    0    0  0.00000000000E+00  0.00000000000E+00 -0.57198912290E+03  0.40942874519E+04  0.40541359353E+04 0.  0.
        5    1    3    3  502    0  0.18821200326E+03 -0.10413211325E+04  0.14600614215E+04  0.18032123845E+04  0.46999998093E+01 0. -1.
       -5    1    3    3    0  502 -0.18821200326E+03  0.10413211325E+04 -0.20320505444E+04  0.22910750673E+04  0.46999998093E+01 0.  1.
</event>
<event>
 5   0  0.1879500E-08  0.4003914E+04  0.7818609E-02  0.8003757E-01
       -1   -1    0    0    0  501  0.00000000000E+00  0.00000000000E+00  0.18531745483E+04  0.18531745483E+04  0.50400001928E-02 0. -1.
        1   -1    0    0  501    0  0.00000000000E+00  0.00000000000E+00 -0.21626845350E+04  0.21626845350E+04  0.50400001928E-02 0.  1.
    10030    2    1    2    0    0  0.00000000000E+00  0.00000000000E+00 -0.30950998673E+03  0.40158590833E+04  0.40039140532E+04 0.  0.
        3    1    3    3  502    0  0.10192458508E+04  0.10737518187E+04  0.11968657603E+04  0.19037575294E+04  0.10100000352E+00 0. -1.
       -3    1    3    3    0  502 -0.10192458508E+04 -0.10737518187E+04 -0.15063757471E+04  0.21121015539E+04  0.10100000352E+00 0.  1.
</event>
<event>
 5   0  0.1879500E-08  0.3999228E+04  0.7818609E-02  0.8004702E-01
       -1   -1    0    0    0  501  0.00000000000E+00  0.00000000000E+00  0.29616507370E+04  0.29616507370E+04  0.50400001928E-02 0. -1.
        1   -1    0    0  501    0  0.00000000000E+00  0.00000000000E+00 -0.13500770357E+04  0.13500770357E+04  0.50400001928E-02 0.  1.
    10030    2    1    2    0    0  0.00000000000E+00  0.00000000000E+00  0.16115737013E+04  0.43117277727E+04  0.39992282495E+04 0.  0.
        1    1    3    3  502    0  0.14433203446E+04 -0.83679942750E+03  0.19942129249E+04  0.26000561703E+04  0.50400001928E-02 0. -1.
       -1    1    3    3    0  502 -0.14433203446E+04  0.83679942750E+03 -0.38263922359E+03  0.17116716024E+04  0.50400001928E-02 0.  1.
</event>
<event>
 5   0  0.1879500E-08  0.4017107E+04  0.7818609E-02  0.8001104E-01
       -3   -1    0    0    0  501  0.00000000000E+00  0.00000000000E+00  0.17960331046E+04  0.17960331075E+04  0.10100000352E+00 0.  1.
        3   -1    0    0  501    0  0.00000000000E+00  0.00000000000E+00 -0.22462204424E+04  0.22462204447E+04  0.10100000352E+00 0. -1.
    10030    2    1    2    0    0  0.00000000000E+00  0.00000000000E+00 -0.45018733782E+03  0.40422535522E+04  0.40171065633E+04 0.  0.
        2    1    3    3  502    0  0.20179095617E+03 -0.19901535789E+04 -0.42698319202E+02  0.20008133356E+04  0.25500000920E-02 0. -1.
       -2    1    3    3    0  502 -0.20179095617E+03  0.19901535789E+04 -0.40748901862E+03  0.20414402166E+04  0.25500000920E-02 0.  1.
</event>
<event>
 5   0  0.5951623E-08  0.4281118E+04  0.7818609E-02  0.7950119E-01
       -2   -1    0    0    0  501  0.00000000000E+00  0.00000000000E+00  0.20615169982E+04  0.20615169982E+04  0.25500000920E-02 0. -1.
        2   -1    0    0  501    0  0.00000000000E+00  0.00000000000E+00 -0.22226313644E+04  0.22226313644E+04  0.25500000920E-02 0.  1.
    10030    2    1    2    0    0  0.00000000000E+00  0.00000000000E+00 -0.16111436613E+03  0.42841483626E+04  0.42811177692E+04 0.  0.
        2    1    3    3  502    0  0.15026465440E+04 -0.12061190500E+04 -0.10135918866E+04  0.21771629042E+04  0.25500000920E-02 0.  1.
       -2    1    3    3    0  502 -0.15026465440E+04  0.12061190500E+04  0.85247752047E+03  0.21069854584E+04  0.25500000920E-02 0. -1.
</event>
<event>
 5   0  0.1879500E-08  0.3997555E+04  0.7818609E-02  0.8005040E-01
       -1   -1    0    0    0  501  0.00000000000E+00  0.00000000000E+00  0.26288024343E+04  0.26288024343E+04  0.50400001928E-02 0. -1.
        1   -1    0    0  501    0  0.00000000000E+00  0.00000000000E+00 -0.15197460179E+04  0.15197460179E+04  0.50400001928E-02 0.  1.
    10030    2    1    2    0    0  0.00000000000E+00  0.00000000000E+00  0.11090564164E+04  0.41485484523E+04  0.39975552687E+04 0.  0.
        2    1    3    3  502    0  0.61187738876E+03 -0.14132367260E+04 -0.76775708565E+03  0.17207797433E+04  0.25500000920E-02 0.  1.
       -2    1    3    3    0  502 -0.61187738876E+03  0.14132367260E+04  0.18768135021E+04  0.24277687089E+04  0.25500000920E-02 0. -1.
</event>
<event>
 5   0  0.5888700E-08  0.4006247E+04  0.7818609E-02  0.8003287E-01
       -2   -1    0    0    0  501  0.00000000000E+00  0.00000000000E+00  0.18212975435E+04  0.18212975435E+04  0.25500000920E-02 0. -1.
        2   -1    0    0  501    0  0.00000000000E+00  0.00000000000E+00 -0.22031019690E+04  0.22031019690E+04  0.25500000920E-02 0.  1.
    10030    2    1    2    0    0  0.00000000000E+00  0.00000000000E+00 -0.38180442544E+03  0.40243995125E+04  0.40062472236E+04 0.  0.
        5    1    3    3  502    0  0.30078108260E+03 -0.17506937609E+04  0.73908095695E+03  0.19239700244E+04  0.46999998093E+01 0. -1.
       -5    1    3    3    0  502 -0.30078108260E+03  0.17506937609E+04 -0.11208853824E+04  0.21004294881E+04  0.46999998093E+01 0.  1.
</event>
<event>
 5   0  0.1879500E-08  0.4002463E+04  0.7818609E-02  0.8004050E-01
        1   -1    0    0  501    0  0.00000000000E+00  0.00000000000E+00  0.18707676147E+04  0.18707676147E+04  0.50400001928E-02 0.  1.
       -1   -1    0    0    0  501  0.00000000000E+00  0.00000000000E+00 -0.21407932426E+04  0.21407932426E+04  0.50400001928E-02 0. -1.
    10030    2    1    2    0    0  0.00000000000E+00  0.00000000000E+00 -0.27002562789E+03  0.40115608573E+04  0.40024625760E+04 0.  0.
        3    1    3    3  502    0  0.71880983678E+03 -0.12191404298E+04 -0.15531268845E+04  0.21012363262E+04  0.10100000352E+00 0. -1.
       -3    1    3    3    0  502 -0.71880983678E+03  0.12191404298E+04  0.12831012567E+04  0.19103245311E+04  0.10100000352E+00 0.  1.
</event>
<event>
 5   0  0.5945387E-08  0.3993130E+04  0.7818609E-02  0.8005934E-01
        2   -1    0    0  501    0  0.00000000000E+00  0.00000000000E+00  0.27371395820E+04  0.27371395820E+04  0.25500000920E-02 0.  1.
       -2   -1    0    0    0  501  0.00000000000E+00  0.00000000000E+00 -0.14563639732E+04  0.14563639732E+04  0.25500000920E-02 0. -1.
    10030    2    1    2    0    0  0.00000000000E+00  0.00000000000E+00  0.12807756088E+04  0.41935035552E+04  0.39931298385E+04 0.  0.
        3    1    3    3  502    0  0.13799610327E+04  0.12359107428E+04 -0.14162846546E+03  0.18579091605E+04  0.10100000352E+00 0. -1.
       -3    1    3    3    0  502 -0.13799610327E+04 -0.12359107428E+04  0.14224040743E+04  0.23355943948E+04  0.10100000352E+00 0.  1.
</event>
<event>
 5   0  0.5888700E-08  0.3994482E+04  0.7818609E-02  0.8005661E-01
       -2   -1    0    0    0  501  0.00000000000E+00  0.00000000000E+00  0.24875561761E+04  0.24875561761E+04  0.25500000920E-02 0. -1.
        2   -1    0    0  501    0  0.00000000000E+00  0.00000000000E+00 -0.16035706855E+04  0.16035706855E+04  0.25500000920E-02 0.  1.
    10030    2    1    2    0    0  0.00000000000E+00  0.00000000000E+00  0.88398549059E+03  0.40911268616E+04  0.39944822756E+04 0.  0.
        5    1    3    3  502    0 -0.17421078667E+04 -0.64923050837E+03 -0.30539561923E+03  0.18840723570E+04  0.46999998093E+01 0.  1.
       -5    1    3    3    0  502  0.17421078667E+04  0.64923050837E+03  0.11893811098E+04  0.22070545046E+04  0.46999998093E+01 0. -1.
</event>
<event>
 5   0  0.5888700E-08  0.4006718E+04  0.7818609E-02  0.8003193E-01
       -2   -1    0    0    0  501  0.00000000000E+00  0.00000000000E+00  0.17105612684E+04  0.17105612684E+04  0.25500000920E-02 0. -1.
        2   -1    0    0  501    0  0.00000000000E+00  0.00000000000E+00 -0.23462748965E+04  0.23462748965E+04  0.25500000920E-02 0.  1.
    10030    2    1    2    0    0  0.00000000000E+00  0.00000000000E+00 -0.63571362811E+03  0.40568361648E+04  0.40067178402E+04 0.  0.
        5    1    3    3  502    0  0.13831145987E+04 -0.11995007887E+04  0.50571590296E+03  0.18993627352E+04  0.46999998093E+01 0. -1.
       -5    1    3    3    0  502 -0.13831145987E+04  0.11995007887E+04 -0.11414295311E+04  0.21574734297E+04  0.46999998093E+01 0.  1.
</event>
<event>
 5   0  0.5945387E-08  0.3984528E+04  0.7818609E-02  0.8007675E-01
       -2   -1    0    0    0  501  0.00000000000E+00  0.00000000000E+00  0.16741232002E+04  0.16741232002E+04  0.25500000920E-02 0. -1.
        2   -1    0    0  501    0  0.00000000000E+00  0.00000000000E+00 -0.23708618830E+04  0.23708618830E+04  0.25500000920E-02 0.  1.
    10030    2    1    2    0    0  0.00000000000E+00  0.00000000000E+00 -0.69673868280E+03  0.40449850833E+04  0.39845275168E+04 0.  0.
        3    1    3    3  502    0  0.18184398186E+04  0.23359636327E+03  0.44309089636E+03  0.18861654719E+04  0.10100000352E+00 0.  1.
       -3    1    3    3    0  502 -0.18184398186E+04 -0.23359636327E+03 -0.11398295792E+04  0.21588196114E+04  0.10100000352E+00 0. -1.
</event>
<event>
 5   0  0.1879500E-08  0.3988070E+04  0.7818609E-02  0.8006957E-01
        1   -1    0    0  501    0  0.00000000000E+00  0.00000000000E+00  0.22048088498E+04  0.22048088498E+04  0.50400001928E-02 0.  1.
       -1   -1    0    0    0  501  0.00000000000E+00  0.00000000000E+00 -0.18034109970E+04  0.18034109970E+04  0.50400001928E-02 0. -1.
    10030    2    1    2    0    0  0.00000000000E+00  0.00000000000E+00  0.40139785277E+03  0.40082198468E+04  0.39880704738E+04 0.  0.
        1    1    3    3  502    0  0.52058122456E+03 -0.38390745608E+03 -0.16950406139E+04  0.18142636051E+04  0.50400001928E-02 0. -1.
       -1    1    3    3    0  502 -0.52058122456E+03  0.38390745608E+03  0.20964384666E+04  0.21939562417E+04  0.50400001928E-02 0.  1.
</event>
<event>
 5   0  0.1879500E-08  0.3997814E+04  0.7818609E-02  0.8004988E-01
       -1   -1    0    0    0  501  0.00000000000E+00  0.00000000000E+00  0.18766847685E+04  0.18766847685E+04  0.50400001928E-02 0.  1.
        1   -1    0    0  501    0  0.00000000000E+00  0.00000000000E+00 -0.21290892348E+04  0.21290892348E+04  0.50400001928E-02 0. -1.
    10030    2    1    2    0    0  0.00000000000E+00  0.00000000000E+00 -0.25240446627E+03  0.40057740033E+04  0.39978140716E+04 0.  0.
        4    1    3    3  502    0  0.11755946224E+03 -0.15279654899E+04 -0.14121628043E+04  0.20839155847E+04  0.12699999809E+01 0. -1.
       -4    1    3    3    0  502 -0.11755946224E+03  0.15279654899E+04  0.11597583380E+04  0.19218584186E+04  0.12699999809E+01 0.  1.
</event>
<event>
 5   0  0.1879500E-08  0.3999270E+04  0.7818609E-02  0.8004694E-01
        3   -1    0    0  501    0  0.00000000000E+00  0.00000000000E+00  0.26514048452E+04  0.26514048471E+04  0.10100000352E+00 0. -1.
       -3   -1    0    0    0  501  0.00000000000E+00  0.00000000000E+00 -0.15080832108E+04  0.15080832141E+04  0.10100000352E+00 0.  1.
    10030    2    1    2    0    0  0.00000000000E+00  0.00000000000E+00  0.11433216344E+04  0.41594880613E+04  0.39992695048E+04 0.  0.
        2    1    3    3  502    0 -0.80554854135E+02 -0.50310781459E+03 -0.14394362278E+04  0.15269522624E+04  0.25500000920E-02 0.  1.
       -2    1    3    3    0  502  0.80554854135E+02  0.50310781459E+03  0.25827578622E+04  0.26325357989E+04  0.25500000920E-02 0. -1.
</event>
<event>
 5   0  0.5951623E-08  0.4039516E+04  0.7818609E-02  0.7996622E-01
        2   -1    0    0  501    0  0.00000000000E+00  0.00000000000E+00  0.19574381377E+04  0.19574381377E+04  0.25500000920E-02 0. -1.
       -2   -1    0    0    0  501  0.00000000000E+00  0.00000000000E+00 -0.20840622673E+04  0.20840622673E+04  0.25500000920E-02 0.  1.
    10030    2    1    2    0    0  0.00000000000E+00  0.00000000000E+00 -0.12662412955E+03  0.40415004050E+04  0.40395162895E+04 0.  0.
        2    1    3    3  502    0 -0.15775197536E+04 -0.87872644332E+03 -0.96857372431E+03  0.20491129287E+04  0.25500000920E-02 0.  1.
       -2    1    3    3    0  502  0.15775197536E+04  0.87872644332E+03  0.84194959475E+03  0.19923874762E+04  0.25500000920E-02 0. -1.
</event>
<event>
 5   0  0.1879500E-08  0.3750202E+04  0.7818609E-02  0.8056927E-01
        1   -1    0    0  501    0  0.00000000000E+00  0.00000000000E+00  0.20722582729E+04  0.20722582729E+04  0.50400001928E-02 0.  1.
       -1   -1    0    0    0  501  0.00000000000E+00  0.00000000000E+00 -0.16967011303E+04  0.16967011303E+04  0.50400001928E-02 0. -1.
    10030    2    1    2    0    0  0.00000000000E+00  0.00000000000E+00  0.37555714260E+03  0.37689594033E+04  0.37502015701E+04 0.  0.
        3    1    3    3  502    0  0.16415083627E+04  0.54629010998E+03  0.91459735698E+03  0.19569034020E+04  0.10100000352E+00 0. -1.
       -3    1    3    3    0  502 -0.16415083627E+04 -0.54629010998E+03 -0.53904021438E+03  0.18120560013E+04  0.10100000352E+00 0.  1.
</event>
<event>
 5   0  0.1879500E-08  0.3987974E+04  0.7818609E-02  0.8006977E-01
       -1   -1    0    0    0  501  0.00000000000E+00  0.00000000000E+00  0.12638355289E+04  0.12638355289E+04  0.50400001928E-02 0.  1.
        1   -1    0    0  501    0  0.00000000000E+00  0.00000000000E+00 -0.31459671452E+04  0.31459671452E+04  0.50400001928E-02 0. -1.
    10030    2    1    2    0    0  0.00000000000E+00  0.00000000000E+00 -0.18821316162E+04  0.44098026741E+04  0.39879744487E+04 0.  0.
        4    1    3    3  502    0  0.69326195226E+03  0.70380199072E+03  0.97420364539E+03  0.13874522450E+04  0.12699999809E+01 0.  1.
       -4    1    3    3    0  502 -0.69326195226E+03 -0.70380199072E+03 -0.28563352616E+04  0.30223504291E+04  0.12699999809E+01 0. -1.
</event>
<event>
 5   0  0.5846812E-08  0.3760025E+04  0.7818609E-02  0.8054788E-01
       -2   -1    0    0    0  501  0.00000000000E+00  0.00000000000E+00  0.25263275585E+04  0.25263275585E+04  0.25500000920E-02 0.  1.
        2   -1    0    0  501    0  0.00000000000E+00  0.00000000000E+00 -0.13990451311E+04  0.13990451311E+04  0.25500000920E-02 0. -1.
    10030    2    1    2    0    0  0.00000000000E+00  0.00000000000E+00  0.11272824273E+04  0.39253726896E+04  0.37600246118E+04 0.  0.
        4    1    3    3  502    0  0.10118198558E+04 -0.23223374342E+02  0.22176505717E+04  0.24376821812E+04  0.12699999809E+01 0.  1.
       -4    1    3    3    0  502 -0.10118198558E+04  0.23223374342E+02 -0.10903681444E+04  0.14876905084E+04  0.12699999809E+01 0. -1.
</event>
<event>
 5   0  0.1879500E-08  0.3990974E+04  0.7818609E-02  0.8006370E-01
       -1   -1    0    0    0  501  0.00000000000E+00  0.00000000000E+00  0.32735509615E+04  0.32735509615E+04  0.50400001928E-02 0. -1.
        1   -1    0    0  501    0  0.00000000000E+00  0.00000000000E+00 -0.12164063748E+04  0.12164063749E+04  0.50400001928E-02 0.  1.
    10030    2    1    2    0    0  0.00000000000E+00  0.00000000000E+00  0.20571445866E+04  0.44899573363E+04  0.39909739453E+04 0.  0.
        4    1    3    3  502    0 -0.52446817328E+03 -0.24312976716E+03  0.31772837473E+04  0.32294446229E+04  0.12699999809E+01 0. -1.
       -4    1    3    3    0  502  0.52446817328E+03  0.24312976716E+03 -0.11201391607E+04  0.12605127134E+04  0.12699999809E+01 0.  1.
</event>
<event>
 5   0  0.1879500E-08  0.4001841E+04  0.7818609E-02  0.8004175E-01
       -1   -1    0    0    0  501  0.00000000000E+00  0.00000000000E+00  0.19537633299E+04  0.19537633299E+04  0.50400001928E-02 0.  1.
        1   -1    0    0  501    0  0.00000000000E+00  0.00000000000E+00 -0.20492160569E+04  0.20492160569E+04  0.50400001928E-02 0. -1.
    10030    2    1    2    0    0  0.00000000000E+00  0.00000000000E+00 -0.95452727016E+02  0.40029793868E+04  0.40018411697E+04 0.  0.
        4    1    3    3  502    0 -0.26191100271E+03 -0.13521197299E+04  0.14041879195E+04  0.19668681867E+04  0.12699999809E+01 0.  1.
       -4    1    3    3    0  502  0.26191100271E+03  0.13521197299E+04 -0.14996406466E+04  0.20361112001E+04  0.12699999809E+01 0. -1.
</event>
<event>
 5   0  0.1879500E-08  0.4003737E+04  0.7818609E-02  0.8003793E-01
        1   -1    0    0  501    0  0.00000000000E+00  0.00000000000E+00  0.17751103182E+04  0.17751103182E+04  0.50400001928E-02 0.  1.
       -1   -1    0    0    0  501  0.00000000000E+00  0.00000000000E+00 -0.22575934600E+04  0.22575934600E+04  0.50400001928E-02 0. -1.
    10030    2    1    2    0    0  0.00000000000E+00  0.00000000000E+00 -0.48248314182E+03  0.40327037783E+04  0.40037369770E+04 0.  0.
        1    1    3    3  502    0  0.52431187624E+03  0.10353002216E+04 -0.18842168133E+04  0.22129217094E+04  0.50400001928E-02 0. -1.
       -1    1    3    3    0  502 -0.52431187624E+03 -0.10353002216E+04  0.14017336715E+04  0.18197820689E+04  0.50400001928E-02 0.  1.
</event>
<event>
 5   0  0.6161563E-08  0.3986347E+04  0.7818609E-02  0.8007306E-01
       -2   -1    0    0    0  501  0.00000000000E+00  0.00000000000E+00  0.15457919410E+04  0.15457919410E+04  0.25500000920E-02 0.  1.
        2   -1    0    0  501    0  0.00000000000E+00  0.00000000000E+00 -0.25700356358E+04  0.25700356358E+04  0.25500000920E-02 0. -1.
    10030    2    1    2    0    0  0.00000000000E+00  0.00000000000E+00 -0.10242436948E+04  0.41158275768E+04  0.39863468861E+04 0.  0.
        1    1    3    3  502    0 -0.56058451661E+03 -0.14670421782E+03 -0.24811482570E+04  0.25479155796E+04  0.50400001928E-02 0. -1.
       -1    1    3    3    0  502  0.56058451661E+03  0.14670421782E+03  0.14569045622E+04  0.15679119972E+04  0.50400001928E-02 0.  1.
</event>
<event>
 5   0  0.1879500E-08  0.4005608E+04  0.7818609E-02  0.8003416E-01
        1   -1    0    0  501    0  0.00000000000E+00  0.00000000000E+00  0.31766174297E+04  0.31766174297E+04  0.50400001928E-02 0. -1.
       -1   -1    0    0    0  501  0.00000000000E+00  0.00000000000E+00 -0.12627341596E+04  0.12627341597E+04  0.50400001928E-02 0.  1.
    10030    2    1    2    0    0  0.00000000000E+00  0.00000000000E+00  0.19138832701E+04  0.44393515894E+04  0.40056077395E+04 0.  0.
        3    1    3    3  502    0  0.56350077927E+03  0.16023073958E+04  0.21331341192E+04  0.27267532524E+04  0.10100000352E+00 0. -1.
       -3    1    3    3    0  502 -0.56350077927E+03 -0.16023073958E+04 -0.21925084908E+03  0.17125983370E+04  0.10100000352E+00 0.  1.
</event>
<event>
 5   0  0.5951623E-08  0.4016261E+04  0.7818609E-02  0.8001274E-01
       -2   -1    0    0    0  501  0.00000000000E+00  0.00000000000E+00  0.19213399500E+04  0.19213399500E+04  0.25500000920E-02 0.  1.
        2   -1    0    0  501    0  0.00000000000E+00  0.00000000000E+00 -0.20988418839E+04  0.20988418839E+04  0.25500000920E-02 0. -1.
    10030    2    1    2    0    0  0.00000000000E+00  0.00000000000E+00 -0.17750193390E+03  0.40201818340E+04  0.40162613264E+04 0.  0.
        2    1    3    3  502    0 -0.14038828607E+04 -0.42288775161E+03 -0.14622666647E+04  0.20707353611E+04  0.25500000920E-02 0. -1.
       -2    1    3    3    0  502  0.14038828607E+04  0.42288775161E+03  0.12847647308E+04  0.19494464729E+04  0.25500000920E-02 0.  1.
</event>
<event>
 5   0  0.5945387E-08  0.3995465E+04  0.7818609E-02  0.8005462E-01
        2   -1    0    0  501    0  0.00000000000E+00  0.00000000000E+00  0.20515815141E+04  0.20515815141E+04  0.25500000920E-02 0.  1.
       -2   -1    0    0    0  501  0.00000000000E+00  0.00000000000E+00 -0.19452968646E+04  0.19452968646E+04  0.25500000920E-02 0. -1.
    10030    2    1    2    0    0  0.00000000000E+00  0.00000000000E+00  0.10628464947E+03  0.39968783787E+04  0.39954649726E+04 0.  0.
        3    1    3    3  502    0  0.11151979038E+04 -0.28566572954E+03 -0.15801213121E+04  0.19550075818E+04  0.10100000352E+00 0. -1.
       -3    1    3    3    0  502 -0.11151979038E+04  0.28566572954E+03  0.16864059616E+04  0.20418707969E+04  0.10100000352E+00 0.  1.
</event>
<event>
 5   0  0.1879500E-08  0.4084684E+04  0.7818609E-02  0.7987678E-01
        1   -1    0    0  501    0  0.00000000000E+00  0.00000000000E+00  0.14481063338E+04  0.14481063338E+04  0.50400001928E-02 0. -1.
       -1   -1    0    0    0  501  0.00000000000E+00  0.00000000000E+00 -0.28804239692E+04  0.28804239692E+04  0.50400001928E-02 0.  1.
    10030    2    1    2    0    0  0.00000000000E+00  0.00000000000E+00 -0.14323176354E+04  0.43285303031E+04  0.40846836813E+04 0.  0.
        5    1    3    3  502    0 -0.52034714098E+03  0.15550553047E+04  0.57396828807E+03  0.17373600184E+04  0.46999998093E+01 0. -1.
       -5    1    3    3    0  502  0.52034714098E+03 -0.15550553047E+04 -0.20062859234E+04  0.25911702847E+04  0.46999998093E+01 0.  1.
</event>
<event>
 5   0  0.5846812E-08  0.4005731E+04  0.7818609E-02  0.8003391E-01
       -2   -1    0    0    0  501  0.00000000000E+00  0.00000000000E+00  0.24111090385E+04  0.24111090385E+04  0.25500000920E-02 0. -1.
        2   -1    0    0  501    0  0.00000000000E+00  0.00000000000E+00 -0.16637450147E+04  0.16637450147E+04  0.25500000920E-02 0.  1.
    10030    2    1    2    0    0  0.00000000000E+00  0.00000000000E+00  0.74736402373E+03  0.40748540532E+04  0.40057312155E+04 0.  0.
        4    1    3    3  502    0  0.10070992756E+04 -0.45018538179E+03  0.20742204173E+04  0.23493207064E+04  0.12699999809E+01 0. -1.
       -4    1    3    3    0  502 -0.10070992756E+04  0.45018538179E+03 -0.13268563936E+04  0.17255333468E+04  0.12699999809E+01 0.  1.
</event>
<event>
 5   0  0.5846812E-08  0.4007584E+04  0.7818609E-02  0.8003018E-01
       -2   -1    0    0    0  501  0.00000000000E+00  0.00000000000E+00  0.21637264337E+04  0.21637264337E+04  0.25500000920E-02 0.  1.
        2   -1    0    0  501    0  0.00000000000E+00  0.00000000000E+00 -0.18556793400E+04  0.18556793400E+04  0.25500000920E-02 0. -1.
    10030    2    1    2    0    0  0.00000000000E+00  0.00000000000E+00  0.30804709363E+03  0.40194057737E+04  0.40075840305E+04 0.  0.
        4    1    3    3  502    0  0.18260680752E+04 -0.78229541953E+03 -0.10879924222E+03  0.19895601591E+04  0.12699999809E+01 0. -1.
       -4    1    3    3    0  502 -0.18260680752E+04  0.78229541953E+03  0.41684633585E+03  0.20298456146E+04  0.12699999809E+01 0.  1.
</event>
<event>
 5   0  0.5951623E-08  0.4015936E+04  0.7818609E-02  0.8001339E-01
       -2   -1    0    0    0  501  0.00000000000E+00  0.00000000000E+00  0.16282257203E+04  0.16282257203E+04  0.25500000920E-02 0.  1.
        2   -1    0    0  501    0  0.00000000000E+00  0.00000000000E+00 -0.24762757135E+04  0.24762757135E+04  0.25500000920E-02 0. -1.
    10030    2    1    2    0    0  0.00000000000E+00  0.00000000000E+00 -0.84804999318E+03  0.41045014338E+04  0.40159361585E+04 0.  0.
        2    1    3    3  502    0 -0.99273442769E+02  0.38464236878E+03 -0.24357135901E+04  0.24678949859E+04  0.25500000920E-02 0. -1.
       -2    1    3    3    0  502  0.99273442769E+02 -0.38464236878E+03  0.15876635970E+04  0.16366064479E+04  0.25500000920E-02 0.  1.
</event>
<event>
 5   0  0.1879500E-08  0.4009585E+04  0.7818609E-02  0.8002616E-01
       -1   -1    0    0    0  501  0.00000000000E+00  0.00000000000E+00  0.24138917679E+04  0.24138917679E+04  0.50400001928E-02 0.  1.
        1   -1    0    0  501    0  0.00000000000E+00  0.00000000000E+00 -0.16650262065E+04  0.16650262065E+04  0.50400001928E-02 0. -1.
    10030    2    1    2    0    0  0.00000000000E+00  0.00000000000E+00  0.74886556142E+03  0.40789179744E+04  0.40095850425E+04 0.  0.
        5    1    3    3  502    0 -0.11302507172E+04 -0.14602274136E+04  0.11685984049E+04  0.21852631661E+04  0.46999998093E+01 0.  1.
       -5    1    3    3    0  502  0.11302507172E+04  0.14602274136E+04 -0.41973284348E+03  0.18936548083E+04  0.46999998093E+01 0. -1.
</event>
<event>
 5   0  0.5945387E-08  0.4002294E+04  0.7818609E-02  0.8004084E-01
       -2   -1    0    0    0  501  0.00000000000E+00  0.00000000000E+00  0.15093901074E+04  0.15093901074E+04  0.25500000920E-02 0. -1.
        2   -1    0    0  501    0  0.00000000000E+00  0.00000000000E+00 -0.26531175818E+04  0.26531175818E+04  0.25500000920E-02 0.  1.
    10030    2    1    2    0    0  0.00000000000E+00  0.00000000000E+00 -0.11437274744E+04  0.41625076892E+04  0.40022940580E+04 0.  0.
        3    1    3    3  502    0 -0.57040294893E+03 -0.14728467253E+04 -0.18498544154E+04  0.24324058808E+04  0.10100000352E+00 0. -1.
       -3    1    3    3    0  502  0.57040294893E+03  0.14728467253E+04  0.70612694103E+03  0.17301018084E+04  0.10100000352E+00 0.  1.
</event>
<event>
 5   0  0.1879500E-08  0.3996516E+04  0.7818609E-02  0.8005250E-01
       -1   -1    0    0    0  501  0.00000000000E+00  0.00000000000E+00  0.18146894917E+04  0.18146894917E+04  0.50400001928E-02 0.  1.
        1   -1    0    0  501    0  0.00000000000E+00  0.00000000000E+00 -0.22003960324E+04  0.22003960324E+04  0.50400001928E-02 0. -1.
    10030    2    1    2    0    0  0.00000000000E+00  0.00000000000E+00 -0.38570654075E+03  0.40150855241E+04  0.39965162617E+04 0.  0.
        5    1    3    3  502    0  0.13659098916E+04  0.56673435510E+03  0.11573091401E+04  0.18778403012E+04  0.46999998093E+01 0.  1.
       -5    1    3    3    0  502 -0.13659098916E+04 -0.56673435510E+03 -0.15430156808E+04  0.21372452228E+04  0.46999998093E+01 0. -1.
</event>
<event>
 5   0  0.5846812E-08  0.4005428E+04  0.7818609E-02  0.8003452E-01
        2   -1    0    0  501    0  0.00000000000E+00  0.00000000000E+00  0.23210664773E+04  0.23210664773E+04  0.25500000920E-02 0. -1.
       -2   -1    0    0    0  501  0.00000000000E+00  0.00000000000E+00 -0.17280258809E+04  0.17280258809E+04  0.25500000920E-02 0.  1.
    10030    2    1    2    0    0  0.00000000000E+00  0.00000000000E+00  0.59304059641E+03  0.40490923583E+04  0.40054277895E+04 0.  0.
        4    1    3    3  502    0 -0.74667604797E+03  0.18576891586E+04  0.24775333798E+03  0.20174036433E+04  0.12699999809E+01 0. -1.
       -4    1    3    3    0  502  0.74667604797E+03 -0.18576891586E+04  0.34528725843E+03  0.20316887149E+04  0.12699999809E+01 0.  1.
</event>
<event>
 5   0  0.1879500E-08  0.4042033E+04  0.7818609E-02  0.7996120E-01
        1   -1    0    0  501    0  0.00000000000E+00  0.00000000000E+00  0.30187807529E+04  0.30187807530E+04  0.50400001928E-02 0.  1.
       -1   -1    0    0    0  501  0.00000000000E+00  0.00000000000E+00 -0.13530325684E+04  0.13530325684E+04  0.50400001928E-02 0. -1.
    10030    2    1    2    0    0  0.00000000000E+00  0.00000000000E+00  0.16657481846E+04  0.43718133213E+04  0.40420334860E+04 0.  0.
        4    1    3    3  502    0  0.57919795085E+02 -0.12681133000E+03  0.30135733855E+04  0.30167966420E+04  0.12699999809E+01 0.  1.
       -4    1    3    3    0  502 -0.57919795085E+02  0.12681133000E+03 -0.13478252010E+04  0.13550166794E+04  0.12699999809E+01 0. -1.
</event>
<event>
 5   0  0.1879500E-08  0.4036708E+04  0.7818609E-02  0.7997182E-01
       -1   -1    0    0    0  501  0.00000000000E+00  0.00000000000E+00  0.15626516968E+04  0.15626516968E+04  0.50400001928E-02 0. -1.
        1   -1    0    0  501    0  0.00000000000E+00  0.00000000000E+00 -0.26069493420E+04  0.26069493420E+04  0.50400001928E-02 0.  1.
    10030    2    1    2    0    0  0.00000000000E+00  0.00000000000E+00 -0.10442976452E+04  0.41696010388E+04  0.40367084675E+04 0.  0.
        3    1    3    3  502    0 -0.85267458839E+03 -0.26849060177E+03 -0.23913114279E+04  0.25529417370E+04  0.10100000352E+00 0.  1.
       -3    1    3    3    0  502  0.85267458839E+03  0.26849060177E+03  0.13470137828E+04  0.16166593018E+04  0.10100000352E+00 0. -1.
</event>
<event>
 5   0  0.5951623E-08  0.3991196E+04  0.7818609E-02  0.8006325E-01
        2   -1    0    0  501    0  0.00000000000E+00  0.00000000000E+00  0.21063150920E+04  0.21063150920E+04  0.25500000920E-02 0.  1.
       -2   -1    0    0    0  501  0.00000000000E+00  0.00000000000E+00 -0.18907003671E+04  0.18907003671E+04  0.25500000920E-02 0. -1.
    10030    2    1    2    0    0  0.00000000000E+00  0.00000000000E+00  0.21561472480E+03  0.39970154591E+04  0.39911956693E+04 0.  0.
        2    1    3    3  502    0  0.10643338883E+04 -0.14033582379E+04  0.10473596648E+04  0.20491908738E+04  0.25500000920E-02 0.  1.
       -2    1    3    3    0  502 -0.10643338883E+04  0.14033582379E+04 -0.83174493998E+03  0.19478245853E+04  0.25500000920E-02 0. -1.
</event>
<event>
 5   0  0.1879500E-08  0.4000246E+04  0.7818609E-02  0.8004497E-01
        1   -1    0    0  501    0  0.00000000000E+00  0.00000000000E+00  0.26995891067E+04  0.26995891067E+04  0.50400001928E-02 0.  1.
       -1   -1    0    0    0  501  0.00000000000E+00  0.00000000000E+00 -0.14818895839E+04  0.14818895839E+04  0.50400001928E-02 0. -1.
    10030    2    1    2    0    0  0.00000000000E+00  0.00000000000E+00  0.12176995228E+04  0.41814786906E+04  0.40002464814E+04 0.  0.
        3    1    3    3  502    0  0.15764790148E+04  0.10416367819E+04 -0.76761885706E+02  0.18910805554E+04  0.10100000352E+00 0. -1.
       -3    1    3    3    0  502 -0.15764790148E+04 -0.10416367819E+04  0.12944614085E+04  0.22903981352E+04  0.10100000352E+00 0.  1.
</event>
<event>
 5   0  0.5846812E-08  0.4032311E+04  0.7818609E-02  0.7998060E-01
        2   -1    0    0  501    0  0.00000000000E+00  0.00000000000E+00  0.14651772900E+04  0.14651772900E+04  0.25500000920E-02 0. -1.
       -2   -1    0    0    0  501  0.00000000000E+00  0.00000000000E+00 -0.27743281305E+04  0.27743281305E+04  0.25500000920E-02 0.  1.
    10030    2    1    2    0    0  0.00000000000E+00  0.00000000000E+00 -0.13091508405E+04  0.42395054206E+04  0.40323107876E+04 0.  0.
        4    1    3    3  502    0 -0.63337078404E+03 -0.18968628947E+04 -0.92392990046E+03  0.22029288380E+04  0.12699999809E+01 0.  1.
       -4    1    3    3    0  502  0.63337078404E+03  0.18968628947E+04 -0.38522094001E+03  0.20365765826E+04  0.12699999809E+01 0. -1.
</event>
<event>
 5   0  0.6161563E-08  0.4013676E+04  0.7818609E-02  0.8001793E-01
        2   -1    0    0  501    0  0.00000000000E+00  0.00000000000E+00  0.17851731436E+04  0.17851731436E+04  0.25500000920E-02 0.  1.
       -2   -1    0    0    0  501  0.00000000000E+00  0.00000000000E+00 -0.22560264476E+04  0.22560264476E+04  0.25500000920E-02 0. -1.
    10030    2    1    2    0    0  0.00000000000E+00  0.00000000000E+00 -0.47085330404E+03  0.40411995912E+04  0.40136755352E+04 0.  0.
        1    1    3    3  502    0  0.11701967552E+03  0.17715951946E+04 -0.11773389141E+04  0.21303450558E+04  0.50400001928E-02 0. -1.
       -1    1    3    3    0  502 -0.11701967552E+03 -0.17715951946E+04  0.70648561006E+03  0.19108545354E+04  0.50400001928E-02 0.  1.
</event>
<event>
 5   0  0.6161563E-08  0.3975820E+04  0.7818609E-02  0.8009442E-01
       -2   -1    0    0    0  501  0.00000000000E+00  0.00000000000E+00  0.23045337980E+04  0.23045337980E+04  0.25500000920E-02 0. -1.
        2   -1    0    0  501    0  0.00000000000E+00  0.00000000000E+00 -0.17147876483E+04  0.17147876483E+04  0.25500000920E-02 0.  1.
    10030    2    1    2    0    0  0.00000000000E+00  0.00000000000E+00  0.58974614976E+03  0.40193214463E+04  0.39758199617E+04 0.  0.
        1    1    3    3  502    0  0.11573483888E+03  0.12137863126E+04  0.18821202520E+04  0.22425539923E+04  0.50400001928E-02 0. -1.
       -1    1    3    3    0  502 -0.11573483888E+03 -0.12137863126E+04 -0.12923741022E+04  0.17767674540E+04  0.50400001928E-02 0.  1.
</event>
<event>
 5   0  0.5945387E-08  0.3805616E+04  0.7818609E-02  0.8044951E-01
       -2   -1    0    0    0  501  0.00000000000E+00  0.00000000000E+00  0.21870824524E+04  0.21870824524E+04  0.25500000920E-02 0. -1.
        2   -1    0    0  501    0  0.00000000000E+00  0.00000000000E+00 -0.16554832969E+04  0.16554832969E+04  0.25500000920E-02 0.  1.
    10030    2    1    2    0    0  0.00000000000E+00  0.00000000000E+00  0.53159915552E+03  0.38425657493E+04  0.38056160967E+04 0.  0.
        3    1    3    3  502    0 -0.97178505109E+03  0.24185161077E+03  0.18994767049E+04  0.21472936804E+04  0.10100000352E+00 0. -1.
       -3    1    3    3    0  502  0.97178505109E+03 -0.24185161077E+03 -0.13678775494E+04  0.16952720689E+04  0.10100000352E+00 0.  1.
</event>
<event>
 5   0  0.5888700E-08  0.3996949E+04  0.7818609E-02  0.8005162E-01
        2   -1    0    0  501    0  0.00000000000E+00  0.00000000000E+00  0.24112100475E+04  0.24112100475E+04  0.25500000920E-02 0.  1.
       -2   -1    0    0    0  501  0.00000000000E+00  0.00000000000E+00 -0.16563886177E+04  0.16563886177E+04  0.25500000920E-02 0. -1.
    10030    2    1    2    0    0  0.00000000000E+00  0.00000000000E+00  0.75482142976E+03  0.40675986652E+04  0.39969492755E+04 0.  0.
        5    1    3    3  502    0 -0.43981356689E+03  0.14286126744E+04  0.17273217928E+04  0.22843013840E+04  0.46999998093E+01 0.  1.
       -5    1    3    3    0  502  0.43981356689E+03 -0.14286126744E+04 -0.97250036303E+03  0.17832972812E+04  0.46999998093E+01 0. -1.
</event>
<event>
 5   0  0.1879500E-08  0.3993271E+04  0.7818609E-02  0.8005905E-01
        1   -1    0    0  501    0  0.00000000000E+00  0.00000000000E+00  0.24159232296E+04  0.24159232296E+04  0.50400001928E-02 0. -1.
       -1   -1    0    0    0  501  0.00000000000E+00  0.00000000000E+00 -0.16501159339E+04  0.16501159339E+04  0.50400001928E-02 0.  1.
    10030    2    1    2    0    0  0.00000000000E+00  0.00000000000E+00  0.76580729572E+03  0.40660391634E+04  0.39932710482E+04 0.  0.
        3    1    3    3  502    0  0.17060236981E+04 -0.93339023640E+03  0.84372024813E+03  0.21198108546E+04  0.10100000352E+00 0.  1.
       -3    1    3    3    0  502 -0.17060236981E+04  0.93339023640E+03 -0.77912952408E+02  0.19462283089E+04  0.10100000352E+00 0. -1.
</event>
<event>
 5   0  0.1879500E-08  0.4009533E+04  0.7818609E-02  0.8002626E-01
       -1   -1    0    0    0  501  0.00000000000E+00  0.00000000000E+00  0.14858882304E+04  0.14858882304E+04  0.50400001928E-02 0. -1.
        1   -1    0    0  501    0  0.00000000000E+00  0.00000000000E+00 -0.27048395071E+04  0.27048395071E+04  0.50400001928E-02 0.  1.
    10030    2    1    2    0    0  0.00000000000E+00  0.00000000000E+00 -0.12189512767E+04  0.41907277376E+04  0.40095332341E+04 0.  0.
        4    1    3    3  502    0 -0.29090798883E+01  0.22283810983E+03  0.14729009912E+04  0.14896658111E+04  0.12699999809E+01 0. -1.
       -4    1    3    3    0  502  0.29090798883E+01 -0.22283810983E+03 -0.26918522678E+04  0.27010619265E+04  0.12699999809E+01 0.  1.
</event>
<event>
 5   0  0.5846812E-08  0.3998058E+04  0.7818609E-02  0.8004938E-01
       -2   -1    0    0    0  501  0.00000000000E+00  0.00000000000E+00  0.19217943628E+04  0.19217943628E+04  0.25500000920E-02 0.  1.
        2   -1    0    0  501    0  0.00000000000E+00  0.00000000000E+00 -0.20793677318E+04  0.20793677318E+04  0.25500000920E-02 0. -1.
    10030    2    1    2    0    0  0.00000000000E+00  0.00000000000E+00 -0.15757336909E+03  0.40011620946E+04  0.39980581212E+04 0.  0.
        4    1    3    3  502    0  0.69415634317E+03  0.15156123735E+04 -0.11829027916E+04  0.20440632384E+04  0.12699999809E+01 0. -1.
       -4    1    3    3    0  502 -0.69415634317E+03 -0.15156123735E+04  0.10253294225E+04  0.19570988562E+04  0.12699999809E+01 0.  1.
</event>
<event>
 5   0  0.1879500E-08  0.3997987E+04  0.7818609E-02  0.8004953E-01
        1   -1    0    0  501    0  0.00000000000E+00  0.00000000000E+00  0.30964168844E+04  0.30964168844E+04  0.50400001928E-02 0. -1.
       -1   -1    0    0    0  501  0.00000000000E+00  0.00000000000E+00 -0.12905158510E+04  0.12905158510E+04  0.50400001928E-02 0.  1.
    10030    2    1    2    0    0  0.00000000000E+00  0.00000000000E+00  0.18059010333E+04  0.43869327354E+04  0.39979870288E+04 0.  0.
        3    1    3    3  502    0 -0.13521379935E+04  0.43413658865E+03 -0.64076402575E+03  0.15579891777E+04  0.10100000352E+00 0.  1.
       -3    1    3    3    0  502  0.13521379935E+04 -0.43413658865E+03  0.24466650591E+04  0.28289435577E+04  0.10100000352E+00 0. -1.
</event>
<event>
 5   0  0.1879500E-08  0.3999845E+04  0.7818609E-02  0.8004578E-01
        1   -1    0    0  501    0  0.00000000000E+00  0.00000000000E+00  0.19374752181E+04  0.19374752181E+04  0.50400001928E-02 0. -1.
       -1   -1    0    0    0  501  0.00000000000E+00  0.00000000000E+00 -0.20643827170E+04  0.20643827170E+04  0.50400001928E-02 0.  1.
    10030    2    1    2    0    0  0.00000000000E+00  0.00000000000E+00 -0.12690749895E+03  0.40018579351E+04  0.39998451744E+04 0.  0.
        2    1    3    3  502    0 -0.10235572913E+03  0.16117610781E+03 -0.20552432972E+04  0.20640928864E+04  0.25500000920E-02 0.  1.
       -2    1    3    3    0  502  0.10235572913E+03 -0.16117610781E+03  0.19283357983E+04  0.19377650487E+04  0.25500000920E-02 0. -1.
</event>
<event>
 5   0  0.1879500E-08  0.3996998E+04  0.7818609E-02  0.8005153E-01
       -1   -1    0    0    0  501  0.00000000000E+00  0.00000000000E+00  0.18802261358E+04  0.18802261358E+04  0.50400001928E-02 0. -1.
        1   -1    0    0  501    0  0.00000000000E+00  0.00000000000E+00 -0.21242111488E+04  0.21242111488E+04  0.50400001928E-02 0.  1.
    10030    2    1    2    0    0  0.00000000000E+00  0.00000000000E+00 -0.24398501298E+03  0.40044372845E+04  0.39969975331E+04 0.  0.
        5    1    3    3  502    0  0.41404725168E+03  0.53665724708E+03  0.17615438672E+04  0.18874572878E+04  0.46999998093E+01 0. -1.
       -5    1    3    3    0  502 -0.41404725168E+03 -0.53665724708E+03 -0.20055288801E+04  0.21169799967E+04  0.46999998093E+01 0.  1.
</event>
<event>
 5   0  0.1879500E-08  0.3990297E+04  0.7818609E-02  0.8006507E-01
       -1   -1    0    0    0  501  0.00000000000E+00  0.00000000000E+00  0.15254657635E+04  0.15254657635E+04  0.50400001928E-02 0.  1.
        1   -1    0    0  501    0  0.00000000000E+00  0.00000000000E+00 -0.26094434140E+04  0.26094434140E+04  0.50400001928E-02 0. -1.
    10030    2    1    2    0    0  0.00000000000E+00  0.00000000000E+00 -0.10839776505E+04  0.41349091774E+04  0.39902965252E+04 0.  0.
        3    1    3    3  502    0  0.47959747460E+03 -0.13231600598E+04 -0.20074001664E+04  0.24516161445E+04  0.10100000352E+00 0. -1.
       -3    1    3    3    0  502 -0.47959747460E+03  0.13231600598E+04  0.92342251591E+03  0.16832930329E+04  0.10100000352E+00 0.  1.
</event>
<event>
 5   0  0.1879500E-08  0.3879449E+04  0.7818609E-02  0.8029317E-01
        1   -1    0    0  501    0  0.00000000000E+00  0.00000000000E+00  0.18219737198E+04  0.18219737198E+04  0.50400001928E-02 0.  1.
       -1   -1    0    0    0  501  0.00000000000E+00  0.00000000000E+00 -0.20650855753E+04  0.20650855753E+04  0.50400001928E-02 0. -1.
    10030    2    1    2    0    0  0.00000000000E+00  0.00000000000E+00 -0.24311185548E+03  0.38870592951E+04  0.38794492637E+04 0.  0.
        5    1    3    3  502    0  0.13536534366E+04  0.16792069751E+03 -0.15033676588E+04  0.20299535450E+04  0.46999998093E+01 0. -1.
       -5    1    3    3    0  502 -0.13536534366E+04 -0.16792069751E+03  0.12602558034E+04  0.18571057501E+04  0.46999998093E+01 0.  1.
</event>
<event>
 5   0  0.1879500E-08  0.3983487E+04  0.7818609E-02  0.8007886E-01
        1   -1    0    0  501    0  0.00000000000E+00  0.00000000000E+00  0.13598767909E+04  0.13598767909E+04  0.50400001928E-02 0. -1.
       -1   -1    0    0    0  501  0.00000000000E+00  0.00000000000E+00 -0.29172066864E+04  0.29172066864E+04  0.50400001928E-02 0.  1.
    10030    2    1    2    0    0  0.00000000000E+00  0.00000000000E+00 -0.15573298956E+04  0.42770834773E+04  0.39834867476E+04 0.  0.
        2    1    3    3  502    0  0.66815617448E+03 -0.11598264084E+04 -0.23622999039E+04  0.27151594442E+04  0.25500000920E-02 0.  1.
       -2    1    3    3    0  502 -0.66815617448E+03  0.11598264084E+04  0.80497000836E+03  0.15619240332E+04  0.25500000920E-02 0. -1.
</event>
<event>
 5   0  0.1879500E-08  0.3880441E+04  0.7818609E-02  0.8029109E-01
       -1   -1    0    0    0  501  0.00000000000E+00  0.00000000000E+00  0.12823672269E+04  0.12823672269E+04  0.50400001928E-02 0.  1.
        1   -1    0    0  501    0  0.00000000000E+00  0.00000000000E+00 -0.29355515776E+04  0.29355515776E+04  0.50400001928E-02 0. -1.
    10030    2    1    2    0    0  0.00000000000E+00  0.00000000000E+00 -0.16531843507E+04  0.42179188045E+04  0.38804407667E+04 0.  0.
        2    1    3    3  502    0  0.10507625207E+04 -0.32636515051E+03 -0.25636485703E+04  0.27897867442E+04  0.25500000920E-02 0. -1.
       -2    1    3    3    0  502 -0.10507625207E+04  0.32636515051E+03  0.91046421960E+03  0.14281320603E+04  0.25500000920E-02 0.  1.
</event>
<event>
 5   0  0.5888700E-08  0.3930770E+04  0.7818609E-02  0.8018660E-01
        2   -1    0    0  501    0  0.00000000000E+00  0.00000000000E+00  0.17800230665E+04  0.17800230665E+04  0.25500000920E-02 0. -1.
       -2   -1    0    0    0  501  0.00000000000E+00  0.00000000000E+00 -0.21700499087E+04  0.21700499087E+04  0.25500000920E-02 0.  1.
    10030    2    1    2    0    0  0.00000000000E+00  0.00000000000E+00 -0.39002684219E+03  0.39500729752E+04  0.39307703535E+04 0.  0.
        5    1    3    3  502    0 -0.84264729627E+03  0.41133039092E+02  0.15888007493E+04  0.17989041953E+04  0.46999998093E+01 0. -1.
       -5    1    3    3    0  502  0.84264729627E+03 -0.41133039092E+02 -0.19788275915E+04  0.21511687799E+04  0.46999998093E+01 0.  1.
</event>
<event>
 5   0  0.1879500E-08  0.4148520E+04  0.7818609E-02  0.7975238E-01
       -1   -1    0    0    0  501  0.00000000000E+00  0.00000000000E+00  0.21055022282E+04  0.21055022282E+04  0.50400001928E-02 0. -1.
        1   -1    0    0  501    0  0.00000000000E+00  0.00000000000E+00 -0.20434815680E+04  0.20434815680E+04  0.50400001928E-02 0.  1.
    10030    2    1    2    0    0  0.00000000000E+00  0.00000000000E+00  0.62020660222E+02  0.41489837962E+04  0.41485202156E+04 0.  0.
        3    1    3    3  502    0 -0.11751584598E+04  0.16563695194E+04 -0.39093442608E+03  0.20681845000E+04  0.10100000352E+00 0.  1.
       -3    1    3    3    0  502  0.11751584598E+04 -0.16563695194E+04  0.45295508630E+03  0.20807992962E+04  0.10100000352E+00 0. -1.
</event>
<event>
 5   0  0.5888700E-08  0.4011248E+04  0.7818609E-02  0.8002281E-01
       -2   -1    0    0    0  501  0.00000000000E+00  0.00000000000E+00  0.16576040554E+04  0.16576040554E+04  0.25500000920E-02 0.  1.
        2   -1    0    0  501    0  0.00000000000E+00  0.00000000000E+00 -0.24267118959E+04  0.24267118959E+04  0.25500000920E-02 0. -1.
    10030    2    1    2    0    0  0.00000000000E+00  0.00000000000E+00 -0.76910784043E+03  0.40843159513E+04  0.40112479255E+04 0.  0.
        5    1    3    3  502    0 -0.26216418924E+03 -0.16771026353E+04 -0.14722362503E+04  0.22469768530E+04  0.46999998093E+01 0. -1.
       -5    1    3    3    0  502  0.26216418924E+03  0.16771026353E+04  0.70312840982E+03  0.18373390983E+04  0.46999998093E+01 0.  1.
</event>
<event>
 5   0  0.1879500E-08  0.3999211E+04  0.7818609E-02  0.8004706E-01
       -1   -1    0    0    0  501  0.00000000000E+00  0.00000000000E+00  0.18413115050E+04  0.18413115050E+04  0.50400001928E-02 0.  1.
        1   -1    0    0  501    0  0.00000000000E+00  0.00000000000E+00 -0.21715074547E+04  0.21715074548E+04  0.50400001928E-02 0. -1.
    10030    2    1    2    0    0  0.00000000000E+00  0.00000000000E+00 -0.33019594976E+03  0.40128189597E+04  0.39992107519E+04 0.  0.
        3    1    3    3  502    0 -0.60992514194E+03  0.91956991484E+03  0.15081506481E+04  0.18687257409E+04  0.10100000352E+00 0.  1.
       -3    1    3    3    0  502  0.60992514194E+03 -0.91956991484E+03 -0.18383465979E+04  0.21440932189E+04  0.10100000352E+00 0. -1.
</event>
<event>
 5   0  0.5846812E-08  0.3988469E+04  0.7818609E-02  0.8006877E-01
        2   -1    0    0  501    0  0.00000000000E+00  0.00000000000E+00  0.24989115817E+04  0.24989115817E+04  0.25500000920E-02 0.  1.
       -2   -1    0    0    0  501  0.00000000000E+00  0.00000000000E+00 -0.15914815425E+04  0.15914815425E+04  0.25500000920E-02 0. -1.
    10030    2    1    2    0    0  0.00000000000E+00  0.00000000000E+00  0.90743003919E+03  0.40903931242E+04  0.39884692094E+04 0.  0.
        4    1    3    3  502    0  0.80708846396E+03 -0.14299829337E+04  0.16143271354E+04  0.23026716423E+04  0.12699999809E+01 0.  1.
       -4    1    3    3    0  502 -0.80708846396E+03  0.14299829337E+04 -0.70689709618E+03  0.17877214819E+04  0.12699999809E+01 0. -1.
</event>
<event>
 5   0  0.1879500E-08  0.4004120E+04  0.7818609E-02  0.8003716E-01
        1   -1    0    0  501    0  0.00000000000E+00  0.00000000000E+00  0.23442066095E+04  0.23442066095E+04  0.50400001928E-02 0.  1.
       -1   -1    0    0    0  501  0.00000000000E+00  0.00000000000E+00 -0.17098512537E+04  0.17098512537E+04  0.50400001928E-02 0. -1.
    10030    2    1    2    0    0  0.00000000000E+00  0.00000000000E+00  0.63435535583E+03  0.40540578632E+04  0.40041201831E+04 0.  0.
        4    1    3    3  502    0  0.14928843352E+04 -0.58923048929E+03 -0.89455530185E+03  0.18374240144E+04  0.12699999809E+01 0. -1.
       -4    1    3    3    0  502 -0.14928843352E+04  0.58923048929E+03  0.15289106577E+04  0.22166338488E+04  0.12699999809E+01 0.  1.
</event>
<event>
 5   0  0.5846812E-08  0.3993383E+04  0.7818609E-02  0.8005883E-01
        2   -1    0    0  501    0  0.00000000000E+00  0.00000000000E+00  0.30656085343E+04  0.30656085343E+04  0.25500000920E-02 0. -1.
       -2   -1    0    0    0  501  0.00000000000E+00  0.00000000000E+00 -0.13004847881E+04  0.13004847881E+04  0.25500000920E-02 0.  1.
    10030    2    1    2    0    0  0.00000000000E+00  0.00000000000E+00  0.17651237462E+04  0.43660933225E+04  0.39933831598E+04 0.  0.
        4    1    3    3  502    0 -0.10380215058E+04 -0.13832447257E+04  0.19736616943E+04  0.26241563814E+04  0.12699999809E+01 0. -1.
       -4    1    3    3    0  502  0.10380215058E+04  0.13832447257E+04 -0.20853794808E+03  0.17419369410E+04  0.12699999809E+01 0.  1.
</event>
<event>
 5   0  0.5951623E-08  0.3886263E+04  0.7818609E-02  0.8027892E-01
       -2   -1    0    0    0  501  0.00000000000E+00  0.00000000000E+00  0.18486584273E+04  0.18486584273E+04  0.25500000920E-02 0.  1.
        2   -1    0    0  501    0  0.00000000000E+00  0.00000000000E+00 -0.20424320007E+04  0.20424320007E+04  0.25500000920E-02 0. -1.
    10030    2    1    2    0    0  0.00000000000E+00  0.00000000000E+00 -0.19377357340E+03  0.38910904279E+04  0.38862625388E+04 0.  0.
        2    1    3    3  502    0  0.91957425616E+03 -0.55690210560E+03  0.15237661816E+04  0.18648378332E+04  0.25500000920E-02 0.  1.
       -2    1    3    3    0  502 -0.91957425616E+03  0.55690210560E+03 -0.17175397550E+04  0.20262525948E+04  0.25500000920E-02 0. -1.
</event>
<event>
 5   0  0.1879500E-08  0.4058820E+04  0.7818609E-02  0.7992785E-01
       -1   -1    0    0    0  501  0.00000000000E+00  0.00000000000E+00  0.19128533291E+04  0.19128533291E+04  0.50400001928E-02 0.  1.
        1   -1    0    0  501    0  0.00000000000E+00  0.00000000000E+00 -0.21530685269E+04  0.21530685269E+04  0.50400001928E-02 0. -1.
    10030    2    1    2    0    0  0.00000000000E+00  0.00000000000E+00 -0.24021519778E+03  0.40659218560E+04  0.40588196804E+04 0.  0.
        1    1    3    3  502    0 -0.93664608845E+03  0.17525224424E+04  0.29275856829E+03  0.20085687406E+04  0.50400001928E-02 0.  1.
       -1    1    3    3    0  502  0.93664608845E+03 -0.17525224424E+04 -0.53297376607E+03  0.20573531154E+04  0.50400001928E-02 0. -1.
</event>
<event>
 5   0  0.1879500E-08  0.3881051E+04  0.7818609E-02  0.8028982E-01
       -1   -1    0    0    0  501  0.00000000000E+00  0.00000000000E+00  0.12190978240E+04  0.12190978240E+04  0.50400001928E-02 0. -1.
        1   -1    0    0  501    0  0.00000000000E+00  0.00000000000E+00 -0.30888733122E+04  0.30888733122E+04  0.50400001928E-02 0.  1.
    10030    2    1    2    0    0  0.00000000000E+00  0.00000000000E+00 -0.18697754882E+04  0.43079711362E+04  0.38810507512E+04 0.  0.
        1    1    3    3  502    0  0.14732073900E+03  0.17475359486E+04 -0.18569597267E+04  0.25541896402E+04  0.50400001928E-02 0.  1.
       -1    1    3    3    0  502 -0.14732073900E+03 -0.17475359486E+04 -0.12815761485E+02  0.17537814959E+04  0.50400001928E-02 0. -1.
</event>
<event>
 5   0  0.5888700E-08  0.3993811E+04  0.7818609E-02  0.8005796E-01
        2   -1    0    0  501    0  0.00000000000E+00  0.00000000000E+00  0.20587907693E+04  0.20587907693E+04  0.25500000920E-02 0. -1.
       -2   -1    0    0    0  501  0.00000000000E+00  0.00000000000E+00 -0.19368804656E+04  0.19368804656E+04  0.25500000920E-02 0.  1.
    10030    2    1    2    0    0  0.00000000000E+00  0.00000000000E+00  0.12191030374E+03  0.39956712349E+04  0.39938110240E+04 0.  0.
        5    1    3    3  502    0  0.17259324552E+04  0.60244006984E+03 -0.74305630299E+03  0.19733047502E+04  0.46999998093E+01 0.  1.
       -5    1    3    3    0  502 -0.17259324552E+04 -0.60244006984E+03  0.86496660673E+03  0.20223664847E+04  0.46999998093E+01 0. -1.
</event>
<event>
 5   0  0.5945387E-08  0.4028317E+04  0.7818609E-02  0.7998858E-01
       -2   -1    0    0    0  501  0.00000000000E+00  0.00000000000E+00  0.24579574100E+04  0.24579574100E+04  0.25500000920E-02 0.  1.
        2   -1    0    0  501    0  0.00000000000E+00  0.00000000000E+00 -0.16504900986E+04  0.16504900986E+04  0.25500000920E-02 0. -1.
    10030    2    1    2    0    0  0.00000000000E+00  0.00000000000E+00  0.80746731133E+03  0.41084475086E+04  0.40283169528E+04 0.  0.
        3    1    3    3  502    0  0.98967973332E+03  0.17115935877E+04  0.79584959729E+03  0.21312895570E+04  0.10100000352E+00 0.  1.
       -3    1    3    3    0  502 -0.98967973332E+03 -0.17115935877E+04  0.11617714045E+02  0.19771579516E+04  0.10100000352E+00 0. -1.
</event>
<event>
 5   0  0.5945387E-08  0.3991616E+04  0.7818609E-02  0.8006240E-01
        2   -1    0    0  501    0  0.00000000000E+00  0.00000000000E+00  0.23143971744E+04  0.23143971744E+04  0.25500000920E-02 0.  1.
       -2   -1    0    0    0  501  0.00000000000E+00  0.00000000000E+00 -0.17210744180E+04  0.17210744180E+04  0.25500000920E-02 0. -1.
    10030    2    1    2    0    0  0.00000000000E+00  0.00000000000E+00  0.59332275640E+03  0.40354715924E+04  0.39916160988E+04 0.  0.
        3    1    3    3  502    0 -0.97656858732E+03  0.17403270074E+04  0.32570788815E+03  0.20220064137E+04  0.10100000352E+00 0. -1.
       -3    1    3    3    0  502  0.97656858732E+03 -0.17403270074E+04  0.26761486825E+03  0.20134651788E+04  0.10100000352E+00 0.  1.
</event>
<event>
 5   0  0.1879500E-08  0.4007709E+04  0.7818609E-02  0.8002993E-01
        1   -1    0    0  501    0  0.00000000000E+00  0.00000000000E+00  0.20796689949E+04  0.20796689949E+04  0.50400001928E-02 0.  1.
       -1   -1    0    0    0  501  0.00000000000E+00  0.00000000000E+00 -0.19308038620E+04  0.19308038620E+04  0.50400001928E-02 0. -1.
    10030    2    1    2    0    0  0.00000000000E+00  0.00000000000E+00  0.14886513290E+03  0.40104728569E+04  0.40077090349E+04 0.  0.
        2    1    3    3  502    0 -0.28039743674E+03  0.19398262062E+04  0.49171473452E+03  0.20207255659E+04  0.25500000920E-02 0. -1.
       -2    1    3    3    0  502  0.28039743674E+03 -0.19398262062E+04 -0.34284960162E+03  0.19897472910E+04  0.25500000920E-02 0.  1.
</event>
<event>
 5   0  0.5846812E-08  0.3885301E+04  0.7818609E-02  0.8028093E-01
        2   -1    0    0  501    0  0.00000000000E+00  0.00000000000E+00  0.19062171981E+04  0.19062171981E+04  0.25500000920E-02 0. -1.
       -2   -1    0    0    0  501  0.00000000000E+00  0.00000000000E+00 -0.19797801138E+04  0.19797801138E+04  0.25500000920E-02 0.  1.
    10030    2    1    2    0    0  0.00000000000E+00  0.00000000000E+00 -0.73562915706E+02  0.38859973119E+04  0.38853009672E+04 0.  0.
        4    1    3    3  502    0 -0.17506893013E+04 -0.42687408557E+03  0.68912735627E+03  0.19292570178E+04  0.12699999809E+01 0. -1.
       -4    1    3    3    0  502  0.17506893013E+04  0.42687408557E+03 -0.76269027198E+03  0.19567402941E+04  0.12699999809E+01 0.  1.
</event>
<event>
 5   0  0.1879500E-08  0.3997519E+04  0.7818609E-02  0.8005047E-01
       -1   -1    0    0    0  501  0.00000000000E+00  0.00000000000E+00  0.25019468849E+04  0.25019468849E+04  0.50400001928E-02 0. -1.
        1   -1    0    0  501    0  0.00000000000E+00  0.00000000000E+00 -0.15967719692E+04  0.15967719692E+04  0.50400001928E-02 0.  1.
    10030    2    1    2    0    0  0.00000000000E+00  0.00000000000E+00  0.90517491571E+03  0.40987188542E+04  0.39975185575E+04 0.  0.
        3    1    3    3  502    0 -0.46912585145E+03 -0.13434474167E+04 -0.98655148870E+03  0.17315351212E+04  0.10100000352E+00 0.  1.
       -3    1    3    3    0  502  0.46912585145E+03  0.13434474167E+04  0.18917264044E+04  0.23671837329E+04  0.10100000352E+00 0. -1.
</event>
<event>
 5   0  0.5945387E-08  0.3941567E+04  0.7818609E-02  0.8016439E-01
       -2   -1    0    0    0  501  0.00000000000E+00  0.00000000000E+00  0.12397921629E+04  0.12397921629E+04  0.25500000920E-02 0.  1.
        2   -1    0    0  501    0  0.00000000000E+00  0.00000000000E+00 -0.31327732216E+04  0.31327732216E+04  0.25500000920E-02 0. -1.
    10030    2    1    2    0    0  0.00000000000E+00  0.00000000000E+00 -0.18929810586E+04  0.43725653845E+04  0.39415670429E+04 0.  0.
        3    1    3    3  502    0 -0.15588766662E+04  0.12037757372E+04 -0.10234698738E+04  0.22196087671E+04  0.10100000352E+00 0.  1.
       -3    1    3    3    0  502  0.15588766662E+04 -0.12037757372E+04 -0.86951118484E+03  0.21529566175E+04  0.10100000352E+00 0. -1.
</event>
<event>
 5   0  0.1879500E-08  0.4006332E+04  0.7818609E-02  0.8003270E-01
        1   -1    0    0  501    0  0.00000000000E+00  0.00000000000E+00  0.32495775920E+04  0.32495775920E+04  0.50400001928E-02 0.  1.
       -1   -1    0    0    0  501  0.00000000000E+00  0.00000000000E+00 -0.12348293477E+04  0.12348293477E+04  0.50400001928E-02 0. -1.
    10030    2    1    2    0    0  0.00000000000E+00  0.00000000000E+00  0.20147482443E+04  0.44844069397E+04  0.40063318775E+04 0.  0.
        1    1    3    3  502    0 -0.89366101518E+03 -0.17730360401E+04  0.13043384089E+04  0.23756231803E+04  0.50400001928E-02 0. -1.
       -1    1    3    3    0  502  0.89366101518E+03  0.17730360401E+04  0.71040983544E+03  0.21087837594E+04  0.50400001928E-02 0.  1.
</event>
<event>
 5   0  0.5888700E-08  0.4004421E+04  0.7818609E-02  0.8003655E-01
        2   -1    0    0  501    0  0.00000000000E+00  0.00000000000E+00  0.25421905590E+04  0.25421905590E+04  0.25500000920E-02 0.  1.
       -2   -1    0    0    0  501  0.00000000000E+00  0.00000000000E+00 -0.15769264146E+04  0.15769264146E+04  0.25500000920E-02 0. -1.
    10030    2    1    2    0    0  0.00000000000E+00  0.00000000000E+00  0.96526414440E+03  0.41191169735E+04  0.40044212782E+04 0.  0.
        5    1    3    3  502    0  0.16768265415E+03  0.56700475353E+03  0.24503291419E+04  0.25206639714E+04  0.46999998093E+01 0.  1.
       -5    1    3    3    0  502 -0.16768265415E+03 -0.56700475353E+03 -0.14850649975E+04  0.15984530021E+04  0.46999998093E+01 0. -1.
</event>
<event>
 5   0  0.1879500E-08  0.4001561E+04  0.7818609E-02  0.8004232E-01
       -1   -1    0    0    0  501  0.00000000000E+00  0.00000000000E+00  0.21489016892E+04  0.21489016892E+04  0.50400001928E-02 0.  1.
        1   -1    0    0  501    0  0.00000000000E+00  0.00000000000E+00 -0.18628687179E+04  0.18628687179E+04  0.50400001928E-02 0. -1.
    10030    2    1    2    0    0  0.00000000000E+00  0.00000000000E+00  0.28603297134E+03  0.40117704071E+04  0.40015605629E+04 0.  0.
        4    1    3    3  502    0 -0.14681962730E+04 -0.11527847412E+03  0.15008097664E+04  0.21026937462E+04  0.12699999809E+01 0. -1.
       -4    1    3    3    0  502  0.14681962730E+04  0.11527847412E+03 -0.12147767950E+04  0.19090766609E+04  0.12699999809E+01 0.  1.
</event>
<event>
 5   0  0.5951623E-08  0.3976238E+04  0.7818609E-02  0.8009357E-01
        2   -1    0    0  501    0  0.00000000000E+00  0.00000000000E+00  0.13045834861E+04  0.13045834861E+04  0.25500000920E-02 0. -1.
       -2   -1    0    0    0  501  0.00000000000E+00  0.00000000000E+00 -0.30297926951E+04  0.30297926951E+04  0.25500000920E-02 0.  1.
    10030    2    1    2    0    0  0.00000000000E+00  0.00000000000E+00 -0.17252092089E+04  0.43343761812E+04  0.39762381802E+04 0.  0.
        2    1    3    3  502    0  0.11803437628E+04  0.11734053621E+03 -0.26018164085E+04  0.28594455448E+04  0.25500000920E-02 0.  1.
       -2    1    3    3    0  502 -0.11803437628E+04 -0.11734053621E+03  0.87660719958E+03  0.14749306364E+04  0.25500000920E-02 0. -1.
</event>
<event>
 5   0  0.5945387E-08  0.4009356E+04  0.7818609E-02  0.8002662E-01
       -2   -1    0    0    0  501  0.00000000000E+00  0.00000000000E+00  0.13478182360E+04  0.13478182360E+04  0.25500000920E-02 0.  1.
        2   -1    0    0  501    0  0.00000000000E+00  0.00000000000E+00 -0.29816581317E+04  0.29816581317E+04  0.25500000920E-02 0. -1.
    10030    2    1    2    0    0  0.00000000000E+00  0.00000000000E+00 -0.16338398958E+04  0.43294763677E+04  0.40093556607E+04 0.  0.
        3    1    3    3  502    0  0.52023488227E+03 -0.12328543771E+04  0.79496438530E+03  0.15564519369E+04  0.10100000352E+00 0.  1.
       -3    1    3    3    0  502 -0.52023488227E+03  0.12328543771E+04 -0.24288042811E+04  0.27730244308E+04  0.10100000352E+00 0. -1.
</event>
<event>
 5   0  0.1879500E-08  0.4031339E+04  0.7818609E-02  0.7998254E-01
        1   -1    0    0  501    0  0.00000000000E+00  0.00000000000E+00  0.19327861687E+04  0.19327861687E+04  0.50400001928E-02 0.  1.
       -1   -1    0    0    0  501  0.00000000000E+00  0.00000000000E+00 -0.21021067409E+04  0.21021067409E+04  0.50400001928E-02 0. -1.
    10030    2    1    2    0    0  0.00000000000E+00  0.00000000000E+00 -0.16932057219E+03  0.40348929096E+04  0.40313386531E+04 0.  0.
        5    1    3    3  502    0  0.14954154333E+04  0.42555471000E+03 -0.13685759727E+04  0.20713247965E+04  0.46999998093E+01 0.  1.
       -5    1    3    3    0  502 -0.14954154333E+04 -0.42555471000E+03  0.11992554005E+04  0.19635681132E+04  0.46999998093E+01 0. -1.
</event>
<event>
 5   0  0.5888700E-08  0.3994100E+04  0.7818609E-02  0.8005738E-01
        2   -1    0    0  501    0  0.00000000000E+00  0.00000000000E+00  0.12811376935E+04  0.12811376935E+04  0.25500000920E-02 0.  1.
       -2   -1    0    0    0  501  0.00000000000E+00  0.00000000000E+00 -0.31130203456E+04  0.31130203456E+04  0.25500000920E-02 0. -1.
    10030    2    1    2    0    0  0.00000000000E+00  0.00000000000E+00 -0.18318826521E+04  0.43941580391E+04  0.39940995007E+04 0.  0.
        5    1    3    3  502    0  0.71991548861E+03  0.18490873553E+04 -0.66801818312E+03  0.20937222216E+04  0.46999998093E+01 0.  1.
       -5    1    3    3    0  502 -0.71991548861E+03 -0.18490873553E+04 -0.11638644689E+04  0.23004358175E+04  0.46999998093E+01 0. -1.
</event>
<event>
 5   0  0.5846812E-08  0.4018140E+04  0.7818609E-02  0.8000897E-01
       -2   -1    0    0    0  501  0.00000000000E+00  0.00000000000E+00  0.23876364869E+04  0.23876364869E+04  0.25500000920E-02 0. -1.
        2   -1    0    0  501    0  0.00000000000E+00  0.00000000000E+00 -0.16905261579E+04  0.16905261579E+04  0.25500000920E-02 0.  1.
    10030    2    1    2    0    0  0.00000000000E+00  0.00000000000E+00  0.69711032894E+03  0.40781626448E+04  0.40181398366E+04 0.  0.
        4    1    3    3  502    0  0.27590844253E+03 -0.19207509118E+04 -0.17974981760E+03  0.19487742670E+04  0.12699999809E+01 0. -1.
       -4    1    3    3    0  502 -0.27590844253E+03  0.19207509118E+04  0.87686014654E+03  0.21293883778E+04  0.12699999809E+01 0.  1.
</event>
<event>
 5   0  0.5951623E-08  0.3995491E+04  0.7818609E-02  0.8005457E-01
       -2   -1    0    0    0  501  0.00000000000E+00  0.00000000000E+00  0.14503418877E+04  0.14503418877E+04  0.25500000920E-02 0. -1.
        2   -1    0    0  501    0  0.00000000000E+00  0.00000000000E+00 -0.27517566110E+04  0.27517566110E+04  0.25500000920E-02 0.  1.
    10030    2    1    2    0    0  0.00000000000E+00  0.00000000000E+00 -0.13014147233E+04  0.42020984988E+04  0.39954913980E+04 0.  0.
        2    1    3    3  502    0  0.54745427084E+03  0.13569496877E+04  0.77976108432E+03  0.16580247231E+04  0.25500000920E-02 0. -1.
       -2    1    3    3    0  502 -0.54745427084E+03 -0.13569496877E+04 -0.20811758077E+04  0.25440737757E+04  0.25500000920E-02 0.  1.
</event>
<event>
 5   0  0.1879500E-08  0.4001962E+04  0.7818609E-02  0.8004151E-01
        1   -1    0    0  501    0  0.00000000000E+00  0.00000000000E+00  0.24278168094E+04  0.24278168094E+04  0.50400001928E-02 0. -1.
       -1   -1    0    0    0  501  0.00000000000E+00  0.00000000000E+00 -0.16491875618E+04  0.16491875618E+04  0.50400001928E-02 0.  1.
    10030    2    1    2    0    0  0.00000000000E+00  0.00000000000E+00  0.77862924764E+03  0.40770043712E+04  0.40019621609E+04 0.  0.
        2    1    3    3  502    0 -0.99700351955E+03 -0.17258143634E+04  0.57005055874E+03  0.20730192654E+04  0.25500000920E-02 0.  1.
       -2    1    3    3    0  502  0.99700351955E+03  0.17258143634E+04  0.20857868891E+03  0.20039851059E+04  0.25500000920E-02 0. -1.
</event>
<event>
 5   0  0.5951623E-08  0.4004030E+04  0.7818609E-02  0.8003734E-01
        2   -1    0    0  501    0  0.00000000000E+00  0.00000000000E+00  0.32636660904E+04  0.32636660904E+04  0.25500000920E-02 0. -1.
       -2   -1    0    0    0  501  0.00000000000E+00  0.00000000000E+00 -0.12280862054E+04  0.12280862054E+04  0.25500000920E-02 0.  1.
    10030    2    1    2    0    0  0.00000000000E+00  0.00000000000E+00  0.20355798850E+04  0.44917522958E+04  0.40040296226E+04 0.  0.
        2    1    3    3  502    0  0.11616712302E+04  0.11244940152E+03 -0.80698109965E+03  0.14189233278E+04  0.25500000920E-02 0.  1.
       -2    1    3    3    0  502 -0.11616712302E+04 -0.11244940152E+03  0.28425609846E+04  0.30728289680E+04  0.25500000920E-02 0. -1.
</event>
<event>
 5   0  0.5888700E-08  0.3950270E+04  0.7818609E-02  0.8014655E-01
       -2   -1    0    0    0  501  0.00000000000E+00  0.00000000000E+00  0.23874695411E+04  0.23874695411E+04  0.25500000920E-02 0.  1.
        2   -1    0    0  501    0  0.00000000000E+00  0.00000000000E+00 -0.16340134941E+04  0.16340134941E+04  0.25500000920E-02 0. -1.
    10030    2    1    2    0    0  0.00000000000E+00  0.00000000000E+00  0.75345604695E+03  0.40214830352E+04  0.39502695841E+04 0.  0.
        5    1    3    3  502    0  0.34649855832E+03 -0.26370799199E+03 -0.15845362737E+04  0.16432834352E+04  0.46999998093E+01 0. -1.
       -5    1    3    3    0  502 -0.34649855832E+03  0.26370799199E+03  0.23379923206E+04  0.23781995999E+04  0.46999998093E+01 0.  1.
</event>
<event>
 5   0  0.5846812E-08  0.4004654E+04  0.7818609E-02  0.8003608E-01
        2   -1    0    0  501    0  0.00000000000E+00  0.00000000000E+00  0.20741110477E+04  0.20741110477E+04  0.25500000920E-02 0. -1.
       -2   -1    0    0    0  501  0.00000000000E+00  0.00000000000E+00 -0.19330269341E+04  0.19330269341E+04  0.25500000920E-02 0.  1.
    10030    2    1    2    0    0  0.00000000000E+00  0.00000000000E+00  0.14108411357E+03  0.40071379817E+04  0.40046535528E+04 0.  0.
        4    1    3    3  502    0 -0.18805894924E+04 -0.68268935653E+03  0.15201314308E+03  0.20064374411E+04  0.12699999809E+01 0.  1.
       -4    1    3    3    0  502  0.18805894924E+04  0.68268935653E+03 -0.10929029510E+02  0.20007005406E+04  0.12699999809E+01 0. -1.
</event>
<event>
 5   0  0.5951623E-08  0.4002321E+04  0.7818609E-02  0.8004078E-01
        2   -1    0    0  501    0  0.00000000000E+00  0.00000000000E+00  0.17957276159E+04  0.17957276159E+04  0.25500000920E-02 0. -1.
       -2   -1    0    0    0  501  0.00000000000E+00  0.00000000000E+00 -0.22300951840E+04  0.22300951840E+04  0.25500000920E-02 0.  1.
    10030    2    1    2    0    0  0.00000000000E+00  0.00000000000E+00 -0.43436756808E+03  0.40258227999E+04  0.40023210806E+04 0.  0.
        2    1    3    3  502    0  0.13684039561E+04  0.63137552275E+03 -0.15415315094E+04  0.21558023639E+04  0.25500000920E-02 0.  1.
       -2    1    3    3    0  502 -0.13684039561E+04 -0.63137552275E+03  0.11071639414E+04  0.18700204359E+04  0.25500000920E-02 0. -1.
</event>
<event>
 5   0  0.5888700E-08  0.4014019E+04  0.7818609E-02  0.8001724E-01
       -2   -1    0    0    0  501  0.00000000000E+00  0.00000000000E+00  0.31787470141E+04  0.31787470141E+04  0.25500000920E-02 0. -1.
        2   -1    0    0  501    0  0.00000000000E+00  0.00000000000E+00 -0.12671936520E+04  0.12671936520E+04  0.25500000920E-02 0.  1.
    10030    2    1    2    0    0  0.00000000000E+00  0.00000000000E+00  0.19115533620E+04  0.44459406661E+04  0.40140194507E+04 0.  0.
        5    1    3    3  502    0  0.88104142020E+03 -0.14390056928E+04  0.21594995957E+04  0.27405167326E+04  0.46999998093E+01 0. -1.
       -5    1    3    3    0  502 -0.88104142020E+03  0.14390056928E+04 -0.24794623366E+03  0.17054239335E+04  0.46999998093E+01 0.  1.
</event>
<event>
 5   0  0.1879500E-08  0.4005196E+04  0.7818609E-02  0.8003499E-01
        1   -1    0    0  501    0  0.00000000000E+00  0.00000000000E+00  0.13069336539E+04  0.13069336539E+04  0.50400001928E-02 0. -1.
       -1   -1    0    0    0  501  0.00000000000E+00  0.00000000000E+00 -0.30685563905E+04  0.30685563905E+04  0.50400001928E-02 0.  1.
    10030    2    1    2    0    0  0.00000000000E+00  0.00000000000E+00 -0.17616227365E+04  0.43754900444E+04  0.40051964325E+04 0.  0.
        1    1    3    3  502    0 -0.17987801984E+04 -0.85577012906E+03 -0.11058856475E+04  0.22783625219E+04  0.50400001928E-02 0. -1.
       -1    1    3    3    0  502  0.17987801984E+04  0.85577012906E+03 -0.65573708906E+03  0.20971275225E+04  0.50400001928E-02 0.  1.
</event>
<event>
 5   0  0.5945387E-08  0.4004951E+04  0.7818609E-02  0.8003548E-01
       -2   -1    0    0    0  501  0.00000000000E+00  0.00000000000E+00  0.21806635427E+04  0.21806635427E+04  0.25500000920E-02 0. -1.
        2   -1    0    0  501    0  0.00000000000E+00  0.00000000000E+00 -0.18388478483E+04  0.18388478483E+04  0.25500000920E-02 0.  1.
    10030    2    1    2    0    0  0.00000000000E+00  0.00000000000E+00  0.34181569438E+03  0.40195113911E+04  0.40049511675E+04 0.  0.
        3    1    3    3  502    0 -0.38566350063E+03  0.18811383355E+04 -0.39903935070E+03  0.19612878898E+04  0.10100000352E+00 0.  1.
       -3    1    3    3    0  502  0.38566350063E+03 -0.18811383355E+04  0.74085504508E+03  0.20582235013E+04  0.10100000352E+00 0. -1.
</event>
<event>
 5   0  0.1879500E-08  0.4002380E+04  0.7818609E-02  0.8004067E-01
       -1   -1    0    0    0  501  0.00000000000E+00  0.00000000000E+00  0.21816252714E+04  0.21816252714E+04  0.50400001928E-02 0. -1.
        1   -1    0    0  501    0  0.00000000000E+00  0.00000000000E+00 -0.18356777623E+04  0.18356777623E+04  0.50400001928E-02 0.  1.
    10030    2    1    2    0    0  0.00000000000E+00  0.00000000000E+00  0.34594750907E+03  0.40173030337E+04  0.40023797903E+04 0.  0.
        1    1    3    3  502    0 -0.69391619526E+03 -0.14239570564E+04 -0.10545282934E+04  0.19029459546E+04  0.50400001928E-02 0.  1.
       -1    1    3    3    0  502  0.69391619526E+03  0.14239570564E+04  0.14004758025E+04  0.21143570791E+04  0.50400001928E-02 0. -1.
</event>
<event>
 5   0  0.5951623E-08  0.4005115E+04  0.7818609E-02  0.8003515E-01
        2   -1    0    0  501    0  0.00000000000E+00  0.00000000000E+00  0.20886239076E+04  0.20886239076E+04  0.25500000920E-02 0. -1.
       -2   -1    0    0    0  501  0.00000000000E+00  0.00000000000E+00 -0.19200380011E+04  0.19200380011E+04  0.25500000920E-02 0.  1.
    10030    2    1    2    0    0  0.00000000000E+00  0.00000000000E+00  0.16858590650E+03  0.40086619087E+04  0.40051153654E+04 0.  0.
        2    1    3    3  502    0 -0.16187807616E+02 -0.16559205450E+04 -0.10427158462E+04  0.19569341411E+04  0.25500000920E-02 0.  1.
       -2    1    3    3    0  502  0.16187807616E+02  0.16559205450E+04  0.12113017527E+04  0.20517277677E+04  0.25500000920E-02 0. -1.
</event>
<event>
 5   0  0.5888700E-08  0.3971667E+04  0.7818609E-02  0.8010287E-01
        2   -1    0    0  501    0  0.00000000000E+00  0.00000000000E+00  0.17095850735E+04  0.17095850735E+04  0.25500000920E-02 0. -1.
       -2   -1    0    0    0  501  0.00000000000E+00  0.00000000000E+00 -0.23067205830E+04  0.23067205830E+04  0.25500000920E-02 0.  1.
    10030    2    1    2    0    0  0.00000000000E+00  0.00000000000E+00 -0.59713550950E+03  0.40163056566E+04  0.39716671953E+04 0.  0.
        5    1    3    3  502    0 -0.37501385535E+03  0.99204157825E+03  0.13992095780E+04  0.17557310210E+04  0.46999998093E+01 0. -1.
       -5    1    3    3    0  502  0.37501385535E+03 -0.99204157825E+03 -0.19963450875E+04  0.22605746356E+04  0.46999998093E+01 0.  1.
</event>
<event>
 5   0  0.1879500E-08  0.4008213E+04  0.7818609E-02  0.8002892E-01
        1   -1    0    0  501    0  0.00000000000E+00  0.00000000000E+00  0.19606525740E+04  0.19606525741E+04  0.50400001928E-02 0. -1.
       -1   -1    0    0    0  501  0.00000000000E+00  0.00000000000E+00 -0.20485232066E+04  0.20485232066E+04  0.50400001928E-02 0.  1.
    10030    2    1    2    0    0  0.00000000000E+00  0.00000000000E+00 -0.87870632547E+02  0.40091757806E+04  0.40082127179E+04 0.  0.
        3    1    3    3  502    0 -0.65396770778E+03 -0.18783717679E+04 -0.28993754664E+03  0.20099796149E+04  0.10100000352E+00 0. -1.
       -3    1    3    3    0  502  0.65396770778E+03  0.18783717679E+04  0.20206691409E+03  0.19991961657E+04  0.10100000352E+00 0.  1.
</event>
<event>
 5   0  0.1879500E-08  0.4001992E+04  0.7818609E-02  0.8004145E-01
       -1   -1    0    0    0  501  0.00000000000E+00  0.00000000000E+00  0.27151753908E+04  0.27151753908E+04  0.50400001928E-02 0. -1.
        1   -1    0    0  501    0  0.00000000000E+00  0.00000000000E+00 -0.14746691087E+04  0.14746691087E+04  0.50400001928E-02 0.  1.
    10030    2    1    2    0    0  0.00000000000E+00  0.00000000000E+00  0.12405062821E+04  0.41898444995E+04  0.40019921407E+04 0.  0.
        1    1    3    3  502    0 -0.14218180761E+04 -0.12332706634E+04 -0.90943495363E+02  0.18843550329E+04  0.50400001928E-02 0. -1.
       -1    1    3    3    0  502  0.14218180761E+04  0.12332706634E+04  0.13314497774E+04  0.23054894666E+04  0.50400001928E-02 0.  1.
</event>
<event>
 5   0  0.1879500E-08  0.3933107E+04  0.7818609E-02  0.8018179E-01
       -1   -1    0    0    0  501  0.00000000000E+00  0.00000000000E+00  0.25942953860E+04  0.25942953860E+04  0.50400001928E-02 0. -1.
        1   -1    0    0  501    0  0.00000000000E+00  0.00000000000E+00 -0.14907060713E+04  0.14907060713E+04  0.50400001928E-02 0.  1.
    10030    2    1    2    0    0  0.00000000000E+00  0.00000000000E+00  0.11035893147E+04  0.40850014573E+04  0.39331066005E+04 0.  0.
        5    1    3    3  502    0 -0.18727969658E+04 -0.32426922452E+03  0.27532682797E+02  0.19008679975E+04  0.46999998093E+01 0.  1.
       -5    1    3    3    0  502  0.18727969658E+04  0.32426922452E+03  0.10760566319E+04  0.21841334598E+04  0.46999998093E+01 0. -1.
</event>
<event>
 5   0  0.1879500E-08  0.4006439E+04  0.7818609E-02  0.8003249E-01
       -1   -1    0    0    0  501  0.00000000000E+00  0.00000000000E+00  0.29885711938E+04  0.29885711938E+04  0.50400001928E-02 0.  1.
        1   -1    0    0  501    0  0.00000000000E+00  0.00000000000E+00 -0.13427448919E+04  0.13427448919E+04  0.50400001928E-02 0. -1.
    10030    2    1    2    0    0  0.00000000000E+00  0.00000000000E+00  0.16458263019E+04  0.43313160857E+04  0.40064391694E+04 0.  0.
        3    1    3    3  502    0 -0.16202966505E+04  0.91451086726E+03  0.20284092825E+02  0.18606726785E+04  0.10100000352E+00 0.  1.
       -3    1    3    3    0  502  0.16202966505E+04 -0.91451086726E+03  0.16255422090E+04  0.24706434072E+04  0.10100000352E+00 0. -1.
</event>
<event>
 5   0  0.5888700E-08  0.3997439E+04  0.7818609E-02  0.8005063E-01
       -2   -1    0    0    0  501  0.00000000000E+00  0.00000000000E+00  0.17259633473E+04  0.17259633473E+04  0.25500000920E-02 0. -1.
        2   -1    0    0  501    0  0.00000000000E+00  0.00000000000E+00 -0.23145794380E+04  0.23145794380E+04  0.25500000920E-02 0.  1.
    10030    2    1    2    0    0  0.00000000000E+00  0.00000000000E+00 -0.58861609075E+03  0.40405427853E+04  0.39974388172E+04 0.  0.
        5    1    3    3  502    0  0.13083196108E+04 -0.56558702127E+02 -0.18205427224E+04  0.22426094143E+04  0.46999998093E+01 0.  1.
       -5    1    3    3    0  502 -0.13083196108E+04  0.56558702127E+02  0.12319266317E+04  0.17979333710E+04  0.46999998093E+01 0. -1.
</event>
<event>
 5   0  0.5888700E-08  0.4011522E+04  0.7818609E-02  0.8002226E-01
       -2   -1    0    0    0  501  0.00000000000E+00  0.00000000000E+00  0.18287854831E+04  0.18287854831E+04  0.25500000920E-02 0. -1.
        2   -1    0    0  501    0  0.00000000000E+00  0.00000000000E+00 -0.21998628159E+04  0.21998628159E+04  0.25500000920E-02 0.  1.
    10030    2    1    2    0    0  0.00000000000E+00  0.00000000000E+00 -0.37107733286E+03  0.40286482990E+04  0.40115219967E+04 0.  0.
        5    1    3    3  502    0 -0.15742374162E+04  0.12284575118E+04 -0.37535297603E+03  0.20318078767E+04  0.46999998093E+01 0. -1.
       -5    1    3    3    0  502  0.15742374162E+04 -0.12284575118E+04  0.42756431658E+01  0.19968404223E+04  0.46999998093E+01 0.  1.
</event>
<event>
 5   0  0.1879500E-08  0.3928153E+04  0.7818609E-02  0.8019199E-01
       -1   -1    0    0    0  501  0.00000000000E+00  0.00000000000E+00  0.15769004397E+04  0.15769004397E+04  0.50400001928E-02 0. -1.
        1   -1    0    0  501    0  0.00000000000E+00  0.00000000000E+00 -0.24463160126E+04  0.24463160126E+04  0.50400001928E-02 0.  1.
    10030    2    1    2    0    0  0.00000000000E+00  0.00000000000E+00 -0.86941557290E+03  0.40232164524E+04  0.39281531518E+04 0.  0.
        1    1    3    3  502    0 -0.18840244330E+04  0.19691182551E+03 -0.96618245825E+03  0.21264597043E+04  0.50400001928E-02 0. -1.
       -1    1    3    3    0  502  0.18840244330E+04 -0.19691182551E+03  0.96766885350E+02  0.18967567481E+04  0.50400001928E-02 0.  1.
</event>
<event>
 5   0  0.1879500E-08  0.4014479E+04  0.7818609E-02  0.8001632E-01
       -3   -1    0    0    0  501  0.00000000000E+00  0.00000000000E+00  0.24636760194E+04  0.24636760215E+04  0.10100000352E+00 0.  1.
        3   -1    0    0  501    0  0.00000000000E+00  0.00000000000E+00 -0.16353650126E+04  0.16353650157E+04  0.10100000352E+00 0. -1.
    10030    2    1    2    0    0  0.00000000000E+00  0.00000000000E+00  0.82831100683E+03  0.40990410372E+04  0.40144785839E+04 0.  0.
        3    1    3    3  502    0 -0.11379486508E+04 -0.37573333753E+03  0.20583249817E+04  0.23817649786E+04  0.10100000352E+00 0.  1.
       -3    1    3    3    0  502  0.11379486508E+04  0.37573333753E+03 -0.12300139749E+04  0.17172760586E+04  0.10100000352E+00 0. -1.
</event>
<event>
 5   0  0.5945387E-08  0.4023121E+04  0.7818609E-02  0.7999898E-01
       -2   -1    0    0    0  501  0.00000000000E+00  0.00000000000E+00  0.25330073438E+04  0.25330073438E+04  0.25500000920E-02 0.  1.
        2   -1    0    0  501    0  0.00000000000E+00  0.00000000000E+00 -0.15974593150E+04  0.15974593150E+04  0.25500000920E-02 0. -1.
    10030    2    1    2    0    0  0.00000000000E+00  0.00000000000E+00  0.93554802877E+03  0.41304666588E+04  0.40231212641E+04 0.  0.
        3    1    3    3  502    0 -0.11817284135E+04  0.16032538750E+04  0.17834590613E+03  0.19996780499E+04  0.10100000352E+00 0. -1.
       -3    1    3    3    0  502  0.11817284135E+04 -0.16032538750E+04  0.75720212264E+03  0.21307886089E+04  0.10100000352E+00 0.  1.
</event>
<event>
 5   0  0.5888700E-08  0.3973055E+04  0.7818609E-02  0.8010004E-01
        2   -1    0    0  501    0  0.00000000000E+00  0.00000000000E+00  0.19221143013E+04  0.19221143013E+04  0.25500000920E-02 0. -1.
       -2   -1    0    0    0  501  0.00000000000E+00  0.00000000000E+00 -0.20530988283E+04  0.20530988283E+04  0.25500000920E-02 0.  1.
    10030    2    1    2    0    0  0.00000000000E+00  0.00000000000E+00 -0.13098452698E+03  0.39752131297E+04  0.39730545529E+04 0.  0.
        5    1    3    3  502    0 -0.18646033944E+04 -0.50079174961E+03  0.40244798259E+03  0.19721877861E+04  0.46999998093E+01 0.  1.
       -5    1    3    3    0  502  0.18646033944E+04  0.50079174961E+03 -0.53343250957E+03  0.20030253436E+04  0.46999998093E+01 0. -1.
</event>
<event>
 5   0  0.5846812E-08  0.4012040E+04  0.7818609E-02  0.8002122E-01
       -2   -1    0    0    0  501  0.00000000000E+00  0.00000000000E+00  0.13684389993E+04  0.13684389993E+04  0.25500000920E-02 0.  1.
        2   -1    0    0  501    0  0.00000000000E+00  0.00000000000E+00 -0.29406618387E+04  0.29406618387E+04  0.25500000920E-02 0. -1.
    10030    2    1    2    0    0  0.00000000000E+00  0.00000000000E+00 -0.15722228394E+04  0.43091008380E+04  0.40120400515E+04 0.  0.
        4    1    3    3  502    0  0.12458657924E+04 -0.10334226718E+04 -0.20587363471E+04  0.26188816222E+04  0.12699999809E+01 0. -1.
       -4    1    3    3    0  502 -0.12458657924E+04  0.10334226718E+04  0.48651350772E+03  0.16902192158E+04  0.12699999809E+01 0.  1.
</event>
<event>
 5   0  0.1879500E-08  0.4001525E+04  0.7818609E-02  0.8004239E-01
        1   -1    0    0  501    0  0.00000000000E+00  0.00000000000E+00  0.24698918034E+04  0.24698918034E+04  0.50400001928E-02 0.  1.
       -1   -1    0    0    0  501  0.00000000000E+00  0.00000000000E+00 -0.16207390060E+04  0.16207390060E+04  0.50400001928E-02 0. -1.
    10030    2    1    2    0    0  0.00000000000E+00  0.00000000000E+00  0.84915279736E+03  0.40906308094E+04  0.40015247026E+04 0.  0.
        3    1    3    3  502    0  0.96777325747E+03 -0.17291849617E+04  0.70710781055E+03  0.21039646326E+04  0.10100000352E+00 0.  1.
       -3    1    3    3    0  502 -0.96777325747E+03  0.17291849617E+04  0.14204498681E+03  0.19866661768E+04  0.10100000352E+00 0. -1.
</event>
<event>
 5   0  0.1879500E-08  0.3919392E+04  0.7818609E-02  0.8021008E-01
       -1   -1    0    0    0  501  0.00000000000E+00  0.00000000000E+00  0.18300376328E+04  0.18300376328E+04  0.50400001928E-02 0. -1.
        1   -1    0    0  501    0  0.00000000000E+00  0.00000000000E+00 -0.20985407358E+04  0.20985407358E+04  0.50400001928E-02 0.  1.
    10030    2    1    2    0    0  0.00000000000E+00  0.00000000000E+00 -0.26850310304E+03  0.39285783686E+04  0.39193920552E+04 0.  0.
        4    1    3    3  502    0 -0.19367578780E+04 -0.29117956428E+03 -0.20216203451E+03  0.19689306026E+04  0.12699999809E+01 0.  1.
       -4    1    3    3    0  502  0.19367578780E+04  0.29117956428E+03 -0.66341068523E+02  0.19596477660E+04  0.12699999809E+01 0. -1.
</event>
<event>
 5   0  0.1879500E-08  0.4002348E+04  0.7818609E-02  0.8004073E-01
       -1   -1    0    0    0  501  0.00000000000E+00  0.00000000000E+00  0.14865839658E+04  0.14865839658E+04  0.50400001928E-02 0. -1.
        1   -1    0    0  501    0  0.00000000000E+00  0.00000000000E+00 -0.26938920125E+04  0.26938920125E+04  0.50400001928E-02 0.  1.
    10030    2    1    2    0    0  0.00000000000E+00  0.00000000000E+00 -0.12073080468E+04  0.41804759783E+04  0.40023476467E+04 0.  0.
        4    1    3    3  502    0  0.27144311033E+03  0.17784266640E+04  0.31183164640E+03  0.18258486656E+04  0.12699999809E+01 0.  1.
       -4    1    3    3    0  502 -0.27144311033E+03 -0.17784266640E+04 -0.15191396932E+04  0.23546273127E+04  0.12699999809E+01 0. -1.
</event>
<event>
 5   0  0.1879500E-08  0.4003354E+04  0.7818609E-02  0.8003870E-01
        1   -1    0    0  501    0  0.00000000000E+00  0.00000000000E+00  0.21163620430E+04  0.21163620430E+04  0.50400001928E-02 0.  1.
       -1   -1    0    0    0  501  0.00000000000E+00  0.00000000000E+00 -0.18932068203E+04  0.18932068203E+04  0.50400001928E-02 0. -1.
    10030    2    1    2    0    0  0.00000000000E+00  0.00000000000E+00  0.22315522269E+03  0.40095688632E+04  0.40033541207E+04 0.  0.
        4    1    3    3  502    0  0.27503423223E+03  0.52590568494E+03 -0.18030617722E+04  0.18982239029E+04  0.12699999809E+01 0. -1.
       -4    1    3    3    0  502 -0.27503423223E+03 -0.52590568494E+03  0.20262169949E+04  0.21113449603E+04  0.12699999809E+01 0.  1.
</event>
<event>
 5   0  0.1879500E-08  0.4002171E+04  0.7818609E-02  0.8004109E-01
       -1   -1    0    0    0  501  0.00000000000E+00  0.00000000000E+00  0.31138442644E+04  0.31138442644E+04  0.50400001928E-02 0. -1.
        1   -1    0    0  501    0  0.00000000000E+00  0.00000000000E+00 -0.12859803571E+04  0.12859803571E+04  0.50400001928E-02 0.  1.
    10030    2    1    2    0    0  0.00000000000E+00  0.00000000000E+00  0.18278639073E+04  0.43998246216E+04  0.40021706906E+04 0.  0.
        1    1    3    3  502    0  0.98498830602E+03 -0.79344360325E+03  0.26186795323E+04  0.29081329419E+04  0.50400001928E-02 0. -1.
       -1    1    3    3    0  502 -0.98498830602E+03  0.79344360325E+03 -0.79081562500E+03  0.14916916797E+04  0.50400001928E-02 0.  1.
</event>
<event>
 5   0  0.1879500E-08  0.3864351E+04  0.7818609E-02  0.8032485E-01
        1   -1    0    0  501    0  0.00000000000E+00  0.00000000000E+00  0.24130059208E+04  0.24130059208E+04  0.50400001928E-02 0. -1.
       -1   -1    0    0    0  501  0.00000000000E+00  0.00000000000E+00 -0.15471582747E+04  0.15471582747E+04  0.50400001928E-02 0.  1.
    10030    2    1    2    0    0  0.00000000000E+00  0.00000000000E+00  0.86584764608E+03  0.39601641955E+04  0.38643509557E+04 0.  0.
        5    1    3    3  502    0 -0.16263493170E+04 -0.87252000606E+03 -0.15307271636E+03  0.18519602070E+04  0.46999998093E+01 0.  1.
       -5    1    3    3    0  502  0.16263493170E+04  0.87252000606E+03  0.10189203624E+04  0.21082039885E+04  0.46999998093E+01 0. -1.
</event>
<event>
 5   0  0.5846812E-08  0.4008886E+04  0.7818609E-02  0.8002756E-01
       -2   -1    0    0    0  501  0.00000000000E+00  0.00000000000E+00  0.26637808529E+04  0.26637808529E+04  0.25500000920E-02 0.  1.
        2   -1    0    0  501    0  0.00000000000E+00  0.00000000000E+00 -0.15083038414E+04  0.15083038414E+04  0.25500000920E-02 0. -1.
    10030    2    1    2    0    0  0.00000000000E+00  0.00000000000E+00  0.11554770115E+04  0.41720846943E+04  0.40088855773E+04 0.  0.
        4    1    3    3  502    0 -0.69874211244E+03 -0.17209781662E+04 -0.20645024248E+03  0.18688578608E+04  0.12699999809E+01 0. -1.
       -4    1    3    3    0  502  0.69874211244E+03  0.17209781662E+04  0.13619272540E+04  0.23032268335E+04  0.12699999809E+01 0.  1.
</event>
<event>
 5   0  0.1879500E-08  0.4001275E+04  0.7818609E-02  0.8004289E-01
        3   -1    0    0  501    0  0.00000000000E+00  0.00000000000E+00  0.20646983819E+04  0.20646983844E+04  0.10100000352E+00 0.  1.
       -3   -1    0    0    0  501  0.00000000000E+00  0.00000000000E+00 -0.19385639084E+04  0.19385639110E+04  0.10100000352E+00 0. -1.
    10030    2    1    2    0    0  0.00000000000E+00  0.00000000000E+00  0.12613447352E+03  0.40032622954E+04  0.40012746844E+04 0.  0.
        1    1    3    3  502    0  0.28729064520E+03  0.15995880220E+04  0.12304081570E+04  0.20384116336E+04  0.50400001928E-02 0. -1.
       -1    1    3    3    0  502 -0.28729064520E+03 -0.15995880220E+04 -0.11042736835E+04  0.19648506618E+04  0.50400001928E-02 0.  1.
</event>
<event>
 5   0  0.5846812E-08  0.3997971E+04  0.7818609E-02  0.8004956E-01
        2   -1    0    0  501    0  0.00000000000E+00  0.00000000000E+00  0.23353388534E+04  0.23353388534E+04  0.25500000920E-02 0.  1.
       -2   -1    0    0    0  501  0.00000000000E+00  0.00000000000E+00 -0.17110765003E+04  0.17110765003E+04  0.25500000920E-02 0. -1.
    10030    2    1    2    0    0  0.00000000000E+00  0.00000000000E+00  0.62426235315E+03  0.40464153537E+04  0.39979712016E+04 0.  0.
        4    1    3    3  502    0 -0.16452327298E+04  0.17845472015E+03 -0.82275189841E+03  0.18481231348E+04  0.12699999809E+01 0. -1.
       -4    1    3    3    0  502  0.16452327298E+04 -0.17845472015E+03  0.14470142516E+04  0.21982922188E+04  0.12699999809E+01 0.  1.
</event>
<event>
 5   0  0.1879500E-08  0.4005068E+04  0.7818609E-02  0.8003525E-01
       -1   -1    0    0    0  501  0.00000000000E+00  0.00000000000E+00  0.20190750219E+04  0.20190750219E+04  0.50400001928E-02 0. -1.
        1   -1    0    0  501    0  0.00000000000E+00  0.00000000000E+00 -0.19861284914E+04  0.19861284914E+04  0.50400001928E-02 0.  1.
    10030    2    1    2    0    0  0.00000000000E+00  0.00000000000E+00  0.32946530471E+02  0.40052035133E+04  0.40050680030E+04 0.  0.
        1    1    3    3  502    0 -0.13558406843E+04 -0.68106960390E+03 -0.12904690597E+04  0.19918509384E+04  0.50400001928E-02 0.  1.
       -1    1    3    3    0  502  0.13558406843E+04  0.68106960390E+03  0.13234155902E+04  0.20133525749E+04  0.50400001928E-02 0. -1.
</event>
<event>
 5   0  0.6161563E-08  0.3988915E+04  0.7818609E-02  0.8006786E-01
        2   -1    0    0  501    0  0.00000000000E+00  0.00000000000E+00  0.14045084339E+04  0.14045084339E+04  0.25500000920E-02 0. -1.
       -2   -1    0    0    0  501  0.00000000000E+00  0.00000000000E+00 -0.28322085779E+04  0.28322085779E+04  0.25500000920E-02 0.  1.
    10030    2    1    2    0    0  0.00000000000E+00  0.00000000000E+00 -0.14277001440E+04  0.42367170118E+04  0.39889150577E+04 0.  0.
        1    1    3    3  502    0  0.14912808169E+04  0.13243479983E+04 -0.72095428558E+03  0.21207525027E+04  0.50400001928E-02 0. -1.
       -1    1    3    3    0  502 -0.14912808169E+04 -0.13243479983E+04 -0.70674585840E+03  0.21159645092E+04  0.50400001928E-02 0.  1.
</event>
<event>
 5   0  0.1879500E-08  0.3995630E+04  0.7818609E-02  0.8005429E-01
       -1   -1    0    0    0  501  0.00000000000E+00  0.00000000000E+00  0.19081917595E+04  0.19081917595E+04  0.50400001928E-02 0.  1.
        1   -1    0    0  501    0  0.00000000000E+00  0.00000000000E+00 -0.20916476489E+04  0.20916476490E+04  0.50400001928E-02 0. -1.
    10030    2    1    2    0    0  0.00000000000E+00  0.00000000000E+00 -0.18345588943E+03  0.39998394085E+04  0.39956300167E+04 0.  0.
        3    1    3    3  502    0 -0.17644917310E+04  0.14617266895E+03 -0.10181580850E+04  0.20424111765E+04  0.10100000352E+00 0. -1.
       -3    1    3    3    0  502  0.17644917310E+04 -0.14617266895E+03  0.83470219557E+03  0.19574282319E+04  0.10100000352E+00 0.  1.
</event>
<event>
 5   0  0.5951623E-08  0.4025659E+04  0.7818609E-02  0.7999390E-01
        2   -1    0    0  501    0  0.00000000000E+00  0.00000000000E+00  0.14795433431E+04  0.14795433431E+04  0.25500000920E-02 0. -1.
       -2   -1    0    0    0  501  0.00000000000E+00  0.00000000000E+00 -0.27383329029E+04  0.27383329029E+04  0.25500000920E-02 0.  1.
    10030    2    1    2    0    0  0.00000000000E+00  0.00000000000E+00 -0.12587895599E+04  0.42178762460E+04  0.40256588120E+04 0.  0.
        2    1    3    3  502    0 -0.47417157708E+03 -0.43864053123E+03 -0.26267879137E+04  0.27050432425E+04  0.25500000920E-02 0.  1.
       -2    1    3    3    0  502  0.47417157708E+03  0.43864053123E+03  0.13679983539E+04  0.15128330035E+04  0.25500000920E-02 0. -1.
</event>
<event>
 5   0  0.1879500E-08  0.3985563E+04  0.7818609E-02  0.8007465E-01
        1   -1    0    0  501    0  0.00000000000E+00  0.00000000000E+00  0.28288315013E+04  0.28288315014E+04  0.50400001928E-02 0. -1.
       -1   -1    0    0    0  501  0.00000000000E+00  0.00000000000E+00 -0.14038229263E+04  0.14038229263E+04  0.50400001928E-02 0.  1.
    10030    2    1    2    0    0  0.00000000000E+00  0.00000000000E+00  0.14250085751E+04  0.42326544276E+04  0.39855632054E+04 0.  0.
        1    1    3    3  502    0 -0.39192939026E+03  0.19434977420E+04  0.49908156253E+03  0.20444741442E+04  0.50400001928E-02 0.  1.
       -1    1    3    3    0  502  0.39192939026E+03 -0.19434977420E+04  0.92592701256E+03  0.21881802834E+04  0.50400001928E-02 0. -1.
</event>
<event>
 5   0  0.1879500E-08  0.4036920E+04  0.7818609E-02  0.7997140E-01
       -1   -1    0    0    0  501  0.00000000000E+00  0.00000000000E+00  0.20016949771E+04  0.20016949771E+04  0.50400001928E-02 0.  1.
        1   -1    0    0  501    0  0.00000000000E+00  0.00000000000E+00 -0.20353658570E+04  0.20353658570E+04  0.50400001928E-02 0. -1.
    10030    2    1    2    0    0  0.00000000000E+00  0.00000000000E+00 -0.33670879868E+02  0.40370608342E+04  0.40369204167E+04 0.  0.
        5    1    3    3  502    0  0.12799400813E+04  0.15022407678E+04 -0.44015334868E+03  0.20220610764E+04  0.46999998093E+01 0. -1.
       -5    1    3    3    0  502 -0.12799400813E+04 -0.15022407678E+04  0.40648246881E+03  0.20149997578E+04  0.46999998093E+01 0.  1.
</event>
<event>
 5   0  0.1879500E-08  0.3996048E+04  0.7818609E-02  0.8005344E-01
       -1   -1    0    0    0  501  0.00000000000E+00  0.00000000000E+00  0.25743420272E+04  0.25743420272E+04  0.50400001928E-02 0.  1.
        1   -1    0    0  501    0  0.00000000000E+00  0.00000000000E+00 -0.15507263480E+04  0.15507263480E+04  0.50400001928E-02 0. -1.
    10030    2    1    2    0    0  0.00000000000E+00  0.00000000000E+00  0.10236156792E+04  0.41250683752E+04  0.39960480529E+04 0.  0.
        1    1    3    3  502    0  0.17445396963E+04  0.97381424421E+03  0.49203001476E+03  0.20576264164E+04  0.50400001928E-02 0. -1.
       -1    1    3    3    0  502 -0.17445396963E+04 -0.97381424421E+03  0.53158566444E+03  0.20674419587E+04  0.50400001928E-02 0.  1.
</event>
<event>
 5   0  0.5888700E-08  0.4002947E+04  0.7818609E-02  0.8003952E-01
       -2   -1    0    0    0  501  0.00000000000E+00  0.00000000000E+00  0.21755158136E+04  0.21755158136E+04  0.25500000920E-02 0.  1.
        2   -1    0    0  501    0  0.00000000000E+00  0.00000000000E+00 -0.18413550054E+04  0.18413550054E+04  0.25500000920E-02 0. -1.
    10030    2    1    2    0    0  0.00000000000E+00  0.00000000000E+00  0.33416080817E+03  0.40168708190E+04  0.40029473805E+04 0.  0.
        5    1    3    3  502    0 -0.11345189413E+04 -0.14791848305E+04 -0.56398218686E+03  0.19476187995E+04  0.46999998093E+01 0. -1.
       -5    1    3    3    0  502  0.11345189413E+04  0.14791848305E+04  0.89814299503E+03  0.20692520196E+04  0.46999998093E+01 0.  1.
</event>
<event>
 5   0  0.5945387E-08  0.4008137E+04  0.7818609E-02  0.8002907E-01
       -2   -1    0    0    0  501  0.00000000000E+00  0.00000000000E+00  0.17960224670E+04  0.17960224670E+04  0.25500000920E-02 0.  1.
        2   -1    0    0  501    0  0.00000000000E+00  0.00000000000E+00 -0.22362143761E+04  0.22362143761E+04  0.25500000920E-02 0. -1.
    10030    2    1    2    0    0  0.00000000000E+00  0.00000000000E+00 -0.44019190910E+03  0.40322368430E+04  0.40081373531E+04 0.  0.
        3    1    3    3  502    0  0.49436994913E+03  0.35179087817E+03  0.17013968224E+04  0.18063525752E+04  0.10100000352E+00 0.  1.
       -3    1    3    3    0  502 -0.49436994913E+03 -0.35179087817E+03 -0.21415887315E+04  0.22258842678E+04  0.10100000352E+00 0. -1.
</event>
<event>
 5   0  0.6161563E-08  0.3996771E+04  0.7818609E-02  0.8005198E-01
        2   -1    0    0  501    0  0.00000000000E+00  0.00000000000E+00  0.13999631580E+04  0.13999631580E+04  0.25500000920E-02 0.  1.
       -2   -1    0    0    0  501  0.00000000000E+00  0.00000000000E+00 -0.28526071223E+04  0.28526071223E+04  0.25500000920E-02 0. -1.
    10030    2    1    2    0    0  0.00000000000E+00  0.00000000000E+00 -0.14526439642E+04  0.42525702803E+04  0.39967711345E+04 0.  0.
        1    1    3    3  502    0  0.66984583367E+03 -0.10371889991E+04  0.94557962918E+03  0.15551769339E+04  0.50400001928E-02 0.  1.
       -1    1    3    3    0  502 -0.66984583367E+03  0.10371889991E+04 -0.23982235934E+04  0.26973933463E+04  0.50400001928E-02 0. -1.
</event>
<event>
 5   0  0.1879500E-08  0.3999954E+04  0.7818609E-02  0.8004556E-01
       -1   -1    0    0    0  501  0.00000000000E+00  0.00000000000E+00  0.17624016977E+04  0.17624016977E+04  0.50400001928E-02 0. -1.
        1   -1    0    0  501    0  0.00000000000E+00  0.00000000000E+00 -0.22695782869E+04  0.22695782869E+04  0.50400001928E-02 0.  1.
    10030    2    1    2    0    0  0.00000000000E+00  0.00000000000E+00 -0.50717658923E+03  0.40319799846E+04  0.39999543127E+04 0.  0.
        2    1    3    3  502    0 -0.88528230506E+03 -0.51307469860E+03 -0.19857583126E+04  0.22338770069E+04  0.25500000920E-02 0.  1.
       -2    1    3    3    0  502  0.88528230506E+03  0.51307469860E+03  0.14785817233E+04  0.17981029777E+04  0.25500000920E-02 0. -1.
</event>
<event>
 5   0  0.1879500E-08  0.3977535E+04  0.7818609E-02  0.8009094E-01
       -1   -1    0    0    0  501  0.00000000000E+00  0.00000000000E+00  0.14300486456E+04  0.14300486456E+04  0.50400001928E-02 0. -1.
        1   -1    0    0  501    0  0.00000000000E+00  0.00000000000E+00 -0.27657780518E+04  0.27657780518E+04  0.50400001928E-02 0.  1.
    10030    2    1    2    0    0  0.00000000000E+00  0.00000000000E+00 -0.13357294062E+04  0.41958266974E+04  0.39775354968E+04 0.  0.
        1    1    3    3  502    0 -0.14930394345E+03  0.18977295675E+04 -0.60480390977E+02  0.19045542934E+04  0.50400001928E-02 0. -1.
       -1    1    3    3    0  502  0.14930394345E+03 -0.18977295675E+04 -0.12752490152E+04  0.22912724040E+04  0.50400001928E-02 0.  1.
</event>
<event>
 5   0  0.5888700E-08  0.3987602E+04  0.7818609E-02  0.8007052E-01
        2   -1    0    0  501    0  0.00000000000E+00  0.00000000000E+00  0.20652629937E+04  0.20652629937E+04  0.25500000920E-02 0.  1.
       -2   -1    0    0    0  501  0.00000000000E+00  0.00000000000E+00 -0.19248119827E+04  0.19248119827E+04  0.25500000920E-02 0. -1.
    10030    2    1    2    0    0  0.00000000000E+00  0.00000000000E+00  0.14045101099E+03  0.39900749765E+04  0.39876022660E+04 0.  0.
        5    1    3    3  502    0 -0.14583791133E+04  0.13475317612E+04 -0.11018988510E+03  0.19886868497E+04  0.46999998093E+01 0. -1.
       -5    1    3    3    0  502  0.14583791133E+04 -0.13475317612E+04  0.25064089609E+03  0.20013881268E+04  0.46999998093E+01 0.  1.
</event>
<event>
 5   0  0.1879500E-08  0.4007355E+04  0.7818609E-02  0.8003064E-01
        1   -1    0    0  501    0  0.00000000000E+00  0.00000000000E+00  0.20486949098E+04  0.20486949098E+04  0.50400001928E-02 0.  1.
       -1   -1    0    0    0  501  0.00000000000E+00  0.00000000000E+00 -0.19596493805E+04  0.19596493805E+04  0.50400001928E-02 0. -1.
    10030    2    1    2    0    0  0.00000000000E+00  0.00000000000E+00  0.89045529293E+02  0.40083442902E+04  0.40073550932E+04 0.  0.
        5    1    3    3  502    0 -0.35845399865E+03  0.11445586480E+04 -0.15609272828E+04  0.19685070079E+04  0.46999998093E+01 0. -1.
       -5    1    3    3    0  502  0.35845399865E+03 -0.11445586480E+04  0.16499728121E+04  0.20398372824E+04  0.46999998093E+01 0.  1.
</event>
<event>
 5   0  0.1879500E-08  0.4003751E+04  0.7818609E-02  0.8003790E-01
        1   -1    0    0  501    0  0.00000000000E+00  0.00000000000E+00  0.28187915937E+04  0.28187915938E+04  0.50400001928E-02 0. -1.
       -1   -1    0    0    0  501  0.00000000000E+00  0.00000000000E+00 -0.14217102248E+04  0.14217102248E+04  0.50400001928E-02 0.  1.
    10030    2    1    2    0    0  0.00000000000E+00  0.00000000000E+00  0.13970813690E+04  0.42405018185E+04  0.40037506568E+04 0.  0.
        4    1    3    3  502    0  0.64102813175E+03 -0.15600701328E+04  0.18406209883E+04  0.24965222051E+04  0.12699999809E+01 0. -1.
       -4    1    3    3    0  502 -0.64102813175E+03  0.15600701328E+04 -0.44353961938E+03  0.17439796134E+04  0.12699999809E+01 0.  1.
</event>
<event>
 5   0  0.5945387E-08  0.3996711E+04  0.7818609E-02  0.8005210E-01
        2   -1    0    0  501    0  0.00000000000E+00  0.00000000000E+00  0.26822729274E+04  0.26822729275E+04  0.25500000920E-02 0. -1.
       -2   -1    0    0    0  501  0.00000000000E+00  0.00000000000E+00 -0.14888208076E+04  0.14888208076E+04  0.25500000920E-02 0.  1.
    10030    2    1    2    0    0  0.00000000000E+00  0.00000000000E+00  0.11934521199E+04  0.41710937350E+04  0.39967105204E+04 0.  0.
        3    1    3    3  502    0  0.11902212170E+04 -0.71521748535E+03  0.20965308717E+04  0.25146777731E+04  0.10100000352E+00 0. -1.
       -3    1    3    3    0  502 -0.11902212170E+04  0.71521748535E+03 -0.90307875177E+03  0.16564159619E+04  0.10100000352E+00 0.  1.
</event>
<event>
 5   0  0.5888700E-08  0.4018939E+04  0.7818609E-02  0.8000737E-01
       -2   -1    0    0    0  501  0.00000000000E+00  0.00000000000E+00  0.23593198302E+04  0.23593198302E+04  0.25500000920E-02 0. -1.
        2   -1    0    0  501    0  0.00000000000E+00  0.00000000000E+00 -0.17114968859E+04  0.17114968859E+04  0.25500000920E-02 0.  1.
    10030    2    1    2    0    0  0.00000000000E+00  0.00000000000E+00  0.64782294426E+03  0.40708167161E+04  0.40189394334E+04 0.  0.
        5    1    3    3  502    0 -0.15509737273E+04  0.12412883973E+04  0.63052342655E+03  0.20842020702E+04  0.46999998093E+01 0. -1.
       -5    1    3    3    0  502  0.15509737273E+04 -0.12412883973E+04  0.17299517710E+02  0.19866146459E+04  0.46999998093E+01 0.  1.
</event>
<event>
 5   0  0.5846812E-08  0.4006079E+04  0.7818609E-02  0.8003321E-01
        2   -1    0    0  501    0  0.00000000000E+00  0.00000000000E+00  0.15843411172E+04  0.15843411172E+04  0.25500000920E-02 0.  1.
       -2   -1    0    0    0  501  0.00000000000E+00  0.00000000000E+00 -0.25323882874E+04  0.25323882874E+04  0.25500000920E-02 0. -1.
    10030    2    1    2    0    0  0.00000000000E+00  0.00000000000E+00 -0.94804717020E+03  0.41167294045E+04  0.40060788251E+04 0.  0.
        4    1    3    3  502    0 -0.12498989979E+04 -0.15094013971E+04 -0.48304274408E+02  0.19603252277E+04  0.12699999809E+01 0.  1.
       -4    1    3    3    0  502  0.12498989979E+04  0.15094013971E+04 -0.89974289580E+03  0.21564041769E+04  0.12699999809E+01 0. -1.
</event>
<event>
 5   0  0.6161563E-08  0.3994774E+04  0.7818609E-02  0.8005602E-01
        2   -1    0    0  501    0  0.00000000000E+00  0.00000000000E+00  0.21210382068E+04  0.21210382068E+04  0.25500000920E-02 0. -1.
       -2   -1    0    0    0  501  0.00000000000E+00  0.00000000000E+00 -0.18809443366E+04  0.18809443366E+04  0.25500000920E-02 0.  1.
    10030    2    1    2    0    0  0.00000000000E+00  0.00000000000E+00  0.24009387021E+03  0.40019825434E+04  0.39947739874E+04 0.  0.
        1    1    3    3  502    0  0.63155932547E+03  0.98709384518E+03 -0.15003802340E+04  0.19037757975E+04  0.50400001928E-02 0.  1.
       -1    1    3    3    0  502 -0.63155932547E+03 -0.98709384518E+03  0.17404741042E+04  0.20982067458E+04  0.50400001928E-02 0. -1.
</event>
<event>
 5   0  0.6161563E-08  0.4018508E+04  0.7818609E-02  0.8000823E-01
        2   -1    0    0  501    0  0.00000000000E+00  0.00000000000E+00  0.15783887725E+04  0.15783887725E+04  0.25500000920E-02 0. -1.
       -2   -1    0    0    0  501  0.00000000000E+00  0.00000000000E+00 -0.25577361816E+04  0.25577361816E+04  0.25500000920E-02 0.  1.
    10030    2    1    2    0    0  0.00000000000E+00  0.00000000000E+00 -0.97934740904E+03  0.41361249541E+04  0.40185082168E+04 0.  0.
        1    1    3    3  502    0  0.10708242510E+04  0.12215599050E+04 -0.17067503423E+04  0.23562406305E+04  0.50400001928E-02 0.  1.
       -1    1    3    3    0  502 -0.10708242510E+04 -0.12215599050E+04  0.72740293328E+03  0.17798843236E+04  0.50400001928E-02 0. -1.
</event>
<event>
 5   0  0.1879500E-08  0.4057799E+04  0.7818609E-02  0.7992987E-01
        1   -1    0    0  501    0  0.00000000000E+00  0.00000000000E+00  0.17591423375E+04  0.17591423375E+04  0.50400001928E-02 0. -1.
       -1   -1    0    0    0  501  0.00000000000E+00  0.00000000000E+00 -0.23400227766E+04  0.23400227766E+04  0.50400001928E-02 0.  1.
    10030    2    1    2    0    0  0.00000000000E+00  0.00000000000E+00 -0.58088043907E+03  0.40991651141E+04  0.40577989783E+04 0.  0.
        2    1    3    3  502    0 -0.24525864216E+03 -0.18960765706E+04  0.39558131638E+03  0.19523684952E+04  0.25500000920E-02 0.  1.
       -2    1    3    3    0  502  0.24525864216E+03  0.18960765706E+04 -0.97646175545E+03  0.21467966189E+04  0.25500000920E-02 0. -1.
</event>
<event>
 5   0  0.6161563E-08  0.3989129E+04  0.7818609E-02  0.8006743E-01
       -2   -1    0    0    0  501  0.00000000000E+00  0.00000000000E+00  0.21463684019E+04  0.21463684020E+04  0.25500000920E-02 0.  1.
        2   -1    0    0  501    0  0.00000000000E+00  0.00000000000E+00 -0.18534967790E+04  0.18534967790E+04  0.25500000920E-02 0. -1.
    10030    2    1    2    0    0  0.00000000000E+00  0.00000000000E+00  0.29287162297E+03  0.39998651809E+04  0.39891286866E+04 0.  0.
        1    1    3    3  502    0  0.95875004368E+03 -0.12952706396E+04  0.13249114950E+04  0.20862210203E+04  0.50400001928E-02 0.  1.
       -1    1    3    3    0  502 -0.95875004368E+03  0.12952706396E+04 -0.10320398720E+04  0.19136441606E+04  0.50400001928E-02 0. -1.
</event>
<event>
 5   0  0.1879500E-08  0.3981593E+04  0.7818609E-02  0.8008270E-01
       -1   -1    0    0    0  501  0.00000000000E+00  0.00000000000E+00  0.22688752009E+04  0.22688752010E+04  0.50400001928E-02 0. -1.
        1   -1    0    0  501    0  0.00000000000E+00  0.00000000000E+00 -0.17468000628E+04  0.17468000628E+04  0.50400001928E-02 0.  1.
    10030    2    1    2    0    0  0.00000000000E+00  0.00000000000E+00  0.52207513811E+03  0.40156752638E+04  0.39815933211E+04 0.  0.
        5    1    3    3  502    0  0.13629791335E+04  0.14466569985E+04  0.37478892224E+03  0.20226263659E+04  0.46999998093E+01 0. -1.
       -5    1    3    3    0  502 -0.13629791335E+04 -0.14466569985E+04  0.14728621587E+03  0.19930488979E+04  0.46999998093E+01 0.  1.
</event>
<event>
 5   0  0.1879500E-08  0.3989209E+04  0.7818609E-02  0.8006727E-01
       -1   -1    0    0    0  501  0.00000000000E+00  0.00000000000E+00  0.19556078800E+04  0.19556078800E+04  0.50400001928E-02 0.  1.
        1   -1    0    0  501    0  0.00000000000E+00  0.00000000000E+00 -0.20343784222E+04  0.20343784222E+04  0.50400001928E-02 0. -1.
    10030    2    1    2    0    0  0.00000000000E+00  0.00000000000E+00 -0.78770542216E+02  0.39899863023E+04  0.39892086802E+04 0.  0.
        5    1    3    3  502    0 -0.15484557024E+04  0.40044804829E+03  0.11526317076E+04  0.19714602824E+04  0.46999998093E+01 0.  1.
       -5    1    3    3    0  502  0.15484557024E+04 -0.40044804829E+03 -0.12314022498E+04  0.20185260198E+04  0.46999998093E+01 0. -1.
</event>
<event>
 5   0  0.5846812E-08  0.4003470E+04  0.7818609E-02  0.8003847E-01
       -2   -1    0    0    0  501  0.00000000000E+00  0.00000000000E+00  0.18570169141E+04  0.18570169141E+04  0.25500000920E-02 0.  1.
        2   -1    0    0  501    0  0.00000000000E+00  0.00000000000E+00 -0.21577307440E+04  0.21577307441E+04  0.25500000920E-02 0. -1.
    10030    2    1    2    0    0  0.00000000000E+00  0.00000000000E+00 -0.30071382998E+03  0.40147476581E+04  0.40034697390E+04 0.  0.
        4    1    3    3  502    0 -0.19717761222E+04  0.61908867824E+02  0.19002094882E+03  0.19818787445E+04  0.12699999809E+01 0.  1.
       -4    1    3    3    0  502  0.19717761222E+04 -0.61908867824E+02 -0.49073477880E+03  0.20328689136E+04  0.12699999809E+01 0. -1.
</event>
<event>
 5   0  0.1879500E-08  0.4005761E+04  0.7818609E-02  0.8003385E-01
       -1   -1    0    0    0  501  0.00000000000E+00  0.00000000000E+00  0.20933611197E+04  0.20933611197E+04  0.50400001928E-02 0.  1.
        1   -1    0    0  501    0  0.00000000000E+00  0.00000000000E+00 -0.19163110498E+04  0.19163110498E+04  0.50400001928E-02 0. -1.
    10030    2    1    2    0    0  0.00000000000E+00  0.00000000000E+00  0.17705006987E+03  0.40096721695E+04  0.40057613733E+04 0.  0.
        1    1    3    3  502    0  0.26997660743E+03  0.13783915247E+04 -0.13406926261E+04  0.19417279113E+04  0.50400001928E-02 0. -1.
       -1    1    3    3    0  502 -0.26997660743E+03 -0.13783915247E+04  0.15177426960E+04  0.20679442582E+04  0.50400001928E-02 0.  1.
</event>
<event>
 5   0  0.5945387E-08  0.4007412E+04  0.7818609E-02  0.8003053E-01
        2   -1    0    0  501    0  0.00000000000E+00  0.00000000000E+00  0.15795539621E+04  0.15795539621E+04  0.25500000920E-02 0.  1.
       -2   -1    0    0    0  501  0.00000000000E+00  0.00000000000E+00 -0.25417538128E+04  0.25417538128E+04  0.25500000920E-02 0. -1.
    10030    2    1    2    0    0  0.00000000000E+00  0.00000000000E+00 -0.96219985070E+03  0.41213077749E+04  0.40074117860E+04 0.  0.
        3    1    3    3  502    0  0.11155707070E+04  0.59110302146E+03 -0.20812575947E+04  0.24342419703E+04  0.10100000352E+00 0. -1.
       -3    1    3    3    0  502 -0.11155707070E+04 -0.59110302146E+03  0.11190577440E+04  0.16870658046E+04  0.10100000352E+00 0.  1.
</event>
<event>
 5   0  0.5945387E-08  0.3994436E+04  0.7818609E-02  0.8005670E-01
       -2   -1    0    0    0  501  0.00000000000E+00  0.00000000000E+00  0.14425794509E+04  0.14425794509E+04  0.25500000920E-02 0. -1.
        2   -1    0    0  501    0  0.00000000000E+00  0.00000000000E+00 -0.27651029623E+04  0.27651029623E+04  0.25500000920E-02 0.  1.
    10030    2    1    2    0    0  0.00000000000E+00  0.00000000000E+00 -0.13225235114E+04  0.42076824132E+04  0.39944364875E+04 0.  0.
        3    1    3    3  502    0  0.34981569631E+03  0.11090767296E+04  0.10491390858E+04  0.15662423328E+04  0.10100000352E+00 0. -1.
       -3    1    3    3    0  502 -0.34981569631E+03 -0.11090767296E+04 -0.23716625972E+04  0.26414400804E+04  0.10100000352E+00 0.  1.
</event>
<event>
 5   0  0.5945387E-08  0.4004377E+04  0.7818609E-02  0.8003664E-01
        2   -1    0    0  501    0  0.00000000000E+00  0.00000000000E+00  0.19160774283E+04  0.19160774283E+04  0.25500000920E-02 0.  1.
       -2   -1    0    0    0  501  0.00000000000E+00  0.00000000000E+00 -0.20921692200E+04  0.20921692200E+04  0.25500000920E-02 0. -1.
    10030    2    1    2    0    0  0.00000000000E+00  0.00000000000E+00 -0.17609179177E+03  0.40082466483E+04  0.40043767148E+04 0.  0.
        3    1    3    3  502    0  0.14372612403E+04 -0.39483536661E+03  0.12500868783E+04  0.19453359743E+04  0.10100000352E+00 0.  1.
       -3    1    3    3    0  502 -0.14372612403E+04  0.39483536661E+03 -0.14261786701E+04  0.20629106740E+04  0.10100000352E+00 0. -1.
</event>
<event>
 5   0  0.1879500E-08  0.3983043E+04  0.7818609E-02  0.8007976E-01
       -1   -1    0    0    0  501  0.00000000000E+00  0.00000000000E+00  0.18857160422E+04  0.18857160422E+04  0.50400001928E-02 0.  1.
        1   -1    0    0  501    0  0.00000000000E+00  0.00000000000E+00 -0.21032638255E+04  0.21032638255E+04  0.50400001928E-02 0. -1.
    10030    2    1    2    0    0  0.00000000000E+00  0.00000000000E+00 -0.21754778331E+03  0.39889798678E+04  0.39830432269E+04 0.  0.
        2    1    3    3  502    0  0.59583753270E+03  0.18241387723E+04  0.42461142944E+03  0.19654005932E+04  0.25500000920E-02 0.  1.
       -2    1    3    3    0  502 -0.59583753270E+03 -0.18241387723E+04 -0.64215921275E+03  0.20235792745E+04  0.25500000920E-02 0. -1.
</event>
<event>
 5   0  0.5888700E-08  0.3998312E+04  0.7818609E-02  0.8004887E-01
        2   -1    0    0  501    0  0.00000000000E+00  0.00000000000E+00  0.19149202966E+04  0.19149202966E+04  0.25500000920E-02 0.  1.
       -2   -1    0    0    0  501  0.00000000000E+00  0.00000000000E+00 -0.20870973343E+04  0.20870973343E+04  0.25500000920E-02 0. -1.
    10030    2    1    2    0    0  0.00000000000E+00  0.00000000000E+00 -0.17217703767E+03  0.40020176309E+04  0.39983121671E+04 0.  0.
        5    1    3    3  502    0 -0.92185631732E+03  0.13194272432E+04  0.11007150417E+04  0.19499494898E+04  0.46999998093E+01 0.  1.
       -5    1    3    3    0  502  0.92185631732E+03 -0.13194272432E+04 -0.12728920794E+04  0.20520681411E+04  0.46999998093E+01 0. -1.
</event>
<event>
 5   0  0.5888700E-08  0.4035131E+04  0.7818609E-02  0.7997497E-01
       -2   -1    0    0    0  501  0.00000000000E+00  0.00000000000E+00  0.16812948505E+04  0.16812948505E+04  0.25500000920E-02 0. -1.
        2   -1    0    0  501    0  0.00000000000E+00  0.00000000000E+00 -0.24210927807E+04  0.24210927807E+04  0.25500000920E-02 0.  1.
    10030    2    1    2    0    0  0.00000000000E+00  0.00000000000E+00 -0.73979793029E+03  0.41023876312E+04  0.40351311378E+04 0.  0.
        5    1    3    3  502    0  0.14028821088E+04  0.14474289939E+04 -0.45747314069E+03  0.20669863734E+04  0.46999998093E+01 0. -1.
       -5    1    3    3    0  502 -0.14028821088E+04 -0.14474289939E+04 -0.28232478960E+03  0.20354012578E+04  0.46999998093E+01 0.  1.
</event>
<event>
 5   0  0.5846812E-08  0.3993887E+04  0.7818609E-02  0.8005781E-01
       -2   -1    0    0    0  501  0.00000000000E+00  0.00000000000E+00  0.14844191303E+04  0.14844191303E+04  0.25500000920E-02 0. -1.
        2   -1    0    0  501    0  0.00000000000E+00  0.00000000000E+00 -0.26864271050E+04  0.26864271050E+04  0.25500000920E-02 0.  1.
    10030    2    1    2    0    0  0.00000000000E+00  0.00000000000E+00 -0.12020079747E+04  0.41708462354E+04  0.39938872227E+04 0.  0.
        4    1    3    3  502    0 -0.12698109934E+04  0.30951421751E+03 -0.21777226102E+04  0.25398221177E+04  0.12699999809E+01 0.  1.
       -4    1    3    3    0  502  0.12698109934E+04 -0.30951421751E+03  0.97571463545E+03  0.16310241177E+04  0.12699999809E+01 0. -1.
</event>
<event>
 5   0  0.5846812E-08  0.4002324E+04  0.7818609E-02  0.8004078E-01
       -2   -1    0    0    0  501  0.00000000000E+00  0.00000000000E+00  0.28230280097E+04  0.28230280097E+04  0.25500000920E-02 0.  1.
        2   -1    0    0  501    0  0.00000000000E+00  0.00000000000E+00 -0.14185652960E+04  0.14185652960E+04  0.25500000920E-02 0. -1.
    10030    2    1    2    0    0  0.00000000000E+00  0.00000000000E+00  0.14044627136E+04  0.42415933057E+04  0.40023241069E+04 0.  0.
        4    1    3    3  502    0 -0.17808611989E+04  0.37358106225E+03  0.15848581646E+04  0.24130491986E+04  0.12699999809E+01 0.  1.
       -4    1    3    3    0  502  0.17808611989E+04 -0.37358106225E+03 -0.18039545099E+03  0.18285441071E+04  0.12699999809E+01 0. -1.
</event>
<event>
 5   0  0.1879500E-08  0.4004357E+04  0.7818609E-02  0.8003668E-01
       -1   -1    0    0    0  501  0.00000000000E+00  0.00000000000E+00  0.29708448773E+04  0.29708448773E+04  0.50400001928E-02 0.  1.
        1   -1    0    0  501    0  0.00000000000E+00  0.00000000000E+00 -0.13493530299E+04  0.13493530299E+04  0.50400001928E-02 0. -1.
    10030    2    1    2    0    0  0.00000000000E+00  0.00000000000E+00  0.16214918474E+04  0.43201979073E+04  0.40043568955E+04 0.  0.
        4    1    3    3  502    0  0.44713553125E+02 -0.12190015943E+04  0.25236616156E+04  0.28030044152E+04  0.12699999809E+01 0.  1.
       -4    1    3    3    0  502 -0.44713553125E+02  0.12190015943E+04 -0.90216976822E+03  0.15171934920E+04  0.12699999809E+01 0. -1.
</event>
<event>
 5   0  0.5945387E-08  0.4002041E+04  0.7818609E-02  0.8004135E-01
        2   -1    0    0  501    0  0.00000000000E+00  0.00000000000E+00  0.13453804596E+04  0.13453804596E+04  0.25500000920E-02 0.  1.
       -2   -1    0    0    0  501  0.00000000000E+00  0.00000000000E+00 -0.29761721424E+04  0.29761721424E+04  0.25500000920E-02 0. -1.
    10030    2    1    2    0    0  0.00000000000E+00  0.00000000000E+00 -0.16307916828E+04  0.43215526020E+04  0.40020414015E+04 0.  0.
        3    1    3    3  502    0  0.67737237047E+03 -0.16694138476E+04 -0.17557274179E+04  0.25156221296E+04  0.10100000352E+00 0. -1.
       -3    1    3    3    0  502 -0.67737237047E+03  0.16694138476E+04  0.12493573502E+03  0.18059304724E+04  0.10100000352E+00 0.  1.
</event>
<event>
 5   0  0.1879500E-08  0.3872948E+04  0.7818609E-02  0.8030679E-01
        1   -1    0    0  501    0  0.00000000000E+00  0.00000000000E+00  0.21844071184E+04  0.21844071184E+04  0.50400001928E-02 0. -1.
       -1   -1    0    0    0  501  0.00000000000E+00  0.00000000000E+00 -0.17166816632E+04  0.17166816633E+04  0.50400001928E-02 0.  1.
    10030    2    1    2    0    0  0.00000000000E+00  0.00000000000E+00  0.46772545511E+03  0.39010887816E+04  0.38729480478E+04 0.  0.
        4    1    3    3  502    0 -0.17954001389E+04 -0.72529205415E+03  0.21322459125E+03  0.19480699581E+04  0.12699999809E+01 0.  1.
       -4    1    3    3    0  502  0.17954001389E+04  0.72529205415E+03  0.25450086386E+03  0.19530188235E+04  0.12699999809E+01 0. -1.
</event>
<event>
 5   0  0.6161563E-08  0.4004076E+04  0.7818609E-02  0.8003725E-01
       -2   -1    0    0    0  501  0.00000000000E+00  0.00000000000E+00  0.15541963747E+04  0.15541963747E+04  0.25500000920E-02 0.  1.
        2   -1    0    0  501    0  0.00000000000E+00  0.00000000000E+00 -0.25789254083E+04  0.25789254083E+04  0.25500000920E-02 0. -1.
    10030    2    1    2    0    0  0.00000000000E+00  0.00000000000E+00 -0.10247290336E+04  0.41331217830E+04  0.40040761832E+04 0.  0.
        1    1    3    3  502    0 -0.75998387500E+03  0.75875544169E+03 -0.22564554747E+04  0.24989751139E+04  0.50400001928E-02 0. -1.
       -1    1    3    3    0  502  0.75998387500E+03 -0.75875544169E+03  0.12317264411E+04  0.16341466691E+04  0.50400001928E-02 0.  1.
</event>
<event>
 5   0  0.5951623E-08  0.3976377E+04  0.7818609E-02  0.8009329E-01
       -2   -1    0    0    0  501  0.00000000000E+00  0.00000000000E+00  0.19525388516E+04  0.19525388516E+04  0.25500000920E-02 0. -1.
        2   -1    0    0  501    0  0.00000000000E+00  0.00000000000E+00 -0.20244889540E+04  0.20244889540E+04  0.25500000920E-02 0.  1.
    10030    2    1    2    0    0  0.00000000000E+00  0.00000000000E+00 -0.71950102487E+02  0.39770278056E+04  0.39763769124E+04 0.  0.
        2    1    3    3  502    0  0.64413902515E+03  0.73479921718E+03 -0.17677458056E+04  0.20198441045E+04  0.25500000920E-02 0.  1.
       -2    1    3    3    0  502 -0.64413902515E+03 -0.73479921718E+03  0.16957957031E+04  0.19571837011E+04  0.25500000920E-02 0. -1.
</event>
<event>
 5   0  0.1879500E-08  0.4010021E+04  0.7818609E-02  0.8002528E-01
       -1   -1    0    0    0  501  0.00000000000E+00  0.00000000000E+00  0.17595179231E+04  0.17595179231E+04  0.50400001928E-02 0.  1.
        1   -1    0    0  501    0  0.00000000000E+00  0.00000000000E+00 -0.22847544662E+04  0.22847544662E+04  0.50400001928E-02 0. -1.
    10030    2    1    2    0    0  0.00000000000E+00  0.00000000000E+00 -0.52523654316E+03  0.40442723893E+04  0.40100206648E+04 0.  0.
        1    1    3    3  502    0  0.10397259887E+04 -0.95002405327E+03 -0.17018641441E+04  0.22090535073E+04  0.50400001928E-02 0. -1.
       -1    1    3    3    0  502 -0.10397259887E+04  0.95002405327E+03  0.11766276009E+04  0.18352188819E+04  0.50400001928E-02 0.  1.
</event>
<event>
 5   0  0.1879500E-08  0.4022516E+04  0.7818609E-02  0.8000020E-01
        1   -1    0    0  501    0  0.00000000000E+00  0.00000000000E+00  0.31489746434E+04  0.31489746435E+04  0.50400001928E-02 0.  1.
       -1   -1    0    0    0  501  0.00000000000E+00  0.00000000000E+00 -0.12845956238E+04  0.12845956238E+04  0.50400001928E-02 0. -1.
    10030    2    1    2    0    0  0.00000000000E+00  0.00000000000E+00  0.18643790197E+04  0.44335702672E+04  0.40225161511E+04 0.  0.
        2    1    3    3  502    0  0.81315730280E+03  0.15180563722E+04  0.20773197187E+04  0.26983285868E+04  0.25500000920E-02 0.  1.
       -2    1    3    3    0  502 -0.81315730280E+03 -0.15180563722E+04 -0.21294069904E+03  0.17352416805E+04  0.25500000920E-02 0. -1.
</event>
<event>
 5   0  0.5846812E-08  0.4166368E+04  0.7818609E-02  0.7971801E-01
       -2   -1    0    0    0  501  0.00000000000E+00  0.00000000000E+00  0.28498237582E+04  0.28498237582E+04  0.25500000920E-02 0. -1.
        2   -1    0    0  501    0  0.00000000000E+00  0.00000000000E+00 -0.15227804401E+04  0.15227804401E+04  0.25500000920E-02 0.  1.
    10030    2    1    2    0    0  0.00000000000E+00  0.00000000000E+00  0.13270433180E+04  0.43726041983E+04  0.41663681435E+04 0.  0.
        4    1    3    3  502    0  0.61360785540E+03  0.10350014408E+04 -0.11212186739E+04  0.16446505739E+04  0.12699999809E+01 0.  1.
       -4    1    3    3    0  502 -0.61360785540E+03 -0.10350014408E+04  0.24482619919E+04  0.27279536244E+04  0.12699999809E+01 0. -1.
</event>
<event>
 5   0  0.5846812E-08  0.3988770E+04  0.7818609E-02  0.8006816E-01
        2   -1    0    0  501    0  0.00000000000E+00  0.00000000000E+00  0.21371572145E+04  0.21371572145E+04  0.25500000920E-02 0. -1.
       -2   -1    0    0    0  501  0.00000000000E+00  0.00000000000E+00 -0.18611507443E+04  0.18611507443E+04  0.25500000920E-02 0.  1.
    10030    2    1    2    0    0  0.00000000000E+00  0.00000000000E+00  0.27600647021E+03  0.39983079587E+04  0.39887701063E+04 0.  0.
        4    1    3    3  502    0 -0.88865788988E+03 -0.11306784997E+04  0.15231262859E+04  0.20947701570E+04  0.12699999809E+01 0. -1.
       -4    1    3    3    0  502  0.88865788988E+03  0.11306784997E+04 -0.12471198157E+04  0.19035378017E+04  0.12699999809E+01 0.  1.
</event>
<event>
 5   0  0.1879500E-08  0.3997641E+04  0.7818609E-02  0.8005023E-01
        1   -1    0    0  501    0  0.00000000000E+00  0.00000000000E+00  0.21213576180E+04  0.21213576180E+04  0.50400001928E-02 0.  1.
       -1   -1    0    0    0  501  0.00000000000E+00  0.00000000000E+00 -0.18833616962E+04  0.18833616962E+04  0.50400001928E-02 0. -1.
    10030    2    1    2    0    0  0.00000000000E+00  0.00000000000E+00  0.23799592179E+03  0.40047193142E+04  0.39976411454E+04 0.  0.
        4    1    3    3  502    0 -0.95248713997E+03 -0.82420220353E+03 -0.14357619447E+04  0.19099620412E+04  0.12699999809E+01 0. -1.
       -4    1    3    3    0  502  0.95248713997E+03  0.82420220353E+03  0.16737578665E+04  0.20947572730E+04  0.12699999809E+01 0.  1.
</event>
<event>
 5   0  0.1879500E-08  0.4015972E+04  0.7818609E-02  0.8001332E-01
        1   -1    0    0  501    0  0.00000000000E+00  0.00000000000E+00  0.18916657043E+04  0.18916657043E+04  0.50400001928E-02 0.  1.
       -1   -1    0    0    0  501  0.00000000000E+00  0.00000000000E+00 -0.21314587454E+04  0.21314587454E+04  0.50400001928E-02 0. -1.
    10030    2    1    2    0    0  0.00000000000E+00  0.00000000000E+00 -0.23979304108E+03  0.40231244496E+04  0.40159718170E+04 0.  0.
        2    1    3    3  502    0 -0.11350246572E+04  0.10298448141E+04  0.11797753447E+04  0.19340969928E+04  0.25500000920E-02 0.  1.
       -2    1    3    3    0  502  0.11350246572E+04 -0.10298448141E+04 -0.14195683858E+04  0.20890274568E+04  0.25500000920E-02 0. -1.
</event>
<event>
 5   0  0.5888700E-08  0.3767628E+04  0.7818609E-02  0.8053138E-01
        2   -1    0    0  501    0  0.00000000000E+00  0.00000000000E+00  0.15467173249E+04  0.15467173249E+04  0.25500000920E-02 0.  1.
       -2   -1    0    0    0  501  0.00000000000E+00  0.00000000000E+00 -0.22943785820E+04  0.22943785820E+04  0.25500000920E-02 0. -1.
    10030    2    1    2    0    0  0.00000000000E+00  0.00000000000E+00 -0.74766125713E+03  0.38410959069E+04  0.37676279554E+04 0.  0.
        5    1    3    3  502    0 -0.17349739747E+04 -0.66277704837E+03 -0.52526565896E+02  0.18580067919E+04  0.46999998093E+01 0.  1.
       -5    1    3    3    0  502  0.17349739747E+04  0.66277704837E+03 -0.69513469123E+03  0.19830891149E+04  0.46999998093E+01 0. -1.
</event>
<event>
 5   0  0.5888700E-08  0.4111421E+04  0.7818609E-02  0.7982439E-01
       -2   -1    0    0    0  501  0.00000000000E+00  0.00000000000E+00  0.18653638153E+04  0.18653638153E+04  0.25500000920E-02 0. -1.
        2   -1    0    0  501    0  0.00000000000E+00  0.00000000000E+00 -0.22654807250E+04  0.22654807250E+04  0.25500000920E-02 0.  1.
    10030    2    1    2    0    0  0.00000000000E+00  0.00000000000E+00 -0.40011690973E+03  0.41308445403E+04  0.41114210530E+04 0.  0.
        5    1    3    3  502    0 -0.18046930480E+04 -0.57105409484E+03  0.60554241506E+03  0.19873911249E+04  0.46999998093E+01 0. -1.
       -5    1    3    3    0  502  0.18046930480E+04  0.57105409484E+03 -0.10056593248E+04  0.21434534155E+04  0.46999998093E+01 0.  1.
</event>
<event>
 5   0  0.1879500E-08  0.3996875E+04  0.7818609E-02  0.8005177E-01
        1   -1    0    0  501    0  0.00000000000E+00  0.00000000000E+00  0.17576451199E+04  0.17576451199E+04  0.50400001928E-02 0. -1.
       -1   -1    0    0    0  501  0.00000000000E+00  0.00000000000E+00 -0.22722174259E+04  0.22722174259E+04  0.50400001928E-02 0.  1.
    10030    2    1    2    0    0  0.00000000000E+00  0.00000000000E+00 -0.51457230604E+03  0.40298625458E+04  0.39968747141E+04 0.  0.
        5    1    3    3  502    0 -0.14026466164E+04 -0.21045923160E+03  0.11621753623E+04  0.18336805287E+04  0.46999998093E+01 0. -1.
       -5    1    3    3    0  502  0.14026466164E+04  0.21045923160E+03 -0.16767476684E+04  0.21961820171E+04  0.46999998093E+01 0.  1.
</event>
<event>
 5   0  0.5951623E-08  0.4002741E+04  0.7818609E-02  0.8003994E-01
       -2   -1    0    0    0  501  0.00000000000E+00  0.00000000000E+00  0.15032216894E+04  0.15032216894E+04  0.25500000920E-02 0. -1.
        2   -1    0    0  501    0  0.00000000000E+00  0.00000000000E+00 -0.26646001245E+04  0.26646001245E+04  0.25500000920E-02 0.  1.
    10030    2    1    2    0    0  0.00000000000E+00  0.00000000000E+00 -0.11613784352E+04  0.41678218139E+04  0.40027414110E+04 0.  0.
        2    1    3    3  502    0  0.15901221248E+04  0.52750866543E+03  0.55933077063E+03  0.17662402653E+04  0.25500000920E-02 0. -1.
       -2    1    3    3    0  502 -0.15901221248E+04 -0.52750866543E+03 -0.17207092058E+04  0.24015815486E+04  0.25500000920E-02 0.  1.
</event>
<event>
 5   0  0.1879500E-08  0.4001294E+04  0.7818609E-02  0.8004286E-01
        1   -1    0    0  501    0  0.00000000000E+00  0.00000000000E+00  0.23525929488E+04  0.23525929488E+04  0.50400001928E-02 0. -1.
       -1   -1    0    0    0  501  0.00000000000E+00  0.00000000000E+00 -0.17013514842E+04  0.17013514842E+04  0.50400001928E-02 0.  1.
    10030    2    1    2    0    0  0.00000000000E+00  0.00000000000E+00  0.65124146462E+03  0.40539444330E+04  0.40012935434E+04 0.  0.
        4    1    3    3  502    0 -0.43234898849E+03  0.16990298581E+04  0.13021277478E+04  0.21838421168E+04  0.12699999809E+01 0. -1.
       -4    1    3    3    0  502  0.43234898849E+03 -0.16990298581E+04 -0.65088628314E+03  0.18701023162E+04  0.12699999809E+01 0.  1.
</event>
<event>
 5   0  0.5945387E-08  0.3984220E+04  0.7818609E-02  0.8007737E-01
       -2   -1    0    0    0  501  0.00000000000E+00  0.00000000000E+00  0.16157491304E+04  0.16157491304E+04  0.25500000920E-02 0.  1.
        2   -1    0    0  501    0  0.00000000000E+00  0.00000000000E+00 -0.24561377874E+04  0.24561377874E+04  0.25500000920E-02 0. -1.
    10030    2    1    2    0    0  0.00000000000E+00  0.00000000000E+00 -0.84038865698E+03  0.40718869179E+04  0.39842201216E+04 0.  0.
        3    1    3    3  502    0 -0.18267573781E+04  0.31314774819E+03 -0.11666057222E+04  0.21899938246E+04  0.10100000352E+00 0. -1.
       -3    1    3    3    0  502  0.18267573781E+04 -0.31314774819E+03  0.32621706526E+03  0.18818930932E+04  0.10100000352E+00 0.  1.
</event>
<event>
 5   0  0.5888700E-08  0.4003279E+04  0.7818609E-02  0.8003885E-01
       -2   -1    0    0    0  501  0.00000000000E+00  0.00000000000E+00  0.12997819126E+04  0.12997819126E+04  0.25500000920E-02 0. -1.
        2   -1    0    0  501    0  0.00000000000E+00  0.00000000000E+00 -0.30824866844E+04  0.30824866844E+04  0.25500000920E-02 0.  1.
    10030    2    1    2    0    0  0.00000000000E+00  0.00000000000E+00 -0.17827047719E+04  0.43822685970E+04  0.40032788752E+04 0.  0.
        5    1    3    3  502    0  0.16138460180E+03 -0.13253783535E+04 -0.25237930867E+04  0.28552103958E+04  0.46999998093E+01 0.  1.
       -5    1    3    3    0  502 -0.16138460180E+03  0.13253783535E+04  0.74108831486E+03  0.15270582012E+04  0.46999998093E+01 0. -1.
</event>
<event>
 5   0  0.5951623E-08  0.3986637E+04  0.7818609E-02  0.8007248E-01
        2   -1    0    0  501    0  0.00000000000E+00  0.00000000000E+00  0.25117971221E+04  0.25117971221E+04  0.25500000920E-02 0. -1.
       -2   -1    0    0    0  501  0.00000000000E+00  0.00000000000E+00 -0.15818629192E+04  0.15818629192E+04  0.25500000920E-02 0.  1.
    10030    2    1    2    0    0  0.00000000000E+00  0.00000000000E+00  0.92993420291E+03  0.40936600413E+04  0.39866370429E+04 0.  0.
        2    1    3    3  502    0  0.12312848415E+04 -0.11801486934E+04  0.15244135664E+04  0.22874986385E+04  0.25500000920E-02 0. -1.
       -2    1    3    3    0  502 -0.12312848415E+04  0.11801486934E+04 -0.59447936353E+03  0.18061614028E+04  0.25500000920E-02 0.  1.
</event>
<event>
 5   0  0.1879500E-08  0.4009577E+04  0.7818609E-02  0.8002617E-01
       -1   -1    0    0    0  501  0.00000000000E+00  0.00000000000E+00  0.19359073174E+04  0.19359073174E+04  0.50400001928E-02 0. -1.
        1   -1    0    0  501    0  0.00000000000E+00  0.00000000000E+00 -0.20761200821E+04  0.20761200822E+04  0.50400001928E-02 0.  1.
    10030    2    1    2    0    0  0.00000000000E+00  0.00000000000E+00 -0.14021276476E+03  0.40120273995E+04  0.40095765656E+04 0.  0.
        3    1    3    3  502    0  0.17966780145E+04  0.98959015092E+01  0.81983381193E+03  0.19749119742E+04  0.10100000352E+00 0. -1.
       -3    1    3    3    0  502 -0.17966780145E+04 -0.98959015092E+01 -0.96004657670E+03  0.20371154253E+04  0.10100000352E+00 0.  1.
</event>
<event>
 5   0  0.5951623E-08  0.4014886E+04  0.7818609E-02  0.8001550E-01
       -2   -1    0    0    0  501  0.00000000000E+00  0.00000000000E+00  0.23078062106E+04  0.23078062106E+04  0.25500000920E-02 0. -1.
        2   -1    0    0  501    0  0.00000000000E+00  0.00000000000E+00 -0.17461720392E+04  0.17461720392E+04  0.25500000920E-02 0.  1.
    10030    2    1    2    0    0  0.00000000000E+00  0.00000000000E+00  0.56163417144E+03  0.40539782498E+04  0.40148856406E+04 0.  0.
        2    1    3    3  502    0 -0.12891229978E+04 -0.33265132990E+02 -0.12726302648E+04  0.18117760523E+04  0.25500000920E-02 0.  1.
       -2    1    3    3    0  502  0.12891229978E+04  0.33265132990E+02  0.18342644363E+04  0.22422021976E+04  0.25500000920E-02 0. -1.
</event>
<event>
 5   0  0.1879500E-08  0.3996921E+04  0.7818609E-02  0.8005168E-01
       -1   -1    0    0    0  501  0.00000000000E+00  0.00000000000E+00  0.29520221638E+04  0.29520221638E+04  0.50400001928E-02 0.  1.
        1   -1    0    0  501    0  0.00000000000E+00  0.00000000000E+00 -0.13529183306E+04  0.13529183306E+04  0.50400001928E-02 0. -1.
    10030    2    1    2    0    0  0.00000000000E+00  0.00000000000E+00  0.15991038332E+04  0.43049404945E+04  0.39969212641E+04 0.  0.
        5    1    3    3  502    0 -0.14265532884E+04 -0.12341343499E+04  0.15104802695E+04  0.24165501470E+04  0.46999998093E+01 0.  1.
       -5    1    3    3    0  502  0.14265532884E+04  0.12341343499E+04  0.88623563646E+02  0.18883903475E+04  0.46999998093E+01 0. -1.
</event>
<event>
 5   0  0.1879500E-08  0.4003675E+04  0.7818609E-02  0.8003806E-01
       -1   -1    0    0    0  501  0.00000000000E+00  0.00000000000E+00  0.13264130568E+04  0.13264130568E+04  0.50400001928E-02 0. -1.
        1   -1    0    0  501    0  0.00000000000E+00  0.00000000000E+00 -0.30211957009E+04  0.30211957009E+04  0.50400001928E-02 0.  1.
    10030    2    1    2    0    0  0.00000000000E+00  0.00000000000E+00 -0.16947826441E+04  0.43476087577E+04  0.40036750242E+04 0.  0.
        4    1    3    3  502    0  0.89080772315E+03 -0.75263423224E+02  0.10976054721E+04  0.14156067136E+04  0.12699999809E+01 0. -1.
       -4    1    3    3    0  502 -0.89080772315E+03  0.75263423224E+02 -0.27923881161E+04  0.29320020441E+04  0.12699999809E+01 0.  1.
</event>
<event>
 5   0  0.5945387E-08  0.3996119E+04  0.7818609E-02  0.8005330E-01
       -2   -1    0    0    0  501  0.00000000000E+00  0.00000000000E+00  0.21656297200E+04  0.21656297200E+04  0.25500000920E-02 0.  1.
        2   -1    0    0  501    0  0.00000000000E+00  0.00000000000E+00 -0.18434555833E+04  0.18434555833E+04  0.25500000920E-02 0. -1.
    10030    2    1    2    0    0  0.00000000000E+00  0.00000000000E+00  0.32217413673E+03  0.40090853033E+04  0.39961192168E+04 0.  0.
        3    1    3    3  502    0  0.16773474997E+04 -0.10187640282E+04  0.53762794009E+03  0.20348018557E+04  0.10100000352E+00 0. -1.
       -3    1    3    3    0  502 -0.16773474997E+04  0.10187640282E+04 -0.21545380336E+03  0.19742834476E+04  0.10100000352E+00 0.  1.
</event>
<event>
 5   0  0.1879500E-08  0.3995023E+04  0.7818609E-02  0.8005551E-01
       -1   -1    0    0    0  501  0.00000000000E+00  0.00000000000E+00  0.27488029709E+04  0.27488029709E+04  0.50400001928E-02 0. -1.
        1   -1    0    0  501    0  0.00000000000E+00  0.00000000000E+00 -0.14515598152E+04  0.14515598152E+04  0.50400001928E-02 0.  1.
    10030    2    1    2    0    0  0.00000000000E+00  0.00000000000E+00  0.12972431556E+04  0.42003627861E+04  0.39950228698E+04 0.  0.
        3    1    3    3  502    0 -0.10581771254E+04  0.61761546430E+03 -0.10100795330E+04  0.15879069128E+04  0.10100000352E+00 0.  1.
       -3    1    3    3    0  502  0.10581771254E+04 -0.61761546430E+03  0.23073226886E+04  0.26124558733E+04  0.10100000352E+00 0. -1.
</event>
<event>
 5   0  0.1879500E-08  0.3986456E+04  0.7818609E-02  0.8007284E-01
       -1   -1    0    0    0  501  0.00000000000E+00  0.00000000000E+00  0.34410828389E+04  0.34410828389E+04  0.50400001928E-02 0. -1.
        1   -1    0    0  501    0  0.00000000000E+00  0.00000000000E+00 -0.11545664225E+04  0.11545664225E+04  0.50400001928E-02 0.  1.
    10030    2    1    2    0    0  0.00000000000E+00  0.00000000000E+00  0.22865164164E+04  0.45956492614E+04  0.39864564229E+04 0.  0.
        2    1    3    3  502    0 -0.17327974293E+04  0.70891329991E+03  0.35476796212E+03  0.19055196942E+04  0.25500000920E-02 0.  1.
       -2    1    3    3    0  502  0.17327974293E+04 -0.70891329991E+03  0.19317484543E+04  0.26901295672E+04  0.25500000920E-02 0. -1.
</event>
<event>
 5   0  0.1879500E-08  0.3920520E+04  0.7818609E-02  0.8020775E-01
       -1   -1    0    0    0  501  0.00000000000E+00  0.00000000000E+00  0.19332614744E+04  0.19332614744E+04  0.50400001928E-02 0.  1.
        1   -1    0    0  501    0  0.00000000000E+00  0.00000000000E+00 -0.19876355267E+04  0.19876355267E+04  0.50400001928E-02 0. -1.
    10030    2    1    2    0    0  0.00000000000E+00  0.00000000000E+00 -0.54374052366E+02  0.39208970011E+04  0.39205199599E+04 0.  0.
        2    1    3    3  502    0 -0.16413540746E+04 -0.54380513099E+03  0.89640163644E+03  0.19476403961E+04  0.25500000920E-02 0.  1.
       -2    1    3    3    0  502  0.16413540746E+04  0.54380513099E+03 -0.95077568880E+03  0.19732566050E+04  0.25500000920E-02 0. -1.
</event>
<event>
 5   0  0.5846812E-08  0.3999772E+04  0.7818609E-02  0.8004593E-01
        2   -1    0    0  501    0  0.00000000000E+00  0.00000000000E+00  0.25531585394E+04  0.25531585394E+04  0.25500000920E-02 0.  1.
       -2   -1    0    0    0  501  0.00000000000E+00  0.00000000000E+00 -0.15665084095E+04  0.15665084095E+04  0.25500000920E-02 0. -1.
    10030    2    1    2    0    0  0.00000000000E+00  0.00000000000E+00  0.98665012992E+03  0.41196669489E+04  0.39997721549E+04 0.  0.
        4    1    3    3  502    0  0.14191118505E+04 -0.35266997485E+03 -0.91186044037E+03  0.17232949924E+04  0.12699999809E+01 0. -1.
       -4    1    3    3    0  502 -0.14191118505E+04  0.35266997485E+03  0.18985105703E+04  0.23963719565E+04  0.12699999809E+01 0.  1.
</event>
<event>
 5   0  0.1879500E-08  0.3973022E+04  0.7818609E-02  0.8010011E-01
       -1   -1    0    0    0  501  0.00000000000E+00  0.00000000000E+00  0.16997920588E+04  0.16997920588E+04  0.50400001928E-02 0.  1.
        1   -1    0    0  501    0  0.00000000000E+00  0.00000000000E+00 -0.23215938850E+04  0.23215938850E+04  0.50400001928E-02 0. -1.
    10030    2    1    2    0    0  0.00000000000E+00  0.00000000000E+00 -0.62180182617E+03  0.40213859438E+04  0.39730224512E+04 0.  0.
        1    1    3    3  502    0 -0.18295570604E+03  0.19622573184E+04 -0.56353952102E+03  0.20497569041E+04  0.50400001928E-02 0. -1.
       -1    1    3    3    0  502  0.18295570604E+03 -0.19622573184E+04 -0.58262305148E+02  0.19716290397E+04  0.50400001928E-02 0.  1.
</event>
<event>
 5   0  0.1879500E-08  0.4003052E+04  0.7818609E-02  0.8003931E-01
       -1   -1    0    0    0  501  0.00000000000E+00  0.00000000000E+00  0.17766431134E+04  0.17766431134E+04  0.50400001928E-02 0.  1.
        1   -1    0    0  501    0  0.00000000000E+00  0.00000000000E+00 -0.22548744645E+04  0.22548744645E+04  0.50400001928E-02 0. -1.
    10030    2    1    2    0    0  0.00000000000E+00  0.00000000000E+00 -0.47823135107E+03  0.40315175779E+04  0.40030524298E+04 0.  0.
        1    1    3    3  502    0  0.26891220940E+03 -0.65828187430E+02  0.17572666623E+04  0.17789416093E+04  0.50400001928E-02 0.  1.
       -1    1    3    3    0  502 -0.26891220940E+03  0.65828187430E+02 -0.22354980134E+04  0.22525759687E+04  0.50400001928E-02 0. -1.
</event>
<event>
 5   0  0.5888700E-08  0.3994042E+04  0.7818609E-02  0.8005750E-01
       -2   -1    0    0    0  501  0.00000000000E+00  0.00000000000E+00  0.23775482750E+04  0.23775482750E+04  0.25500000920E-02 0.  1.
        2   -1    0    0  501    0  0.00000000000E+00  0.00000000000E+00 -0.16773971556E+04  0.16773971556E+04  0.25500000920E-02 0. -1.
    10030    2    1    2    0    0  0.00000000000E+00  0.00000000000E+00  0.70015111937E+03  0.40549454306E+04  0.39940419195E+04 0.  0.
        5    1    3    3  502    0 -0.22281314522E+03 -0.16825838674E+04 -0.71827109451E+03  0.18430055952E+04  0.46999998093E+01 0. -1.
       -5    1    3    3    0  502  0.22281314522E+03  0.16825838674E+04  0.14184222139E+04  0.22119398354E+04  0.46999998093E+01 0.  1.
</event>
<event>
 5   0  0.6161563E-08  0.3949777E+04  0.7818609E-02  0.8014755E-01
        2   -1    0    0  501    0  0.00000000000E+00  0.00000000000E+00  0.30855344361E+04  0.30855344361E+04  0.25500000920E-02 0.  1.
       -2   -1    0    0    0  501  0.00000000000E+00  0.00000000000E+00 -0.12640226501E+04  0.12640226501E+04  0.25500000920E-02 0. -1.
    10030    2    1    2    0    0  0.00000000000E+00  0.00000000000E+00  0.18215117861E+04  0.43495570862E+04  0.39497774190E+04 0.  0.
        1    1    3    3  502    0  0.33898456241E+03 -0.29381169078E+03  0.30286859698E+04  0.30617273796E+04  0.50400001928E-02 0.  1.
       -1    1    3    3    0  502 -0.33898456241E+03  0.29381169078E+03 -0.12071741838E+04  0.12878297066E+04  0.50400001928E-02 0. -1.
</event>
<event>
 5   0  0.6161563E-08  0.3988751E+04  0.7818609E-02  0.8006820E-01
       -2   -1    0    0    0  501  0.00000000000E+00  0.00000000000E+00  0.12134607554E+04  0.12134607554E+04  0.25500000920E-02 0.  1.
        2   -1    0    0  501    0  0.00000000000E+00  0.00000000000E+00 -0.32778432073E+04  0.32778432073E+04  0.25500000920E-02 0. -1.
    10030    2    1    2    0    0  0.00000000000E+00  0.00000000000E+00 -0.20643824519E+04  0.44913039627E+04  0.39887512304E+04 0.  0.
        1    1    3    3  502    0  0.66650145210E+03  0.19921398131E+03  0.10724281266E+04  0.12782849772E+04  0.50400001928E-02 0.  1.
       -1    1    3    3    0  502 -0.66650145210E+03 -0.19921398131E+03 -0.31368105785E+04  0.32130189856E+04  0.50400001928E-02 0. -1.
</event>
<event>
 5   0  0.1879500E-08  0.3998146E+04  0.7818609E-02  0.8004921E-01
       -1   -1    0    0    0  501  0.00000000000E+00  0.00000000000E+00  0.21056386096E+04  0.21056386096E+04  0.50400001928E-02 0. -1.
        1   -1    0    0  501    0  0.00000000000E+00  0.00000000000E+00 -0.18979003189E+04  0.18979003189E+04  0.50400001928E-02 0.  1.
    10030    2    1    2    0    0  0.00000000000E+00  0.00000000000E+00  0.20773829065E+03  0.40035389285E+04  0.39981456645E+04 0.  0.
        3    1    3    3  502    0 -0.63317112744E+03 -0.51684611937E+03 -0.17229428025E+04  0.19069786309E+04  0.10100000352E+00 0.  1.
       -3    1    3    3    0  502  0.63317112744E+03  0.51684611937E+03  0.19306810932E+04  0.20965602976E+04  0.10100000352E+00 0. -1.
</event>
<event>
 5   0  0.5888700E-08  0.4000173E+04  0.7818609E-02  0.8004512E-01
        2   -1    0    0  501    0  0.00000000000E+00  0.00000000000E+00  0.18766724251E+04  0.18766724251E+04  0.25500000920E-02 0. -1.
       -2   -1    0    0    0  501  0.00000000000E+00  0.00000000000E+00 -0.21316164780E+04  0.21316164780E+04  0.25500000920E-02 0.  1.
    10030    2    1    2    0    0  0.00000000000E+00  0.00000000000E+00 -0.25494405294E+03  0.40082889031E+04  0.40001729288E+04 0.  0.
        5    1    3    3  502    0 -0.88748213530E+03 -0.16770393440E+04  0.50645542391E+03  0.19638239963E+04  0.46999998093E+01 0. -1.
       -5    1    3    3    0  502  0.88748213530E+03  0.16770393440E+04 -0.76139947685E+03  0.20444649068E+04  0.46999998093E+01 0.  1.
</event>
<event>
 5   0  0.5951623E-08  0.3988157E+04  0.7818609E-02  0.8006940E-01
       -2   -1    0    0    0  501  0.00000000000E+00  0.00000000000E+00  0.20119652038E+04  0.20119652038E+04  0.25500000920E-02 0. -1.
        2   -1    0    0  501    0  0.00000000000E+00  0.00000000000E+00 -0.19763505021E+04  0.19763505021E+04  0.25500000920E-02 0.  1.
    10030    2    1    2    0    0  0.00000000000E+00  0.00000000000E+00  0.35614701704E+02  0.39883157058E+04  0.39881566873E+04 0.  0.
        2    1    3    3  502    0  0.13101425516E+04  0.14970181188E+04  0.15496852287E+03  0.19953826693E+04  0.25500000920E-02 0. -1.
       -2    1    3    3    0  502 -0.13101425516E+04 -0.14970181188E+04 -0.11935382117E+03  0.19929330366E+04  0.25500000920E-02 0.  1.
</event>
<event>
 5   0  0.1879500E-08  0.3990099E+04  0.7818609E-02  0.8006547E-01
        3   -1    0    0  501    0  0.00000000000E+00  0.00000000000E+00  0.24467124416E+04  0.24467124437E+04  0.10100000352E+00 0. -1.
       -3   -1    0    0    0  501  0.00000000000E+00  0.00000000000E+00 -0.16267632850E+04  0.16267632882E+04  0.10100000352E+00 0.  1.
    10030    2    1    2    0    0  0.00000000000E+00  0.00000000000E+00  0.81994915653E+03  0.40734757318E+04  0.39900987354E+04 0.  0.
        4    1    3    3  502    0 -0.24558279401E+03 -0.72078852071E+03 -0.14725679400E+04  0.16578012399E+04  0.12699999809E+01 0.  1.
       -4    1    3    3    0  502  0.24558279401E+03  0.72078852071E+03  0.22925170965E+04  0.24156744919E+04  0.12699999809E+01 0. -1.
</event>
<event>
 5   0  0.6161563E-08  0.3986662E+04  0.7818609E-02  0.8007243E-01
       -2   -1    0    0    0  501  0.00000000000E+00  0.00000000000E+00  0.28452671655E+04  0.28452671655E+04  0.25500000920E-02 0.  1.
        2   -1    0    0  501    0  0.00000000000E+00  0.00000000000E+00 -0.13964834582E+04  0.13964834582E+04  0.25500000920E-02 0. -1.
    10030    2    1    2    0    0  0.00000000000E+00  0.00000000000E+00  0.14487837074E+04  0.42417506237E+04  0.39866620277E+04 0.  0.
        1    1    3    3  502    0 -0.14064747029E+04  0.13305612288E+04  0.12288649134E+04  0.22931797245E+04  0.50400001928E-02 0. -1.
       -1    1    3    3    0  502  0.14064747029E+04 -0.13305612288E+04  0.21991879401E+03  0.19485708992E+04  0.50400001928E-02 0.  1.
</event>
<event>
 5   0  0.5846812E-08  0.3971150E+04  0.7818609E-02  0.8010392E-01
       -2   -1    0    0    0  501  0.00000000000E+00  0.00000000000E+00  0.19201510063E+04  0.19201510063E+04  0.25500000920E-02 0. -1.
        2   -1    0    0  501    0  0.00000000000E+00  0.00000000000E+00 -0.20532284963E+04  0.20532284963E+04  0.25500000920E-02 0.  1.
    10030    2    1    2    0    0  0.00000000000E+00  0.00000000000E+00 -0.13307749002E+03  0.39733795026E+04  0.39711503438E+04 0.  0.
        4    1    3    3  502    0 -0.79774142054E+03  0.29831867082E+03  0.17281017616E+04  0.19265831710E+04  0.12699999809E+01 0. -1.
       -4    1    3    3    0  502  0.79774142054E+03 -0.29831867082E+03 -0.18611792516E+04  0.20467963316E+04  0.12699999809E+01 0.  1.
</event>
<event>
 5   0  0.6161563E-08  0.4022840E+04  0.7818609E-02  0.7999955E-01
       -2   -1    0    0    0  501  0.00000000000E+00  0.00000000000E+00  0.29241527848E+04  0.29241527848E+04  0.25500000920E-02 0. -1.
        2   -1    0    0  501    0  0.00000000000E+00  0.00000000000E+00 -0.13835835125E+04  0.13835835125E+04  0.25500000920E-02 0.  1.
    10030    2    1    2    0    0  0.00000000000E+00  0.00000000000E+00  0.15405692723E+04  0.43077362973E+04  0.40228395847E+04 0.  0.
        1    1    3    3  502    0  0.10709740786E+04  0.10950680662E+04  0.21663191275E+04  0.26531298704E+04  0.50400001928E-02 0.  1.
       -1    1    3    3    0  502 -0.10709740786E+04 -0.10950680662E+04 -0.62574985528E+03  0.16546064269E+04  0.50400001928E-02 0. -1.
</event>
<event>
 5   0  0.5951623E-08  0.4007148E+04  0.7818609E-02  0.8003106E-01
       -2   -1    0    0    0  501  0.00000000000E+00  0.00000000000E+00  0.14075832267E+04  0.14075832267E+04  0.25500000920E-02 0. -1.
        2   -1    0    0  501    0  0.00000000000E+00  0.00000000000E+00 -0.28519151772E+04  0.28519151772E+04  0.25500000920E-02 0.  1.
    10030    2    1    2    0    0  0.00000000000E+00  0.00000000000E+00 -0.14443319504E+04  0.42594984039E+04  0.40071475977E+04 0.  0.
        2    1    3    3  502    0 -0.12028363883E+04 -0.11601506905E+04  0.45267069594E+03  0.17313797275E+04  0.25500000920E-02 0. -1.
       -2    1    3    3    0  502  0.12028363883E+04  0.11601506905E+04 -0.18970026464E+04  0.25281186764E+04  0.25500000920E-02 0.  1.
</event>
<event>
 5   0  0.1879500E-08  0.3992660E+04  0.7818609E-02  0.8006029E-01
        1   -1    0    0  501    0  0.00000000000E+00  0.00000000000E+00  0.30064461025E+04  0.30064461025E+04  0.50400001928E-02 0.  1.
       -1   -1    0    0    0  501  0.00000000000E+00  0.00000000000E+00 -0.13255961459E+04  0.13255961459E+04  0.50400001928E-02 0. -1.
    10030    2    1    2    0    0  0.00000000000E+00  0.00000000000E+00  0.16808499565E+04  0.43320422484E+04  0.39926599486E+04 0.  0.
        2    1    3    3  502    0 -0.12685899192E+04 -0.15104125522E+04  0.50659183597E+03  0.20364925115E+04  0.25500000920E-02 0. -1.
       -2    1    3    3    0  502  0.12685899192E+04  0.15104125522E+04  0.11742581206E+04  0.22955497369E+04  0.25500000920E-02 0.  1.
</event>
<event>
 5   0  0.1879500E-08  0.3997659E+04  0.7818609E-02  0.8005019E-01
       -1   -1    0    0    0  501  0.00000000000E+00  0.00000000000E+00  0.19489549985E+04  0.19489549985E+04  0.50400001928E-02 0. -1.
        1   -1    0    0  501    0  0.00000000000E+00  0.00000000000E+00 -0.20499802986E+04  0.20499802986E+04  0.50400001928E-02 0.  1.
    10030    2    1    2    0    0  0.00000000000E+00  0.00000000000E+00 -0.10102530011E+03  0.39989352971E+04  0.39976589899E+04 0.  0.
        2    1    3    3  502    0 -0.10654928382E+04  0.90853685341E+03 -0.14773639057E+04  0.20355142624E+04  0.25500000920E-02 0.  1.
       -2    1    3    3    0  502  0.10654928382E+04 -0.90853685341E+03  0.13763386056E+04  0.19634210347E+04  0.25500000920E-02 0. -1.
</event>
<event>
 5   0  0.6161563E-08  0.3995077E+04  0.7818609E-02  0.8005540E-01
        2   -1    0    0  501    0  0.00000000000E+00  0.00000000000E+00  0.18058768867E+04  0.18058768867E+04  0.25500000920E-02 0. -1.
       -2   -1    0    0    0  501  0.00000000000E+00  0.00000000000E+00 -0.22095416043E+04  0.22095416043E+04  0.25500000920E-02 0.  1.
    10030    2    1    2    0    0  0.00000000000E+00  0.00000000000E+00 -0.40366471764E+03  0.40154184909E+04  0.39950770272E+04 0.  0.
        1    1    3    3  502    0 -0.14305408701E+04  0.86226294999E+03  0.89928923541E+03  0.18970149459E+04  0.50400001928E-02 0. -1.
       -1    1    3    3    0  502  0.14305408701E+04 -0.86226294999E+03 -0.13029539531E+04  0.21184035451E+04  0.50400001928E-02 0.  1.
</event>
<event>
 5   0  0.1879500E-08  0.3985505E+04  0.7818609E-02  0.8007477E-01
        1   -1    0    0  501    0  0.00000000000E+00  0.00000000000E+00  0.26651472648E+04  0.26651472648E+04  0.50400001928E-02 0.  1.
       -1   -1    0    0    0  501  0.00000000000E+00  0.00000000000E+00 -0.14899974680E+04  0.14899974680E+04  0.50400001928E-02 0. -1.
    10030    2    1    2    0    0  0.00000000000E+00  0.00000000000E+00  0.11751497968E+04  0.41551447328E+04  0.39855050753E+04 0.  0.
        3    1    3    3  502    0  0.13296509886E+04 -0.76632267215E+03  0.19128377694E+04  0.24523805846E+04  0.10100000352E+00 0.  1.
       -3    1    3    3    0  502 -0.13296509886E+04  0.76632267215E+03 -0.73768797258E+03  0.17027641482E+04  0.10100000352E+00 0. -1.
</event>
<event>
 5   0  0.1879500E-08  0.4001553E+04  0.7818609E-02  0.8004233E-01
       -1   -1    0    0    0  501  0.00000000000E+00  0.00000000000E+00  0.12980399722E+04  0.12980399722E+04  0.50400001928E-02 0.  1.
        1   -1    0    0  501    0  0.00000000000E+00  0.00000000000E+00 -0.30839625046E+04  0.30839625046E+04  0.50400001928E-02 0. -1.
    10030    2    1    2    0    0  0.00000000000E+00  0.00000000000E+00 -0.17859225324E+04  0.43820024768E+04  0.40015530003E+04 0.  0.
        5    1    3    3  502    0 -0.14821810995E+04 -0.59646311959E+03  0.42589128000E+03  0.16534916199E+04  0.46999998093E+01 0.  1.
       -5    1    3    3    0  502  0.14821810995E+04  0.59646311959E+03 -0.22118138124E+04  0.27285108568E+04  0.46999998093E+01 0. -1.
</event>
<event>
 5   0  0.6161563E-08  0.3995162E+04  0.7818609E-02  0.8005523E-01
       -2   -1    0    0    0  501  0.00000000000E+00  0.00000000000E+00  0.20082865445E+04  0.20082865445E+04  0.25500000920E-02 0. -1.
        2   -1    0    0  501    0  0.00000000000E+00  0.00000000000E+00 -0.19869320297E+04  0.19869320297E+04  0.25500000920E-02 0.  1.
    10030    2    1    2    0    0  0.00000000000E+00  0.00000000000E+00  0.21354514805E+02  0.39952185741E+04  0.39951615036E+04 0.  0.
        1    1    3    3  502    0 -0.19353755088E+04 -0.46971662464E+03  0.16565299290E+03  0.19984376352E+04  0.50400001928E-02 0.  1.
       -1    1    3    3    0  502  0.19353755088E+04  0.46971662464E+03 -0.14429847809E+03  0.19967809390E+04  0.50400001928E-02 0. -1.
</event>
<event>
 5   0  0.1879500E-08  0.4006748E+04  0.7818609E-02  0.8003187E-01
       -1   -1    0    0    0  501  0.00000000000E+00  0.00000000000E+00  0.17013001564E+04  0.17013001564E+04  0.50400001928E-02 0.  1.
        1   -1    0    0  501    0  0.00000000000E+00  0.00000000000E+00 -0.23590828543E+04  0.23590828543E+04  0.50400001928E-02 0. -1.
    10030    2    1    2    0    0  0.00000000000E+00  0.00000000000E+00 -0.65778269790E+03  0.40603830107E+04  0.40067483220E+04 0.  0.
        4    1    3    3  502    0  0.11527687657E+04 -0.10439328764E+04  0.95088117442E+03  0.18228681516E+04  0.12699999809E+01 0.  1.
       -4    1    3    3    0  502 -0.11527687657E+04  0.10439328764E+04 -0.16086638723E+04  0.22375148591E+04  0.12699999809E+01 0. -1.
</event>
<event>
 5   0  0.5951623E-08  0.3987944E+04  0.7818609E-02  0.8006983E-01
       -2   -1    0    0    0  501  0.00000000000E+00  0.00000000000E+00  0.16038382604E+04  0.16038382604E+04  0.25500000920E-02 0.  1.
        2   -1    0    0  501    0  0.00000000000E+00  0.00000000000E+00 -0.24790052577E+04  0.24790052577E+04  0.25500000920E-02 0. -1.
    10030    2    1    2    0    0  0.00000000000E+00  0.00000000000E+00 -0.87516699730E+03  0.40828435180E+04  0.39879435703E+04 0.  0.
        2    1    3    3  502    0 -0.14781324533E+04 -0.74339497637E+03  0.70173796322E+03  0.17972055557E+04  0.25500000920E-02 0. -1.
       -2    1    3    3    0  502  0.14781324533E+04  0.74339497637E+03 -0.15769049605E+04  0.22856379623E+04  0.25500000920E-02 0.  1.
</event>
<event>
 5   0  0.1879500E-08  0.4004168E+04  0.7818609E-02  0.8003706E-01
        1   -1    0    0  501    0  0.00000000000E+00  0.00000000000E+00  0.25781858936E+04  0.25781858936E+04  0.50400001928E-02 0.  1.
       -1   -1    0    0    0  501  0.00000000000E+00  0.00000000000E+00 -0.15547131739E+04  0.15547131739E+04  0.50400001928E-02 0. -1.
    10030    2    1    2    0    0  0.00000000000E+00  0.00000000000E+00  0.10234727197E+04  0.41328990676E+04  0.40041676157E+04 0.  0.
        1    1    3    3  502    0 -0.95780905388E+03  0.90973863467E+03  0.20645353633E+04  0.24509852781E+04  0.50400001928E-02 0.  1.
       -1    1    3    3    0  502  0.95780905388E+03 -0.90973863467E+03 -0.10410626436E+04  0.16819137894E+04  0.50400001928E-02 0. -1.
</event>
<event>
 5   0  0.1879500E-08  0.3987916E+04  0.7818609E-02  0.8006989E-01
       -1   -1    0    0    0  501  0.00000000000E+00  0.00000000000E+00  0.18661422226E+04  0.18661422227E+04  0.50400001928E-02 0. -1.
        1   -1    0    0  501    0  0.00000000000E+00  0.00000000000E+00 -0.21305285719E+04  0.21305285719E+04  0.50400001928E-02 0.  1.
    10030    2    1    2    0    0  0.00000000000E+00  0.00000000000E+00 -0.26438634928E+03  0.39966707946E+04  0.39879164107E+04 0.  0.
        1    1    3    3  502    0  0.14265347266E+04 -0.83220806478E+03  0.98753194613E+03  0.19242637381E+04  0.50400001928E-02 0. -1.
       -1    1    3    3    0  502 -0.14265347266E+04  0.83220806478E+03 -0.12519182954E+04  0.20724070565E+04  0.50400001928E-02 0.  1.
</event>
<event>
 5   0  0.5888700E-08  0.4002005E+04  0.7818609E-02  0.8004142E-01
        2   -1    0    0  501    0  0.00000000000E+00  0.00000000000E+00  0.19609749476E+04  0.19609749476E+04  0.25500000920E-02 0. -1.
       -2   -1    0    0    0  501  0.00000000000E+00  0.00000000000E+00 -0.20418475895E+04  0.20418475895E+04  0.25500000920E-02 0.  1.
    10030    2    1    2    0    0  0.00000000000E+00  0.00000000000E+00 -0.80872641921E+02  0.40028225371E+04  0.40020054822E+04 0.  0.
        5    1    3    3  502    0 -0.96947495005E+03  0.10202951029E+04  0.13822134140E+04  0.19726681900E+04  0.46999998093E+01 0. -1.
       -5    1    3    3    0  502  0.96947495005E+03 -0.10202951029E+04 -0.14630860560E+04  0.20301543471E+04  0.46999998093E+01 0.  1.
</event>
<event>
 5   0  0.1879500E-08  0.4007273E+04  0.7818609E-02  0.8003081E-01
       -1   -1    0    0    0  501  0.00000000000E+00  0.00000000000E+00  0.22216474272E+04  0.22216474272E+04  0.50400001928E-02 0. -1.
        1   -1    0    0  501    0  0.00000000000E+00  0.00000000000E+00 -0.18070192114E+04  0.18070192114E+04  0.50400001928E-02 0.  1.
    10030    2    1    2    0    0  0.00000000000E+00  0.00000000000E+00  0.41462821583E+03  0.40286666386E+04  0.40072731786E+04 0.  0.
        3    1    3    3  502    0  0.19330835768E+04 -0.52173314919E+03  0.28215600373E+03  0.20220360072E+04  0.10100000352E+00 0.  1.
       -3    1    3    3    0  502 -0.19330835768E+04  0.52173314919E+03  0.13247221210E+03  0.20066306314E+04  0.10100000352E+00 0. -1.
</event>
<event>
 5   0  0.1879500E-08  0.4032860E+04  0.7818609E-02  0.7997950E-01
        1   -1    0    0  501    0  0.00000000000E+00  0.00000000000E+00  0.25814399963E+04  0.25814399963E+04  0.50400001928E-02 0.  1.
       -1   -1    0    0    0  501  0.00000000000E+00  0.00000000000E+00 -0.15750859526E+04  0.15750859526E+04  0.50400001928E-02 0. -1.
    10030    2    1    2    0    0  0.00000000000E+00  0.00000000000E+00  0.10063540437E+04  0.41565259489E+04  0.40328599657E+04 0.  0.
        5    1    3    3  502    0 -0.27140457884E+03 -0.12241845655E+04 -0.11243854622E+04  0.16842069509E+04  0.46999998093E+01 0. -1.
       -5    1    3    3    0  502  0.27140457884E+03  0.12241845655E+04  0.21307395059E+04  0.24723189980E+04  0.46999998093E+01 0.  1.
</event>
<event>
 5   0  0.5951623E-08  0.4001346E+04  0.7818609E-02  0.8004275E-01
        2   -1    0    0  501    0  0.00000000000E+00  0.00000000000E+00  0.16333119792E+04  0.16333119792E+04  0.25500000920E-02 0. -1.
       -2   -1    0    0    0  501  0.00000000000E+00  0.00000000000E+00 -0.24506601898E+04  0.24506601898E+04  0.25500000920E-02 0.  1.
    10030    2    1    2    0    0  0.00000000000E+00  0.00000000000E+00 -0.81734821061E+03  0.40839721690E+04  0.40013460960E+04 0.  0.
        2    1    3    3  502    0  0.56936219094E+03 -0.13765839222E+04  0.95439414524E+03  0.17691876056E+04  0.25500000920E-02 0. -1.
       -2    1    3    3    0  502 -0.56936219094E+03  0.13765839222E+04 -0.17717423559E+04  0.23147845634E+04  0.25500000920E-02 0.  1.
</event>
<event>
 5   0  0.5846812E-08  0.3890970E+04  0.7818609E-02  0.8026910E-01
       -2   -1    0    0    0  501  0.00000000000E+00  0.00000000000E+00  0.20447441513E+04  0.20447441513E+04  0.25500000920E-02 0.  1.
        2   -1    0    0  501    0  0.00000000000E+00  0.00000000000E+00 -0.18510438142E+04  0.18510438142E+04  0.25500000920E-02 0. -1.
    10030    2    1    2    0    0  0.00000000000E+00  0.00000000000E+00  0.19370033714E+03  0.38957879656E+04  0.38909695517E+04 0.  0.
        4    1    3    3  502    0 -0.10159090899E+04 -0.68400192534E+02 -0.15629601100E+04  0.18653674661E+04  0.12699999809E+01 0. -1.
       -4    1    3    3    0  502  0.10159090899E+04  0.68400192534E+02  0.17566604471E+04  0.20304204995E+04  0.12699999809E+01 0.  1.
</event>
<event>
 5   0  0.1879500E-08  0.4016896E+04  0.7818609E-02  0.8001147E-01
       -1   -1    0    0    0  501  0.00000000000E+00  0.00000000000E+00  0.20509664563E+04  0.20509664563E+04  0.50400001928E-02 0.  1.
        1   -1    0    0  501    0  0.00000000000E+00  0.00000000000E+00 -0.19668109595E+04  0.19668109595E+04  0.50400001928E-02 0. -1.
    10030    2    1    2    0    0  0.00000000000E+00  0.00000000000E+00  0.84155496770E+02  0.40177774158E+04  0.40168959677E+04 0.  0.
        3    1    3    3  502    0 -0.18984477089E+04  0.63013962553E+03 -0.13874810121E+03  0.20051011688E+04  0.10100000352E+00 0. -1.
       -3    1    3    3    0  502  0.18984477089E+04 -0.63013962553E+03  0.22290359798E+03  0.20126762470E+04  0.10100000352E+00 0.  1.
</event>
<event>
 5   0  0.5951623E-08  0.4092461E+04  0.7818609E-02  0.7986150E-01
       -2   -1    0    0    0  501  0.00000000000E+00  0.00000000000E+00  0.28778541913E+04  0.28778541913E+04  0.25500000920E-02 0. -1.
        2   -1    0    0  501    0  0.00000000000E+00  0.00000000000E+00 -0.14549243026E+04  0.14549243026E+04  0.25500000920E-02 0.  1.
    10030    2    1    2    0    0  0.00000000000E+00  0.00000000000E+00  0.14229298886E+04  0.43327784939E+04  0.40924613632E+04 0.  0.
        2    1    3    3  502    0 -0.69765467199E+03 -0.15596625378E+04 -0.48061583292E+03  0.17748974202E+04  0.25500000920E-02 0.  1.
       -2    1    3    3    0  502  0.69765467199E+03  0.15596625378E+04  0.19035457216E+04  0.25578810737E+04  0.25500000920E-02 0. -1.
</event>
<event>
 5   0  0.5846812E-08  0.4000630E+04  0.7818609E-02  0.8004419E-01
       -2   -1    0    0    0  501  0.00000000000E+00  0.00000000000E+00  0.17554963169E+04  0.17554963169E+04  0.25500000920E-02 0.  1.
        2   -1    0    0  501    0  0.00000000000E+00  0.00000000000E+00 -0.22792761653E+04  0.22792761653E+04  0.25500000920E-02 0. -1.
    10030    2    1    2    0    0  0.00000000000E+00  0.00000000000E+00 -0.52377984834E+03  0.40347724822E+04  0.40006304070E+04 0.  0.
        4    1    3    3  502    0  0.78430683876E+03  0.91778726918E+03  0.13466473460E+04  0.18085716398E+04  0.12699999809E+01 0.  1.
       -4    1    3    3    0  502 -0.78430683876E+03 -0.91778726918E+03 -0.18704271943E+04  0.22262008425E+04  0.12699999809E+01 0. -1.
</event>
<event>
 5   0  0.5945387E-08  0.3975310E+04  0.7818609E-02  0.8009546E-01
       -2   -1    0    0    0  501  0.00000000000E+00  0.00000000000E+00  0.11791752637E+04  0.11791752637E+04  0.25500000920E-02 0.  1.
        2   -1    0    0  501    0  0.00000000000E+00  0.00000000000E+00 -0.33504536587E+04  0.33504536587E+04  0.25500000920E-02 0. -1.
    10030    2    1    2    0    0  0.00000000000E+00  0.00000000000E+00 -0.21712783950E+04  0.45296289225E+04  0.39753098378E+04 0.  0.
        3    1    3    3  502    0 -0.52560030568E+03 -0.11622479996E+03  0.10945389953E+04  0.12197456734E+04  0.10100000352E+00 0.  1.
       -3    1    3    3    0  502  0.52560030568E+03  0.11622479996E+03 -0.32658173903E+04  0.33098832490E+04  0.10100000352E+00 0. -1.
</event>
<event>
 5   0  0.1879500E-08  0.3985653E+04  0.7818609E-02  0.8007447E-01
        1   -1    0    0  501    0  0.00000000000E+00  0.00000000000E+00  0.27999675185E+04  0.27999675185E+04  0.50400001928E-02 0. -1.
       -1   -1    0    0    0  501  0.00000000000E+00  0.00000000000E+00 -0.14183583264E+04  0.14183583264E+04  0.50400001928E-02 0.  1.
    10030    2    1    2    0    0  0.00000000000E+00  0.00000000000E+00  0.13816091921E+04  0.42183258449E+04  0.39856528918E+04 0.  0.
        5    1    3    3  502    0  0.37618473185E+03  0.33975440067E+03  0.27305888468E+04  0.27772442358E+04  0.46999998093E+01 0. -1.
       -5    1    3    3    0  502 -0.37618473185E+03 -0.33975440067E+03 -0.13489796547E+04  0.14410816091E+04  0.46999998093E+01 0.  1.
</event>
<event>
 5   0  0.5951623E-08  0.3996365E+04  0.7818609E-02  0.8005280E-01
        2   -1    0    0  501    0  0.00000000000E+00  0.00000000000E+00  0.13996647145E+04  0.13996647145E+04  0.25500000920E-02 0.  1.
       -2   -1    0    0    0  501  0.00000000000E+00  0.00000000000E+00 -0.28526355997E+04  0.28526355997E+04  0.25500000920E-02 0. -1.
    10030    2    1    2    0    0  0.00000000000E+00  0.00000000000E+00 -0.14529708853E+04  0.42523003142E+04  0.39963650445E+04 0.  0.
        2    1    3    3  502    0  0.32370283980E+03 -0.31572782424E+03  0.13445093114E+04  0.14185107951E+04  0.25500000920E-02 0.  1.
       -2    1    3    3    0  502 -0.32370283980E+03  0.31572782424E+03 -0.27974801967E+04  0.28337895191E+04  0.25500000920E-02 0. -1.
</event>
<event>
 5   0  0.1879500E-08  0.3997186E+04  0.7818609E-02  0.8005115E-01
       -1   -1    0    0    0  501  0.00000000000E+00  0.00000000000E+00  0.28200589746E+04  0.28200589746E+04  0.50400001928E-02 0.  1.
        1   -1    0    0  501    0  0.00000000000E+00  0.00000000000E+00 -0.14164147334E+04  0.14164147334E+04  0.50400001928E-02 0. -1.
    10030    2    1    2    0    0  0.00000000000E+00  0.00000000000E+00  0.14036442412E+04  0.42364737080E+04  0.39971855502E+04 0.  0.
        4    1    3    3  502    0  0.54214356846E+03 -0.17390000949E+04  0.15734471434E+04  0.24070269016E+04  0.12699999809E+01 0.  1.
       -4    1    3    3    0  502 -0.54214356846E+03  0.17390000949E+04 -0.16980290218E+03  0.18294468064E+04  0.12699999809E+01 0. -1.
</event>
<event>
 5   0  0.5951623E-08  0.3985494E+04  0.7818609E-02  0.8007479E-01
        2   -1    0    0  501    0  0.00000000000E+00  0.00000000000E+00  0.12954554158E+04  0.12954554158E+04  0.25500000920E-02 0.  1.
       -2   -1    0    0    0  501  0.00000000000E+00  0.00000000000E+00 -0.30653619576E+04  0.30653619576E+04  0.25500000920E-02 0. -1.
    10030    2    1    2    0    0  0.00000000000E+00  0.00000000000E+00 -0.17699065419E+04  0.43608173734E+04  0.39854935701E+04 0.  0.
        2    1    3    3  502    0 -0.93628903156E+03 -0.16410380742E+04 -0.19173076883E+03  0.18990533956E+04  0.25500000920E-02 0. -1.
       -2    1    3    3    0  502  0.93628903156E+03  0.16410380742E+04 -0.15781757731E+04  0.24617639778E+04  0.25500000920E-02 0.  1.
</event>
<event>
 5   0  0.1879500E-08  0.3980027E+04  0.7818609E-02  0.8008588E-01
       -1   -1    0    0    0  501  0.00000000000E+00  0.00000000000E+00  0.16204489604E+04  0.16204489604E+04  0.50400001928E-02 0.  1.
        1   -1    0    0  501    0  0.00000000000E+00  0.00000000000E+00 -0.24438617522E+04  0.24438617522E+04  0.50400001928E-02 0. -1.
    10030    2    1    2    0    0  0.00000000000E+00  0.00000000000E+00 -0.82341279183E+03  0.40643107126E+04  0.39800267515E+04 0.  0.
        5    1    3    3  502    0 -0.13392171748E+04 -0.14477769732E+04 -0.68298279771E+03  0.20871148501E+04  0.46999998093E+01 0.  1.
       -5    1    3    3    0  502  0.13392171748E+04  0.14477769732E+04 -0.14042999412E+03  0.19771958625E+04  0.46999998093E+01 0. -1.
</event>
<event>
 5   0  0.1879500E-08  0.4043744E+04  0.7818609E-02  0.7995780E-01
       -1   -1    0    0    0  501  0.00000000000E+00  0.00000000000E+00  0.19116167169E+04  0.19116167169E+04  0.50400001928E-02 0.  1.
        1   -1    0    0  501    0  0.00000000000E+00  0.00000000000E+00 -0.21384862144E+04  0.21384862144E+04  0.50400001928E-02 0. -1.
    10030    2    1    2    0    0  0.00000000000E+00  0.00000000000E+00 -0.22686949748E+03  0.40501029312E+04  0.40437438080E+04 0.  0.
        5    1    3    3  502    0 -0.73346052692E+03 -0.16953183459E+04 -0.93684392972E+03  0.20711753371E+04  0.46999998093E+01 0. -1.
       -5    1    3    3    0  502  0.73346052692E+03  0.16953183459E+04  0.70997443224E+03  0.19789275941E+04  0.46999998093E+01 0.  1.
</event>
<event>
 5   0  0.1879500E-08  0.4015048E+04  0.7818609E-02  0.8001518E-01
        1   -1    0    0  501    0  0.00000000000E+00  0.00000000000E+00  0.15580829585E+04  0.15580829585E+04  0.50400001928E-02 0. -1.
       -1   -1    0    0    0  501  0.00000000000E+00  0.00000000000E+00 -0.25866101598E+04  0.25866101598E+04  0.50400001928E-02 0.  1.
    10030    2    1    2    0    0  0.00000000000E+00  0.00000000000E+00 -0.10285272013E+04  0.41446931183E+04  0.40150482987E+04 0.  0.
        3    1    3    3  502    0 -0.13467802337E+04 -0.22892356687E+03 -0.20327930904E+04  0.24491775673E+04  0.10100000352E+00 0.  1.
       -3    1    3    3    0  502  0.13467802337E+04  0.22892356687E+03  0.10042658891E+04  0.16955155510E+04  0.10100000352E+00 0. -1.
</event>
<event>
 5   0  0.1879500E-08  0.3989729E+04  0.7818609E-02  0.8006622E-01
        1   -1    0    0  501    0  0.00000000000E+00  0.00000000000E+00  0.22257759812E+04  0.22257759812E+04  0.50400001928E-02 0. -1.
       -1   -1    0    0    0  501  0.00000000000E+00  0.00000000000E+00 -0.17879086693E+04  0.17879086693E+04  0.50400001928E-02 0.  1.
    10030    2    1    2    0    0  0.00000000000E+00  0.00000000000E+00  0.43786731190E+03  0.40136846506E+04  0.39897288995E+04 0.  0.
        2    1    3    3  502    0  0.32268562277E+02  0.15366769729E+02  0.22254538614E+04  0.22257408400E+04  0.25500000920E-02 0. -1.
       -2    1    3    3    0  502 -0.32268562277E+02 -0.15366769729E+02 -0.17875865495E+04  0.17879438105E+04  0.25500000920E-02 0.  1.
</event>
<event>
 5   0  0.5888700E-08  0.3999398E+04  0.7818609E-02  0.8004668E-01
        2   -1    0    0  501    0  0.00000000000E+00  0.00000000000E+00  0.21328174372E+04  0.21328174372E+04  0.25500000920E-02 0.  1.
       -2   -1    0    0    0  501  0.00000000000E+00  0.00000000000E+00 -0.18748888540E+04  0.18748888540E+04  0.25500000920E-02 0. -1.
    10030    2    1    2    0    0  0.00000000000E+00  0.00000000000E+00  0.25792858324E+03  0.40077062912E+04  0.39993977750E+04 0.  0.
        5    1    3    3  502    0  0.59058628840E+03 -0.16624518965E+03  0.20361638025E+04  0.21265969876E+04  0.46999998093E+01 0.  1.
       -5    1    3    3    0  502 -0.59058628840E+03  0.16624518965E+03 -0.17782352192E+04  0.18811093036E+04  0.46999998093E+01 0. -1.
</event>
<event>
 5   0  0.1879500E-08  0.4006594E+04  0.7818609E-02  0.8003218E-01
        1   -1    0    0  501    0  0.00000000000E+00  0.00000000000E+00  0.20186649640E+04  0.20186649640E+04  0.50400001928E-02 0.  1.
       -1   -1    0    0    0  501  0.00000000000E+00  0.00000000000E+00 -0.19880458250E+04  0.19880458250E+04  0.50400001928E-02 0. -1.
    10030    2    1    2    0    0  0.00000000000E+00  0.00000000000E+00  0.30619139021E+02  0.40067107890E+04  0.40065937921E+04 0.  0.
        4    1    3    3  502    0  0.11532120558E+04 -0.16240798401E+04  0.22900593115E+03  0.20049884544E+04  0.12699999809E+01 0. -1.
       -4    1    3    3    0  502 -0.11532120558E+04  0.16240798401E+04 -0.19838679213E+03  0.20017223346E+04  0.12699999809E+01 0.  1.
</event>
<event>
 5   0  0.1879500E-08  0.3997220E+04  0.7818609E-02  0.8005108E-01
       -1   -1    0    0    0  501  0.00000000000E+00  0.00000000000E+00  0.19511651342E+04  0.19511651342E+04  0.50400001928E-02 0.  1.
        1   -1    0    0  501    0  0.00000000000E+00  0.00000000000E+00 -0.20472087803E+04  0.20472087803E+04  0.50400001928E-02 0. -1.
    10030    2    1    2    0    0  0.00000000000E+00  0.00000000000E+00 -0.96043646081E+02  0.39983739145E+04  0.39972202314E+04 0.  0.
        5    1    3    3  502    0  0.12546724171E+03 -0.16128609410E+04 -0.12219694561E+04  0.20273859735E+04  0.46999998093E+01 0. -1.
       -5    1    3    3    0  502 -0.12546724171E+03  0.16128609410E+04  0.11259258100E+04  0.19709879410E+04  0.46999998093E+01 0.  1.
</event>
<event>
 5   0  0.5951623E-08  0.4039336E+04  0.7818609E-02  0.7996658E-01
       -2   -1    0    0    0  501  0.00000000000E+00  0.00000000000E+00  0.21531329062E+04  0.21531329062E+04  0.25500000920E-02 0. -1.
        2   -1    0    0  501    0  0.00000000000E+00  0.00000000000E+00 -0.18944760413E+04  0.18944760413E+04  0.25500000920E-02 0.  1.
    10030    2    1    2    0    0  0.00000000000E+00  0.00000000000E+00  0.25865686489E+03  0.40476089475E+04  0.40393359377E+04 0.  0.
        2    1    3    3  502    0  0.24577574892E+03 -0.16948233091E+03  0.21309000896E+04  0.21517121487E+04  0.25500000920E-02 0. -1.
       -2    1    3    3    0  502 -0.24577574892E+03  0.16948233091E+03 -0.18722432247E+04  0.18958967988E+04  0.25500000920E-02 0.  1.
</event>
<event>
 5   0  0.1879500E-08  0.4004445E+04  0.7818609E-02  0.8003650E-01
       -1   -1    0    0    0  501  0.00000000000E+00  0.00000000000E+00  0.35393734282E+04  0.35393734282E+04  0.50400001928E-02 0.  1.
        1   -1    0    0  501    0  0.00000000000E+00  0.00000000000E+00 -0.11326566719E+04  0.11326566719E+04  0.50400001928E-02 0. -1.
    10030    2    1    2    0    0  0.00000000000E+00  0.00000000000E+00  0.24067167563E+04  0.46720301001E+04  0.40044449942E+04 0.  0.
        2    1    3    3  502    0 -0.51228524527E+03 -0.15072721170E+04  0.26201268093E+04  0.30658391843E+04  0.25500000920E-02 0.  1.
       -2    1    3    3    0  502  0.51228524527E+03  0.15072721170E+04 -0.21341005300E+03  0.16061909158E+04  0.25500000920E-02 0. -1.
</event>
<event>
 5   0  0.5888700E-08  0.3991064E+04  0.7818609E-02  0.8006352E-01
       -2   -1    0    0    0  501  0.00000000000E+00  0.00000000000E+00  0.20373391853E+04  0.20373391853E+04  0.25500000920E-02 0. -1.
        2   -1    0    0  501    0  0.00000000000E+00  0.00000000000E+00 -0.19545825573E+04  0.19545825573E+04  0.25500000920E-02 0.  1.
    10030    2    1    2    0    0  0.00000000000E+00  0.00000000000E+00  0.82756628023E+02  0.39919217426E+04  0.39910638355E+04 0.  0.
        5    1    3    3  502    0  0.10751564811E+04  0.16294588210E+04  0.45502257151E+03  0.20045361406E+04  0.46999998093E+01 0. -1.
       -5    1    3    3    0  502 -0.10751564811E+04 -0.16294588210E+04 -0.37226594349E+03  0.19873856020E+04  0.46999998093E+01 0.  1.
</event>
<event>
 5   0  0.1879500E-08  0.4003862E+04  0.7818609E-02  0.8003768E-01
        1   -1    0    0  501    0  0.00000000000E+00  0.00000000000E+00  0.34870367768E+04  0.34870367768E+04  0.50400001928E-02 0.  1.
       -1   -1    0    0    0  501  0.00000000000E+00  0.00000000000E+00 -0.11493221666E+04  0.11493221666E+04  0.50400001928E-02 0. -1.
    10030    2    1    2    0    0  0.00000000000E+00  0.00000000000E+00  0.23377146101E+04  0.46363589434E+04  0.40038624669E+04 0.  0.
        1    1    3    3  502    0  0.38099084244E+03  0.27016618118E+03 -0.10853493083E+04  0.11815781432E+04  0.50400001928E-02 0. -1.
       -1    1    3    3    0  502 -0.38099084244E+03 -0.27016618118E+03  0.34230639185E+04  0.34547808002E+04  0.50400001928E-02 0.  1.
</event>
<event>
 5   0  0.5945387E-08  0.3915083E+04  0.7818609E-02  0.8021900E-01
       -2   -1    0    0    0  501  0.00000000000E+00  0.00000000000E+00  0.12909571157E+04  0.12909571157E+04  0.25500000920E-02 0.  1.
        2   -1    0    0  501    0  0.00000000000E+00  0.00000000000E+00 -0.29683158348E+04  0.29683158348E+04  0.25500000920E-02 0. -1.
    10030    2    1    2    0    0  0.00000000000E+00  0.00000000000E+00 -0.16773587191E+04  0.42592729505E+04  0.39150828592E+04 0.  0.
        3    1    3    3  502    0 -0.77744313363E+02  0.18776511568E+04 -0.24245650858E+03  0.18948359332E+04  0.10100000352E+00 0. -1.
       -3    1    3    3    0  502  0.77744313363E+02 -0.18776511568E+04 -0.14349022105E+04  0.23644370173E+04  0.10100000352E+00 0.  1.
</event>
<event>
 5   0  0.5888700E-08  0.3965581E+04  0.7818609E-02  0.8011526E-01
       -2   -1    0    0    0  501  0.00000000000E+00  0.00000000000E+00  0.19748002768E+04  0.19748002768E+04  0.25500000920E-02 0. -1.
        2   -1    0    0  501    0  0.00000000000E+00  0.00000000000E+00 -0.19908133084E+04  0.19908133084E+04  0.25500000920E-02 0.  1.
    10030    2    1    2    0    0  0.00000000000E+00  0.00000000000E+00 -0.16013031573E+02  0.39656135852E+04  0.39655812550E+04 0.  0.
        5    1    3    3  502    0  0.16892076376E+04 -0.43882588897E+03 -0.94899557853E+03  0.19866064789E+04  0.46999998093E+01 0.  1.
       -5    1    3    3    0  502 -0.16892076376E+04  0.43882588897E+03  0.93298254695E+03  0.19790071063E+04  0.46999998093E+01 0. -1.
</event>
<event>
 5   0  0.1879500E-08  0.3961844E+04  0.7818609E-02  0.8012288E-01
       -1   -1    0    0    0  501  0.00000000000E+00  0.00000000000E+00  0.12499895627E+04  0.12499895627E+04  0.50400001928E-02 0.  1.
        1   -1    0    0  501    0  0.00000000000E+00  0.00000000000E+00 -0.31392673616E+04  0.31392673616E+04  0.50400001928E-02 0. -1.
    10030    2    1    2    0    0  0.00000000000E+00  0.00000000000E+00 -0.18892777989E+04  0.43892569244E+04  0.39618437307E+04 0.  0.
        1    1    3    3  502    0 -0.16380247489E+03 -0.25104127676E+03  0.12247177429E+04  0.12608673694E+04  0.50400001928E-02 0.  1.
       -1    1    3    3    0  502  0.16380247489E+03  0.25104127676E+03 -0.31139955418E+04  0.31283895550E+04  0.50400001928E-02 0. -1.
</event>
<event>
 5   0  0.5951623E-08  0.3993033E+04  0.7818609E-02  0.8005953E-01
        2   -1    0    0  501    0  0.00000000000E+00  0.00000000000E+00  0.21065331772E+04  0.21065331772E+04  0.25500000920E-02 0.  1.
       -2   -1    0    0    0  501  0.00000000000E+00  0.00000000000E+00 -0.18922457072E+04  0.18922457072E+04  0.25500000920E-02 0. -1.
    10030    2    1    2    0    0  0.00000000000E+00  0.00000000000E+00  0.21428746996E+03  0.39987788844E+04  0.39930331136E+04 0.  0.
        2    1    3    3  502    0  0.90182828861E+03 -0.11489338507E+04 -0.12559670180E+04  0.19263427539E+04  0.25500000920E-02 0. -1.
       -2    1    3    3    0  502 -0.90182828861E+03  0.11489338507E+04  0.14702544879E+04  0.20724361304E+04  0.25500000920E-02 0.  1.
</event>
<event>
 5   0  0.5888700E-08  0.4000120E+04  0.7818609E-02  0.8004522E-01
        2   -1    0    0  501    0  0.00000000000E+00  0.00000000000E+00  0.24792780705E+04  0.24792780705E+04  0.25500000920E-02 0.  1.
       -2   -1    0    0    0  501  0.00000000000E+00  0.00000000000E+00 -0.16134694539E+04  0.16134694539E+04  0.25500000920E-02 0. -1.
    10030    2    1    2    0    0  0.00000000000E+00  0.00000000000E+00  0.86580861662E+03  0.40927475244E+04  0.40001197155E+04 0.  0.
        5    1    3    3  502    0 -0.19534613862E+04 -0.22729298299E+03  0.80540044072E+03  0.21251742157E+04  0.46999998093E+01 0.  1.
       -5    1    3    3    0  502  0.19534613862E+04  0.22729298299E+03  0.60408175893E+02  0.19675733087E+04  0.46999998093E+01 0. -1.
</event>
<event>
 5   0  0.1879500E-08  0.4000642E+04  0.7818609E-02  0.8004417E-01
        1   -1    0    0  501    0  0.00000000000E+00  0.00000000000E+00  0.14306177588E+04  0.14306177588E+04  0.50400001928E-02 0.  1.
       -1   -1    0    0    0  501  0.00000000000E+00  0.00000000000E+00 -0.27968918258E+04  0.27968918258E+04  0.50400001928E-02 0. -1.
    10030    2    1    2    0    0  0.00000000000E+00  0.00000000000E+00 -0.13662740669E+04  0.42275095846E+04  0.40006415063E+04 0.  0.
        2    1    3    3  502    0 -0.17790754282E+04  0.90394855862E+03 -0.53728553919E+03  0.20666175569E+04  0.25500000920E-02 0.  1.
       -2    1    3    3    0  502  0.17790754282E+04 -0.90394855862E+03 -0.82898852775E+03  0.21608920277E+04  0.25500000920E-02 0. -1.
</event>
<event>
 5   0  0.5888700E-08  0.3998355E+04  0.7818609E-02  0.8004878E-01
        2   -1    0    0  501    0  0.00000000000E+00  0.00000000000E+00  0.24156464559E+04  0.24156464559E+04  0.25500000920E-02 0. -1.
       -2   -1    0    0    0  501  0.00000000000E+00  0.00000000000E+00 -0.16545097230E+04  0.16545097230E+04  0.25500000920E-02 0.  1.
    10030    2    1    2    0    0  0.00000000000E+00  0.00000000000E+00  0.76113673292E+03  0.40701561789E+04  0.39983549361E+04 0.  0.
        5    1    3    3  502    0  0.86943898736E+03  0.80663819056E+02  0.22112677591E+04  0.23774267595E+04  0.46999998093E+01 0. -1.
       -5    1    3    3    0  502 -0.86943898736E+03 -0.80663819056E+02 -0.14501310262E+04  0.16927294194E+04  0.46999998093E+01 0.  1.
</event>
<event>
 5   0  0.1879500E-08  0.3999147E+04  0.7818609E-02  0.8004719E-01
        1   -1    0    0  501    0  0.00000000000E+00  0.00000000000E+00  0.14416496805E+04  0.14416496805E+04  0.50400001928E-02 0. -1.
       -1   -1    0    0    0  501  0.00000000000E+00  0.00000000000E+00 -0.27734164496E+04  0.27734164496E+04  0.50400001928E-02 0.  1.
    10030    2    1    2    0    0  0.00000000000E+00  0.00000000000E+00 -0.13317667691E+04  0.42150661301E+04  0.39991473783E+04 0.  0.
        4    1    3    3  502    0  0.11881162446E+04 -0.31502620289E+02  0.10289399324E+04  0.15720469532E+04  0.12699999809E+01 0. -1.
       -4    1    3    3    0  502 -0.11881162446E+04  0.31502620289E+02 -0.23607067016E+04  0.26430191769E+04  0.12699999809E+01 0.  1.
</event>
<event>
 5   0  0.1879500E-08  0.3964040E+04  0.7818609E-02  0.8011840E-01
        1   -1    0    0  501    0  0.00000000000E+00  0.00000000000E+00  0.31384233644E+04  0.31384233644E+04  0.50400001928E-02 0. -1.
       -1   -1    0    0    0  501  0.00000000000E+00  0.00000000000E+00 -0.12517125900E+04  0.12517125900E+04  0.50400001928E-02 0.  1.
    10030    2    1    2    0    0  0.00000000000E+00  0.00000000000E+00  0.18867107744E+04  0.43901359544E+04  0.39640403822E+04 0.  0.
        5    1    3    3  502    0  0.33121391214E+02  0.83805275772E+03  0.29322032393E+04  0.30497979241E+04  0.46999998093E+01 0. -1.
       -5    1    3    3    0  502 -0.33121391214E+02 -0.83805275772E+03 -0.10454924649E+04  0.13403380303E+04  0.46999998093E+01 0.  1.
</event>
<event>
 5   0  0.1879500E-08  0.3940288E+04  0.7818609E-02  0.8016702E-01
        1   -1    0    0  501    0  0.00000000000E+00  0.00000000000E+00  0.24331427432E+04  0.24331427432E+04  0.50400001928E-02 0.  1.
       -1   -1    0    0    0  501  0.00000000000E+00  0.00000000000E+00 -0.15952488189E+04  0.15952488189E+04  0.50400001928E-02 0. -1.
    10030    2    1    2    0    0  0.00000000000E+00  0.00000000000E+00  0.83789392428E+03  0.40283915621E+04  0.39402883586E+04 0.  0.
        5    1    3    3  502    0  0.13809426980E+04  0.92787551541E+03  0.14977617457E+04  0.22385861708E+04  0.46999998093E+01 0.  1.
       -5    1    3    3    0  502 -0.13809426980E+04 -0.92787551541E+03 -0.65986782139E+03  0.17898053913E+04  0.46999998093E+01 0. -1.
</event>
<event>
 5   0  0.5945387E-08  0.4002209E+04  0.7818609E-02  0.8004101E-01
        2   -1    0    0  501    0  0.00000000000E+00  0.00000000000E+00  0.23763941998E+04  0.23763941998E+04  0.25500000920E-02 0. -1.
       -2   -1    0    0    0  501  0.00000000000E+00  0.00000000000E+00 -0.16850820074E+04  0.16850820074E+04  0.25500000920E-02 0.  1.
    10030    2    1    2    0    0  0.00000000000E+00  0.00000000000E+00  0.69131219247E+03  0.40614762072E+04  0.40022089443E+04 0.  0.
        3    1    3    3  502    0  0.43409574692E+03 -0.17741839857E+04  0.11752279673E+04  0.21719412326E+04  0.10100000352E+00 0. -1.
       -3    1    3    3    0  502 -0.43409574692E+03  0.17741839857E+04 -0.48391577481E+03  0.18895349746E+04  0.10100000352E+00 0.  1.
</event>
<event>
 5   0  0.1879500E-08  0.3997136E+04  0.7818609E-02  0.8005125E-01
       -1   -1    0    0    0  501  0.00000000000E+00  0.00000000000E+00  0.19049222192E+04  0.19049222192E+04  0.50400001928E-02 0.  1.
        1   -1    0    0  501    0  0.00000000000E+00  0.00000000000E+00 -0.20968176993E+04  0.20968176993E+04  0.50400001928E-02 0. -1.
    10030    2    1    2    0    0  0.00000000000E+00  0.00000000000E+00 -0.19189548007E+03  0.40017399185E+04  0.39971362874E+04 0.  0.
        5    1    3    3  502    0 -0.33949613136E+02  0.12712054803E+04  0.14476245417E+04  0.19268510200E+04  0.46999998093E+01 0.  1.
       -5    1    3    3    0  502  0.33949613136E+02 -0.12712054803E+04 -0.16395200217E+04  0.20748888985E+04  0.46999998093E+01 0. -1.
</event>
<event>
 5   0  0.1879500E-08  0.3990992E+04  0.7818609E-02  0.8006366E-01
        1   -1    0    0  501    0  0.00000000000E+00  0.00000000000E+00  0.13951314732E+04  0.13951314732E+04  0.50400001928E-02 0.  1.
       -1   -1    0    0    0  501  0.00000000000E+00  0.00000000000E+00 -0.28542139924E+04  0.28542139924E+04  0.50400001928E-02 0. -1.
    10030    2    1    2    0    0  0.00000000000E+00  0.00000000000E+00 -0.14590825192E+04  0.42493454656E+04  0.39909917425E+04 0.  0.
        5    1    3    3  502    0  0.90959002629E+03 -0.11902660652E+04 -0.21331720866E+04  0.26066324180E+04  0.46999998093E+01 0. -1.
       -5    1    3    3    0  502 -0.90959002629E+03  0.11902660652E+04  0.67408956741E+03  0.16427130476E+04  0.46999998093E+01 0.  1.
</event>
<event>
 5   0  0.5945387E-08  0.3957141E+04  0.7818609E-02  0.8013249E-01
        2   -1    0    0  501    0  0.00000000000E+00  0.00000000000E+00  0.10705199399E+04  0.10705199399E+04  0.25500000920E-02 0.  1.
       -2   -1    0    0    0  501  0.00000000000E+00  0.00000000000E+00 -0.36568595813E+04  0.36568595813E+04  0.25500000920E-02 0. -1.
    10030    2    1    2    0    0  0.00000000000E+00  0.00000000000E+00 -0.25863396414E+04  0.47273795212E+04  0.39571409372E+04 0.  0.
        3    1    3    3  502    0  0.13360172064E+04  0.18546357934E+03 -0.30224790807E+04  0.33097913104E+04  0.10100000352E+00 0. -1.
       -3    1    3    3    0  502 -0.13360172064E+04 -0.18546357934E+03  0.43613943927E+03  0.14175882109E+04  0.10100000352E+00 0.  1.
</event>
<event>
 5   0  0.6161563E-08  0.3990860E+04  0.7818609E-02  0.8006393E-01
       -2   -1    0    0    0  501  0.00000000000E+00  0.00000000000E+00  0.16161604297E+04  0.16161604297E+04  0.25500000920E-02 0. -1.
        2   -1    0    0  501    0  0.00000000000E+00  0.00000000000E+00 -0.24637037148E+04  0.24637037148E+04  0.25500000920E-02 0.  1.
    10030    2    1    2    0    0  0.00000000000E+00  0.00000000000E+00 -0.84754328513E+03  0.40798641446E+04  0.39908597843E+04 0.  0.
        1    1    3    3  502    0 -0.85333619951E+03 -0.17727701375E+04 -0.83414409890E+02  0.19692269025E+04  0.50400001928E-02 0. -1.
       -1    1    3    3    0  502  0.85333619951E+03  0.17727701375E+04 -0.76412887524E+03  0.21106372421E+04  0.50400001928E-02 0.  1.
</event>
<event>
 5   0  0.5846812E-08  0.3993774E+04  0.7818609E-02  0.8005804E-01
        2   -1    0    0  501    0  0.00000000000E+00  0.00000000000E+00  0.22490715649E+04  0.22490715649E+04  0.25500000920E-02 0. -1.
       -2   -1    0    0    0  501  0.00000000000E+00  0.00000000000E+00 -0.17729796884E+04  0.17729796884E+04  0.25500000920E-02 0.  1.
    10030    2    1    2    0    0  0.00000000000E+00  0.00000000000E+00  0.47609187650E+03  0.40220512533E+04  0.39937742562E+04 0.  0.
        4    1    3    3  502    0  0.41276167082E+03  0.12827533105E+04  0.17221584842E+04  0.21867006448E+04  0.12699999809E+01 0. -1.
       -4    1    3    3    0  502 -0.41276167082E+03 -0.12827533105E+04 -0.12460666077E+04  0.18353506085E+04  0.12699999809E+01 0.  1.
</event>
<event>
 5   0  0.1879500E-08  0.3851301E+04  0.7818609E-02  0.8035234E-01
        1   -1    0    0  501    0  0.00000000000E+00  0.00000000000E+00  0.26861161035E+04  0.26861161035E+04  0.50400001928E-02 0.  1.
       -1   -1    0    0    0  501  0.00000000000E+00  0.00000000000E+00 -0.13804804611E+04  0.13804804611E+04  0.50400001928E-02 0. -1.
    10030    2    1    2    0    0  0.00000000000E+00  0.00000000000E+00  0.13056356424E+04  0.40665965647E+04  0.38513014929E+04 0.  0.
        2    1    3    3  502    0  0.17079278739E+03  0.41220297397E+01  0.26780981205E+04  0.26835418220E+04  0.25500000920E-02 0.  1.
       -2    1    3    3    0  502 -0.17079278739E+03 -0.41220297397E+01 -0.13724624781E+04  0.13830547427E+04  0.25500000920E-02 0. -1.
</event>
<event>
 5   0  0.5888700E-08  0.3890850E+04  0.7818609E-02  0.8026935E-01
        2   -1    0    0  501    0  0.00000000000E+00  0.00000000000E+00  0.23401155779E+04  0.23401155779E+04  0.25500000920E-02 0. -1.
       -2   -1    0    0    0  501  0.00000000000E+00  0.00000000000E+00 -0.16173042313E+04  0.16173042313E+04  0.25500000920E-02 0.  1.
    10030    2    1    2    0    0  0.00000000000E+00  0.00000000000E+00  0.72281134654E+03  0.39574198092E+04  0.38908502032E+04 0.  0.
        5    1    3    3  502    0  0.12292165441E+04  0.67713207068E+03 -0.10089299029E+04  0.17284220527E+04  0.46999998093E+01 0.  1.
       -5    1    3    3    0  502 -0.12292165441E+04 -0.67713207068E+03  0.17317412494E+04  0.22289977565E+04  0.46999998093E+01 0. -1.
</event>
<event>
 5   0  0.1879500E-08  0.3988882E+04  0.7818609E-02  0.8006793E-01
       -1   -1    0    0    0  501  0.00000000000E+00  0.00000000000E+00  0.15746613027E+04  0.15746613027E+04  0.50400001928E-02 0. -1.
        1   -1    0    0  501    0  0.00000000000E+00  0.00000000000E+00 -0.25261273301E+04  0.25261273301E+04  0.50400001928E-02 0.  1.
    10030    2    1    2    0    0  0.00000000000E+00  0.00000000000E+00 -0.95146602745E+03  0.41007886328E+04  0.39888820250E+04 0.  0.
        4    1    3    3  502    0  0.25760121998E+02  0.18894787055E+04 -0.11315963979E+04  0.22025679066E+04  0.12699999809E+01 0.  1.
       -4    1    3    3    0  502 -0.25760121998E+02 -0.18894787055E+04  0.18013037045E+03  0.18982207263E+04  0.12699999809E+01 0. -1.
</event>
<event>
 5   0  0.6161563E-08  0.4239618E+04  0.7818609E-02  0.7957879E-01
       -2   -1    0    0    0  501  0.00000000000E+00  0.00000000000E+00  0.25501083638E+04  0.25501083638E+04  0.25500000920E-02 0.  1.
        2   -1    0    0  501    0  0.00000000000E+00  0.00000000000E+00 -0.17621173656E+04  0.17621173656E+04  0.25500000920E-02 0. -1.
    10030    2    1    2    0    0  0.00000000000E+00  0.00000000000E+00  0.78799099817E+03  0.43122257294E+04  0.42396180168E+04 0.  0.
        1    1    3    3  502    0 -0.70378886153E+02  0.16671986137E+04 -0.93571376283E+03  0.19131295437E+04  0.50400001928E-02 0. -1.
       -1    1    3    3    0  502  0.70378886153E+02 -0.16671986137E+04  0.17237047610E+04  0.23990961857E+04  0.50400001928E-02 0.  1.
</event>
<event>
 5   0  0.5888700E-08  0.3909130E+04  0.7818609E-02  0.8023133E-01
       -2   -1    0    0    0  501  0.00000000000E+00  0.00000000000E+00  0.18243155025E+04  0.18243155025E+04  0.25500000920E-02 0.  1.
        2   -1    0    0  501    0  0.00000000000E+00  0.00000000000E+00 -0.20941134494E+04  0.20941134494E+04  0.25500000920E-02 0. -1.
    10030    2    1    2    0    0  0.00000000000E+00  0.00000000000E+00 -0.26979794685E+03  0.39184289519E+04  0.39091296370E+04 0.  0.
        5    1    3    3  502    0 -0.38338546996E+03 -0.17396174427E+04  0.67140768329E+03  0.19036973584E+04  0.46999998093E+01 0.  1.
       -5    1    3    3    0  502  0.38338546996E+03  0.17396174427E+04 -0.94120563014E+03  0.20147315934E+04  0.46999998093E+01 0. -1.
</event>
<event>
 5   0  0.5951623E-08  0.4018528E+04  0.7818609E-02  0.8000819E-01
       -2   -1    0    0    0  501  0.00000000000E+00  0.00000000000E+00  0.24631804605E+04  0.24631804605E+04  0.25500000920E-02 0.  1.
        2   -1    0    0  501    0  0.00000000000E+00  0.00000000000E+00 -0.16389958377E+04  0.16389958377E+04  0.25500000920E-02 0. -1.
    10030    2    1    2    0    0  0.00000000000E+00  0.00000000000E+00  0.82418462282E+03  0.41021762983E+04  0.40185283487E+04 0.  0.
        2    1    3    3  502    0  0.28419323697E+03  0.59388039431E+02 -0.16174702363E+04  0.16433206323E+04  0.25500000920E-02 0. -1.
       -2    1    3    3    0  502 -0.28419323697E+03 -0.59388039431E+02  0.24416548591E+04  0.24588556660E+04  0.25500000920E-02 0.  1.
</event>
<event>
 5   0  0.1879500E-08  0.4000000E+04  0.7818609E-02  0.8004547E-01
        1   -1    0    0  501    0  0.00000000000E+00  0.00000000000E+00  0.24748776834E+04  0.24748776834E+04  0.50400001928E-02 0.  1.
       -1   -1    0    0    0  501  0.00000000000E+00  0.00000000000E+00 -0.16162416830E+04  0.16162416830E+04  0.50400001928E-02 0. -1.
    10030    2    1    2    0    0  0.00000000000E+00  0.00000000000E+00  0.85863600038E+03  0.40911193665E+04  0.40000002362E+04 0.  0.
        1    1    3    3  502    0  0.52220805593E+03 -0.69733915132E+03  0.22706106118E+04  0.24320065165E+04  0.50400001928E-02 0.  1.
       -1    1    3    3    0  502 -0.52220805593E+03  0.69733915132E+03 -0.14119746114E+04  0.16591128500E+04  0.50400001928E-02 0. -1.
</event>
<event>
 5   0  0.1879500E-08  0.4103169E+04  0.7818609E-02  0.7984051E-01
        1   -1    0    0  501    0  0.00000000000E+00  0.00000000000E+00  0.26689970985E+04  0.26689970985E+04  0.50400001928E-02 0.  1.
       -1   -1    0    0    0  501  0.00000000000E+00  0.00000000000E+00 -0.15769966791E+04  0.15769966791E+04  0.50400001928E-02 0. -1.
    10030    2    1    2    0    0  0.00000000000E+00  0.00000000000E+00  0.10920004194E+04  0.42459937776E+04  0.41031692925E+04 0.  0.
        4    1    3    3  502    0  0.19684530619E+04 -0.38908036176E+03  0.10355827319E+03  0.20092080314E+04  0.12699999809E+01 0. -1.
       -4    1    3    3    0  502 -0.19684530619E+04  0.38908036176E+03  0.98844214624E+03  0.22367857461E+04  0.12699999809E+01 0.  1.
</event>
<event>
 5   0  0.5951623E-08  0.4134652E+04  0.7818609E-02  0.7977921E-01
        2   -1    0    0  501    0  0.00000000000E+00  0.00000000000E+00  0.15936844884E+04  0.15936844884E+04  0.25500000920E-02 0. -1.
       -2   -1    0    0    0  501  0.00000000000E+00  0.00000000000E+00 -0.26817329381E+04  0.26817329381E+04  0.25500000920E-02 0.  1.
    10030    2    1    2    0    0  0.00000000000E+00  0.00000000000E+00 -0.10880484497E+04  0.42754174266E+04  0.41346517075E+04 0.  0.
        2    1    3    3  502    0  0.20671954867E+04  0.32207360317E+01 -0.52024944608E+03  0.21316582839E+04  0.25500000920E-02 0.  1.
       -2    1    3    3    0  502 -0.20671954867E+04 -0.32207360317E+01 -0.56779900362E+03  0.21437591427E+04  0.25500000920E-02 0. -1.
</event>
<event>
 5   0  0.5888700E-08  0.4011096E+04  0.7818609E-02  0.8002312E-01
       -2   -1    0    0    0  501  0.00000000000E+00  0.00000000000E+00  0.22128978308E+04  0.22128978308E+04  0.25500000920E-02 0. -1.
        2   -1    0    0  501    0  0.00000000000E+00  0.00000000000E+00 -0.18176271207E+04  0.18176271207E+04  0.25500000920E-02 0.  1.
    10030    2    1    2    0    0  0.00000000000E+00  0.00000000000E+00  0.39527071012E+03  0.40305249515E+04  0.40110961657E+04 0.  0.
        5    1    3    3  502    0 -0.19722446136E+04 -0.34537201455E+03  0.31295350370E+03  0.20265716444E+04  0.46999998093E+01 0.  1.
       -5    1    3    3    0  502  0.19722446136E+04  0.34537201455E+03  0.82317206416E+02  0.20039533071E+04  0.46999998093E+01 0. -1.
</event>
<event>
 5   0  0.1879500E-08  0.3977868E+04  0.7818609E-02  0.8009026E-01
        1   -1    0    0  501    0  0.00000000000E+00  0.00000000000E+00  0.25994680693E+04  0.25994680693E+04  0.50400001928E-02 0.  1.
       -1   -1    0    0    0  501  0.00000000000E+00  0.00000000000E+00 -0.15217952392E+04  0.15217952392E+04  0.50400001928E-02 0. -1.
    10030    2    1    2    0    0  0.00000000000E+00  0.00000000000E+00  0.10776728301E+04  0.41212633086E+04  0.39778678371E+04 0.  0.
        1    1    3    3  502    0 -0.73534930016E+03 -0.38616519845E+03  0.24111898667E+04  0.25502350337E+04  0.50400001928E-02 0.  1.
       -1    1    3    3    0  502  0.73534930016E+03  0.38616519845E+03 -0.13335170365E+04  0.15710282749E+04  0.50400001928E-02 0. -1.
</event>
<event>
 5   0  0.1879500E-08  0.3942821E+04  0.7818609E-02  0.8016182E-01
        1   -1    0    0  501    0  0.00000000000E+00  0.00000000000E+00  0.22512294857E+04  0.22512294857E+04  0.50400001928E-02 0.  1.
       -1   -1    0    0    0  501  0.00000000000E+00  0.00000000000E+00 -0.17263722797E+04  0.17263722798E+04  0.50400001928E-02 0. -1.
    10030    2    1    2    0    0  0.00000000000E+00  0.00000000000E+00  0.52485720591E+03  0.39776017654E+04  0.39428214159E+04 0.  0.
        2    1    3    3  502    0 -0.48021583062E+03  0.45035631988E+03  0.21370540240E+04  0.22361636703E+04  0.25500000920E-02 0.  1.
       -2    1    3    3    0  502  0.48021583062E+03 -0.45035631988E+03 -0.16121968181E+04  0.17414380951E+04  0.25500000920E-02 0. -1.
</event>
<event>
 5   0  0.5846812E-08  0.3996479E+04  0.7818609E-02  0.8005257E-01
       -2   -1    0    0    0  501  0.00000000000E+00  0.00000000000E+00  0.16457707209E+04  0.16457707209E+04  0.25500000920E-02 0.  1.
        2   -1    0    0  501    0  0.00000000000E+00  0.00000000000E+00 -0.24261956786E+04  0.24261956786E+04  0.25500000920E-02 0. -1.
    10030    2    1    2    0    0  0.00000000000E+00  0.00000000000E+00 -0.78042495775E+03  0.40719663995E+04  0.39964793561E+04 0.  0.
        4    1    3    3  502    0  0.93738151573E+03  0.12346111608E+04  0.89456148561E+03  0.17897459845E+04  0.12699999809E+01 0.  1.
       -4    1    3    3    0  502 -0.93738151573E+03 -0.12346111608E+04 -0.16749864434E+04  0.22822204150E+04  0.12699999809E+01 0. -1.
</event>
<event>
 5   0  0.5846812E-08  0.4011657E+04  0.7818609E-02  0.8002199E-01
        2   -1    0    0  501    0  0.00000000000E+00  0.00000000000E+00  0.17274183508E+04  0.17274183508E+04  0.25500000920E-02 0.  1.
       -2   -1    0    0    0  501  0.00000000000E+00  0.00000000000E+00 -0.23291107346E+04  0.23291107346E+04  0.25500000920E-02 0. -1.
    10030    2    1    2    0    0  0.00000000000E+00  0.00000000000E+00 -0.60169238378E+03  0.40565290854E+04  0.40116573254E+04 0.  0.
        4    1    3    3  502    0 -0.18247508765E+04  0.34992981817E+03 -0.10650644393E+04  0.21416186662E+04  0.12699999809E+01 0. -1.
       -4    1    3    3    0  502  0.18247508765E+04 -0.34992981817E+03  0.46337205547E+03  0.19149104192E+04  0.12699999809E+01 0.  1.
</event>
<event>
 5   0  0.5846812E-08  0.3984333E+04  0.7818609E-02  0.8007715E-01
        2   -1    0    0  501    0  0.00000000000E+00  0.00000000000E+00  0.11106520086E+04  0.11106520086E+04  0.25500000920E-02 0.  1.
       -2   -1    0    0    0  501  0.00000000000E+00  0.00000000000E+00 -0.35733305693E+04  0.35733305693E+04  0.25500000920E-02 0. -1.
    10030    2    1    2    0    0  0.00000000000E+00  0.00000000000E+00 -0.24626785606E+04  0.46839825779E+04  0.39843327041E+04 0.  0.
        4    1    3    3  502    0 -0.75766911077E+03 -0.18329093199E+04 -0.14516070719E+04  0.24578005942E+04  0.12699999809E+01 0.  1.
       -4    1    3    3    0  502  0.75766911077E+03  0.18329093199E+04 -0.10110714888E+04  0.22261819838E+04  0.12699999809E+01 0. -1.
</event>
<event>
 5   0  0.5945387E-08  0.3999502E+04  0.7818609E-02  0.8004647E-01
       -2   -1    0    0    0  501  0.00000000000E+00  0.00000000000E+00  0.28924474641E+04  0.28924474641E+04  0.25500000920E-02 0. -1.
        2   -1    0    0  501    0  0.00000000000E+00  0.00000000000E+00 -0.13825675706E+04  0.13825675706E+04  0.25500000920E-02 0.  1.
    10030    2    1    2    0    0  0.00000000000E+00  0.00000000000E+00  0.15098798935E+04  0.42750150347E+04  0.39995020007E+04 0.  0.
        3    1    3    3  502    0  0.64120662209E+03  0.18336020245E+04  0.24706487489E+03  0.19581326255E+04  0.10100000352E+00 0.  1.
       -3    1    3    3    0  502 -0.64120662209E+03 -0.18336020245E+04  0.12628150186E+04  0.23168824092E+04  0.10100000352E+00 0. -1.
</event>
<event>
 5   0  0.1879500E-08  0.4011656E+04  0.7818609E-02  0.8002199E-01
       -1   -1    0    0    0  501  0.00000000000E+00  0.00000000000E+00  0.21191061403E+04  0.21191061403E+04  0.50400001928E-02 0.  1.
        1   -1    0    0  501    0  0.00000000000E+00  0.00000000000E+00 -0.18986051936E+04  0.18986051936E+04  0.50400001928E-02 0. -1.
    10030    2    1    2    0    0  0.00000000000E+00  0.00000000000E+00  0.22050094666E+03  0.40177113339E+04  0.40116559791E+04 0.  0.
        2    1    3    3  502    0 -0.16758113513E+04  0.73917943201E+03 -0.70867321109E+03  0.19639113111E+04  0.25500000920E-02 0. -1.
       -2    1    3    3    0  502  0.16758113513E+04 -0.73917943201E+03  0.92917415775E+03  0.20538000227E+04  0.25500000920E-02 0.  1.
</event>
<event>
 5   0  0.1879500E-08  0.3837684E+04  0.7818609E-02  0.8038116E-01
       -1   -1    0    0    0  501  0.00000000000E+00  0.00000000000E+00  0.22567625856E+04  0.22567625856E+04  0.50400001928E-02 0. -1.
        1   -1    0    0  501    0  0.00000000000E+00  0.00000000000E+00 -0.16315209125E+04  0.16315209125E+04  0.50400001928E-02 0.  1.
    10030    2    1    2    0    0  0.00000000000E+00  0.00000000000E+00  0.62524167313E+03  0.38882834981E+04  0.38376843815E+04 0.  0.
        1    1    3    3  502    0  0.54717384270E+03  0.12367656879E+04  0.16918057036E+04  0.21659166927E+04  0.50400001928E-02 0. -1.
       -1    1    3    3    0  502 -0.54717384270E+03 -0.12367656879E+04 -0.10665640305E+04  0.17223668054E+04  0.50400001928E-02 0.  1.
</event>
<event>
 5   0  0.1879500E-08  0.3994614E+04  0.7818609E-02  0.8005634E-01
        3   -1    0    0  501    0  0.00000000000E+00  0.00000000000E+00  0.20270130502E+04  0.20270130527E+04  0.10100000352E+00 0.  1.
       -3   -1    0    0    0  501  0.00000000000E+00  0.00000000000E+00 -0.19680365697E+04  0.19680365723E+04  0.10100000352E+00 0. -1.
    10030    2    1    2    0    0  0.00000000000E+00  0.00000000000E+00  0.58976480499E+02  0.39950496249E+04  0.39946142843E+04 0.  0.
        5    1    3    3  502    0  0.13695778936E+04  0.97459831604E+03  0.11083218180E+04  0.20134509744E+04  0.46999998093E+01 0.  1.
       -5    1    3    3    0  502 -0.13695778936E+04 -0.97459831604E+03 -0.10493453375E+04  0.19815986505E+04  0.46999998093E+01 0. -1.
</event>
<event>
 5   0  0.6161563E-08  0.3989376E+04  0.7818609E-02  0.8006693E-01
       -2   -1    0    0    0  501  0.00000000000E+00  0.00000000000E+00  0.18563266991E+04  0.18563266991E+04  0.25500000920E-02 0. -1.
        2   -1    0    0  501    0  0.00000000000E+00  0.00000000000E+00 -0.21433616826E+04  0.21433616826E+04  0.25500000920E-02 0.  1.
    10030    2    1    2    0    0  0.00000000000E+00  0.00000000000E+00 -0.28703498350E+03  0.39996883818E+04  0.39893756491E+04 0.  0.
        1    1    3    3  502    0  0.74594987903E+02  0.18339531590E+04 -0.92645291480E+03  0.20560310321E+04  0.50400001928E-02 0.  1.
       -1    1    3    3    0  502 -0.74594987903E+02 -0.18339531590E+04  0.63941793130E+03  0.19436573496E+04  0.50400001928E-02 0. -1.
</event>
<event>
 5   0  0.5888700E-08  0.3978927E+04  0.7818609E-02  0.8008811E-01
       -2   -1    0    0    0  501  0.00000000000E+00  0.00000000000E+00  0.16768607512E+04  0.16768607512E+04  0.25500000920E-02 0. -1.
        2   -1    0    0  501    0  0.00000000000E+00  0.00000000000E+00 -0.23603424369E+04  0.23603424369E+04  0.25500000920E-02 0.  1.
    10030    2    1    2    0    0  0.00000000000E+00  0.00000000000E+00 -0.68348168574E+03  0.40372031881E+04  0.39789272885E+04 0.  0.
        5    1    3    3  502    0 -0.44362953831E+03  0.14563791744E+04  0.95767825076E+03  0.17986153533E+04  0.46999998093E+01 0. -1.
       -5    1    3    3    0  502  0.44362953831E+03 -0.14563791744E+04 -0.16411599365E+04  0.22385878348E+04  0.46999998093E+01 0.  1.
</event>
<event>
 5   0  0.5846812E-08  0.4012704E+04  0.7818609E-02  0.8001989E-01
       -2   -1    0    0    0  501  0.00000000000E+00  0.00000000000E+00  0.14691482027E+04  0.14691482027E+04  0.25500000920E-02 0.  1.
        2   -1    0    0  501    0  0.00000000000E+00  0.00000000000E+00 -0.27399879696E+04  0.27399879696E+04  0.25500000920E-02 0. -1.
    10030    2    1    2    0    0  0.00000000000E+00  0.00000000000E+00 -0.12708397670E+04  0.42091361723E+04  0.40127040264E+04 0.  0.
        4    1    3    3  502    0  0.13021633269E+04  0.95811977522E+03 -0.18817873996E+04  0.24808765112E+04  0.12699999809E+01 0.  1.
       -4    1    3    3    0  502 -0.13021633269E+04 -0.95811977522E+03  0.61094763264E+03  0.17282596611E+04  0.12699999809E+01 0. -1.
</event>
<event>
 5   0  0.1879500E-08  0.3990122E+04  0.7818609E-02  0.8006542E-01
        3   -1    0    0  501    0  0.00000000000E+00  0.00000000000E+00  0.28807696818E+04  0.28807696836E+04  0.10100000352E+00 0.  1.
       -3   -1    0    0    0  501  0.00000000000E+00  0.00000000000E+00 -0.13816680502E+04  0.13816680539E+04  0.10100000352E+00 0. -1.
    10030    2    1    2    0    0  0.00000000000E+00  0.00000000000E+00  0.14991016316E+04  0.42624377375E+04  0.39901215225E+04 0.  0.
        1    1    3    3  502    0  0.68906093433E+03  0.14687768796E+04 -0.49079319121E+03  0.16949892182E+04  0.50400001928E-02 0.  1.
       -1    1    3    3    0  502 -0.68906093433E+03 -0.14687768796E+04  0.19898948228E+04  0.25674485193E+04  0.50400001928E-02 0. -1.
</event>
<event>
 5   0  0.1879500E-08  0.3999949E+04  0.7818609E-02  0.8004557E-01
        1   -1    0    0  501    0  0.00000000000E+00  0.00000000000E+00  0.19089714854E+04  0.19089714854E+04  0.50400001928E-02 0.  1.
       -1   -1    0    0    0  501  0.00000000000E+00  0.00000000000E+00 -0.20953155260E+04  0.20953155260E+04  0.50400001928E-02 0. -1.
    10030    2    1    2    0    0  0.00000000000E+00  0.00000000000E+00 -0.18634404059E+03  0.40042870114E+04  0.39999487957E+04 0.  0.
        3    1    3    3  502    0  0.10897355709E+04 -0.13760919089E+04  0.86637943162E+03  0.19574896899E+04  0.10100000352E+00 0.  1.
       -3    1    3    3    0  502 -0.10897355709E+04  0.13760919089E+04 -0.10527234722E+04  0.20467973215E+04  0.10100000352E+00 0. -1.
</event>
<event>
 5   0  0.1879500E-08  0.3998491E+04  0.7818609E-02  0.8004851E-01
       -1   -1    0    0    0  501  0.00000000000E+00  0.00000000000E+00  0.29966910242E+04  0.29966910242E+04  0.50400001928E-02 0. -1.
        1   -1    0    0  501    0  0.00000000000E+00  0.00000000000E+00 -0.13337984747E+04  0.13337984747E+04  0.50400001928E-02 0.  1.
    10030    2    1    2    0    0  0.00000000000E+00  0.00000000000E+00  0.16628925495E+04  0.43304894989E+04  0.39984906738E+04 0.  0.
        2    1    3    3  502    0 -0.67784162295E+03 -0.14897462390E+04 -0.41199825348E+03  0.16877664777E+04  0.25500000920E-02 0.  1.
       -2    1    3    3    0  502  0.67784162295E+03  0.14897462390E+04  0.20748908030E+04  0.26427230212E+04  0.25500000920E-02 0. -1.
</event>
<event>
 5   0  0.1879500E-08  0.4008092E+04  0.7818609E-02  0.8002916E-01
        1   -1    0    0  501    0  0.00000000000E+00  0.00000000000E+00  0.19296291558E+04  0.19296291559E+04  0.50400001928E-02 0. -1.
       -1   -1    0    0    0  501  0.00000000000E+00  0.00000000000E+00 -0.20813330009E+04  0.20813330009E+04  0.50400001928E-02 0.  1.
    10030    2    1    2    0    0  0.00000000000E+00  0.00000000000E+00 -0.15170384509E+03  0.40109621568E+04  0.40080922353E+04 0.  0.
        2    1    3    3  502    0  0.18030882368E+04 -0.34021178572E+03 -0.88223880672E+03  0.20359804913E+04  0.25500000920E-02 0.  1.
       -2    1    3    3    0  502 -0.18030882368E+04  0.34021178572E+03  0.73053496163E+03  0.19749816655E+04  0.25500000920E-02 0. -1.
</event>
<event>
 5   0  0.1879500E-08  0.3984555E+04  0.7818609E-02  0.8007669E-01
       -1   -1    0    0    0  501  0.00000000000E+00  0.00000000000E+00  0.28322030803E+04  0.28322030803E+04  0.50400001928E-02 0.  1.
        1   -1    0    0  501    0  0.00000000000E+00  0.00000000000E+00 -0.14014426710E+04  0.14014426710E+04  0.50400001928E-02 0. -1.
    10030    2    1    2    0    0  0.00000000000E+00  0.00000000000E+00  0.14307604093E+04  0.42336457513E+04  0.39845553075E+04 0.  0.
        5    1    3    3  502    0  0.16398320877E+04 -0.10007369624E+04  0.15453341023E+03  0.19272847243E+04  0.46999998093E+01 0. -1.
       -5    1    3    3    0  502 -0.16398320877E+04  0.10007369624E+04  0.12762269990E+04  0.23063610270E+04  0.46999998093E+01 0.  1.
</event>
<event>
 5   0  0.6161563E-08  0.4008775E+04  0.7818609E-02  0.8002779E-01
       -2   -1    0    0    0  501  0.00000000000E+00  0.00000000000E+00  0.14852921870E+04  0.14852921870E+04  0.25500000920E-02 0.  1.
        2   -1    0    0  501    0  0.00000000000E+00  0.00000000000E+00 -0.27049014184E+04  0.27049014184E+04  0.25500000920E-02 0. -1.
    10030    2    1    2    0    0  0.00000000000E+00  0.00000000000E+00 -0.12196092314E+04  0.41901936054E+04  0.40087748469E+04 0.  0.
        1    1    3    3  502    0  0.26211070209E+03  0.19677296653E+03  0.14570931001E+04  0.14934998905E+04  0.50400001928E-02 0.  1.
       -1    1    3    3    0  502 -0.26211070209E+03 -0.19677296653E+03 -0.26767023315E+04  0.26966937149E+04  0.50400001928E-02 0. -1.
</event>
<event>
 5   0  0.1879500E-08  0.4196408E+04  0.7818609E-02  0.7966056E-01
        1   -1    0    0  501    0  0.00000000000E+00  0.00000000000E+00  0.22420635988E+04  0.22420635989E+04  0.50400001928E-02 0. -1.
       -1   -1    0    0    0  501  0.00000000000E+00  0.00000000000E+00 -0.19635751093E+04  0.19635751093E+04  0.50400001928E-02 0.  1.
    10030    2    1    2    0    0  0.00000000000E+00  0.00000000000E+00  0.27848848957E+03  0.42056387081E+04  0.41964081194E+04 0.  0.
        4    1    3    3  502    0 -0.94294196850E+03 -0.69130038960E+02 -0.17379856756E+04  0.19785131639E+04  0.12699999809E+01 0.  1.
       -4    1    3    3    0  502  0.94294196850E+03  0.69130038960E+02  0.20164741652E+04  0.22271255443E+04  0.12699999809E+01 0. -1.
</event>
<event>
 5   0  0.1879500E-08  0.3976710E+04  0.7818609E-02  0.8009261E-01
       -1   -1    0    0    0  501  0.00000000000E+00  0.00000000000E+00  0.14935672545E+04  0.14935672545E+04  0.50400001928E-02 0. -1.
        1   -1    0    0  501    0  0.00000000000E+00  0.00000000000E+00 -0.26470555094E+04  0.26470555094E+04  0.50400001928E-02 0.  1.
    10030    2    1    2    0    0  0.00000000000E+00  0.00000000000E+00 -0.11534882549E+04  0.41406227639E+04  0.39767099113E+04 0.  0.
        1    1    3    3  502    0  0.44868703485E+03  0.10285667002E+04  0.11323406040E+04  0.15941972135E+04  0.50400001928E-02 0.  1.
       -1    1    3    3    0  502 -0.44868703485E+03 -0.10285667002E+04 -0.22858288588E+04  0.25464255504E+04  0.50400001928E-02 0. -1.
</event>
<event>
 5   0  0.5846812E-08  0.3999187E+04  0.7818609E-02  0.8004711E-01
        2   -1    0    0  501    0  0.00000000000E+00  0.00000000000E+00  0.17932764606E+04  0.17932764606E+04  0.25500000920E-02 0. -1.
       -2   -1    0    0    0  501  0.00000000000E+00  0.00000000000E+00 -0.22296476748E+04  0.22296476748E+04  0.25500000920E-02 0.  1.
    10030    2    1    2    0    0  0.00000000000E+00  0.00000000000E+00 -0.43637121413E+03  0.40229241354E+04  0.39991872628E+04 0.  0.
        4    1    3    3  502    0 -0.14685240654E+04 -0.68928568075E+02  0.11452406530E+04  0.18635696510E+04  0.12699999809E+01 0. -1.
       -4    1    3    3    0  502  0.14685240654E+04  0.68928568075E+02 -0.15816118671E+04  0.21593544844E+04  0.12699999809E+01 0.  1.
</event>
<event>
 5   0  0.1879500E-08  0.3990746E+04  0.7818609E-02  0.8006416E-01
       -1   -1    0    0    0  501  0.00000000000E+00  0.00000000000E+00  0.13169902878E+04  0.13169902878E+04  0.50400001928E-02 0.  1.
        1   -1    0    0  501    0  0.00000000000E+00  0.00000000000E+00 -0.30231918644E+04  0.30231918644E+04  0.50400001928E-02 0. -1.
    10030    2    1    2    0    0  0.00000000000E+00  0.00000000000E+00 -0.17062015767E+04  0.43401821522E+04  0.39907464583E+04 0.  0.
        5    1    3    3  502    0 -0.14362708956E+03 -0.33997381295E+03  0.12795408181E+04  0.13317123298E+04  0.46999998093E+01 0.  1.
       -5    1    3    3    0  502  0.14362708956E+03  0.33997381295E+03 -0.29857423947E+04  0.30084698224E+04  0.46999998093E+01 0. -1.
</event>
<event>
 5   0  0.1879500E-08  0.3998050E+04  0.7818609E-02  0.8004940E-01
       -3   -1    0    0    0  501  0.00000000000E+00  0.00000000000E+00  0.19179623189E+04  0.19179623215E+04  0.10100000352E+00 0.  1.
        3   -1    0    0  501    0  0.00000000000E+00  0.00000000000E+00 -0.20835135769E+04  0.20835135794E+04  0.10100000352E+00 0. -1.
    10030    2    1    2    0    0  0.00000000000E+00  0.00000000000E+00 -0.16555125808E+03  0.40014759009E+04  0.39980497954E+04 0.  0.
        3    1    3    3  502    0 -0.60009929487E+03 -0.15321805185E+04  0.10532760219E+04  0.19537365978E+04  0.10100000352E+00 0.  1.
       -3    1    3    3    0  502  0.60009929487E+03  0.15321805185E+04 -0.12188272800E+04  0.20477393031E+04  0.10100000352E+00 0. -1.
</event>
<event>
 5   0  0.1879500E-08  0.4025282E+04  0.7818609E-02  0.7999466E-01
       -1   -1    0    0    0  501  0.00000000000E+00  0.00000000000E+00  0.18761811775E+04  0.18761811775E+04  0.50400001928E-02 0. -1.
        1   -1    0    0  501    0  0.00000000000E+00  0.00000000000E+00 -0.21590259930E+04  0.21590259930E+04  0.50400001928E-02 0.  1.
    10030    2    1    2    0    0  0.00000000000E+00  0.00000000000E+00 -0.28284481546E+03  0.40352071705E+04  0.40252820670E+04 0.  0.
        4    1    3    3  502    0  0.52440703011E+02  0.19838692227E+04  0.19441885490E+03  0.19940630442E+04  0.12699999809E+01 0. -1.
       -4    1    3    3    0  502 -0.52440703011E+02 -0.19838692227E+04 -0.47726367036E+03  0.20411441263E+04  0.12699999809E+01 0.  1.
</event>
<event>
 5   0  0.6161563E-08  0.3923806E+04  0.7818609E-02  0.8020096E-01
       -2   -1    0    0    0  501  0.00000000000E+00  0.00000000000E+00  0.32744601571E+04  0.32744601571E+04  0.25500000920E-02 0.  1.
        2   -1    0    0  501    0  0.00000000000E+00  0.00000000000E+00 -0.11754804488E+04  0.11754804488E+04  0.25500000920E-02 0. -1.
    10030    2    1    2    0    0  0.00000000000E+00  0.00000000000E+00  0.20989797083E+04  0.44499406058E+04  0.39238062617E+04 0.  0.
        1    1    3    3  502    0 -0.10240018790E+04 -0.16302027845E+04  0.62074629252E+03  0.20227374833E+04  0.50400001928E-02 0. -1.
       -1    1    3    3    0  502  0.10240018790E+04  0.16302027845E+04  0.14782334158E+04  0.24272031226E+04  0.50400001928E-02 0.  1.
</event>
<event>
 5   0  0.1879500E-08  0.4006008E+04  0.7818609E-02  0.8003336E-01
        1   -1    0    0  501    0  0.00000000000E+00  0.00000000000E+00  0.26508468771E+04  0.26508468771E+04  0.50400001928E-02 0. -1.
       -1   -1    0    0    0  501  0.00000000000E+00  0.00000000000E+00 -0.15134879312E+04  0.15134879312E+04  0.50400001928E-02 0.  1.
    10030    2    1    2    0    0  0.00000000000E+00  0.00000000000E+00  0.11373589459E+04  0.41643348083E+04  0.40060078661E+04 0.  0.
        4    1    3    3  502    0 -0.40597285670E+03 -0.12265174916E+04 -0.10224568251E+04  0.16475978543E+04  0.12699999809E+01 0.  1.
       -4    1    3    3    0  502  0.40597285670E+03  0.12265174916E+04  0.21598157710E+04  0.25167369539E+04  0.12699999809E+01 0. -1.
</event>
<event>
 5   0  0.6161563E-08  0.3994534E+04  0.7818609E-02  0.8005650E-01
        2   -1    0    0  501    0  0.00000000000E+00  0.00000000000E+00  0.17794847545E+04  0.17794847545E+04  0.25500000920E-02 0.  1.
       -2   -1    0    0    0  501  0.00000000000E+00  0.00000000000E+00 -0.22417027608E+04  0.22417027608E+04  0.25500000920E-02 0. -1.
    10030    2    1    2    0    0  0.00000000000E+00  0.00000000000E+00 -0.46221800626E+03  0.40211875153E+04  0.39945342091E+04 0.  0.
        1    1    3    3  502    0 -0.57684065999E+03 -0.64063014578E+03  0.15825571071E+04  0.18021207306E+04  0.50400001928E-02 0.  1.
       -1    1    3    3    0  502  0.57684065999E+03  0.64063014578E+03 -0.20447751133E+04  0.22190667846E+04  0.50400001928E-02 0. -1.
</event>
<event>
 5   0  0.5945387E-08  0.4003934E+04  0.7818609E-02  0.8003753E-01
       -2   -1    0    0    0  501  0.00000000000E+00  0.00000000000E+00  0.15161923729E+04  0.15161923729E+04  0.25500000920E-02 0. -1.
        2   -1    0    0  501    0  0.00000000000E+00  0.00000000000E+00 -0.26433801773E+04  0.26433801773E+04  0.25500000920E-02 0.  1.
    10030    2    1    2    0    0  0.00000000000E+00  0.00000000000E+00 -0.11271878044E+04  0.41595725503E+04  0.40039344968E+04 0.  0.
        3    1    3    3  502    0 -0.19827976020E+04  0.22675132913E+03 -0.39943134075E+03  0.20353004452E+04  0.10100000352E+00 0. -1.
       -3    1    3    3    0  502  0.19827976020E+04 -0.22675132913E+03 -0.72775646365E+03  0.21242721051E+04  0.10100000352E+00 0.  1.
</event>
<event>
 5   0  0.5945387E-08  0.3905763E+04  0.7818609E-02  0.8023832E-01
       -2   -1    0    0    0  501  0.00000000000E+00  0.00000000000E+00  0.11729850953E+04  0.11729850953E+04  0.25500000920E-02 0.  1.
        2   -1    0    0  501    0  0.00000000000E+00  0.00000000000E+00 -0.32513164842E+04  0.32513164842E+04  0.25500000920E-02 0. -1.
    10030    2    1    2    0    0  0.00000000000E+00  0.00000000000E+00 -0.20783313890E+04  0.44243015795E+04  0.39057628070E+04 0.  0.
        3    1    3    3  502    0 -0.12960255372E+04  0.15176724583E+03  0.60666852658E+03  0.14390143159E+04  0.10100000352E+00 0.  1.
       -3    1    3    3    0  502  0.12960255372E+04 -0.15176724583E+03 -0.26849999155E+04  0.29852872637E+04  0.10100000352E+00 0. -1.
</event>
<event>
 5   0  0.1879500E-08  0.4003655E+04  0.7818609E-02  0.8003810E-01
       -1   -1    0    0    0  501  0.00000000000E+00  0.00000000000E+00  0.21581957989E+04  0.21581957989E+04  0.50400001928E-02 0.  1.
        1   -1    0    0  501    0  0.00000000000E+00  0.00000000000E+00 -0.18567885601E+04  0.18567885601E+04  0.50400001928E-02 0. -1.
    10030    2    1    2    0    0  0.00000000000E+00  0.00000000000E+00  0.30140723881E+03  0.40149843590E+04  0.40036549651E+04 0.  0.
        1    1    3    3  502    0  0.10524447666E+04  0.24221188600E+03  0.18410018727E+04  0.21343838642E+04  0.50400001928E-02 0.  1.
       -1    1    3    3    0  502 -0.10524447666E+04 -0.24221188600E+03 -0.15395946339E+04  0.18806004948E+04  0.50400001928E-02 0. -1.
</event>
<event>
 5   0  0.1879500E-08  0.3737040E+04  0.7818609E-02  0.8059803E-01
       -1   -1    0    0    0  501  0.00000000000E+00  0.00000000000E+00  0.14440664974E+04  0.14440664974E+04  0.50400001928E-02 0.  1.
        1   -1    0    0  501    0  0.00000000000E+00  0.00000000000E+00 -0.24177328960E+04  0.24177328960E+04  0.50400001928E-02 0. -1.
    10030    2    1    2    0    0  0.00000000000E+00  0.00000000000E+00 -0.97366639864E+03  0.38617993934E+04  0.37370400451E+04 0.  0.
        5    1    3    3  502    0  0.10680700641E+03  0.62965782551E+03  0.13277701171E+04  0.14733880302E+04  0.46999998093E+01 0.  1.
       -5    1    3    3    0  502 -0.10680700641E+03 -0.62965782551E+03 -0.23014365157E+04  0.23884113631E+04  0.46999998093E+01 0. -1.
</event>
<event>
 5   0  0.5945387E-08  0.3994260E+04  0.7818609E-02  0.8005705E-01
        2   -1    0    0  501    0  0.00000000000E+00  0.00000000000E+00  0.17751833100E+04  0.17751833100E+04  0.25500000920E-02 0.  1.
       -2   -1    0    0    0  501  0.00000000000E+00  0.00000000000E+00 -0.22468262106E+04  0.22468262106E+04  0.25500000920E-02 0. -1.
    10030    2    1    2    0    0  0.00000000000E+00  0.00000000000E+00 -0.47164290055E+03  0.40220095206E+04  0.39942600764E+04 0.  0.
        3    1    3    3  502    0 -0.16357511506E+04 -0.64795948751E+03 -0.11873707235E+04  0.21225886481E+04  0.10100000352E+00 0. -1.
       -3    1    3    3    0  502  0.16357511506E+04  0.64795948751E+03  0.71572782292E+03  0.18994208725E+04  0.10100000352E+00 0.  1.
</event>
<event>
 5   0  0.1879500E-08  0.4013734E+04  0.7818609E-02  0.8001782E-01
       -1   -1    0    0    0  501  0.00000000000E+00  0.00000000000E+00  0.21177013582E+04  0.21177013582E+04  0.50400001928E-02 0. -1.
        1   -1    0    0  501    0  0.00000000000E+00  0.00000000000E+00 -0.19018335586E+04  0.19018335586E+04  0.50400001928E-02 0.  1.
    10030    2    1    2    0    0  0.00000000000E+00  0.00000000000E+00  0.21586779959E+03  0.40195349168E+04  0.40137341766E+04 0.  0.
        5    1    3    3  502    0 -0.92899754261E+03  0.48870197270E+03  0.18208524166E+04  0.21017591835E+04  0.46999998093E+01 0. -1.
       -5    1    3    3    0  502  0.92899754261E+03 -0.48870197270E+03 -0.16049846170E+04  0.19177757333E+04  0.46999998093E+01 0.  1.
</event>
<event>
 5   0  0.5951623E-08  0.4002342E+04  0.7818609E-02  0.8004074E-01
       -2   -1    0    0    0  501  0.00000000000E+00  0.00000000000E+00  0.13378879504E+04  0.13378879504E+04  0.25500000920E-02 0. -1.
        2   -1    0    0  501    0  0.00000000000E+00  0.00000000000E+00 -0.29932886715E+04  0.29932886715E+04  0.25500000920E-02 0.  1.
    10030    2    1    2    0    0  0.00000000000E+00  0.00000000000E+00 -0.16554007211E+04  0.43311766219E+04  0.40023417374E+04 0.  0.
        2    1    3    3  502    0  0.10241026722E+04  0.12784323126E+03 -0.26830787648E+04  0.28747246534E+04  0.25500000920E-02 0.  1.
       -2    1    3    3    0  502 -0.10241026722E+04 -0.12784323126E+03  0.10276780437E+04  0.14564519685E+04  0.25500000920E-02 0. -1.
</event>
<event>
 5   0  0.1879500E-08  0.3993328E+04  0.7818609E-02  0.8005894E-01
        1   -1    0    0  501    0  0.00000000000E+00  0.00000000000E+00  0.20939896128E+04  0.20939896128E+04  0.50400001928E-02 0. -1.
       -1   -1    0    0    0  501  0.00000000000E+00  0.00000000000E+00 -0.19038622050E+04  0.19038622050E+04  0.50400001928E-02 0.  1.
    10030    2    1    2    0    0  0.00000000000E+00  0.00000000000E+00  0.19012740780E+03  0.39978518178E+04  0.39933282767E+04 0.  0.
        3    1    3    3  502    0  0.60403335416E+03  0.14537999928E+04  0.13245741635E+04  0.20573982203E+04  0.10100000352E+00 0.  1.
       -3    1    3    3    0  502 -0.60403335416E+03 -0.14537999928E+04 -0.11344467557E+04  0.19404535975E+04  0.10100000352E+00 0. -1.
</event>
<event>
 5   0  0.1879500E-08  0.4000547E+04  0.7818609E-02  0.8004436E-01
        1   -1    0    0  501    0  0.00000000000E+00  0.00000000000E+00  0.16921094288E+04  0.16921094288E+04  0.50400001928E-02 0.  1.
       -1   -1    0    0    0  501  0.00000000000E+00  0.00000000000E+00 -0.23645602228E+04  0.23645602228E+04  0.50400001928E-02 0. -1.
    10030    2    1    2    0    0  0.00000000000E+00  0.00000000000E+00 -0.67245079402E+03  0.40566696515E+04  0.40005472865E+04 0.  0.
        3    1    3    3  502    0  0.12076099287E+04  0.15143903146E+04 -0.84262574481E+03  0.21122778986E+04  0.10100000352E+00 0. -1.
       -3    1    3    3    0  502 -0.12076099287E+04 -0.15143903146E+04  0.17017495079E+03  0.19443917529E+04  0.10100000352E+00 0.  1.
</event>
<event>
 5   0  0.1879500E-08  0.3992330E+04  0.7818609E-02  0.8006096E-01
        1   -1    0    0  501    0  0.00000000000E+00  0.00000000000E+00  0.13485249978E+04  0.13485249978E+04  0.50400001928E-02 0.  1.
       -1   -1    0    0    0  501  0.00000000000E+00  0.00000000000E+00 -0.29548390904E+04  0.29548390904E+04  0.50400001928E-02 0. -1.
    10030    2    1    2    0    0  0.00000000000E+00  0.00000000000E+00 -0.16063140926E+04  0.43033640882E+04  0.39923298350E+04 0.  0.
        4    1    3    3  502    0 -0.18577289332E+04  0.59883541787E+03 -0.35234903386E+03  0.19834092118E+04  0.12699999809E+01 0.  1.
       -4    1    3    3    0  502  0.18577289332E+04 -0.59883541787E+03 -0.12539650587E+04  0.23199548764E+04  0.12699999809E+01 0. -1.
</event>
<event>
 5   0  0.5846812E-08  0.3932485E+04  0.7818609E-02  0.8018307E-01
       -2   -1    0    0    0  501  0.00000000000E+00  0.00000000000E+00  0.19526625322E+04  0.19526625322E+04  0.25500000920E-02 0. -1.
        2   -1    0    0  501    0  0.00000000000E+00  0.00000000000E+00 -0.19799166003E+04  0.19799166003E+04  0.25500000920E-02 0.  1.
    10030    2    1    2    0    0  0.00000000000E+00  0.00000000000E+00 -0.27254068163E+02  0.39325791325E+04  0.39324846916E+04 0.  0.
        4    1    3    3  502    0  0.15945329042E+04 -0.80266310173E+03  0.81059183259E+03  0.19605774582E+04  0.12699999809E+01 0. -1.
       -4    1    3    3    0  502 -0.15945329042E+04  0.80266310173E+03 -0.83784590076E+03  0.19720016744E+04  0.12699999809E+01 0.  1.
</event>
<event>
 5   0  0.1879500E-08  0.4010497E+04  0.7818609E-02  0.8002432E-01
        1   -1    0    0  501    0  0.00000000000E+00  0.00000000000E+00  0.24546514954E+04  0.24546514954E+04  0.50400001928E-02 0.  1.
       -1   -1    0    0    0  501  0.00000000000E+00  0.00000000000E+00 -0.16381232678E+04  0.16381232678E+04  0.50400001928E-02 0. -1.
    10030    2    1    2    0    0  0.00000000000E+00  0.00000000000E+00  0.81652822755E+03  0.40927747632E+04  0.40104970909E+04 0.  0.
        5    1    3    3  502    0 -0.18697298510E+04 -0.60393785205E+03  0.81694078005E+03  0.21279203399E+04  0.46999998093E+01 0.  1.
       -5    1    3    3    0  502  0.18697298510E+04  0.60393785205E+03 -0.41255249440E+00  0.19648544234E+04  0.46999998093E+01 0. -1.
</event>
<event>
 5   0  0.1879500E-08  0.4009286E+04  0.7818609E-02  0.8002676E-01
        3   -1    0    0  501    0  0.00000000000E+00  0.00000000000E+00  0.24016085192E+04  0.24016085213E+04  0.10100000352E+00 0.  1.
       -3   -1    0    0    0  501  0.00000000000E+00  0.00000000000E+00 -0.16732921275E+04  0.16732921306E+04  0.10100000352E+00 0. -1.
    10030    2    1    2    0    0  0.00000000000E+00  0.00000000000E+00  0.72831639170E+03  0.40749006519E+04  0.40092855419E+04 0.  0.
        2    1    3    3  502    0  0.13375661579E+04 -0.86215109456E+03 -0.87489337265E+03  0.18159917814E+04  0.25500000920E-02 0. -1.
       -2    1    3    3    0  502 -0.13375661579E+04  0.86215109456E+03  0.16032097643E+04  0.22589088705E+04  0.25500000920E-02 0.  1.
</event>
<event>
 5   0  0.1879500E-08  0.4004690E+04  0.7818609E-02  0.8003601E-01
        1   -1    0    0  501    0  0.00000000000E+00  0.00000000000E+00  0.22065244161E+04  0.22065244161E+04  0.50400001928E-02 0.  1.
       -1   -1    0    0    0  501  0.00000000000E+00  0.00000000000E+00 -0.18170590103E+04  0.18170590103E+04  0.50400001928E-02 0. -1.
    10030    2    1    2    0    0  0.00000000000E+00  0.00000000000E+00  0.38946540581E+03  0.40235834263E+04  0.40046897865E+04 0.  0.
        4    1    3    3  502    0  0.10543429244E+04 -0.15493344577E+04 -0.51379445530E+03  0.19432093606E+04  0.12699999809E+01 0. -1.
       -4    1    3    3    0  502 -0.10543429244E+04  0.15493344577E+04  0.90325986111E+03  0.20803740658E+04  0.12699999809E+01 0.  1.
</event>
<event>
 5   0  0.5951623E-08  0.4003614E+04  0.7818609E-02  0.8003818E-01
        2   -1    0    0  501    0  0.00000000000E+00  0.00000000000E+00  0.15730318291E+04  0.15730318291E+04  0.25500000920E-02 0.  1.
       -2   -1    0    0    0  501  0.00000000000E+00  0.00000000000E+00 -0.25474566264E+04  0.25474566264E+04  0.25500000920E-02 0. -1.
    10030    2    1    2    0    0  0.00000000000E+00  0.00000000000E+00 -0.97442479729E+03  0.41204884555E+04  0.40036135460E+04 0.  0.
        2    1    3    3  502    0  0.13345566733E+03 -0.10938512229E+03 -0.25397880850E+04  0.25456431480E+04  0.25500000920E-02 0. -1.
       -2    1    3    3    0  502 -0.13345566733E+03  0.10938512229E+03  0.15653632877E+04  0.15748453075E+04  0.25500000920E-02 0.  1.
</event>
<event>
 5   0  0.5846812E-08  0.3990157E+04  0.7818609E-02  0.8006535E-01
       -2   -1    0    0    0  501  0.00000000000E+00  0.00000000000E+00  0.19858932505E+04  0.19858932505E+04  0.25500000920E-02 0.  1.
        2   -1    0    0  501    0  0.00000000000E+00  0.00000000000E+00 -0.20043067302E+04  0.20043067302E+04  0.25500000920E-02 0. -1.
    10030    2    1    2    0    0  0.00000000000E+00  0.00000000000E+00 -0.18413479733E+02  0.39901999808E+04  0.39901574944E+04 0.  0.
        4    1    3    3  502    0  0.63076295419E+03 -0.16983884654E+03  0.18759208774E+04  0.19864007374E+04  0.12699999809E+01 0.  1.
       -4    1    3    3    0  502 -0.63076295419E+03  0.16983884654E+03 -0.18943343572E+04  0.20037992434E+04  0.12699999809E+01 0. -1.
</event>
<event>
 5   0  0.5846812E-08  0.3997822E+04  0.7818609E-02  0.8004986E-01
       -2   -1    0    0    0  501  0.00000000000E+00  0.00000000000E+00  0.18043773058E+04  0.18043773058E+04  0.25500000920E-02 0. -1.
        2   -1    0    0  501    0  0.00000000000E+00  0.00000000000E+00 -0.22144179331E+04  0.22144179331E+04  0.25500000920E-02 0.  1.
    10030    2    1    2    0    0  0.00000000000E+00  0.00000000000E+00 -0.41004062732E+03  0.40187952389E+04  0.39978221391E+04 0.  0.
        4    1    3    3  502    0 -0.19789789904E+04  0.22728156116E+03 -0.37211235671E+03  0.20264461432E+04  0.12699999809E+01 0.  1.
       -4    1    3    3    0  502  0.19789789904E+04 -0.22728156116E+03 -0.37928270617E+02  0.19923490957E+04  0.12699999809E+01 0. -1.
</event>
<event>
 5   0  0.1879500E-08  0.3993573E+04  0.7818609E-02  0.8005844E-01
       -1   -1    0    0    0  501  0.00000000000E+00  0.00000000000E+00  0.32142276202E+04  0.32142276202E+04  0.50400001928E-02 0. -1.
        1   -1    0    0  501    0  0.00000000000E+00  0.00000000000E+00 -0.12404708519E+04  0.12404708519E+04  0.50400001928E-02 0.  1.
    10030    2    1    2    0    0  0.00000000000E+00  0.00000000000E+00  0.19737567682E+04  0.44546984721E+04  0.39935726734E+04 0.  0.
        4    1    3    3  502    0 -0.46088879689E+03  0.18124249116E+04  0.20616980787E+03  0.18814383184E+04  0.12699999809E+01 0.  1.
       -4    1    3    3    0  502  0.46088879689E+03 -0.18124249116E+04  0.17675869604E+04  0.25732601537E+04  0.12699999809E+01 0. -1.
</event>
<event>
 5   0  0.5951623E-08  0.3998936E+04  0.7818609E-02  0.8004761E-01
        2   -1    0    0  501    0  0.00000000000E+00  0.00000000000E+00  0.22274405807E+04  0.22274405807E+04  0.25500000920E-02 0. -1.
       -2   -1    0    0    0  501  0.00000000000E+00  0.00000000000E+00 -0.17948276736E+04  0.17948276736E+04  0.25500000920E-02 0.  1.
    10030    2    1    2    0    0  0.00000000000E+00  0.00000000000E+00  0.43261290703E+03  0.40222682543E+04  0.39989358562E+04 0.  0.
        2    1    3    3  502    0  0.26236192590E+02 -0.15095003491E+04 -0.11022934236E+04  0.18693128239E+04  0.25500000920E-02 0.  1.
       -2    1    3    3    0  502 -0.26236192590E+02  0.15095003491E+04  0.15349063307E+04  0.21529554305E+04  0.25500000920E-02 0. -1.
</event>
<event>
 5   0  0.5846812E-08  0.3988436E+04  0.7818609E-02  0.8006883E-01
       -2   -1    0    0    0  501  0.00000000000E+00  0.00000000000E+00  0.20974446025E+04  0.20974446025E+04  0.25500000920E-02 0.  1.
        2   -1    0    0  501    0  0.00000000000E+00  0.00000000000E+00 -0.18960721616E+04  0.18960721616E+04  0.25500000920E-02 0. -1.
    10030    2    1    2    0    0  0.00000000000E+00  0.00000000000E+00  0.20137244089E+03  0.39935167640E+04  0.39884364461E+04 0.  0.
        4    1    3    3  502    0  0.11670073143E+04 -0.15961243596E+04 -0.15923192324E+03  0.19836520514E+04  0.12699999809E+01 0. -1.
       -4    1    3    3    0  502 -0.11670073143E+04  0.15961243596E+04  0.36060436413E+03  0.20098647126E+04  0.12699999809E+01 0.  1.
</event>
<event>
 5   0  0.5888700E-08  0.3987731E+04  0.7818609E-02  0.8007026E-01
        2   -1    0    0  501    0  0.00000000000E+00  0.00000000000E+00  0.20495223349E+04  0.20495223349E+04  0.25500000920E-02 0. -1.
       -2   -1    0    0    0  501  0.00000000000E+00  0.00000000000E+00 -0.19397205244E+04  0.19397205244E+04  0.25500000920E-02 0.  1.
    10030    2    1    2    0    0  0.00000000000E+00  0.00000000000E+00  0.10980181052E+03  0.39892428593E+04  0.39877314544E+04 0.  0.
        5    1    3    3  502    0 -0.15951576551E+04 -0.49613418425E+03 -0.10339974632E+04  0.19646500750E+04  0.46999998093E+01 0.  1.
       -5    1    3    3    0  502  0.15951576551E+04  0.49613418425E+03  0.11437992737E+04  0.20245927842E+04  0.46999998093E+01 0. -1.
</event>
<event>
 5   0  0.1879500E-08  0.3948645E+04  0.7818609E-02  0.8014987E-01
       -4   -1    0    0    0  501  0.00000000000E+00  0.00000000000E+00  0.22871912461E+04  0.22871915986E+04  0.12699999809E+01 0.  1.
        4   -1    0    0  501    0  0.00000000000E+00  0.00000000000E+00 -0.17042504882E+04  0.17042509614E+04  0.12699999809E+01 0. -1.
    10030    2    1    2    0    0  0.00000000000E+00  0.00000000000E+00  0.58294075789E+03  0.39914425600E+04  0.39486445500E+04 0.  0.
        1    1    3    3  502    0 -0.14770785465E+04 -0.84410217994E+02 -0.10300102259E+04  0.18027221591E+04  0.50400001928E-02 0. -1.
       -1    1    3    3    0  502  0.14770785465E+04  0.84410217994E+02  0.16129509838E+04  0.21887204009E+04  0.50400001928E-02 0.  1.
</event>
<event>
 5   0  0.5945387E-08  0.4009270E+04  0.7818609E-02  0.8002679E-01
        2   -1    0    0  501    0  0.00000000000E+00  0.00000000000E+00  0.28032641438E+04  0.28032641438E+04  0.25500000920E-02 0. -1.
       -2   -1    0    0    0  501  0.00000000000E+00  0.00000000000E+00 -0.14335294410E+04  0.14335294410E+04  0.25500000920E-02 0.  1.
    10030    2    1    2    0    0  0.00000000000E+00  0.00000000000E+00  0.13697347028E+04  0.42367935848E+04  0.40092700987E+04 0.  0.
        3    1    3    3  502    0 -0.11782137485E+03  0.93640888493E+03  0.25537960873E+04  0.27226123378E+04  0.10100000352E+00 0. -1.
       -3    1    3    3    0  502  0.11782137485E+03 -0.93640888493E+03 -0.11840613845E+04  0.15141812470E+04  0.10100000352E+00 0.  1.
</event>
<event>
 5   0  0.1879500E-08  0.4005708E+04  0.7818609E-02  0.8003396E-01
        1   -1    0    0  501    0  0.00000000000E+00  0.00000000000E+00  0.12126524028E+04  0.12126524028E+04  0.50400001928E-02 0.  1.
       -1   -1    0    0    0  501  0.00000000000E+00  0.00000000000E+00 -0.33079750546E+04  0.33079750546E+04  0.50400001928E-02 0. -1.
    10030    2    1    2    0    0  0.00000000000E+00  0.00000000000E+00 -0.20953226518E+04  0.45206274574E+04  0.40057078767E+04 0.  0.
        2    1    3    3  502    0 -0.11493019178E+04 -0.14137924961E+04 -0.10905270066E+03  0.18252661756E+04  0.25500000920E-02 0.  1.
       -2    1    3    3    0  502  0.11493019178E+04  0.14137924961E+04 -0.19862699511E+04  0.26953612818E+04  0.25500000920E-02 0. -1.
</event>
<event>
 5   0  0.6161563E-08  0.4013028E+04  0.7818609E-02  0.8001924E-01
        2   -1    0    0  501    0  0.00000000000E+00  0.00000000000E+00  0.27420026195E+04  0.27420026195E+04  0.25500000920E-02 0.  1.
       -2   -1    0    0    0  501  0.00000000000E+00  0.00000000000E+00 -0.14683058889E+04  0.14683058889E+04  0.25500000920E-02 0. -1.
    10030    2    1    2    0    0  0.00000000000E+00  0.00000000000E+00  0.12736967306E+04  0.42103085083E+04  0.40130280804E+04 0.  0.
        1    1    3    3  502    0  0.11852678925E+04 -0.67393676465E+02  0.23339912793E+04  0.26185715908E+04  0.50400001928E-02 0.  1.
       -1    1    3    3    0  502 -0.11852678925E+04  0.67393676465E+02 -0.10602945487E+04  0.15917369175E+04  0.50400001928E-02 0. -1.
</event>
<event>
 5   0  0.1879500E-08  0.3997407E+04  0.7818609E-02  0.8005070E-01
       -1   -1    0    0    0  501  0.00000000000E+00  0.00000000000E+00  0.25633483579E+04  0.25633483579E+04  0.50400001928E-02 0.  1.
        1   -1    0    0  501    0  0.00000000000E+00  0.00000000000E+00 -0.15584368636E+04  0.15584368636E+04  0.50400001928E-02 0. -1.
    10030    2    1    2    0    0  0.00000000000E+00  0.00000000000E+00  0.10049114943E+04  0.41217852215E+04  0.39974074474E+04 0.  0.
        4    1    3    3  502    0 -0.45063352347E+03  0.19126998053E+04  0.12595932401E+03  0.19691009324E+04  0.12699999809E+01 0. -1.
       -4    1    3    3    0  502  0.45063352347E+03 -0.19126998053E+04  0.87895217028E+03  0.21526842891E+04  0.12699999809E+01 0.  1.
</event>
<event>
 5   0  0.5945387E-08  0.3969798E+04  0.7818609E-02  0.8010667E-01
        2   -1    0    0  501    0  0.00000000000E+00  0.00000000000E+00  0.25951186174E+04  0.25951186174E+04  0.25500000920E-02 0. -1.
       -2   -1    0    0    0  501  0.00000000000E+00  0.00000000000E+00 -0.15181675563E+04  0.15181675563E+04  0.25500000920E-02 0.  1.
    10030    2    1    2    0    0  0.00000000000E+00  0.00000000000E+00  0.10769510611E+04  0.41132861737E+04  0.39697984279E+04 0.  0.
        3    1    3    3  502    0 -0.12964176912E+04  0.57014524096E+03 -0.90249630610E+03  0.16793641709E+04  0.10100000352E+00 0.  1.
       -3    1    3    3    0  502  0.12964176912E+04 -0.57014524096E+03  0.19794473672E+04  0.24339220028E+04  0.10100000352E+00 0. -1.
</event>
<event>
 5   0  0.1879500E-08  0.4005017E+04  0.7818609E-02  0.8003535E-01
        1   -1    0    0  501    0  0.00000000000E+00  0.00000000000E+00  0.26460575038E+04  0.26460575038E+04  0.50400001928E-02 0. -1.
       -1   -1    0    0    0  501  0.00000000000E+00  0.00000000000E+00 -0.15154776273E+04  0.15154776273E+04  0.50400001928E-02 0.  1.
    10030    2    1    2    0    0  0.00000000000E+00  0.00000000000E+00  0.11305798765E+04  0.41615351311E+04  0.40050173271E+04 0.  0.
        5    1    3    3  502    0  0.11123977948E+04  0.10515041784E+04  0.19068425610E+04  0.24452322044E+04  0.46999998093E+01 0. -1.
       -5    1    3    3    0  502 -0.11123977948E+04 -0.10515041784E+04 -0.77626268450E+03  0.17163029267E+04  0.46999998093E+01 0.  1.
</event>
<event>
 5   0  0.1879500E-08  0.3994547E+04  0.7818609E-02  0.8005647E-01
       -1   -1    0    0    0  501  0.00000000000E+00  0.00000000000E+00  0.15092874484E+04  0.15092874484E+04  0.50400001928E-02 0. -1.
        1   -1    0    0  501    0  0.00000000000E+00  0.00000000000E+00 -0.26430362637E+04  0.26430362637E+04  0.50400001928E-02 0.  1.
    10030    2    1    2    0    0  0.00000000000E+00  0.00000000000E+00 -0.11337488152E+04  0.41523237121E+04  0.39945470124E+04 0.  0.
        3    1    3    3  502    0 -0.24892169933E+03 -0.95603256460E+03  0.12375280356E+04  0.15834885305E+04  0.10100000352E+00 0. -1.
       -3    1    3    3    0  502  0.24892169933E+03  0.95603256460E+03 -0.23712768509E+04  0.25688351817E+04  0.10100000352E+00 0.  1.
</event>
<event>
 5   0  0.5951623E-08  0.3979416E+04  0.7818609E-02  0.8008712E-01
       -2   -1    0    0    0  501  0.00000000000E+00  0.00000000000E+00  0.21270598401E+04  0.21270598401E+04  0.25500000920E-02 0.  1.
        2   -1    0    0  501    0  0.00000000000E+00  0.00000000000E+00 -0.18612255677E+04  0.18612255677E+04  0.25500000920E-02 0. -1.
    10030    2    1    2    0    0  0.00000000000E+00  0.00000000000E+00  0.26583427246E+03  0.39882854078E+04  0.39794161172E+04 0.  0.
        2    1    3    3  502    0  0.13525597451E+04  0.13334349557E+04  0.72708880573E+03  0.20337464878E+04  0.25500000920E-02 0.  1.
       -2    1    3    3    0  502 -0.13525597451E+04 -0.13334349557E+04 -0.46125453326E+03  0.19545389200E+04  0.25500000920E-02 0. -1.
</event>
<event>
 5   0  0.5888700E-08  0.4002416E+04  0.7818609E-02  0.8004059E-01
        2   -1    0    0  501    0  0.00000000000E+00  0.00000000000E+00  0.23089787348E+04  0.23089787348E+04  0.25500000920E-02 0. -1.
       -2   -1    0    0    0  501  0.00000000000E+00  0.00000000000E+00 -0.17344613157E+04  0.17344613157E+04  0.25500000920E-02 0.  1.
    10030    2    1    2    0    0  0.00000000000E+00  0.00000000000E+00  0.57451741908E+03  0.40434400506E+04  0.40024164173E+04 0.  0.
        5    1    3    3  502    0 -0.19174234910E+04  0.15195915204E+03 -0.27085994013E+03  0.19424190137E+04  0.46999998093E+01 0. -1.
       -5    1    3    3    0  502  0.19174234910E+04 -0.15195915204E+03  0.84537735920E+03  0.21010210368E+04  0.46999998093E+01 0.  1.
</event>
<event>
 5   0  0.1879500E-08  0.4013786E+04  0.7818609E-02  0.8001771E-01
        1   -1    0    0  501    0  0.00000000000E+00  0.00000000000E+00  0.12849938209E+04  0.12849938209E+04  0.50400001928E-02 0. -1.
       -1   -1    0    0    0  501  0.00000000000E+00  0.00000000000E+00 -0.31343497203E+04  0.31343497203E+04  0.50400001928E-02 0.  1.
    10030    2    1    2    0    0  0.00000000000E+00  0.00000000000E+00 -0.18493558994E+04  0.44193435412E+04  0.40137862539E+04 0.  0.
        4    1    3    3  502    0 -0.17534294333E+04  0.65284509466E+03 -0.17238979614E+04  0.25441201405E+04  0.12699999809E+01 0.  1.
       -4    1    3    3    0  502  0.17534294333E+04 -0.65284509466E+03 -0.12545793800E+03  0.18752234006E+04  0.12699999809E+01 0. -1.
</event>
<event>
 5   0  0.5846812E-08  0.4004231E+04  0.7818609E-02  0.8003694E-01
       -2   -1    0    0    0  501  0.00000000000E+00  0.00000000000E+00  0.13598849587E+04  0.13598849587E+04  0.25500000920E-02 0.  1.
        2   -1    0    0  501    0  0.00000000000E+00  0.00000000000E+00 -0.29476515382E+04  0.29476515382E+04  0.25500000920E-02 0. -1.
    10030    2    1    2    0    0  0.00000000000E+00  0.00000000000E+00 -0.15877665795E+04  0.43075364969E+04  0.40042312572E+04 0.  0.
        4    1    3    3  502    0 -0.55180263616E+03 -0.11640958169E+04 -0.24425709787E+04  0.27614778324E+04  0.12699999809E+01 0. -1.
       -4    1    3    3    0  502  0.55180263616E+03  0.11640958169E+04  0.85480439922E+03  0.15460586645E+04  0.12699999809E+01 0.  1.
</event>
<event>
 5   0  0.1879500E-08  0.4015105E+04  0.7818609E-02  0.8001506E-01
        1   -1    0    0  501    0  0.00000000000E+00  0.00000000000E+00  0.15709013940E+04  0.15709013940E+04  0.50400001928E-02 0.  1.
       -1   -1    0    0    0  501  0.00000000000E+00  0.00000000000E+00 -0.25655762396E+04  0.25655762396E+04  0.50400001928E-02 0. -1.
    10030    2    1    2    0    0  0.00000000000E+00  0.00000000000E+00 -0.99467484560E+03  0.41364776337E+04  0.40151051251E+04 0.  0.
        5    1    3    3  502    0 -0.65740262112E+03 -0.14755823026E+04 -0.17253097993E+04  0.23635222300E+04  0.46999998093E+01 0. -1.
       -5    1    3    3    0  502  0.65740262112E+03  0.14755823026E+04  0.73063495374E+03  0.17729554037E+04  0.46999998093E+01 0.  1.
</event>
<event>
 5   0  0.5951623E-08  0.4089781E+04  0.7818609E-02  0.7986676E-01
       -2   -1    0    0    0  501  0.00000000000E+00  0.00000000000E+00  0.30331716698E+04  0.30331716698E+04  0.25500000920E-02 0. -1.
        2   -1    0    0  501    0  0.00000000000E+00  0.00000000000E+00 -0.13786155366E+04  0.13786155366E+04  0.25500000920E-02 0.  1.
    10030    2    1    2    0    0  0.00000000000E+00  0.00000000000E+00  0.16545561332E+04  0.44117872064E+04  0.40897812113E+04 0.  0.
        2    1    3    3  502    0  0.17433542932E+04  0.95554797210E+02 -0.32103580904E+03  0.17752405193E+04  0.25500000920E-02 0.  1.
       -2    1    3    3    0  502 -0.17433542932E+04 -0.95554797210E+02  0.19755919422E+04  0.26365466870E+04  0.25500000920E-02 0. -1.
</event>
<event>
 5   0  0.5945387E-08  0.3995715E+04  0.7818609E-02  0.8005412E-01
       -2   -1    0    0    0  501  0.00000000000E+00  0.00000000000E+00  0.17884773445E+04  0.17884773445E+04  0.25500000920E-02 0.  1.
        2   -1    0    0  501    0  0.00000000000E+00  0.00000000000E+00 -0.22317499734E+04  0.22317499734E+04  0.25500000920E-02 0. -1.
    10030    2    1    2    0    0  0.00000000000E+00  0.00000000000E+00 -0.44327262888E+03  0.40202273178E+04  0.39957148376E+04 0.  0.
        3    1    3    3  502    0 -0.42298789198E+02  0.12456175145E+04  0.13493785159E+04  0.18368926396E+04  0.10100000352E+00 0.  1.
       -3    1    3    3    0  502  0.42298789198E+02 -0.12456175145E+04 -0.17926511448E+04  0.21833346782E+04  0.10100000352E+00 0. -1.
</event>
<event>
 5   0  0.1879500E-08  0.4010311E+04  0.7818609E-02  0.8002470E-01
       -1   -1    0    0    0  501  0.00000000000E+00  0.00000000000E+00  0.23291778560E+04  0.23291778560E+04  0.50400001928E-02 0. -1.
        1   -1    0    0  501    0  0.00000000000E+00  0.00000000000E+00 -0.17262095158E+04  0.17262095158E+04  0.50400001928E-02 0.  1.
    10030    2    1    2    0    0  0.00000000000E+00  0.00000000000E+00  0.60296834018E+03  0.40553873718E+04  0.40103111994E+04 0.  0.
        2    1    3    3  502    0 -0.17419161567E+04  0.88004040624E+03 -0.16402244925E+03  0.19584806298E+04  0.25500000920E-02 0.  1.
       -2    1    3    3    0  502  0.17419161567E+04 -0.88004040624E+03  0.76699078942E+03  0.20969067420E+04  0.25500000920E-02 0. -1.
</event>
<event>
 5   0  0.1879500E-08  0.3973226E+04  0.7818609E-02  0.8009970E-01
        1   -1    0    0  501    0  0.00000000000E+00  0.00000000000E+00  0.18291641880E+04  0.18291641880E+04  0.50400001928E-02 0.  1.
       -1   -1    0    0    0  501  0.00000000000E+00  0.00000000000E+00 -0.21576147710E+04  0.21576147711E+04  0.50400001928E-02 0. -1.
    10030    2    1    2    0    0  0.00000000000E+00  0.00000000000E+00 -0.32845058303E+03  0.39867789591E+04  0.39732262310E+04 0.  0.
        5    1    3    3  502    0  0.54551739858E+03 -0.11775559140E+04 -0.16734776808E+04  0.21177291613E+04  0.46999998093E+01 0. -1.
       -5    1    3    3    0  502 -0.54551739858E+03  0.11775559140E+04  0.13450270977E+04  0.18690497977E+04  0.46999998093E+01 0.  1.
</event>
<event>
 5   0  0.5945387E-08  0.3975745E+04  0.7818609E-02  0.8009458E-01
        2   -1    0    0  501    0  0.00000000000E+00  0.00000000000E+00  0.12355032274E+04  0.12355032274E+04  0.25500000920E-02 0.  1.
       -2   -1    0    0    0  501  0.00000000000E+00  0.00000000000E+00 -0.31984024541E+04  0.31984024541E+04  0.25500000920E-02 0. -1.
    10030    2    1    2    0    0  0.00000000000E+00  0.00000000000E+00 -0.19628992267E+04  0.44339056814E+04  0.39757447375E+04 0.  0.
        3    1    3    3  502    0 -0.54599979230E+03 -0.30339640257E+03  0.11232139766E+04  0.12852139112E+04  0.10100000352E+00 0.  1.
       -3    1    3    3    0  502  0.54599979230E+03  0.30339640257E+03 -0.30861132032E+04  0.31486917702E+04  0.10100000352E+00 0. -1.
</event>
<event>
 5   0  0.5945387E-08  0.3989619E+04  0.7818609E-02  0.8006644E-01
       -2   -1    0    0    0  501  0.00000000000E+00  0.00000000000E+00  0.23451804680E+04  0.23451804680E+04  0.25500000920E-02 0.  1.
        2   -1    0    0  501    0  0.00000000000E+00  0.00000000000E+00 -0.16967840639E+04  0.16967840639E+04  0.25500000920E-02 0. -1.
    10030    2    1    2    0    0  0.00000000000E+00  0.00000000000E+00  0.64839640409E+03  0.40419645319E+04  0.39896189517E+04 0.  0.
        3    1    3    3  502    0 -0.42658733596E+03  0.17905269364E+04  0.11032485440E+04  0.21459545254E+04  0.10100000352E+00 0.  1.
       -3    1    3    3    0  502  0.42658733596E+03 -0.17905269364E+04 -0.45485213989E+03  0.18960100064E+04  0.10100000352E+00 0. -1.
</event>
<event>
 5   0  0.5951623E-08  0.3997656E+04  0.7818609E-02  0.8005020E-01
       -2   -1    0    0    0  501  0.00000000000E+00  0.00000000000E+00  0.26378531009E+04  0.26378531009E+04  0.25500000920E-02 0. -1.
        2   -1    0    0  501    0  0.00000000000E+00  0.00000000000E+00 -0.15146080378E+04  0.15146080378E+04  0.25500000920E-02 0.  1.
    10030    2    1    2    0    0  0.00000000000E+00  0.00000000000E+00  0.11232450630E+04  0.41524611387E+04  0.39976560678E+04 0.  0.
        2    1    3    3  502    0 -0.29075995251E+03  0.12729361605E+04  0.21336363389E+04  0.25014619416E+04  0.25500000920E-02 0. -1.
       -2    1    3    3    0  502  0.29075995251E+03 -0.12729361605E+04 -0.10103912758E+04  0.16509991971E+04  0.25500000920E-02 0.  1.
</event>
<event>
 5   0  0.1879500E-08  0.3945757E+04  0.7818609E-02  0.8015579E-01
       -1   -1    0    0    0  501  0.00000000000E+00  0.00000000000E+00  0.28917430534E+04  0.28917430534E+04  0.50400001928E-02 0. -1.
        1   -1    0    0  501    0  0.00000000000E+00  0.00000000000E+00 -0.13459874397E+04  0.13459874397E+04  0.50400001928E-02 0.  1.
    10030    2    1    2    0    0  0.00000000000E+00  0.00000000000E+00  0.15457556137E+04  0.42377304932E+04  0.39457571283E+04 0.  0.
        1    1    3    3  502    0 -0.11461636419E+04  0.84258162552E+03  0.22410023263E+04  0.26543787063E+04  0.50400001928E-02 0. -1.
       -1    1    3    3    0  502  0.11461636419E+04 -0.84258162552E+03 -0.69524671259E+03  0.15833517869E+04  0.50400001928E-02 0.  1.
</event>
<event>
 5   0  0.5846812E-08  0.4006053E+04  0.7818609E-02  0.8003327E-01
       -2   -1    0    0    0  501  0.00000000000E+00  0.00000000000E+00  0.18782129111E+04  0.18782129111E+04  0.25500000920E-02 0.  1.
        2   -1    0    0  501    0  0.00000000000E+00  0.00000000000E+00 -0.21361346302E+04  0.21361346302E+04  0.25500000920E-02 0. -1.
    10030    2    1    2    0    0  0.00000000000E+00  0.00000000000E+00 -0.25792171905E+03  0.40143475413E+04  0.40060532409E+04 0.  0.
        4    1    3    3  502    0  0.89887020965E+03 -0.13839414286E+04 -0.12665877803E+04  0.20802662690E+04  0.12699999809E+01 0. -1.
       -4    1    3    3    0  502 -0.89887020965E+03  0.13839414286E+04  0.10086660613E+04  0.19340812723E+04  0.12699999809E+01 0.  1.
</event>
<event>
 5   0  0.5945387E-08  0.3996497E+04  0.7818609E-02  0.8005254E-01
        2   -1    0    0  501    0  0.00000000000E+00  0.00000000000E+00  0.25904167401E+04  0.25904167401E+04  0.25500000920E-02 0. -1.
       -2   -1    0    0    0  501  0.00000000000E+00  0.00000000000E+00 -0.15414497908E+04  0.15414497908E+04  0.25500000920E-02 0.  1.
    10030    2    1    2    0    0  0.00000000000E+00  0.00000000000E+00  0.10489669492E+04  0.41318665309E+04  0.39964971373E+04 0.  0.
        3    1    3    3  502    0  0.97299268609E+03 -0.16973343908E+04  0.10409208231E+03  0.19592074860E+04  0.10100000352E+00 0.  1.
       -3    1    3    3    0  502 -0.97299268609E+03  0.16973343908E+04  0.94487486693E+03  0.21726590449E+04  0.10100000352E+00 0. -1.
</event>
<event>
 5   0  0.1879500E-08  0.4016331E+04  0.7818609E-02  0.8001260E-01
       -1   -1    0    0    0  501  0.00000000000E+00  0.00000000000E+00  0.18188995909E+04  0.18188995909E+04  0.50400001928E-02 0.  1.
        1   -1    0    0  501    0  0.00000000000E+00  0.00000000000E+00 -0.22171253682E+04  0.22171253683E+04  0.50400001928E-02 0. -1.
    10030    2    1    2    0    0  0.00000000000E+00  0.00000000000E+00 -0.39822577731E+03  0.40360249592E+04  0.40163308755E+04 0.  0.
        2    1    3    3  502    0 -0.86896621734E+03  0.14514323155E+04 -0.12865328796E+04  0.21253058377E+04  0.25500000920E-02 0. -1.
       -2    1    3    3    0  502  0.86896621734E+03 -0.14514323155E+04  0.88830710231E+03  0.19107191215E+04  0.25500000920E-02 0.  1.
</event>
<event>
 5   0  0.1879500E-08  0.4009402E+04  0.7818609E-02  0.8002653E-01
       -1   -1    0    0    0  501  0.00000000000E+00  0.00000000000E+00  0.24516777848E+04  0.24516777848E+04  0.50400001928E-02 0. -1.
        1   -1    0    0  501    0  0.00000000000E+00  0.00000000000E+00 -0.16392143111E+04  0.16392143111E+04  0.50400001928E-02 0.  1.
    10030    2    1    2    0    0  0.00000000000E+00  0.00000000000E+00  0.81246347367E+03  0.40908920959E+04  0.40094016067E+04 0.  0.
        1    1    3    3  502    0  0.64030291458E+03 -0.18027773995E+04  0.10174319888E+04  0.21668322562E+04  0.50400001928E-02 0. -1.
       -1    1    3    3    0  502 -0.64030291458E+03  0.18027773995E+04 -0.20496851516E+03  0.19240598397E+04  0.50400001928E-02 0.  1.
</event>
<event>
 5   0  0.6161563E-08  0.4002391E+04  0.7818609E-02  0.8004064E-01
       -2   -1    0    0    0  501  0.00000000000E+00  0.00000000000E+00  0.17383346776E+04  0.17383346776E+04  0.25500000920E-02 0.  1.
        2   -1    0    0  501    0  0.00000000000E+00  0.00000000000E+00 -0.23038046484E+04  0.23038046484E+04  0.25500000920E-02 0. -1.
    10030    2    1    2    0    0  0.00000000000E+00  0.00000000000E+00 -0.56546997077E+03  0.40421393260E+04  0.40023910408E+04 0.  0.
        1    1    3    3  502    0 -0.51614445028E+03 -0.87846979277E+02  0.16679389168E+04  0.17481826036E+04  0.50400001928E-02 0.  1.
       -1    1    3    3    0  502  0.51614445028E+03  0.87846979277E+02 -0.22334088876E+04  0.22939567224E+04  0.50400001928E-02 0. -1.
</event>
<event>
 5   0  0.1879500E-08  0.3997691E+04  0.7818609E-02  0.8005013E-01
        1   -1    0    0  501    0  0.00000000000E+00  0.00000000000E+00  0.16653178132E+04  0.16653178132E+04  0.50400001928E-02 0. -1.
       -1   -1    0    0    0  501  0.00000000000E+00  0.00000000000E+00 -0.23991715335E+04  0.23991715335E+04  0.50400001928E-02 0.  1.
    10030    2    1    2    0    0  0.00000000000E+00  0.00000000000E+00 -0.73385372036E+03  0.40644893467E+04  0.39976908793E+04 0.  0.
        5    1    3    3  502    0 -0.47472080812E+03 -0.13053860042E+04  0.10944379045E+04  0.17683916089E+04  0.46999998093E+01 0. -1.
       -5    1    3    3    0  502  0.47472080812E+03  0.13053860042E+04 -0.18282916249E+04  0.22960977378E+04  0.46999998093E+01 0.  1.
</event>
<event>
 5   0  0.1879500E-08  0.3991166E+04  0.7818609E-02  0.8006331E-01
       -1   -1    0    0    0  501  0.00000000000E+00  0.00000000000E+00  0.25860521172E+04  0.25860521172E+04  0.50400001928E-02 0. -1.
        1   -1    0    0  501    0  0.00000000000E+00  0.00000000000E+00 -0.15399349438E+04  0.15399349438E+04  0.50400001928E-02 0.  1.
    10030    2    1    2    0    0  0.00000000000E+00  0.00000000000E+00  0.10461171734E+04  0.41259870611E+04  0.39911662566E+04 0.  0.
        1    1    3    3  502    0  0.14639511000E+04 -0.89188696854E+03  0.15792035874E+04  0.23307722236E+04  0.50400001928E-02 0. -1.
       -1    1    3    3    0  502 -0.14639511000E+04  0.89188696854E+03 -0.53308641393E+03  0.17952148375E+04  0.50400001928E-02 0.  1.
</event>
<event>
 5   0  0.5945387E-08  0.3977570E+04  0.7818609E-02  0.8009087E-01
       -2   -1    0    0    0  501  0.00000000000E+00  0.00000000000E+00  0.24346634800E+04  0.24346634800E+04  0.25500000920E-02 0. -1.
        2   -1    0    0  501    0  0.00000000000E+00  0.00000000000E+00 -0.16245638416E+04  0.16245638416E+04  0.25500000920E-02 0.  1.
    10030    2    1    2    0    0  0.00000000000E+00  0.00000000000E+00  0.81009963838E+03  0.40592273217E+04  0.39775702414E+04 0.  0.
        3    1    3    3  502    0  0.97916569023E+03  0.17270917903E+04  0.28579736916E+03  0.20058144599E+04  0.10100000352E+00 0. -1.
       -3    1    3    3    0  502 -0.97916569023E+03 -0.17270917903E+04  0.52430226922E+03  0.20534128618E+04  0.10100000352E+00 0.  1.
</event>
<event>
 5   0  0.1879500E-08  0.3978914E+04  0.7818609E-02  0.8008814E-01
       -1   -1    0    0    0  501  0.00000000000E+00  0.00000000000E+00  0.23897748833E+04  0.23897748833E+04  0.50400001928E-02 0.  1.
        1   -1    0    0  501    0  0.00000000000E+00  0.00000000000E+00 -0.16561977317E+04  0.16561977317E+04  0.50400001928E-02 0. -1.
    10030    2    1    2    0    0  0.00000000000E+00  0.00000000000E+00  0.73357715159E+03  0.40459726150E+04  0.39789142946E+04 0.  0.
        1    1    3    3  502    0 -0.76367916919E+03  0.17927274850E+04  0.77462417290E+03  0.20969311668E+04  0.50400001928E-02 0. -1.
       -1    1    3    3    0  502  0.76367916919E+03 -0.17927274850E+04 -0.41047021312E+02  0.19490414482E+04  0.50400001928E-02 0.  1.
</event>
<event>
 5   0  0.1879500E-08  0.3990859E+04  0.7818609E-02  0.8006393E-01
        1   -1    0    0  501    0  0.00000000000E+00  0.00000000000E+00  0.14731397606E+04  0.14731397606E+04  0.50400001928E-02 0.  1.
       -1   -1    0    0    0  501  0.00000000000E+00  0.00000000000E+00 -0.27028926340E+04  0.27028926340E+04  0.50400001928E-02 0. -1.
    10030    2    1    2    0    0  0.00000000000E+00  0.00000000000E+00 -0.12297528734E+04  0.41760323947E+04  0.39908588589E+04 0.  0.
        1    1    3    3  502    0 -0.35736964552E+03 -0.49024113300E+03 -0.26040509570E+04  0.26737858588E+04  0.50400001928E-02 0. -1.
       -1    1    3    3    0  502  0.35736964552E+03  0.49024113300E+03  0.13742980836E+04  0.15022465359E+04  0.50400001928E-02 0.  1.
</event>
<event>
 5   0  0.1879500E-08  0.3997704E+04  0.7818609E-02  0.8005010E-01
       -1   -1    0    0    0  501  0.00000000000E+00  0.00000000000E+00  0.23515058990E+04  0.23515058990E+04  0.50400001928E-02 0. -1.
        1   -1    0    0  501    0  0.00000000000E+00  0.00000000000E+00 -0.16990852196E+04  0.16990852196E+04  0.50400001928E-02 0.  1.
    10030    2    1    2    0    0  0.00000000000E+00  0.00000000000E+00  0.65242067938E+03  0.40505911186E+04  0.39977037993E+04 0.  0.
        2    1    3    3  502    0 -0.91879670121E+03 -0.98492709726E+03 -0.11701961379E+04  0.17842723352E+04  0.25500000920E-02 0.  1.
       -2    1    3    3    0  502  0.91879670121E+03  0.98492709726E+03  0.18226168173E+04  0.22663187834E+04  0.25500000920E-02 0. -1.
</event>
<event>
 5   0  0.6161563E-08  0.4014012E+04  0.7818609E-02  0.8001726E-01
       -2   -1    0    0    0  501  0.00000000000E+00  0.00000000000E+00  0.16241377431E+04  0.16241377431E+04  0.25500000920E-02 0.  1.
        2   -1    0    0  501    0  0.00000000000E+00  0.00000000000E+00 -0.24801304153E+04  0.24801304153E+04  0.25500000920E-02 0. -1.
    10030    2    1    2    0    0  0.00000000000E+00  0.00000000000E+00 -0.85599267219E+03  0.41042681585E+04  0.40140121651E+04 0.  0.
        1    1    3    3  502    0 -0.85204249961E+03  0.13424879215E+04  0.82421339355E+03  0.17909712333E+04  0.50400001928E-02 0. -1.
       -1    1    3    3    0  502  0.85204249961E+03 -0.13424879215E+04 -0.16802060657E+04  0.23132969251E+04  0.50400001928E-02 0.  1.
</event>
<event>
 5   0  0.5945387E-08  0.3993364E+04  0.7818609E-02  0.8005887E-01
        2   -1    0    0  501    0  0.00000000000E+00  0.00000000000E+00  0.23698098121E+04  0.23698098121E+04  0.25500000920E-02 0.  1.
       -2   -1    0    0    0  501  0.00000000000E+00  0.00000000000E+00 -0.16823034237E+04  0.16823034237E+04  0.25500000920E-02 0. -1.
    10030    2    1    2    0    0  0.00000000000E+00  0.00000000000E+00  0.68750638839E+03  0.40521132358E+04  0.39933640757E+04 0.  0.
        3    1    3    3  502    0  0.16712644376E+03 -0.63945321271E+03 -0.15680852232E+04  0.17016823842E+04  0.10100000352E+00 0. -1.
       -3    1    3    3    0  502 -0.16712644376E+03  0.63945321271E+03  0.22555916116E+04  0.23504308515E+04  0.10100000352E+00 0.  1.
</event>
<event>
 5   0  0.5951623E-08  0.3900433E+04  0.7818609E-02  0.8024939E-01
       -2   -1    0    0    0  501  0.00000000000E+00  0.00000000000E+00  0.21569988404E+04  0.21569988404E+04  0.25500000920E-02 0. -1.
        2   -1    0    0  501    0  0.00000000000E+00  0.00000000000E+00 -0.17632574669E+04  0.17632574669E+04  0.25500000920E-02 0.  1.
    10030    2    1    2    0    0  0.00000000000E+00  0.00000000000E+00  0.39374137346E+03  0.39202563073E+04  0.39004329561E+04 0.  0.
        2    1    3    3  502    0  0.18325774617E+04 -0.34235974565E+03  0.77231343345E+03  0.20179242771E+04  0.25500000920E-02 0. -1.
       -2    1    3    3    0  502 -0.18325774617E+04  0.34235974565E+03 -0.37857205998E+03  0.19023320302E+04  0.25500000920E-02 0.  1.
</event>
<event>
 5   0  0.5846812E-08  0.4000318E+04  0.7818609E-02  0.8004482E-01
        2   -1    0    0  501    0  0.00000000000E+00  0.00000000000E+00  0.20245103739E+04  0.20245103739E+04  0.25500000920E-02 0.  1.
       -2   -1    0    0    0  501  0.00000000000E+00  0.00000000000E+00 -0.19761009095E+04  0.19761009095E+04  0.25500000920E-02 0. -1.
    10030    2    1    2    0    0  0.00000000000E+00  0.00000000000E+00  0.48409464352E+02  0.40006112834E+04  0.40003183829E+04 0.  0.
        4    1    3    3  502    0 -0.19728661535E+04  0.25389929951E+03  0.23390905580E+03  0.20028431724E+04  0.12699999809E+01 0. -1.
       -4    1    3    3    0  502  0.19728661535E+04 -0.25389929951E+03 -0.18549959145E+03  0.19977681110E+04  0.12699999809E+01 0.  1.
</event>
<event>
 5   0  0.5945387E-08  0.3985870E+04  0.7818609E-02  0.8007403E-01
        2   -1    0    0  501    0  0.00000000000E+00  0.00000000000E+00  0.17825365154E+04  0.17825365154E+04  0.25500000920E-02 0. -1.
       -2   -1    0    0    0  501  0.00000000000E+00  0.00000000000E+00 -0.22281676794E+04  0.22281676794E+04  0.25500000920E-02 0.  1.
    10030    2    1    2    0    0  0.00000000000E+00  0.00000000000E+00 -0.44563116403E+03  0.40107041948E+04  0.39858701690E+04 0.  0.
        3    1    3    3  502    0  0.99211673552E+03  0.59966034066E+03  0.14083651200E+04  0.18241108690E+04  0.10100000352E+00 0. -1.
       -3    1    3    3    0  502 -0.99211673552E+03 -0.59966034066E+03 -0.18539962840E+04  0.21865933258E+04  0.10100000352E+00 0.  1.
</event>
<event>
 5   0  0.1879500E-08  0.4056702E+04  0.7818609E-02  0.7993205E-01
       -1   -1    0    0    0  501  0.00000000000E+00  0.00000000000E+00  0.18054080576E+04  0.18054080576E+04  0.50400001928E-02 0.  1.
        1   -1    0    0  501    0  0.00000000000E+00  0.00000000000E+00 -0.22788247372E+04  0.22788247372E+04  0.50400001928E-02 0. -1.
    10030    2    1    2    0    0  0.00000000000E+00  0.00000000000E+00 -0.47341667962E+03  0.40842327949E+04  0.40567023763E+04 0.  0.
        3    1    3    3  502    0  0.63500762240E+03 -0.45921062441E+03 -0.21202599917E+04  0.22604449829E+04  0.10100000352E+00 0. -1.
       -3    1    3    3    0  502 -0.63500762240E+03  0.45921062441E+03  0.16468433121E+04  0.18237878119E+04  0.10100000352E+00 0.  1.
</event>
<event>
 5   0  0.5846812E-08  0.3924739E+04  0.7818609E-02  0.8019903E-01
       -2   -1    0    0    0  501  0.00000000000E+00  0.00000000000E+00  0.20758163378E+04  0.20758163378E+04  0.25500000920E-02 0. -1.
        2   -1    0    0  501    0  0.00000000000E+00  0.00000000000E+00 -0.18551231202E+04  0.18551231202E+04  0.25500000920E-02 0.  1.
    10030    2    1    2    0    0  0.00000000000E+00  0.00000000000E+00  0.22069321767E+03  0.39309394580E+04  0.39247394214E+04 0.  0.
        4    1    3    3  502    0 -0.30640476888E+03 -0.65484371766E+03  0.19375610711E+04  0.20680543257E+04  0.12699999809E+01 0. -1.
       -4    1    3    3    0  502  0.30640476888E+03  0.65484371766E+03 -0.17168678534E+04  0.18628851323E+04  0.12699999809E+01 0.  1.
</event>
<event>
 5   0  0.5951623E-08  0.4002382E+04  0.7818609E-02  0.8004066E-01
       -2   -1    0    0    0  501  0.00000000000E+00  0.00000000000E+00  0.16809136594E+04  0.16809136594E+04  0.25500000920E-02 0.  1.
        2   -1    0    0  501    0  0.00000000000E+00  0.00000000000E+00 -0.23824935455E+04  0.23824935455E+04  0.25500000920E-02 0. -1.
    10030    2    1    2    0    0  0.00000000000E+00  0.00000000000E+00 -0.70157988605E+03  0.40634072049E+04  0.40023822626E+04 0.  0.
        2    1    3    3  502    0 -0.14772638321E+04 -0.62970758298E+03 -0.15631182785E+04  0.22410218254E+04  0.25500000920E-02 0. -1.
       -2    1    3    3    0  502  0.14772638321E+04  0.62970758298E+03  0.86153839241E+03  0.18223853794E+04  0.25500000920E-02 0.  1.
</event>
<event>
 5   0  0.1879500E-08  0.4025083E+04  0.7818609E-02  0.7999506E-01
       -1   -1    0    0    0  501  0.00000000000E+00  0.00000000000E+00  0.13829248970E+04  0.13829248970E+04  0.50400001928E-02 0. -1.
        1   -1    0    0  501    0  0.00000000000E+00  0.00000000000E+00 -0.29288092636E+04  0.29288092636E+04  0.50400001928E-02 0.  1.
    10030    2    1    2    0    0  0.00000000000E+00  0.00000000000E+00 -0.15458843666E+04  0.43117341606E+04  0.40250829801E+04 0.  0.
        2    1    3    3  502    0  0.12917942040E+04 -0.60176815828E+03 -0.22952252575E+04  0.27016506371E+04  0.25500000920E-02 0.  1.
       -2    1    3    3    0  502 -0.12917942040E+04  0.60176815828E+03  0.74934089094E+03  0.16100835235E+04  0.25500000920E-02 0. -1.
</event>
<event>
 5   0  0.1879500E-08  0.3995415E+04  0.7818609E-02  0.8005472E-01
       -1   -1    0    0    0  501  0.00000000000E+00  0.00000000000E+00  0.19795641680E+04  0.19795641680E+04  0.50400001928E-02 0.  1.
        1   -1    0    0  501    0  0.00000000000E+00  0.00000000000E+00 -0.20160166927E+04  0.20160166927E+04  0.50400001928E-02 0. -1.
    10030    2    1    2    0    0  0.00000000000E+00  0.00000000000E+00 -0.36452524726E+02  0.39955808607E+04  0.39954145752E+04 0.  0.
        2    1    3    3  502    0  0.16669582884E+04  0.10733539676E+04  0.22672419346E+03  0.19955556958E+04  0.25500000920E-02 0.  1.
       -2    1    3    3    0  502 -0.16669582884E+04 -0.10733539676E+04 -0.26317671819E+03  0.20000251649E+04  0.25500000920E-02 0. -1.
</event>
<event>
 5   0  0.6161563E-08  0.4023675E+04  0.7818609E-02  0.7999787E-01
       -2   -1    0    0    0  501  0.00000000000E+00  0.00000000000E+00  0.27885222636E+04  0.27885222636E+04  0.25500000920E-02 0. -1.
        2   -1    0    0  501    0  0.00000000000E+00  0.00000000000E+00 -0.14514822424E+04  0.14514822424E+04  0.25500000920E-02 0.  1.
    10030    2    1    2    0    0  0.00000000000E+00  0.00000000000E+00  0.13370400212E+04  0.42400045060E+04  0.40236752096E+04 0.  0.
        1    1    3    3  502    0 -0.17608299906E+04 -0.40956232129E+03 -0.26167797824E+03  0.18266742773E+04  0.50400001928E-02 0. -1.
       -1    1    3    3    0  502  0.17608299906E+04  0.40956232129E+03  0.15987179995E+04  0.24133302287E+04  0.50400001928E-02 0.  1.
</event>
<event>
 5   0  0.1879500E-08  0.3980197E+04  0.7818609E-02  0.8008553E-01
       -1   -1    0    0    0  501  0.00000000000E+00  0.00000000000E+00  0.20658025646E+04  0.20658025646E+04  0.50400001928E-02 0. -1.
        1   -1    0    0  501    0  0.00000000000E+00  0.00000000000E+00 -0.19171688523E+04  0.19171688524E+04  0.50400001928E-02 0.  1.
    10030    2    1    2    0    0  0.00000000000E+00  0.00000000000E+00  0.14863371229E+03  0.39829714170E+04  0.39801971469E+04 0.  0.
        1    1    3    3  502    0 -0.12832599726E+04 -0.13753726207E+04  0.72445140966E+03  0.20157469703E+04  0.50400001928E-02 0. -1.
       -1    1    3    3    0  502  0.12832599726E+04  0.13753726207E+04 -0.57581769738E+03  0.19672244467E+04  0.50400001928E-02 0.  1.
</event>
<event>
 5   0  0.1879500E-08  0.3944038E+04  0.7818609E-02  0.8015932E-01
        1   -1    0    0  501    0  0.00000000000E+00  0.00000000000E+00  0.16152877129E+04  0.16152877129E+04  0.50400001928E-02 0.  1.
       -1   -1    0    0    0  501  0.00000000000E+00  0.00000000000E+00 -0.24075332277E+04  0.24075332277E+04  0.50400001928E-02 0. -1.
    10030    2    1    2    0    0  0.00000000000E+00  0.00000000000E+00 -0.79224551480E+03  0.40228209406E+04  0.39440379517E+04 0.  0.
        5    1    3    3  502    0 -0.14416356521E+04  0.17170076097E+03  0.96509224635E+03  0.17433357791E+04  0.46999998093E+01 0.  1.
       -5    1    3    3    0  502  0.14416356521E+04 -0.17170076097E+03 -0.17573377612E+04  0.22794851615E+04  0.46999998093E+01 0. -1.
</event>
<event>
 5   0  0.1879500E-08  0.3982787E+04  0.7818609E-02  0.8008028E-01
       -1   -1    0    0    0  501  0.00000000000E+00  0.00000000000E+00  0.28414424200E+04  0.28414424200E+04  0.50400001928E-02 0. -1.
        1   -1    0    0  501    0  0.00000000000E+00  0.00000000000E+00 -0.13956459766E+04  0.13956459766E+04  0.50400001928E-02 0.  1.
    10030    2    1    2    0    0  0.00000000000E+00  0.00000000000E+00  0.14457964434E+04  0.42370883966E+04  0.39827868038E+04 0.  0.
        1    1    3    3  502    0  0.16337846324E+04  0.10218500244E+04  0.18861874754E+03  0.19362351948E+04  0.50400001928E-02 0.  1.
       -1    1    3    3    0  502 -0.16337846324E+04 -0.10218500244E+04  0.12571776958E+04  0.23008532018E+04  0.50400001928E-02 0. -1.
</event>
<event>
 5   0  0.1879500E-08  0.4124917E+04  0.7818609E-02  0.7979810E-01
        1   -1    0    0  501    0  0.00000000000E+00  0.00000000000E+00  0.13364143553E+04  0.13364143553E+04  0.50400001928E-02 0. -1.
       -1   -1    0    0    0  501  0.00000000000E+00  0.00000000000E+00 -0.31829468992E+04  0.31829468992E+04  0.50400001928E-02 0.  1.
    10030    2    1    2    0    0  0.00000000000E+00  0.00000000000E+00 -0.18465325439E+04  0.45193612546E+04  0.41249174190E+04 0.  0.
        3    1    3    3  502    0  0.53384474779E+02  0.14524010626E+04 -0.25265575863E+04  0.29147576221E+04  0.10100000352E+00 0.  1.
       -3    1    3    3    0  502 -0.53384474779E+02 -0.14524010626E+04  0.68002504237E+03  0.16046036324E+04  0.10100000352E+00 0. -1.
</event>
<event>
 5   0  0.5945387E-08  0.3998000E+04  0.7818609E-02  0.8004950E-01
        2   -1    0    0  501    0  0.00000000000E+00  0.00000000000E+00  0.21387069791E+04  0.21387069791E+04  0.25500000920E-02 0. -1.
       -2   -1    0    0    0  501  0.00000000000E+00  0.00000000000E+00 -0.18684193368E+04  0.18684193368E+04  0.25500000920E-02 0.  1.
    10030    2    1    2    0    0  0.00000000000E+00  0.00000000000E+00  0.27028764224E+03  0.40071263159E+04  0.39980002379E+04 0.  0.
        3    1    3    3  502    0 -0.15969028119E+04 -0.81626214232E+03  0.10201196757E+04  0.20632563192E+04  0.10100000352E+00 0. -1.
       -3    1    3    3    0  502  0.15969028119E+04  0.81626214232E+03 -0.74983203342E+03  0.19438699967E+04  0.10100000352E+00 0.  1.
</event>
<event>
 5   0  0.6161563E-08  0.3994572E+04  0.7818609E-02  0.8005643E-01
        2   -1    0    0  501    0  0.00000000000E+00  0.00000000000E+00  0.25074277301E+04  0.25074277301E+04  0.25500000920E-02 0. -1.
       -2   -1    0    0    0  501  0.00000000000E+00  0.00000000000E+00 -0.15909334258E+04  0.15909334258E+04  0.25500000920E-02 0.  1.
    10030    2    1    2    0    0  0.00000000000E+00  0.00000000000E+00  0.91649430424E+03  0.40983611559E+04  0.39945716109E+04 0.  0.
        1    1    3    3  502    0 -0.30050016288E+03 -0.21396497776E+03 -0.15556784437E+04  0.15988173065E+04  0.50400001928E-02 0.  1.
       -1    1    3    3    0  502  0.30050016288E+03  0.21396497776E+03  0.24721727479E+04  0.24995438494E+04  0.50400001928E-02 0. -1.
</event>
<event>
 5   0  0.5846812E-08  0.4003556E+04  0.7818609E-02  0.8003830E-01
        2   -1    0    0  501    0  0.00000000000E+00  0.00000000000E+00  0.31231705878E+04  0.31231705878E+04  0.25500000920E-02 0.  1.
       -2   -1    0    0    0  501  0.00000000000E+00  0.00000000000E+00 -0.12830277215E+04  0.12830277215E+04  0.25500000920E-02 0. -1.
    10030    2    1    2    0    0  0.00000000000E+00  0.00000000000E+00  0.18401428663E+04  0.44061983092E+04  0.40035556412E+04 0.  0.
        4    1    3    3  502    0  0.38059327542E+03 -0.13692483751E+04  0.24716116984E+04  0.28510626711E+04  0.12699999809E+01 0.  1.
       -4    1    3    3    0  502 -0.38059327542E+03  0.13692483751E+04 -0.63146883213E+03  0.15551356381E+04  0.12699999809E+01 0. -1.
</event>
<event>
 5   0  0.1879500E-08  0.4012146E+04  0.7818609E-02  0.8002101E-01
       -1   -1    0    0    0  501  0.00000000000E+00  0.00000000000E+00  0.20648399364E+04  0.20648399364E+04  0.50400001928E-02 0.  1.
        1   -1    0    0  501    0  0.00000000000E+00  0.00000000000E+00 -0.19489787543E+04  0.19489787543E+04  0.50400001928E-02 0. -1.
    10030    2    1    2    0    0  0.00000000000E+00  0.00000000000E+00  0.11586118208E+03  0.40138186907E+04  0.40121461424E+04 0.  0.
        2    1    3    3  502    0 -0.23560613078E+03 -0.20099528386E+03  0.20407810108E+04  0.20641454617E+04  0.25500000920E-02 0.  1.
       -2    1    3    3    0  502  0.23560613078E+03  0.20099528386E+03 -0.19249198287E+04  0.19496732290E+04  0.25500000920E-02 0. -1.
</event>
<event>
 5   0  0.5888700E-08  0.3998316E+04  0.7818609E-02  0.8004886E-01
       -2   -1    0    0    0  501  0.00000000000E+00  0.00000000000E+00  0.25762016514E+04  0.25762016514E+04  0.25500000920E-02 0.  1.
        2   -1    0    0  501    0  0.00000000000E+00  0.00000000000E+00 -0.15513661157E+04  0.15513661157E+04  0.25500000920E-02 0. -1.
    10030    2    1    2    0    0  0.00000000000E+00  0.00000000000E+00  0.10248355357E+04  0.41275677672E+04  0.39983156201E+04 0.  0.
        5    1    3    3  502    0  0.15542539282E+04  0.12335872392E+04  0.76352389777E+03  0.21261311301E+04  0.46999998093E+01 0.  1.
       -5    1    3    3    0  502 -0.15542539282E+04 -0.12335872392E+04  0.26131163793E+03  0.20014366371E+04  0.46999998093E+01 0. -1.
</event>
<event>
 5   0  0.5888700E-08  0.4012667E+04  0.7818609E-02  0.8001996E-01
       -2   -1    0    0    0  501  0.00000000000E+00  0.00000000000E+00  0.29484689149E+04  0.29484689149E+04  0.25500000920E-02 0. -1.
        2   -1    0    0  501    0  0.00000000000E+00  0.00000000000E+00 -0.13652422407E+04  0.13652422407E+04  0.25500000920E-02 0.  1.
    10030    2    1    2    0    0  0.00000000000E+00  0.00000000000E+00  0.15832266742E+04  0.43137111557E+04  0.40126670971E+04 0.  0.
        5    1    3    3  502    0 -0.16772052546E+04  0.41422657088E+03  0.18883222426E+04  0.25593718174E+04  0.46999998093E+01 0. -1.
       -5    1    3    3    0  502  0.16772052546E+04 -0.41422657088E+03 -0.30509556834E+03  0.17543393383E+04  0.46999998093E+01 0.  1.
</event>
<event>
 5   0  0.5945387E-08  0.4005510E+04  0.7818609E-02  0.8003436E-01
       -2   -1    0    0    0  501  0.00000000000E+00  0.00000000000E+00  0.19863432083E+04  0.19863432083E+04  0.25500000920E-02 0.  1.
        2   -1    0    0  501    0  0.00000000000E+00  0.00000000000E+00 -0.20193028143E+04  0.20193028143E+04  0.25500000920E-02 0. -1.
    10030    2    1    2    0    0  0.00000000000E+00  0.00000000000E+00 -0.32959605963E+02  0.40056460226E+04  0.40055104197E+04 0.  0.
        3    1    3    3  502    0  0.45082618556E+03 -0.18492680843E+04  0.60643110067E+03  0.19976975215E+04  0.10100000352E+00 0. -1.
       -3    1    3    3    0  502 -0.45082618556E+03  0.18492680843E+04 -0.63939070664E+03  0.20079485011E+04  0.10100000352E+00 0.  1.
</event>
<event>
 5   0  0.5888700E-08  0.3984603E+04  0.7818609E-02  0.8007660E-01
        2   -1    0    0  501    0  0.00000000000E+00  0.00000000000E+00  0.22521486588E+04  0.22521486588E+04  0.25500000920E-02 0. -1.
       -2   -1    0    0    0  501  0.00000000000E+00  0.00000000000E+00 -0.17624348425E+04  0.17624348425E+04  0.25500000920E-02 0.  1.
    10030    2    1    2    0    0  0.00000000000E+00  0.00000000000E+00  0.48971381634E+03  0.40145835012E+04  0.39846029999E+04 0.  0.
        5    1    3    3  502    0  0.90750830545E+03  0.16691408470E+04 -0.35935578701E+03  0.19335876404E+04  0.46999998093E+01 0. -1.
       -5    1    3    3    0  502 -0.90750830545E+03 -0.16691408470E+04  0.84906960335E+03  0.20809958608E+04  0.46999998093E+01 0.  1.
</event>
<event>
 5   0  0.5951623E-08  0.3995114E+04  0.7818609E-02  0.8005533E-01
       -2   -1    0    0    0  501  0.00000000000E+00  0.00000000000E+00  0.16001115214E+04  0.16001115214E+04  0.25500000920E-02 0.  1.
        2   -1    0    0  501    0  0.00000000000E+00  0.00000000000E+00 -0.24937219016E+04  0.24937219016E+04  0.25500000920E-02 0. -1.
    10030    2    1    2    0    0  0.00000000000E+00  0.00000000000E+00 -0.89361038026E+03  0.40938334230E+04  0.39951135883E+04 0.  0.
        2    1    3    3  502    0 -0.89251430824E+03 -0.41615859207E+02  0.13839361946E+04  0.16472987163E+04  0.25500000920E-02 0.  1.
       -2    1    3    3    0  502  0.89251430824E+03  0.41615859207E+02 -0.22775465748E+04  0.24465347066E+04  0.25500000920E-02 0. -1.
</event>
<event>
 5   0  0.5888700E-08  0.3940405E+04  0.7818609E-02  0.8016678E-01
       -2   -1    0    0    0  501  0.00000000000E+00  0.00000000000E+00  0.15676727455E+04  0.15676727455E+04  0.25500000920E-02 0.  1.
        2   -1    0    0  501    0  0.00000000000E+00  0.00000000000E+00 -0.24760898423E+04  0.24760898423E+04  0.25500000920E-02 0. -1.
    10030    2    1    2    0    0  0.00000000000E+00  0.00000000000E+00 -0.90841709671E+03  0.40437625878E+04  0.39404053402E+04 0.  0.
        5    1    3    3  502    0  0.80024558421E+03  0.40245655109E+03 -0.22550339679E+04  0.24264304146E+04  0.46999998093E+01 0. -1.
       -5    1    3    3    0  502 -0.80024558421E+03 -0.40245655109E+03  0.13466168712E+04  0.16173321732E+04  0.46999998093E+01 0.  1.
</event>
<event>
 5   0  0.5951623E-08  0.4000941E+04  0.7818609E-02  0.8004357E-01
       -2   -1    0    0    0  501  0.00000000000E+00  0.00000000000E+00  0.15792406013E+04  0.15792406013E+04  0.25500000920E-02 0. -1.
        2   -1    0    0  501    0  0.00000000000E+00  0.00000000000E+00 -0.25340553375E+04  0.25340553375E+04  0.25500000920E-02 0.  1.
    10030    2    1    2    0    0  0.00000000000E+00  0.00000000000E+00 -0.95481473619E+03  0.41132959388E+04  0.40009414266E+04 0.  0.
        2    1    3    3  502    0 -0.19096803106E+04 -0.26984876979E+03  0.68721787637E+02  0.19298756259E+04  0.25500000920E-02 0. -1.
       -2    1    3    3    0  502  0.19096803106E+04  0.26984876979E+03 -0.10235365238E+04  0.21834203129E+04  0.25500000920E-02 0.  1.
</event>
<event>
 5   0  0.5846812E-08  0.3880381E+04  0.7818609E-02  0.8029122E-01
        2   -1    0    0  501    0  0.00000000000E+00  0.00000000000E+00  0.19052031888E+04  0.19052031888E+04  0.25500000920E-02 0.  1.
       -2   -1    0    0    0  501  0.00000000000E+00  0.00000000000E+00 -0.19758199563E+04  0.19758199563E+04  0.25500000920E-02 0. -1.
    10030    2    1    2    0    0  0.00000000000E+00  0.00000000000E+00 -0.70616767545E+02  0.38810231451E+04  0.38803806417E+04 0.  0.
        4    1    3    3  502    0  0.48343053608E+03  0.92439999466E+03 -0.16714632411E+04  0.19702820642E+04  0.12699999809E+01 0. -1.
       -4    1    3    3    0  502 -0.48343053608E+03 -0.92439999466E+03  0.16008464735E+04  0.19107410809E+04  0.12699999809E+01 0.  1.
</event>
<event>
 5   0  0.6161563E-08  0.3991971E+04  0.7818609E-02  0.8006168E-01
       -2   -1    0    0    0  501  0.00000000000E+00  0.00000000000E+00  0.22808716977E+04  0.22808716977E+04  0.25500000920E-02 0.  1.
        2   -1    0    0  501    0  0.00000000000E+00  0.00000000000E+00 -0.17466823210E+04  0.17466823210E+04  0.25500000920E-02 0. -1.
    10030    2    1    2    0    0  0.00000000000E+00  0.00000000000E+00  0.53418937666E+03  0.40275540187E+04  0.39919710775E+04 0.  0.
        1    1    3    3  502    0  0.15173235873E+04 -0.32513692545E+03  0.15336624423E+04  0.21817665722E+04  0.50400001928E-02 0.  1.
       -1    1    3    3    0  502 -0.15173235873E+04  0.32513692545E+03 -0.99947306562E+03  0.18457874465E+04  0.50400001928E-02 0. -1.
</event>
<event>
 5   0  0.1879500E-08  0.4005251E+04  0.7818609E-02  0.8003488E-01
       -1   -1    0    0    0  501  0.00000000000E+00  0.00000000000E+00  0.15804229795E+04  0.15804229795E+04  0.50400001928E-02 0. -1.
        1   -1    0    0  501    0  0.00000000000E+00  0.00000000000E+00 -0.25376174393E+04  0.25376174393E+04  0.50400001928E-02 0.  1.
    10030    2    1    2    0    0  0.00000000000E+00  0.00000000000E+00 -0.95719445975E+03  0.41180404188E+04  0.40052510105E+04 0.  0.
        1    1    3    3  502    0 -0.97186351949E+03  0.52566183682E+03  0.12386675797E+04  0.16598603677E+04  0.50400001928E-02 0. -1.
       -1    1    3    3    0  502  0.97186351949E+03 -0.52566183682E+03 -0.21958620395E+04  0.24581800511E+04  0.50400001928E-02 0.  1.
</event>
<event>
 5   0  0.1879500E-08  0.3999789E+04  0.7818609E-02  0.8004589E-01
        1   -1    0    0  501    0  0.00000000000E+00  0.00000000000E+00  0.13435049578E+04  0.13435049578E+04  0.50400001928E-02 0.  1.
       -1   -1    0    0    0  501  0.00000000000E+00  0.00000000000E+00 -0.29769724847E+04  0.29769724847E+04  0.50400001928E-02 0. -1.
    10030    2    1    2    0    0  0.00000000000E+00  0.00000000000E+00 -0.16334675270E+04  0.43204774425E+04  0.39997886406E+04 0.  0.
        5    1    3    3  502    0  0.73351314192E+03  0.22658643954E+03  0.11779904426E+04  0.14060819737E+04  0.46999998093E+01 0.  1.
       -5    1    3    3    0  502 -0.73351314192E+03 -0.22658643954E+03 -0.28114579696E+04  0.29143954688E+04  0.46999998093E+01 0. -1.
</event>
<event>
 5   0  0.1879500E-08  0.4011766E+04  0.7818609E-02  0.8002177E-01
       -1   -1    0    0    0  501  0.00000000000E+00  0.00000000000E+00  0.17402405293E+04  0.17402405294E+04  0.50400001928E-02 0.  1.
        1   -1    0    0  501    0  0.00000000000E+00  0.00000000000E+00 -0.23120753028E+04  0.23120753028E+04  0.50400001928E-02 0. -1.
    10030    2    1    2    0    0  0.00000000000E+00  0.00000000000E+00 -0.57183477342E+03  0.40523158321E+04  0.40117662688E+04 0.  0.
        2    1    3    3  502    0 -0.60610249289E+03 -0.20831671994E+03  0.16340342491E+04  0.17552276248E+04  0.25500000920E-02 0.  1.
       -2    1    3    3    0  502  0.60610249289E+03  0.20831671994E+03 -0.22058690225E+04  0.22970882073E+04  0.25500000920E-02 0. -1.
</event>
<event>
 5   0  0.1879500E-08  0.4059048E+04  0.7818609E-02  0.7992739E-01
        3   -1    0    0  501    0  0.00000000000E+00  0.00000000000E+00  0.21265968230E+04  0.21265968254E+04  0.10100000352E+00 0. -1.
       -3   -1    0    0    0  501  0.00000000000E+00  0.00000000000E+00 -0.19368823514E+04  0.19368823540E+04  0.10100000352E+00 0.  1.
    10030    2    1    2    0    0  0.00000000000E+00  0.00000000000E+00  0.18971447169E+03  0.40634791794E+04  0.40590480979E+04 0.  0.
        3    1    3    3  502    0  0.40642442377E+03 -0.16377048986E+04 -0.10340748971E+04  0.19790323520E+04  0.10100000352E+00 0. -1.
       -3    1    3    3    0  502 -0.40642442377E+03  0.16377048986E+04  0.12237893688E+04  0.20844468275E+04  0.10100000352E+00 0.  1.
</event>
<event>
 5   0  0.6161563E-08  0.3982371E+04  0.7818609E-02  0.8008112E-01
        2   -1    0    0  501    0  0.00000000000E+00  0.00000000000E+00  0.16893605660E+04  0.16893605660E+04  0.25500000920E-02 0. -1.
       -2   -1    0    0    0  501  0.00000000000E+00  0.00000000000E+00 -0.23469346632E+04  0.23469346632E+04  0.25500000920E-02 0.  1.
    10030    2    1    2    0    0  0.00000000000E+00  0.00000000000E+00 -0.65757409722E+03  0.40362952292E+04  0.39823705860E+04 0.  0.
        1    1    3    3  502    0 -0.23872103952E+03 -0.19702171363E+04 -0.16512115861E+03  0.19914839432E+04  0.50400001928E-02 0.  1.
       -1    1    3    3    0  502  0.23872103952E+03  0.19702171363E+04 -0.49245293861E+03  0.20448112861E+04  0.50400001928E-02 0. -1.
</event>
<event>
 5   0  0.5846812E-08  0.4035058E+04  0.7818609E-02  0.7997511E-01
        2   -1    0    0  501    0  0.00000000000E+00  0.00000000000E+00  0.24348939470E+04  0.24348939470E+04  0.25500000920E-02 0. -1.
       -2   -1    0    0    0  501  0.00000000000E+00  0.00000000000E+00 -0.16717041758E+04  0.16717041758E+04  0.25500000920E-02 0.  1.
    10030    2    1    2    0    0  0.00000000000E+00  0.00000000000E+00  0.76318977119E+03  0.41065981229E+04  0.40350575604E+04 0.  0.
        4    1    3    3  502    0 -0.10909186917E+04 -0.13686577130E+04 -0.63973798654E+03  0.18634896918E+04  0.12699999809E+01 0. -1.
       -4    1    3    3    0  502  0.10909186917E+04  0.13686577130E+04  0.14029277577E+04  0.22431084311E+04  0.12699999809E+01 0.  1.
</event>
<event>
 5   0  0.1879500E-08  0.3983264E+04  0.7818609E-02  0.8007931E-01
       -1   -1    0    0    0  501  0.00000000000E+00  0.00000000000E+00  0.21777100471E+04  0.21777100471E+04  0.50400001928E-02 0. -1.
        1   -1    0    0  501    0  0.00000000000E+00  0.00000000000E+00 -0.18214532445E+04  0.18214532445E+04  0.50400001928E-02 0.  1.
    10030    2    1    2    0    0  0.00000000000E+00  0.00000000000E+00  0.35625680258E+03  0.39991632916E+04  0.39832635016E+04 0.  0.
        4    1    3    3  502    0  0.84054911408E+03  0.24244807663E+03 -0.16182288590E+04  0.18395570489E+04  0.12699999809E+01 0.  1.
       -4    1    3    3    0  502 -0.84054911408E+03 -0.24244807663E+03  0.19744856616E+04  0.21596062427E+04  0.12699999809E+01 0. -1.
</event>
<event>
 5   0  0.1879500E-08  0.4010403E+04  0.7818609E-02  0.8002451E-01
       -1   -1    0    0    0  501  0.00000000000E+00  0.00000000000E+00  0.23295139631E+04  0.23295139631E+04  0.50400001928E-02 0.  1.
        1   -1    0    0  501    0  0.00000000000E+00  0.00000000000E+00 -0.17260390624E+04  0.17260390624E+04  0.50400001928E-02 0. -1.
    10030    2    1    2    0    0  0.00000000000E+00  0.00000000000E+00  0.60347490077E+03  0.40555530255E+04  0.40104025218E+04 0.  0.
        2    1    3    3  502    0 -0.10337562883E+04  0.97142402650E+03 -0.11314391266E+04  0.18145167952E+04  0.25500000920E-02 0. -1.
       -2    1    3    3    0  502  0.10337562883E+04 -0.97142402650E+03  0.17349140274E+04  0.22410362303E+04  0.25500000920E-02 0.  1.
</event>
<event>
 5   0  0.1879500E-08  0.4001959E+04  0.7818609E-02  0.8004151E-01
        1   -1    0    0  501    0  0.00000000000E+00  0.00000000000E+00  0.15765412053E+04  0.15765412053E+04  0.50400001928E-02 0.  1.
       -1   -1    0    0    0  501  0.00000000000E+00  0.00000000000E+00 -0.25396857277E+04  0.25396857277E+04  0.50400001928E-02 0. -1.
    10030    2    1    2    0    0  0.00000000000E+00  0.00000000000E+00 -0.96314452243E+03  0.41162269330E+04  0.40019591194E+04 0.  0.
        2    1    3    3  502    0  0.10348225266E+04 -0.60235728405E+03  0.11673964800E+04  0.16722758447E+04  0.25500000920E-02 0.  1.
       -2    1    3    3    0  502 -0.10348225266E+04  0.60235728405E+03 -0.21305410024E+04  0.24439510883E+04  0.25500000920E-02 0. -1.
</event>
<event>
 5   0  0.5951623E-08  0.3986783E+04  0.7818609E-02  0.8007218E-01
        2   -1    0    0  501    0  0.00000000000E+00  0.00000000000E+00  0.31369296179E+04  0.31369296179E+04  0.25500000920E-02 0.  1.
       -2   -1    0    0    0  501  0.00000000000E+00  0.00000000000E+00 -0.12667193496E+04  0.12667193496E+04  0.25500000920E-02 0. -1.
    10030    2    1    2    0    0  0.00000000000E+00  0.00000000000E+00  0.18702102683E+04  0.44036489675E+04  0.39867828861E+04 0.  0.
        2    1    3    3  502    0 -0.11252258458E+04 -0.15158843013E+04  0.16419998253E+04  0.25020395372E+04  0.25500000920E-02 0.  1.
       -2    1    3    3    0  502  0.11252258458E+04  0.15158843013E+04  0.22821044295E+03  0.19016094303E+04  0.25500000920E-02 0. -1.
</event>
<event>
 5   0  0.1879500E-08  0.3982555E+04  0.7818609E-02  0.8008075E-01
        1   -1    0    0  501    0  0.00000000000E+00  0.00000000000E+00  0.21533007886E+04  0.21533007886E+04  0.50400001928E-02 0.  1.
       -1   -1    0    0    0  501  0.00000000000E+00  0.00000000000E+00 -0.18414456707E+04  0.18414456707E+04  0.50400001928E-02 0. -1.
    10030    2    1    2    0    0  0.00000000000E+00  0.00000000000E+00  0.31185511797E+03  0.39947464593E+04  0.39825551672E+04 0.  0.
        1    1    3    3  502    0 -0.15395363327E+03 -0.71702379359E+03  0.20129082230E+04  0.21423408590E+04  0.50400001928E-02 0.  1.
       -1    1    3    3    0  502  0.15395363327E+03  0.71702379359E+03 -0.17010531051E+04  0.18524056003E+04  0.50400001928E-02 0. -1.
</event>
<event>
 5   0  0.1879500E-08  0.3994739E+04  0.7818609E-02  0.8005609E-01
       -1   -1    0    0    0  501  0.00000000000E+00  0.00000000000E+00  0.17957194627E+04  0.17957194627E+04  0.50400001928E-02 0. -1.
        1   -1    0    0  501    0  0.00000000000E+00  0.00000000000E+00 -0.22216636521E+04  0.22216636521E+04  0.50400001928E-02 0.  1.
    10030    2    1    2    0    0  0.00000000000E+00  0.00000000000E+00 -0.42594418934E+03  0.40173831148E+04  0.39947388699E+04 0.  0.
        4    1    3    3  502    0  0.12981731240E+04 -0.13350197723E+04 -0.93952969811E+03  0.20857250343E+04  0.12699999809E+01 0.  1.
       -4    1    3    3    0  502 -0.12981731240E+04  0.13350197723E+04  0.51358550876E+03  0.19316580805E+04  0.12699999809E+01 0. -1.
</event>
<event>
 5   0  0.1879500E-08  0.3931286E+04  0.7818609E-02  0.8018554E-01
        1   -1    0    0  501    0  0.00000000000E+00  0.00000000000E+00  0.25310397961E+04  0.25310397961E+04  0.50400001928E-02 0. -1.
       -1   -1    0    0    0  501  0.00000000000E+00  0.00000000000E+00 -0.15265477472E+04  0.15265477472E+04  0.50400001928E-02 0.  1.
    10030    2    1    2    0    0  0.00000000000E+00  0.00000000000E+00  0.10044920489E+04  0.40575875433E+04  0.39312863538E+04 0.  0.
        3    1    3    3  502    0  0.64724637131E+03 -0.12748211606E+04  0.18945302233E+04  0.23734661644E+04  0.10100000352E+00 0. -1.
       -3    1    3    3    0  502 -0.64724637131E+03  0.12748211606E+04 -0.89003817436E+03  0.16841213789E+04  0.10100000352E+00 0.  1.
</event>
<event>
 5   0  0.1879500E-08  0.4005391E+04  0.7818609E-02  0.8003460E-01
        1   -1    0    0  501    0  0.00000000000E+00  0.00000000000E+00  0.13318043704E+04  0.13318043704E+04  0.50400001928E-02 0.  1.
       -1   -1    0    0    0  501  0.00000000000E+00  0.00000000000E+00 -0.30115458803E+04  0.30115458803E+04  0.50400001928E-02 0. -1.
    10030    2    1    2    0    0  0.00000000000E+00  0.00000000000E+00 -0.16797415099E+04  0.43433502507E+04  0.40053913492E+04 0.  0.
        4    1    3    3  502    0 -0.51842083200E+03 -0.16434568411E+04 -0.19462945083E+04  0.25995719789E+04  0.12699999809E+01 0. -1.
       -4    1    3    3    0  502  0.51842083200E+03  0.16434568411E+04  0.26655299838E+03  0.17437782718E+04  0.12699999809E+01 0.  1.
</event>
<event>
 5   0  0.5846812E-08  0.4012017E+04  0.7818609E-02  0.8002127E-01
        2   -1    0    0  501    0  0.00000000000E+00  0.00000000000E+00  0.22924199332E+04  0.22924199332E+04  0.25500000920E-02 0. -1.
       -2   -1    0    0    0  501  0.00000000000E+00  0.00000000000E+00 -0.17553804694E+04  0.17553804694E+04  0.25500000920E-02 0.  1.
    10030    2    1    2    0    0  0.00000000000E+00  0.00000000000E+00  0.53703946385E+03  0.40478004026E+04  0.40120165395E+04 0.  0.
        4    1    3    3  502    0  0.53408467497E+03  0.16521121016E+04 -0.74510352021E+03  0.18894183510E+04  0.12699999809E+01 0.  1.
       -4    1    3    3    0  502 -0.53408467497E+03 -0.16521121016E+04  0.12821429841E+04  0.21583820516E+04  0.12699999809E+01 0. -1.
</event>
<event>
 5   0  0.5951623E-08  0.3997733E+04  0.7818609E-02  0.8005004E-01
        2   -1    0    0  501    0  0.00000000000E+00  0.00000000000E+00  0.16326264019E+04  0.16326264019E+04  0.25500000920E-02 0. -1.
       -2   -1    0    0    0  501  0.00000000000E+00  0.00000000000E+00 -0.24472642202E+04  0.24472642202E+04  0.25500000920E-02 0.  1.
    10030    2    1    2    0    0  0.00000000000E+00  0.00000000000E+00 -0.81463781829E+03  0.40798906221E+04  0.39977334470E+04 0.  0.
        2    1    3    3  502    0  0.66601208095E+03  0.13764905512E+04  0.90644763473E+03  0.17776235946E+04  0.25500000920E-02 0. -1.
       -2    1    3    3    0  502 -0.66601208095E+03 -0.13764905512E+04 -0.17210854530E+04  0.23022670275E+04  0.25500000920E-02 0.  1.
</event>
<event>
 5   0  0.5888700E-08  0.3876873E+04  0.7818609E-02  0.8029856E-01
       -2   -1    0    0    0  501  0.00000000000E+00  0.00000000000E+00  0.19799251184E+04  0.19799251184E+04  0.25500000920E-02 0.  1.
        2   -1    0    0  501    0  0.00000000000E+00  0.00000000000E+00 -0.18978177026E+04  0.18978177026E+04  0.25500000920E-02 0. -1.
    10030    2    1    2    0    0  0.00000000000E+00  0.00000000000E+00  0.82107415716E+02  0.38777428210E+04  0.38768734514E+04 0.  0.
        5    1    3    3  502    0  0.18259060320E+04 -0.25948975703E+03 -0.55594450748E+03  0.19262305566E+04  0.46999998093E+01 0. -1.
       -5    1    3    3    0  502 -0.18259060320E+04  0.25948975703E+03  0.63805192320E+03  0.19515122644E+04  0.46999998093E+01 0.  1.
</event>
<event>
 5   0  0.5945387E-08  0.3980505E+04  0.7818609E-02  0.8008491E-01
       -2   -1    0    0    0  501  0.00000000000E+00  0.00000000000E+00  0.19475693124E+04  0.19475693124E+04  0.25500000920E-02 0. -1.
        2   -1    0    0  501    0  0.00000000000E+00  0.00000000000E+00 -0.20338707251E+04  0.20338707251E+04  0.25500000920E-02 0.  1.
    10030    2    1    2    0    0  0.00000000000E+00  0.00000000000E+00 -0.86301412665E+02  0.39814400375E+04  0.39805045959E+04 0.  0.
        3    1    3    3  502    0  0.16321111692E+04 -0.41237751268E+03 -0.11051262268E+04  0.20137393250E+04  0.10100000352E+00 0.  1.
       -3    1    3    3    0  502 -0.16321111692E+04  0.41237751268E+03  0.10188248142E+04  0.19677007125E+04  0.10100000352E+00 0. -1.
</event>
<event>
 5   0  0.6161563E-08  0.4012757E+04  0.7818609E-02  0.8001978E-01
       -2   -1    0    0    0  501  0.00000000000E+00  0.00000000000E+00  0.12452207542E+04  0.12452207542E+04  0.25500000920E-02 0.  1.
        2   -1    0    0  501    0  0.00000000000E+00  0.00000000000E+00 -0.32328037345E+04  0.32328037345E+04  0.25500000920E-02 0. -1.
    10030    2    1    2    0    0  0.00000000000E+00  0.00000000000E+00 -0.19875829803E+04  0.44780244888E+04  0.40127568103E+04 0.  0.
        1    1    3    3  502    0 -0.84762104852E+03 -0.86882280233E+03  0.78901563969E+03  0.14477085976E+04  0.50400001928E-02 0.  1.
       -1    1    3    3    0  502  0.84762104852E+03  0.86882280233E+03 -0.27765986200E+04  0.30303158912E+04  0.50400001928E-02 0. -1.
</event>
<event>
 5   0  0.1879500E-08  0.4011206E+04  0.7818609E-02  0.8002290E-01
       -1   -1    0    0    0  501  0.00000000000E+00  0.00000000000E+00  0.14734769710E+04  0.14734769710E+04  0.50400001928E-02 0. -1.
        1   -1    0    0  501    0  0.00000000000E+00  0.00000000000E+00 -0.27298992968E+04  0.27298992968E+04  0.50400001928E-02 0.  1.
    10030    2    1    2    0    0  0.00000000000E+00  0.00000000000E+00 -0.12564223258E+04  0.42033762677E+04  0.40112061761E+04 0.  0.
        3    1    3    3  502    0 -0.20964335910E+03  0.24412082986E+03 -0.27026722168E+04  0.27217609078E+04  0.10100000352E+00 0.  1.
       -3    1    3    3    0  502  0.20964335910E+03 -0.24412082986E+03  0.14462498910E+04  0.14816153600E+04  0.10100000352E+00 0. -1.
</event>
<event>
 5   0  0.1879500E-08  0.3981407E+04  0.7818609E-02  0.8008308E-01
       -1   -1    0    0    0  501  0.00000000000E+00  0.00000000000E+00  0.15490841960E+04  0.15490841960E+04  0.50400001928E-02 0. -1.
        1   -1    0    0  501    0  0.00000000000E+00  0.00000000000E+00 -0.25582212912E+04  0.25582212912E+04  0.50400001928E-02 0.  1.
    10030    2    1    2    0    0  0.00000000000E+00  0.00000000000E+00 -0.10091370952E+04  0.41073054872E+04  0.39814068730E+04 0.  0.
        3    1    3    3  502    0  0.11530272633E+04 -0.10548376864E+03 -0.21751272938E+04  0.24640976949E+04  0.10100000352E+00 0.  1.
       -3    1    3    3    0  502 -0.11530272633E+04  0.10548376864E+03  0.11659901986E+04  0.16432077923E+04  0.10100000352E+00 0. -1.
</event>
<event>
 5   0  0.5888700E-08  0.4000729E+04  0.7818609E-02  0.8004400E-01
        2   -1    0    0  501    0  0.00000000000E+00  0.00000000000E+00  0.25924438597E+04  0.25924438597E+04  0.25500000920E-02 0. -1.
       -2   -1    0    0    0  501  0.00000000000E+00  0.00000000000E+00 -0.15435080244E+04  0.15435080244E+04  0.25500000920E-02 0.  1.
    10030    2    1    2    0    0  0.00000000000E+00  0.00000000000E+00  0.10489358354E+04  0.41359518841E+04  0.40007288837E+04 0.  0.
        5    1    3    3  502    0 -0.13140399251E+04  0.13465563401E+04 -0.17784724774E+03  0.18898588930E+04  0.46999998093E+01 0.  1.
       -5    1    3    3    0  502  0.13140399251E+04 -0.13465563401E+04  0.12267830831E+04  0.22460929911E+04  0.46999998093E+01 0. -1.
</event>
<event>
 5   0  0.1879500E-08  0.4003857E+04  0.7818609E-02  0.8003769E-01
       -1   -1    0    0    0  501  0.00000000000E+00  0.00000000000E+00  0.16157439032E+04  0.16157439032E+04  0.50400001928E-02 0. -1.
        1   -1    0    0  501    0  0.00000000000E+00  0.00000000000E+00 -0.24804168511E+04  0.24804168511E+04  0.50400001928E-02 0.  1.
    10030    2    1    2    0    0  0.00000000000E+00  0.00000000000E+00 -0.86467294796E+03  0.40961607543E+04  0.40038573424E+04 0.  0.
        4    1    3    3  502    0 -0.15453224356E+04  0.12722254019E+04 -0.39782621376E+03  0.20407954852E+04  0.12699999809E+01 0. -1.
       -4    1    3    3    0  502  0.15453224356E+04 -0.12722254019E+04 -0.46684673420E+03  0.20553652691E+04  0.12699999809E+01 0.  1.
</event>
<event>
 5   0  0.6161563E-08  0.4011582E+04  0.7818609E-02  0.8002214E-01
       -2   -1    0    0    0  501  0.00000000000E+00  0.00000000000E+00  0.12994952040E+04  0.12994952040E+04  0.25500000920E-02 0. -1.
        2   -1    0    0  501    0  0.00000000000E+00  0.00000000000E+00 -0.30959695080E+04  0.30959695080E+04  0.25500000920E-02 0.  1.
    10030    2    1    2    0    0  0.00000000000E+00  0.00000000000E+00 -0.17964743041E+04  0.43954647120E+04  0.40115819958E+04 0.  0.
        1    1    3    3  502    0  0.53860552888E+03 -0.21202310455E+03 -0.30024675177E+04  0.30577542262E+04  0.50400001928E-02 0.  1.
       -1    1    3    3    0  502 -0.53860552888E+03  0.21202310455E+03  0.12059932136E+04  0.13377104858E+04  0.50400001928E-02 0. -1.
</event>
<event>
 5   0  0.5945387E-08  0.3964074E+04  0.7818609E-02  0.8011833E-01
        2   -1    0    0  501    0  0.00000000000E+00  0.00000000000E+00  0.28617608765E+04  0.28617608765E+04  0.25500000920E-02 0. -1.
       -2   -1    0    0    0  501  0.00000000000E+00  0.00000000000E+00 -0.13727457970E+04  0.13727457970E+04  0.25500000920E-02 0.  1.
    10030    2    1    2    0    0  0.00000000000E+00  0.00000000000E+00  0.14890150795E+04  0.42345066734E+04  0.39640737708E+04 0.  0.
        3    1    3    3  502    0 -0.19712545635E+04  0.20056495874E+03  0.69218272232E+03  0.20988539225E+04  0.10100000352E+00 0. -1.
       -3    1    3    3    0  502  0.19712545635E+04 -0.20056495874E+03  0.79683235719E+03  0.21356527509E+04  0.10100000352E+00 0.  1.
</event>
<event>
 5   0  0.1879500E-08  0.3980059E+04  0.7818609E-02  0.8008581E-01
       -1   -1    0    0    0  501  0.00000000000E+00  0.00000000000E+00  0.17706296178E+04  0.17706296179E+04  0.50400001928E-02 0.  1.
        1   -1    0    0  501    0  0.00000000000E+00  0.00000000000E+00 -0.22366150652E+04  0.22366150652E+04  0.50400001928E-02 0. -1.
    10030    2    1    2    0    0  0.00000000000E+00  0.00000000000E+00 -0.46598544731E+03  0.40072446830E+04  0.39800587323E+04 0.  0.
        3    1    3    3  502    0  0.63596763813E+03  0.15408414303E+04  0.86143240581E+03  0.18763562962E+04  0.10100000352E+00 0.  1.
       -3    1    3    3    0  502 -0.63596763813E+03 -0.15408414303E+04 -0.13274178531E+04  0.21308883868E+04  0.10100000352E+00 0. -1.
</event>
<event>
 5   0  0.5945387E-08  0.4013322E+04  0.7818609E-02  0.8001864E-01
        2   -1    0    0  501    0  0.00000000000E+00  0.00000000000E+00  0.26430716774E+04  0.26430716774E+04  0.25500000920E-02 0. -1.
       -2   -1    0    0    0  501  0.00000000000E+00  0.00000000000E+00 -0.15234880587E+04  0.15234880587E+04  0.25500000920E-02 0.  1.
    10030    2    1    2    0    0  0.00000000000E+00  0.00000000000E+00  0.11195836187E+04  0.41665597360E+04  0.40133218852E+04 0.  0.
        3    1    3    3  502    0 -0.41814987481E+02 -0.88984275693E+03 -0.13069510469E+04  0.15816730618E+04  0.10100000352E+00 0.  1.
       -3    1    3    3    0  502  0.41814987481E+02  0.88984275693E+03  0.24265346656E+04  0.25848866742E+04  0.10100000352E+00 0. -1.
</event>
<event>
 5   0  0.6161563E-08  0.3995706E+04  0.7818609E-02  0.8005413E-01
        2   -1    0    0  501    0  0.00000000000E+00  0.00000000000E+00  0.19569931349E+04  0.19569931349E+04  0.25500000920E-02 0.  1.
       -2   -1    0    0    0  501  0.00000000000E+00  0.00000000000E+00 -0.20395662597E+04  0.20395662597E+04  0.25500000920E-02 0. -1.
    10030    2    1    2    0    0  0.00000000000E+00  0.00000000000E+00 -0.82573124797E+02  0.39965593946E+04  0.39957062797E+04 0.  0.
        1    1    3    3  502    0  0.91199070487E+03  0.30390303967E+03  0.17104677025E+04  0.19620866099E+04  0.50400001928E-02 0.  1.
       -1    1    3    3    0  502 -0.91199070487E+03 -0.30390303967E+03 -0.17930408273E+04  0.20344727847E+04  0.50400001928E-02 0. -1.
</event>
<event>
 5   0  0.1879500E-08  0.3994868E+04  0.7818609E-02  0.8005583E-01
       -1   -1    0    0    0  501  0.00000000000E+00  0.00000000000E+00  0.14632875734E+04  0.14632875734E+04  0.50400001928E-02 0.  1.
        1   -1    0    0  501    0  0.00000000000E+00  0.00000000000E+00 -0.27265612482E+04  0.27265612482E+04  0.50400001928E-02 0. -1.
    10030    2    1    2    0    0  0.00000000000E+00  0.00000000000E+00 -0.12632736748E+04  0.41898488217E+04  0.39948683046E+04 0.  0.
        2    1    3    3  502    0  0.19102899040E+03 -0.53245545086E+03  0.13775192184E+04  0.14891474337E+04  0.25500000920E-02 0.  1.
       -2    1    3    3    0  502 -0.19102899040E+03  0.53245545086E+03 -0.26407928932E+04  0.27007013879E+04  0.25500000920E-02 0. -1.
</event>
<event>
 5   0  0.5846812E-08  0.4002852E+04  0.7818609E-02  0.8003972E-01
       -2   -1    0    0    0  501  0.00000000000E+00  0.00000000000E+00  0.30010700650E+04  0.30010700650E+04  0.25500000920E-02 0. -1.
        2   -1    0    0  501    0  0.00000000000E+00  0.00000000000E+00 -0.13347589279E+04  0.13347589279E+04  0.25500000920E-02 0.  1.
    10030    2    1    2    0    0  0.00000000000E+00  0.00000000000E+00  0.16663111371E+04  0.43358289928E+04  0.40028515148E+04 0.  0.
        4    1    3    3  502    0  0.54686764233E+02 -0.71471846594E+03 -0.11909490784E+04  0.13900267796E+04  0.12699999809E+01 0.  1.
       -4    1    3    3    0  502 -0.54686764233E+02  0.71471846594E+03  0.28572602155E+04  0.29458022133E+04  0.12699999809E+01 0. -1.
</event>
<event>
 5   0  0.5951623E-08  0.3990450E+04  0.7818609E-02  0.8006476E-01
       -2   -1    0    0    0  501  0.00000000000E+00  0.00000000000E+00  0.19541480754E+04  0.19541480754E+04  0.25500000920E-02 0.  1.
        2   -1    0    0  501    0  0.00000000000E+00  0.00000000000E+00 -0.20371651554E+04  0.20371651554E+04  0.25500000920E-02 0. -1.
    10030    2    1    2    0    0  0.00000000000E+00  0.00000000000E+00 -0.83017079928E+02  0.39913132308E+04  0.39904497830E+04 0.  0.
        2    1    3    3  502    0  0.18754269859E+04 -0.21476582853E+03  0.60482910707E+03  0.19822131543E+04  0.25500000920E-02 0. -1.
       -2    1    3    3    0  502 -0.18754269859E+04  0.21476582853E+03 -0.68784618700E+03  0.20091000765E+04  0.25500000920E-02 0.  1.
</event>
<event>
 5   0  0.1879500E-08  0.4028197E+04  0.7818609E-02  0.7998882E-01
        1   -1    0    0  501    0  0.00000000000E+00  0.00000000000E+00  0.29951816717E+04  0.29951816717E+04  0.50400001928E-02 0.  1.
       -1   -1    0    0    0  501  0.00000000000E+00  0.00000000000E+00 -0.13543729600E+04  0.13543729600E+04  0.50400001928E-02 0. -1.
    10030    2    1    2    0    0  0.00000000000E+00  0.00000000000E+00  0.16408087117E+04  0.43495546317E+04  0.40281971483E+04 0.  0.
        3    1    3    3  502    0  0.13472729232E+04 -0.38347889842E+03 -0.74225071692E+03  0.15852875234E+04  0.10100000352E+00 0. -1.
       -3    1    3    3    0  502 -0.13472729232E+04  0.38347889842E+03  0.23830594286E+04  0.27642671082E+04  0.10100000352E+00 0.  1.
</event>
<event>
 5   0  0.1879500E-08  0.4009714E+04  0.7818609E-02  0.8002590E-01
       -1   -1    0    0    0  501  0.00000000000E+00  0.00000000000E+00  0.28872573028E+04  0.28872573028E+04  0.50400001928E-02 0.  1.
        1   -1    0    0  501    0  0.00000000000E+00  0.00000000000E+00 -0.13921347055E+04  0.13921347055E+04  0.50400001928E-02 0. -1.
    10030    2    1    2    0    0  0.00000000000E+00  0.00000000000E+00  0.14951225973E+04  0.42793920083E+04  0.40097137529E+04 0.  0.
        4    1    3    3  502    0 -0.15590755292E+04 -0.52200241518E+02  0.20916297995E+04  0.26092830819E+04  0.12699999809E+01 0.  1.
       -4    1    3    3    0  502  0.15590755292E+04  0.52200241518E+02 -0.59650720217E+03  0.16701089264E+04  0.12699999809E+01 0. -1.
</event>
<event>
 5   0  0.1879500E-08  0.3902312E+04  0.7818609E-02  0.8024549E-01
        1   -1    0    0  501    0  0.00000000000E+00  0.00000000000E+00  0.28320987899E+04  0.28320987899E+04  0.50400001928E-02 0.  1.
       -1   -1    0    0    0  501  0.00000000000E+00  0.00000000000E+00 -0.13442359000E+04  0.13442359000E+04  0.50400001928E-02 0. -1.
    10030    2    1    2    0    0  0.00000000000E+00  0.00000000000E+00  0.14878628899E+04  0.41763346899E+04  0.39023115537E+04 0.  0.
        5    1    3    3  502    0 -0.54976389798E+03 -0.95388880988E+03  0.24678981060E+04  0.27023484892E+04  0.46999998093E+01 0.  1.
       -5    1    3    3    0  502  0.54976389798E+03  0.95388880988E+03 -0.98003521608E+03  0.14739862007E+04  0.46999998093E+01 0. -1.
</event>
<event>
 5   0  0.1879500E-08  0.4056529E+04  0.7818609E-02  0.7993239E-01
        1   -1    0    0  501    0  0.00000000000E+00  0.00000000000E+00  0.18714741400E+04  0.18714741400E+04  0.50400001928E-02 0. -1.
       -1   -1    0    0    0  501  0.00000000000E+00  0.00000000000E+00 -0.21981906630E+04  0.21981906630E+04  0.50400001928E-02 0.  1.
    10030    2    1    2    0    0  0.00000000000E+00  0.00000000000E+00 -0.32671652295E+03  0.40696648030E+04  0.40565290486E+04 0.  0.
        4    1    3    3  502    0 -0.13352823171E+04  0.13283620879E+04 -0.91834459235E+03  0.20954434151E+04  0.12699999809E+01 0.  1.
       -4    1    3    3    0  502  0.13352823171E+04 -0.13283620879E+04  0.59162806941E+03  0.19742213879E+04  0.12699999809E+01 0. -1.
</event>
<event>
 5   0  0.1879500E-08  0.4002663E+04  0.7818609E-02  0.8004010E-01
        1   -1    0    0  501    0  0.00000000000E+00  0.00000000000E+00  0.19608875001E+04  0.19608875001E+04  0.50400001928E-02 0.  1.
       -1   -1    0    0    0  501  0.00000000000E+00  0.00000000000E+00 -0.20426091624E+04  0.20426091624E+04  0.50400001928E-02 0. -1.
    10030    2    1    2    0    0  0.00000000000E+00  0.00000000000E+00 -0.81721662302E+02  0.40034966625E+04  0.40026625010E+04 0.  0.
        1    1    3    3  502    0 -0.13212929357E+04  0.66401394498E+03  0.13079739658E+04  0.19742151444E+04  0.50400001928E-02 0.  1.
       -1    1    3    3    0  502  0.13212929357E+04 -0.66401394498E+03 -0.13896956281E+04  0.20292815182E+04  0.50400001928E-02 0. -1.
</event>
<event>
 5   0  0.5888700E-08  0.3983344E+04  0.7818609E-02  0.8007915E-01
        2   -1    0    0  501    0  0.00000000000E+00  0.00000000000E+00  0.26402864139E+04  0.26402864139E+04  0.25500000920E-02 0. -1.
       -2   -1    0    0    0  501  0.00000000000E+00  0.00000000000E+00 -0.15023968986E+04  0.15023968986E+04  0.25500000920E-02 0.  1.
    10030    2    1    2    0    0  0.00000000000E+00  0.00000000000E+00  0.11378895153E+04  0.41426833125E+04  0.39833443836E+04 0.  0.
        5    1    3    3  502    0  0.15622327025E+04  0.12204055742E+04  0.76838448954E+03  0.21261226672E+04  0.46999998093E+01 0.  1.
       -5    1    3    3    0  502 -0.15622327025E+04 -0.12204055742E+04  0.36950502576E+03  0.20165606453E+04  0.46999998093E+01 0. -1.
</event>
<event>
 5   0  0.1879500E-08  0.3767725E+04  0.7818609E-02  0.8053117E-01
       -1   -1    0    0    0  501  0.00000000000E+00  0.00000000000E+00  0.13645767539E+04  0.13645767539E+04  0.50400001928E-02 0. -1.
        1   -1    0    0  501    0  0.00000000000E+00  0.00000000000E+00 -0.26007612861E+04  0.26007612861E+04  0.50400001928E-02 0.  1.
    10030    2    1    2    0    0  0.00000000000E+00  0.00000000000E+00 -0.12361845322E+04  0.39653380400E+04  0.37677252519E+04 0.  0.
        4    1    3    3  502    0 -0.34672276301E+03 -0.14321678054E+04  0.61718656225E+03  0.15975738364E+04  0.12699999809E+01 0. -1.
       -4    1    3    3    0  502  0.34672276301E+03  0.14321678054E+04 -0.18533710945E+04  0.23677642036E+04  0.12699999809E+01 0.  1.
</event>
<event>
 5   0  0.5888700E-08  0.3988042E+04  0.7818609E-02  0.8006963E-01
       -2   -1    0    0    0  501  0.00000000000E+00  0.00000000000E+00  0.14126703817E+04  0.14126703817E+04  0.25500000920E-02 0. -1.
        2   -1    0    0  501    0  0.00000000000E+00  0.00000000000E+00 -0.28146121968E+04  0.28146121968E+04  0.25500000920E-02 0.  1.
    10030    2    1    2    0    0  0.00000000000E+00  0.00000000000E+00 -0.14019418151E+04  0.42272825785E+04  0.39880417683E+04 0.  0.
        5    1    3    3  502    0 -0.88538703458E+03 -0.29713028963E+03  0.11665070444E+04  0.14943083298E+04  0.46999998093E+01 0. -1.
       -5    1    3    3    0  502  0.88538703458E+03  0.29713028963E+03 -0.25684488595E+04  0.27329742487E+04  0.46999998093E+01 0.  1.
</event>
<event>
 5   0  0.5945387E-08  0.4000564E+04  0.7818609E-02  0.8004433E-01
        2   -1    0    0  501    0  0.00000000000E+00  0.00000000000E+00  0.27566565982E+04  0.27566565982E+04  0.25500000920E-02 0.  1.
       -2   -1    0    0    0  501  0.00000000000E+00  0.00000000000E+00 -0.14514420965E+04  0.14514420965E+04  0.25500000920E-02 0. -1.
    10030    2    1    2    0    0  0.00000000000E+00  0.00000000000E+00  0.13052145016E+04  0.42080986947E+04  0.40005636764E+04 0.  0.
        3    1    3    3  502    0 -0.53847926865E+03 -0.18624300384E+04  0.13459483731E+03  0.19433788491E+04  0.10100000352E+00 0. -1.
       -3    1    3    3    0  502  0.53847926865E+03  0.18624300384E+04  0.11706196643E+04  0.22647198456E+04  0.10100000352E+00 0.  1.
</event>
<event>
 5   0  0.5945387E-08  0.4001902E+04  0.7818609E-02  0.8004163E-01
        2   -1    0    0  501    0  0.00000000000E+00  0.00000000000E+00  0.22565757716E+04  0.22565757716E+04  0.25500000920E-02 0.  1.
       -2   -1    0    0    0  501  0.00000000000E+00  0.00000000000E+00 -0.17742835463E+04  0.17742835463E+04  0.25500000920E-02 0. -1.
    10030    2    1    2    0    0  0.00000000000E+00  0.00000000000E+00  0.48229222535E+03  0.40308593179E+04  0.40019021790E+04 0.  0.
        3    1    3    3  502    0 -0.19709551699E+04 -0.68367156347E+02 -0.99631564171E+02  0.19746556177E+04  0.10100000352E+00 0. -1.
       -3    1    3    3    0  502  0.19709551699E+04  0.68367156347E+02  0.58192378952E+03  0.20562037002E+04  0.10100000352E+00 0.  1.
</event>
<event>
 5   0  0.1879500E-08  0.4017738E+04  0.7818609E-02  0.8000978E-01
        1   -1    0    0  501    0  0.00000000000E+00  0.00000000000E+00  0.13162411877E+04  0.13162411877E+04  0.50400001928E-02 0. -1.
       -1   -1    0    0    0  501  0.00000000000E+00  0.00000000000E+00 -0.30659682796E+04  0.30659682796E+04  0.50400001928E-02 0.  1.
    10030    2    1    2    0    0  0.00000000000E+00  0.00000000000E+00 -0.17497270919E+04  0.43822094673E+04  0.40177375373E+04 0.  0.
        5    1    3    3  502    0  0.42498751045E+03  0.24366990923E+02  0.12664765638E+04  0.13361111896E+04  0.46999998093E+01 0. -1.
       -5    1    3    3    0  502 -0.42498751045E+03 -0.24366990923E+02 -0.30162036557E+04  0.30460982777E+04  0.46999998093E+01 0.  1.
</event>
<event>
 5   0  0.5888700E-08  0.4013607E+04  0.7818609E-02  0.8001807E-01
       -2   -1    0    0    0  501  0.00000000000E+00  0.00000000000E+00  0.29110078781E+04  0.29110078781E+04  0.25500000920E-02 0.  1.
        2   -1    0    0  501    0  0.00000000000E+00  0.00000000000E+00 -0.13834591746E+04  0.13834591746E+04  0.25500000920E-02 0. -1.
    10030    2    1    2    0    0  0.00000000000E+00  0.00000000000E+00  0.15275487035E+04  0.42944670526E+04  0.40136071338E+04 0.  0.
        5    1    3    3  502    0  0.73222876661E+03  0.38342238496E+03  0.27204186678E+04  0.28432149954E+04  0.46999998093E+01 0.  1.
       -5    1    3    3    0  502 -0.73222876661E+03 -0.38342238496E+03 -0.11928699643E+04  0.14512520572E+04  0.46999998093E+01 0. -1.
</event>
<event>
 5   0  0.5945387E-08  0.4009789E+04  0.7818609E-02  0.8002575E-01
        2   -1    0    0  501    0  0.00000000000E+00  0.00000000000E+00  0.12204058210E+04  0.12204058210E+04  0.25500000920E-02 0. -1.
       -2   -1    0    0    0  501  0.00000000000E+00  0.00000000000E+00 -0.32936596812E+04  0.32936596812E+04  0.25500000920E-02 0.  1.
    10030    2    1    2    0    0  0.00000000000E+00  0.00000000000E+00 -0.20732538603E+04  0.45140655022E+04  0.40097887462E+04 0.  0.
        3    1    3    3  502    0  0.10271408249E+04  0.12274132752E+03  0.89677376139E+03  0.13690459806E+04  0.10100000352E+00 0. -1.
       -3    1    3    3    0  502 -0.10271408249E+04 -0.12274132752E+03 -0.29700276216E+04  0.31450195216E+04  0.10100000352E+00 0.  1.
</event>
<event>
 5   0  0.1879500E-08  0.3994701E+04  0.7818609E-02  0.8005616E-01
       -1   -1    0    0    0  501  0.00000000000E+00  0.00000000000E+00  0.16570454675E+04  0.16570454675E+04  0.50400001928E-02 0. -1.
        1   -1    0    0  501    0  0.00000000000E+00  0.00000000000E+00 -0.24075440055E+04  0.24075440055E+04  0.50400001928E-02 0.  1.
    10030    2    1    2    0    0  0.00000000000E+00  0.00000000000E+00 -0.75049853797E+03  0.40645894730E+04  0.39947014317E+04 0.  0.
        3    1    3    3  502    0  0.30787159691E+03 -0.27965587785E+03 -0.23629925974E+04  0.23993178939E+04  0.10100000352E+00 0.  1.
       -3    1    3    3    0  502 -0.30787159691E+03  0.27965587785E+03  0.16124940595E+04  0.16652715791E+04  0.10100000352E+00 0. -1.
</event>
<event>
 5   0  0.1879500E-08  0.3988737E+04  0.7818609E-02  0.8006823E-01
       -1   -1    0    0    0  501  0.00000000000E+00  0.00000000000E+00  0.18495216937E+04  0.18495216937E+04  0.50400001928E-02 0. -1.
        1   -1    0    0  501    0  0.00000000000E+00  0.00000000000E+00 -0.21505589901E+04  0.21505589901E+04  0.50400001928E-02 0.  1.
    10030    2    1    2    0    0  0.00000000000E+00  0.00000000000E+00 -0.30103729643E+03  0.40000806838E+04  0.39887368957E+04 0.  0.
        3    1    3    3  502    0  0.12672750472E+03 -0.17793319900E+04  0.74388284671E+03  0.19327296476E+04  0.10100000352E+00 0. -1.
       -3    1    3    3    0  502 -0.12672750472E+03  0.17793319900E+04 -0.10449201431E+04  0.20673510362E+04  0.10100000352E+00 0.  1.
</event>
<event>
 5   0  0.1879500E-08  0.3816295E+04  0.7818609E-02  0.8042667E-01
        1   -1    0    0  501    0  0.00000000000E+00  0.00000000000E+00  0.16967055910E+04  0.16967055910E+04  0.50400001928E-02 0. -1.
       -1   -1    0    0    0  501  0.00000000000E+00  0.00000000000E+00 -0.21459395434E+04  0.21459395434E+04  0.50400001928E-02 0.  1.
    10030    2    1    2    0    0  0.00000000000E+00  0.00000000000E+00 -0.44923395239E+03  0.38426451343E+04  0.38162953875E+04 0.  0.
        4    1    3    3  502    0 -0.13188036207E+04 -0.13750810822E+04 -0.32990970860E+03  0.19336320750E+04  0.12699999809E+01 0.  1.
       -4    1    3    3    0  502  0.13188036207E+04  0.13750810822E+04 -0.11932424379E+03  0.19090130594E+04  0.12699999809E+01 0. -1.
</event>
<event>
 5   0  0.6161563E-08  0.4012386E+04  0.7818609E-02  0.8002053E-01
        2   -1    0    0  501    0  0.00000000000E+00  0.00000000000E+00  0.24357980515E+04  0.24357980515E+04  0.25500000920E-02 0.  1.
       -2   -1    0    0    0  501  0.00000000000E+00  0.00000000000E+00 -0.16523582283E+04  0.16523582283E+04  0.25500000920E-02 0. -1.
    10030    2    1    2    0    0  0.00000000000E+00  0.00000000000E+00  0.78343982319E+03  0.40881562799E+04  0.40123862990E+04 0.  0.
        1    1    3    3  502    0 -0.11578275865E+04  0.12235762495E+04  0.15018394740E+04  0.22568175300E+04  0.50400001928E-02 0.  1.
       -1    1    3    3    0  502  0.11578275865E+04 -0.12235762495E+04 -0.71839965076E+03  0.18313387498E+04  0.50400001928E-02 0. -1.
</event>
<event>
 5   0  0.5888700E-08  0.3998201E+04  0.7818609E-02  0.8004910E-01
       -2   -1    0    0    0  501  0.00000000000E+00  0.00000000000E+00  0.29373113840E+04  0.29373113840E+04  0.25500000920E-02 0.  1.
        2   -1    0    0  501    0  0.00000000000E+00  0.00000000000E+00 -0.13605647244E+04  0.13605647244E+04  0.25500000920E-02 0. -1.
    10030    2    1    2    0    0  0.00000000000E+00  0.00000000000E+00  0.15767466597E+04  0.42978761084E+04  0.39982007222E+04 0.  0.
        5    1    3    3  502    0  0.69883362480E+03  0.16893869274E+04 -0.80932730485E+02  0.18300188038E+04  0.46999998093E+01 0.  1.
       -5    1    3    3    0  502 -0.69883362480E+03 -0.16893869274E+04  0.16576793901E+04  0.24678573046E+04  0.46999998093E+01 0. -1.
</event>
<event>
 5   0  0.5951623E-08  0.3951430E+04  0.7818609E-02  0.8014417E-01
       -2   -1    0    0    0  501  0.00000000000E+00  0.00000000000E+00  0.16958422102E+04  0.16958422102E+04  0.25500000920E-02 0. -1.
        2   -1    0    0  501    0  0.00000000000E+00  0.00000000000E+00 -0.23017766508E+04  0.23017766508E+04  0.25500000920E-02 0.  1.
    10030    2    1    2    0    0  0.00000000000E+00  0.00000000000E+00 -0.60593444063E+03  0.39976188610E+04  0.39514301223E+04 0.  0.
        2    1    3    3  502    0  0.84192683663E+03  0.94081165717E+03  0.12344949172E+04  0.17657703908E+04  0.25500000920E-02 0. -1.
       -2    1    3    3    0  502 -0.84192683663E+03 -0.94081165717E+03 -0.18404293578E+04  0.22318484702E+04  0.25500000920E-02 0.  1.
</event>
<event>
 5   0  0.5945387E-08  0.3974592E+04  0.7818609E-02  0.8009692E-01
        2   -1    0    0  501    0  0.00000000000E+00  0.00000000000E+00  0.18004689795E+04  0.18004689795E+04  0.25500000920E-02 0.  1.
       -2   -1    0    0    0  501  0.00000000000E+00  0.00000000000E+00 -0.21935095626E+04  0.21935095626E+04  0.25500000920E-02 0. -1.
    10030    2    1    2    0    0  0.00000000000E+00  0.00000000000E+00 -0.39304058308E+03  0.39939785421E+04  0.39745922677E+04 0.  0.
        3    1    3    3  502    0  0.16259220492E+04  0.11415181279E+04 -0.14469581547E+03  0.19918893132E+04  0.10100000352E+00 0. -1.
       -3    1    3    3    0  502 -0.16259220492E+04 -0.11415181279E+04 -0.24834476761E+03  0.20020892289E+04  0.10100000352E+00 0.  1.
</event>
<event>
 5   0  0.1879500E-08  0.3984910E+04  0.7818609E-02  0.8007598E-01
        1   -1    0    0  501    0  0.00000000000E+00  0.00000000000E+00  0.30104219683E+04  0.30104219683E+04  0.50400001928E-02 0. -1.
       -1   -1    0    0    0  501  0.00000000000E+00  0.00000000000E+00 -0.13187111030E+04  0.13187111030E+04  0.50400001928E-02 0.  1.
    10030    2    1    2    0    0  0.00000000000E+00  0.00000000000E+00  0.16917108653E+04  0.43291330713E+04  0.39849099735E+04 0.  0.
        4    1    3    3  502    0 -0.13169733984E+03  0.12817283308E+04  0.24969066394E+04  0.28097537405E+04  0.12699999809E+01 0. -1.
       -4    1    3    3    0  502  0.13169733984E+03 -0.12817283308E+04 -0.80519577418E+03  0.15193793308E+04  0.12699999809E+01 0.  1.
</event>
<event>
 5   0  0.1879500E-08  0.3977773E+04  0.7818609E-02  0.8009045E-01
       -1   -1    0    0    0  501  0.00000000000E+00  0.00000000000E+00  0.25497980705E+04  0.25497980705E+04  0.50400001928E-02 0.  1.
        1   -1    0    0  501    0  0.00000000000E+00  0.00000000000E+00 -0.15513660343E+04  0.15513660343E+04  0.50400001928E-02 0. -1.
    10030    2    1    2    0    0  0.00000000000E+00  0.00000000000E+00  0.99843203625E+03  0.41011641048E+04  0.39777733072E+04 0.  0.
        1    1    3    3  502    0 -0.76080050559E+03 -0.17318191044E+04  0.11328156424E+04  0.22048324425E+04  0.50400001928E-02 0.  1.
       -1    1    3    3    0  502  0.76080050559E+03  0.17318191044E+04 -0.13438360615E+03  0.18963316623E+04  0.50400001928E-02 0. -1.
</event>
<event>
 5   0  0.5945387E-08  0.3911973E+04  0.7818609E-02  0.8022544E-01
       -2   -1    0    0    0  501  0.00000000000E+00  0.00000000000E+00  0.25841468937E+04  0.25841468937E+04  0.25500000920E-02 0.  1.
        2   -1    0    0  501    0  0.00000000000E+00  0.00000000000E+00 -0.14805205092E+04  0.14805205092E+04  0.25500000920E-02 0. -1.
    10030    2    1    2    0    0  0.00000000000E+00  0.00000000000E+00  0.11036263845E+04  0.40646674029E+04  0.39119726354E+04 0.  0.
        3    1    3    3  502    0 -0.19519197050E+04 -0.24591239749E+02  0.42334571622E+03  0.19974525951E+04  0.10100000352E+00 0. -1.
       -3    1    3    3    0  502  0.19519197050E+04  0.24591239749E+02  0.68028066832E+03  0.20672148079E+04  0.10100000352E+00 0.  1.
</event>
<event>
 5   0  0.5888700E-08  0.3990794E+04  0.7818609E-02  0.8006406E-01
        2   -1    0    0  501    0  0.00000000000E+00  0.00000000000E+00  0.17116615269E+04  0.17116615269E+04  0.25500000920E-02 0. -1.
       -2   -1    0    0    0  501  0.00000000000E+00  0.00000000000E+00 -0.23261660186E+04  0.23261660186E+04  0.25500000920E-02 0.  1.
    10030    2    1    2    0    0  0.00000000000E+00  0.00000000000E+00 -0.61450449172E+03  0.40378275456E+04  0.39907938455E+04 0.  0.
        5    1    3    3  502    0 -0.53869951002E+03  0.59215254094E+02  0.16357667678E+04  0.17232117157E+04  0.46999998093E+01 0. -1.
       -5    1    3    3    0  502  0.53869951002E+03 -0.59215254094E+02 -0.22502712595E+04  0.23146158299E+04  0.46999998093E+01 0.  1.
</event>
<event>
 5   0  0.1879500E-08  0.4004314E+04  0.7818609E-02  0.8003677E-01
       -1   -1    0    0    0  501  0.00000000000E+00  0.00000000000E+00  0.12677619957E+04  0.12677619957E+04  0.50400001928E-02 0.  1.
        1   -1    0    0  501    0  0.00000000000E+00  0.00000000000E+00 -0.31619752795E+04  0.31619752796E+04  0.50400001928E-02 0. -1.
    10030    2    1    2    0    0  0.00000000000E+00  0.00000000000E+00 -0.18942132839E+04  0.44297372752E+04  0.40043137193E+04 0.  0.
        3    1    3    3  502    0  0.12549948267E+04 -0.13777617582E+04 -0.17565492429E+04  0.25609968235E+04  0.10100000352E+00 0. -1.
       -3    1    3    3    0  502 -0.12549948267E+04  0.13777617582E+04 -0.13766404103E+03  0.18687404517E+04  0.10100000352E+00 0.  1.
</event>
<event>
 5   0  0.1879500E-08  0.4008422E+04  0.7818609E-02  0.8002850E-01
        1   -1    0    0  501    0  0.00000000000E+00  0.00000000000E+00  0.15230407916E+04  0.15230407916E+04  0.50400001928E-02 0. -1.
       -1   -1    0    0    0  501  0.00000000000E+00  0.00000000000E+00 -0.26373961948E+04  0.26373961948E+04  0.50400001928E-02 0.  1.
    10030    2    1    2    0    0  0.00000000000E+00  0.00000000000E+00 -0.11143554032E+04  0.41604369865E+04  0.40084221277E+04 0.  0.
        4    1    3    3  502    0 -0.89418465021E+03  0.16364423046E+03  0.12967631587E+04  0.15836482960E+04  0.12699999809E+01 0. -1.
       -4    1    3    3    0  502  0.89418465021E+03 -0.16364423046E+03 -0.24111185619E+04  0.25767886905E+04  0.12699999809E+01 0.  1.
</event>
<event>
 5   0  0.1879500E-08  0.3821207E+04  0.7818609E-02  0.8041619E-01
       -1   -1    0    0    0  501  0.00000000000E+00  0.00000000000E+00  0.14392930343E+04  0.14392930343E+04  0.50400001928E-02 0.  1.
        1   -1    0    0  501    0  0.00000000000E+00  0.00000000000E+00 -0.25362486447E+04  0.25362486447E+04  0.50400001928E-02 0. -1.
    10030    2    1    2    0    0  0.00000000000E+00  0.00000000000E+00 -0.10969556104E+04  0.39755416790E+04  0.38212066197E+04 0.  0.
        2    1    3    3  502    0  0.56097032063E+03 -0.22937493394E+03  0.13366384535E+04  0.14676181098E+04  0.25500000920E-02 0.  1.
       -2    1    3    3    0  502 -0.56097032063E+03  0.22937493394E+03 -0.24335940639E+04  0.25079235691E+04  0.25500000920E-02 0. -1.
</event>
<event>
 5   0  0.5846812E-08  0.3988394E+04  0.7818609E-02  0.8006892E-01
       -2   -1    0    0    0  501  0.00000000000E+00  0.00000000000E+00  0.17745618742E+04  0.17745618742E+04  0.25500000920E-02 0.  1.
        2   -1    0    0  501    0  0.00000000000E+00  0.00000000000E+00 -0.22410161867E+04  0.22410161867E+04  0.25500000920E-02 0. -1.
    10030    2    1    2    0    0  0.00000000000E+00  0.00000000000E+00 -0.46645431246E+03  0.40155780609E+04  0.39883941051E+04 0.  0.
        4    1    3    3  502    0 -0.17721789573E+04  0.90860078527E+03 -0.12934139148E+03  0.19957215367E+04  0.12699999809E+01 0.  1.
       -4    1    3    3    0  502  0.17721789573E+04 -0.90860078527E+03 -0.33711292098E+03  0.20198565241E+04  0.12699999809E+01 0. -1.
</event>
<event>
 5   0  0.1879500E-08  0.4014107E+04  0.7818609E-02  0.8001707E-01
       -1   -1    0    0    0  501  0.00000000000E+00  0.00000000000E+00  0.16792133461E+04  0.16792133461E+04  0.50400001928E-02 0. -1.
        1   -1    0    0  501    0  0.00000000000E+00  0.00000000000E+00 -0.23988998786E+04  0.23988998786E+04  0.50400001928E-02 0.  1.
    10030    2    1    2    0    0  0.00000000000E+00  0.00000000000E+00 -0.71968653252E+03  0.40781132247E+04  0.40141074685E+04 0.  0.
        5    1    3    3  502    0 -0.16477289094E+04 -0.73050048068E+03 -0.12568723062E+04  0.21973601424E+04  0.46999998093E+01 0.  1.
       -5    1    3    3    0  502  0.16477289094E+04  0.73050048068E+03  0.53718577370E+03  0.18807530823E+04  0.46999998093E+01 0. -1.
</event>
<event>
 5   0  0.5888700E-08  0.3975009E+04  0.7818609E-02  0.8009607E-01
       -2   -1    0    0    0  501  0.00000000000E+00  0.00000000000E+00  0.14992865245E+04  0.14992865245E+04  0.25500000920E-02 0. -1.
        2   -1    0    0  501    0  0.00000000000E+00  0.00000000000E+00 -0.26347030755E+04  0.26347030755E+04  0.25500000920E-02 0.  1.
    10030    2    1    2    0    0  0.00000000000E+00  0.00000000000E+00 -0.11354165511E+04  0.41339896000E+04  0.39750093419E+04 0.  0.
        5    1    3    3  502    0  0.88613704353E+03 -0.64537309924E+03  0.11564287686E+04  0.15934537596E+04  0.46999998093E+01 0. -1.
       -5    1    3    3    0  502 -0.88613704353E+03  0.64537309924E+03 -0.22918453197E+04  0.25405358404E+04  0.46999998093E+01 0.  1.
</event>
<event>
 5   0  0.1879500E-08  0.4020240E+04  0.7818609E-02  0.8000476E-01
       -1   -1    0    0    0  501  0.00000000000E+00  0.00000000000E+00  0.16898322548E+04  0.16898322549E+04  0.50400001928E-02 0.  1.
        1   -1    0    0  501    0  0.00000000000E+00  0.00000000000E+00 -0.23911143280E+04  0.23911143280E+04  0.50400001928E-02 0. -1.
    10030    2    1    2    0    0  0.00000000000E+00  0.00000000000E+00 -0.70128207317E+03  0.40809465829E+04  0.40202398518E+04 0.  0.
        2    1    3    3  502    0  0.16216481330E+04 -0.16808128206E+03  0.84294947602E+03  0.18353631259E+04  0.25500000920E-02 0.  1.
       -2    1    3    3    0  502 -0.16216481330E+04  0.16808128206E+03 -0.15442315492E+04  0.22455834570E+04  0.25500000920E-02 0. -1.
</event>
<event>
 5   0  0.6161563E-08  0.3862746E+04  0.7818609E-02  0.8032822E-01
        2   -1    0    0  501    0  0.00000000000E+00  0.00000000000E+00  0.20200612678E+04  0.20200612678E+04  0.25500000920E-02 0. -1.
       -2   -1    0    0    0  501  0.00000000000E+00  0.00000000000E+00 -0.18465781116E+04  0.18465781116E+04  0.25500000920E-02 0.  1.
    10030    2    1    2    0    0  0.00000000000E+00  0.00000000000E+00  0.17348315619E+03  0.38666393794E+04  0.38627456149E+04 0.  0.
        1    1    3    3  502    0  0.15335714537E+04 -0.10862226164E+04  0.53270154759E+03  0.19533284196E+04  0.50400001928E-02 0. -1.
       -1    1    3    3    0  502 -0.15335714537E+04  0.10862226164E+04 -0.35921839141E+03  0.19133109598E+04  0.50400001928E-02 0.  1.
</event>
<event>
 5   0  0.1879500E-08  0.3983967E+04  0.7818609E-02  0.8007789E-01
        1   -1    0    0  501    0  0.00000000000E+00  0.00000000000E+00  0.21989300614E+04  0.21989300614E+04  0.50400001928E-02 0. -1.
       -1   -1    0    0    0  501  0.00000000000E+00  0.00000000000E+00 -0.18045131031E+04  0.18045131031E+04  0.50400001928E-02 0.  1.
    10030    2    1    2    0    0  0.00000000000E+00  0.00000000000E+00  0.39441695828E+03  0.40034431645E+04  0.39839669219E+04 0.  0.
        5    1    3    3  502    0  0.70782930249E+03  0.16249553249E+04 -0.71634192098E+03  0.19117191131E+04  0.46999998093E+01 0.  1.
       -5    1    3    3    0  502 -0.70782930249E+03 -0.16249553249E+04  0.11107588793E+04  0.20917240514E+04  0.46999998093E+01 0. -1.
</event>
<event>
 5   0  0.1879500E-08  0.3968487E+04  0.7818609E-02  0.8010934E-01
       -1   -1    0    0    0  501  0.00000000000E+00  0.00000000000E+00  0.15488767744E+04  0.15488767744E+04  0.50400001928E-02 0. -1.
        1   -1    0    0  501    0  0.00000000000E+00  0.00000000000E+00 -0.25419855191E+04  0.25419855191E+04  0.50400001928E-02 0.  1.
    10030    2    1    2    0    0  0.00000000000E+00  0.00000000000E+00 -0.99310874472E+03  0.40908622935E+04  0.39684870323E+04 0.  0.
        2    1    3    3  502    0 -0.13009041564E+04  0.22024393733E+03 -0.20242681161E+04  0.24163030485E+04  0.25500000920E-02 0.  1.
       -2    1    3    3    0  502  0.13009041564E+04 -0.22024393733E+03  0.10311593714E+04  0.16745592451E+04  0.25500000920E-02 0. -1.
</event>
<event>
 5   0  0.5951623E-08  0.4001495E+04  0.7818609E-02  0.8004245E-01
       -2   -1    0    0    0  501  0.00000000000E+00  0.00000000000E+00  0.20188382006E+04  0.20188382006E+04  0.25500000920E-02 0. -1.
        2   -1    0    0  501    0  0.00000000000E+00  0.00000000000E+00 -0.19828186864E+04  0.19828186864E+04  0.25500000920E-02 0.  1.
    10030    2    1    2    0    0  0.00000000000E+00  0.00000000000E+00  0.36019514200E+02  0.40016568870E+04  0.40014947752E+04 0.  0.
        2    1    3    3  502    0 -0.89246794759E+02 -0.82002244819E+03 -0.18048609249E+04  0.19844205109E+04  0.25500000920E-02 0.  1.
       -2    1    3    3    0  502  0.89246794759E+02  0.82002244819E+03  0.18408804391E+04  0.20172363761E+04  0.25500000920E-02 0. -1.
</event>
<event>
 5   0  0.5951623E-08  0.3967873E+04  0.7818609E-02  0.8011059E-01
       -2   -1    0    0    0  501  0.00000000000E+00  0.00000000000E+00  0.18442319303E+04  0.18442319303E+04  0.25500000920E-02 0. -1.
        2   -1    0    0  501    0  0.00000000000E+00  0.00000000000E+00 -0.21342244918E+04  0.21342244918E+04  0.25500000920E-02 0.  1.
    10030    2    1    2    0    0  0.00000000000E+00  0.00000000000E+00 -0.28999256147E+03  0.39784564221E+04  0.39678734628E+04 0.  0.
        2    1    3    3  502    0  0.15850783842E+04  0.11499069090E+04 -0.46403603929E+03  0.20124832494E+04  0.25500000920E-02 0.  1.
       -2    1    3    3    0  502 -0.15850783842E+04 -0.11499069090E+04  0.17404347782E+03  0.19659731727E+04  0.25500000920E-02 0. -1.
</event>
<event>
 5   0  0.5846812E-08  0.4025560E+04  0.7818609E-02  0.7999410E-01
        2   -1    0    0  501    0  0.00000000000E+00  0.00000000000E+00  0.20879740416E+04  0.20879740416E+04  0.25500000920E-02 0.  1.
       -2   -1    0    0    0  501  0.00000000000E+00  0.00000000000E+00 -0.19402935388E+04  0.19402935388E+04  0.25500000920E-02 0. -1.
    10030    2    1    2    0    0  0.00000000000E+00  0.00000000000E+00  0.14768050281E+03  0.40282675804E+04  0.40255596093E+04 0.  0.
        4    1    3    3  502    0 -0.18681839090E+04 -0.68351493693E+02  0.82032993148E+03  0.20415008826E+04  0.12699999809E+01 0.  1.
       -4    1    3    3    0  502  0.18681839090E+04  0.68351493693E+02 -0.67264942866E+03  0.19867666977E+04  0.12699999809E+01 0. -1.
</event>
<event>
 5   0  0.5951623E-08  0.3997385E+04  0.7818609E-02  0.8005074E-01
       -2   -1    0    0    0  501  0.00000000000E+00  0.00000000000E+00  0.29825750193E+04  0.29825750193E+04  0.25500000920E-02 0. -1.
        2   -1    0    0  501    0  0.00000000000E+00  0.00000000000E+00 -0.13393698834E+04  0.13393698834E+04  0.25500000920E-02 0.  1.
    10030    2    1    2    0    0  0.00000000000E+00  0.00000000000E+00  0.16432051359E+04  0.43219449027E+04  0.39973847229E+04 0.  0.
        2    1    3    3  502    0 -0.13961946654E+04 -0.13375924418E+04  0.27428163996E+03  0.19528808213E+04  0.25500000920E-02 0.  1.
       -2    1    3    3    0  502  0.13961946654E+04  0.13375924418E+04  0.13689234959E+04  0.23690640814E+04  0.25500000920E-02 0. -1.
</event>
<event>
 5   0  0.5951623E-08  0.3994232E+04  0.7818609E-02  0.8005711E-01
       -2   -1    0    0    0  501  0.00000000000E+00  0.00000000000E+00  0.14304772595E+04  0.14304772595E+04  0.25500000920E-02 0.  1.
        2   -1    0    0  501    0  0.00000000000E+00  0.00000000000E+00 -0.27882112202E+04  0.27882112202E+04  0.25500000920E-02 0. -1.
    10030    2    1    2    0    0  0.00000000000E+00  0.00000000000E+00 -0.13577339607E+04  0.42186884797E+04  0.39942322142E+04 0.  0.
        2    1    3    3  502    0 -0.23797714806E+03  0.76408884934E+03  0.12537125755E+04  0.14873668393E+04  0.25500000920E-02 0.  1.
       -2    1    3    3    0  502  0.23797714806E+03 -0.76408884934E+03 -0.26114465361E+04  0.27313216405E+04  0.25500000920E-02 0. -1.
</event>
<event>
 5   0  0.5945387E-08  0.3990778E+04  0.7818609E-02  0.8006410E-01
        2   -1    0    0  501    0  0.00000000000E+00  0.00000000000E+00  0.20291892992E+04  0.20291892992E+04  0.25500000920E-02 0.  1.
       -2   -1    0    0    0  501  0.00000000000E+00  0.00000000000E+00 -0.19621514505E+04  0.19621514505E+04  0.25500000920E-02 0. -1.
    10030    2    1    2    0    0  0.00000000000E+00  0.00000000000E+00  0.67037848733E+02  0.39913407497E+04  0.39907777321E+04 0.  0.
        3    1    3    3  502    0  0.16552101276E+04 -0.34435024933E+03 -0.10264791991E+04  0.19778668350E+04  0.10100000352E+00 0. -1.
       -3    1    3    3    0  502 -0.16552101276E+04  0.34435024933E+03  0.10935170479E+04  0.20134739146E+04  0.10100000352E+00 0.  1.
</event>
<event>
 5   0  0.1879500E-08  0.3969017E+04  0.7818609E-02  0.8010826E-01
        1   -1    0    0  501    0  0.00000000000E+00  0.00000000000E+00  0.20804066546E+04  0.20804066546E+04  0.50400001928E-02 0. -1.
       -1   -1    0    0    0  501  0.00000000000E+00  0.00000000000E+00 -0.18930312296E+04  0.18930312296E+04  0.50400001928E-02 0.  1.
    10030    2    1    2    0    0  0.00000000000E+00  0.00000000000E+00  0.18737542493E+03  0.39734378842E+04  0.39690173935E+04 0.  0.
        4    1    3    3  502    0  0.26097329510E+03 -0.10981590353E+04  0.17277472776E+04  0.20637762950E+04  0.12699999809E+01 0. -1.
       -4    1    3    3    0  502 -0.26097329510E+03  0.10981590353E+04 -0.15403718527E+04  0.19096615892E+04  0.12699999809E+01 0.  1.
</event>
<event>
 5   0  0.1879500E-08  0.4010499E+04  0.7818609E-02  0.8002432E-01
       -1   -1    0    0    0  501  0.00000000000E+00  0.00000000000E+00  0.16810084258E+04  0.16810084258E+04  0.50400001928E-02 0. -1.
        1   -1    0    0  501    0  0.00000000000E+00  0.00000000000E+00 -0.23920316390E+04  0.23920316390E+04  0.50400001928E-02 0.  1.
    10030    2    1    2    0    0  0.00000000000E+00  0.00000000000E+00 -0.71102321317E+03  0.40730400649E+04  0.40104988917E+04 0.  0.
        1    1    3    3  502    0  0.58559232881E+03 -0.13616295025E+04 -0.17271551934E+04  0.22759653644E+04  0.50400001928E-02 0.  1.
       -1    1    3    3    0  502 -0.58559232881E+03  0.13616295025E+04  0.10161319802E+04  0.17970747005E+04  0.50400001928E-02 0. -1.
</event>
<event>
 5   0  0.1879500E-08  0.4001760E+04  0.7818609E-02  0.8004192E-01
        1   -1    0    0  501    0  0.00000000000E+00  0.00000000000E+00  0.16413453004E+04  0.16413453004E+04  0.50400001928E-02 0. -1.
       -1   -1    0    0    0  501  0.00000000000E+00  0.00000000000E+00 -0.24391704823E+04  0.24391704823E+04  0.50400001928E-02 0.  1.
    10030    2    1    2    0    0  0.00000000000E+00  0.00000000000E+00 -0.79782518186E+03  0.40805157827E+04  0.40017601168E+04 0.  0.
        3    1    3    3  502    0  0.33932014403E+03 -0.15889970875E+04  0.79174525448E+03  0.18074596711E+04  0.10100000352E+00 0. -1.
       -3    1    3    3    0  502 -0.33932014403E+03  0.15889970875E+04 -0.15895704363E+04  0.22730561116E+04  0.10100000352E+00 0.  1.
</event>
<event>
 5   0  0.1879500E-08  0.3995210E+04  0.7818609E-02  0.8005514E-01
        1   -1    0    0  501    0  0.00000000000E+00  0.00000000000E+00  0.27983685568E+04  0.27983685568E+04  0.50400001928E-02 0. -1.
       -1   -1    0    0    0  501  0.00000000000E+00  0.00000000000E+00 -0.14259827908E+04  0.14259827908E+04  0.50400001928E-02 0.  1.
    10030    2    1    2    0    0  0.00000000000E+00  0.00000000000E+00  0.13723857659E+04  0.42243513476E+04  0.39952098340E+04 0.  0.
        2    1    3    3  502    0  0.75059029291E+03  0.32136870584E+03  0.26138748398E+04  0.27384311770E+04  0.25500000920E-02 0. -1.
       -2    1    3    3    0  502 -0.75059029291E+03 -0.32136870584E+03 -0.12414890739E+04  0.14859201706E+04  0.25500000920E-02 0.  1.
</event>
<event>
 5   0  0.1879500E-08  0.3998522E+04  0.7818609E-02  0.8004845E-01
       -1   -1    0    0    0  501  0.00000000000E+00  0.00000000000E+00  0.17006137060E+04  0.17006137060E+04  0.50400001928E-02 0. -1.
        1   -1    0    0  501    0  0.00000000000E+00  0.00000000000E+00 -0.23503540131E+04  0.23503540131E+04  0.50400001928E-02 0.  1.
    10030    2    1    2    0    0  0.00000000000E+00  0.00000000000E+00 -0.64974030711E+03  0.40509677191E+04  0.39985218512E+04 0.  0.
        3    1    3    3  502    0 -0.40118507906E+03  0.30266353447E+03  0.16355791700E+04  0.17110446851E+04  0.10100000352E+00 0. -1.
       -3    1    3    3    0  502  0.40118507906E+03 -0.30266353447E+03 -0.22853194771E+04  0.23399230341E+04  0.10100000352E+00 0.  1.
</event>
<event>
 5   0  0.5846812E-08  0.4032910E+04  0.7818609E-02  0.7997940E-01
        2   -1    0    0  501    0  0.00000000000E+00  0.00000000000E+00  0.26722040541E+04  0.26722040541E+04  0.25500000920E-02 0. -1.
       -2   -1    0    0    0  501  0.00000000000E+00  0.00000000000E+00 -0.15216246236E+04  0.15216246236E+04  0.25500000920E-02 0.  1.
    10030    2    1    2    0    0  0.00000000000E+00  0.00000000000E+00  0.11505794305E+04  0.41938286777E+04  0.40329103575E+04 0.  0.
        4    1    3    3  502    0  0.14091381229E+04  0.65393946833E+03  0.19121930554E+04  0.24636945776E+04  0.12699999809E+01 0. -1.
       -4    1    3    3    0  502 -0.14091381229E+04 -0.65393946833E+03 -0.76161362495E+03  0.17301341001E+04  0.12699999809E+01 0.  1.
</event>
<event>
 5   0  0.5846812E-08  0.3986447E+04  0.7818609E-02  0.8007286E-01
       -2   -1    0    0    0  501  0.00000000000E+00  0.00000000000E+00  0.13977480035E+04  0.13977480035E+04  0.25500000920E-02 0.  1.
        2   -1    0    0  501    0  0.00000000000E+00  0.00000000000E+00 -0.28423867775E+04  0.28423867775E+04  0.25500000920E-02 0. -1.
    10030    2    1    2    0    0  0.00000000000E+00  0.00000000000E+00 -0.14446387740E+04  0.42401347811E+04  0.39864472622E+04 0.  0.
        4    1    3    3  502    0  0.15476048382E+04  0.37223797564E+03  0.55373400547E+03  0.16853085200E+04  0.12699999809E+01 0.  1.
       -4    1    3    3    0  502 -0.15476048382E+04 -0.37223797564E+03 -0.19983727794E+04  0.25548262611E+04  0.12699999809E+01 0. -1.
</event>
<event>
 5   0  0.5951623E-08  0.4014822E+04  0.7818609E-02  0.8001563E-01
        2   -1    0    0  501    0  0.00000000000E+00  0.00000000000E+00  0.24595739070E+04  0.24595739070E+04  0.25500000920E-02 0.  1.
       -2   -1    0    0    0  501  0.00000000000E+00  0.00000000000E+00 -0.16383727378E+04  0.16383727378E+04  0.25500000920E-02 0. -1.
    10030    2    1    2    0    0  0.00000000000E+00  0.00000000000E+00  0.82120116922E+03  0.40979466449E+04  0.40148219567E+04 0.  0.
        2    1    3    3  502    0 -0.68471600614E+03  0.16388661589E+03  0.23294174526E+04  0.24334914219E+04  0.25500000920E-02 0.  1.
       -2    1    3    3    0  502  0.68471600614E+03 -0.16388661589E+03 -0.15082162834E+04  0.16644552230E+04  0.25500000920E-02 0. -1.
</event>
<event>
 5   0  0.1879500E-08  0.3976106E+04  0.7818609E-02  0.8009384E-01
        1   -1    0    0  501    0  0.00000000000E+00  0.00000000000E+00  0.25757569979E+04  0.25757569979E+04  0.50400001928E-02 0. -1.
       -1   -1    0    0    0  501  0.00000000000E+00  0.00000000000E+00 -0.15344443227E+04  0.15344443227E+04  0.50400001928E-02 0.  1.
    10030    2    1    2    0    0  0.00000000000E+00  0.00000000000E+00  0.10413126752E+04  0.41102013206E+04  0.39761064885E+04 0.  0.
        4    1    3    3  502    0 -0.15759395948E+04 -0.81719535355E+03  0.14458029552E+04  0.22894850187E+04  0.12699999809E+01 0. -1.
       -4    1    3    3    0  502  0.15759395948E+04  0.81719535355E+03 -0.40449028002E+03  0.18207163019E+04  0.12699999809E+01 0.  1.
</event>
<event>
 5   0  0.1879500E-08  0.4004327E+04  0.7818609E-02  0.8003674E-01
        1   -1    0    0  501    0  0.00000000000E+00  0.00000000000E+00  0.21718074986E+04  0.21718074986E+04  0.50400001928E-02 0.  1.
       -1   -1    0    0    0  501  0.00000000000E+00  0.00000000000E+00 -0.18457706228E+04  0.18457706228E+04  0.50400001928E-02 0. -1.
    10030    2    1    2    0    0  0.00000000000E+00  0.00000000000E+00  0.32603687578E+03  0.40175781213E+04  0.40043268993E+04 0.  0.
        3    1    3    3  502    0 -0.12398171184E+04  0.15760377884E+03 -0.14063422636E+04  0.18814313729E+04  0.10100000352E+00 0. -1.
       -3    1    3    3    0  502  0.12398171184E+04 -0.15760377884E+03  0.17323791394E+04  0.21361467485E+04  0.10100000352E+00 0.  1.
</event>
<event>
 5   0  0.1879500E-08  0.3994480E+04  0.7818609E-02  0.8005661E-01
        1   -1    0    0  501    0  0.00000000000E+00  0.00000000000E+00  0.30768993016E+04  0.30768993016E+04  0.50400001928E-02 0. -1.
       -1   -1    0    0    0  501  0.00000000000E+00  0.00000000000E+00 -0.12964243112E+04  0.12964243112E+04  0.50400001928E-02 0.  1.
    10030    2    1    2    0    0  0.00000000000E+00  0.00000000000E+00  0.17804749904E+04  0.43733236127E+04  0.39944797196E+04 0.  0.
        4    1    3    3  502    0 -0.51914189690E+03  0.54945209228E+03 -0.11337575212E+04  0.13626494930E+04  0.12699999809E+01 0.  1.
       -4    1    3    3    0  502  0.51914189690E+03 -0.54945209228E+03  0.29142325116E+04  0.30106741198E+04  0.12699999809E+01 0. -1.
</event>
<event>
 5   0  0.1879500E-08  0.4007218E+04  0.7818609E-02  0.8003092E-01
       -1   -1    0    0    0  501  0.00000000000E+00  0.00000000000E+00  0.21986694436E+04  0.21986694436E+04  0.50400001928E-02 0.  1.
        1   -1    0    0  501    0  0.00000000000E+00  0.00000000000E+00 -0.18258535086E+04  0.18258535086E+04  0.50400001928E-02 0. -1.
    10030    2    1    2    0    0  0.00000000000E+00  0.00000000000E+00  0.37281593502E+03  0.40245229522E+04  0.40072176471E+04 0.  0.
        4    1    3    3  502    0 -0.11056125160E+04  0.10173972040E+04  0.15176398932E+04  0.21355815518E+04  0.12699999809E+01 0.  1.
       -4    1    3    3    0  502  0.11056125160E+04 -0.10173972040E+04 -0.11448239581E+04  0.18889414004E+04  0.12699999809E+01 0. -1.
</event>
<event>
 5   0  0.6161563E-08  0.3985792E+04  0.7818609E-02  0.8007419E-01
       -2   -1    0    0    0  501  0.00000000000E+00  0.00000000000E+00  0.20751943188E+04  0.20751943188E+04  0.25500000920E-02 0. -1.
        2   -1    0    0  501    0  0.00000000000E+00  0.00000000000E+00 -0.19138616898E+04  0.19138616898E+04  0.25500000920E-02 0.  1.
    10030    2    1    2    0    0  0.00000000000E+00  0.00000000000E+00  0.16133262903E+03  0.39890560086E+04  0.39857922202E+04 0.  0.
        1    1    3    3  502    0 -0.19158467240E+04 -0.27895683338E+03  0.55365178180E+03  0.20136573394E+04  0.50400001928E-02 0.  1.
       -1    1    3    3    0  502  0.19158467240E+04  0.27895683338E+03 -0.39231915277E+03  0.19753986693E+04  0.50400001928E-02 0. -1.
</event>
<event>
 5   0  0.5951623E-08  0.3988412E+04  0.7818609E-02  0.8006888E-01
        2   -1    0    0  501    0  0.00000000000E+00  0.00000000000E+00  0.17263104389E+04  0.17263104389E+04  0.25500000920E-02 0. -1.
       -2   -1    0    0    0  501  0.00000000000E+00  0.00000000000E+00 -0.23036743395E+04  0.23036743395E+04  0.25500000920E-02 0.  1.
    10030    2    1    2    0    0  0.00000000000E+00  0.00000000000E+00 -0.57736390059E+03  0.40299847784E+04  0.39884117441E+04 0.  0.
        2    1    3    3  502    0  0.86514057323E+03 -0.13727931430E+04  0.88263717817E+03  0.18471809909E+04  0.25500000920E-02 0. -1.
       -2    1    3    3    0  502 -0.86514057323E+03  0.13727931430E+04 -0.14600010788E+04  0.21828037875E+04  0.25500000920E-02 0.  1.
</event>
<event>
 5   0  0.5945387E-08  0.4023009E+04  0.7818609E-02  0.7999921E-01
       -2   -1    0    0    0  501  0.00000000000E+00  0.00000000000E+00  0.11692228747E+04  0.11692228747E+04  0.25500000920E-02 0.  1.
        2   -1    0    0  501    0  0.00000000000E+00  0.00000000000E+00 -0.34605465390E+04  0.34605465390E+04  0.25500000920E-02 0. -1.
    10030    2    1    2    0    0  0.00000000000E+00  0.00000000000E+00 -0.22913236643E+04  0.46297694137E+04  0.40230089099E+04 0.  0.
        3    1    3    3  502    0 -0.10027828719E+04 -0.11940954780E+04 -0.26080275342E+04  0.30386255327E+04  0.10100000352E+00 0. -1.
       -3    1    3    3    0  502  0.10027828719E+04  0.11940954780E+04  0.31670386987E+03  0.15911438810E+04  0.10100000352E+00 0.  1.
</event>
<event>
 5   0  0.5888700E-08  0.3997771E+04  0.7818609E-02  0.8004996E-01
        2   -1    0    0  501    0  0.00000000000E+00  0.00000000000E+00  0.25242014643E+04  0.25242014643E+04  0.25500000920E-02 0. -1.
       -2   -1    0    0    0  501  0.00000000000E+00  0.00000000000E+00 -0.15828940414E+04  0.15828940414E+04  0.25500000920E-02 0.  1.
    10030    2    1    2    0    0  0.00000000000E+00  0.00000000000E+00  0.94130742293E+03  0.41070955056E+04  0.39977711075E+04 0.  0.
        5    1    3    3  502    0  0.13045446754E+04 -0.10415144298E+04 -0.65892853628E+03  0.17946581913E+04  0.46999998093E+01 0.  1.
       -5    1    3    3    0  502 -0.13045446754E+04  0.10415144298E+04  0.16002359592E+04  0.23124373144E+04  0.46999998093E+01 0. -1.
</event>
<event>
 5   0  0.1879500E-08  0.4013772E+04  0.7818609E-02  0.8001774E-01
        1   -1    0    0  501    0  0.00000000000E+00  0.00000000000E+00  0.15361729633E+04  0.15361729633E+04  0.50400001928E-02 0. -1.
       -1   -1    0    0    0  501  0.00000000000E+00  0.00000000000E+00 -0.26218340267E+04  0.26218340267E+04  0.50400001928E-02 0.  1.
    10030    2    1    2    0    0  0.00000000000E+00  0.00000000000E+00 -0.10856610634E+04  0.41580069900E+04  0.40137715660E+04 0.  0.
        5    1    3    3  502    0 -0.15095673644E+04 -0.97008763598E+03 -0.14738502879E+04  0.23220939710E+04  0.46999998093E+01 0.  1.
       -5    1    3    3    0  502  0.15095673644E+04  0.97008763598E+03  0.38818922447E+03  0.18359130190E+04  0.46999998093E+01 0. -1.
</event>
<event>
 5   0  0.1879500E-08  0.4012383E+04  0.7818609E-02  0.8002053E-01
        1   -1    0    0  501    0  0.00000000000E+00  0.00000000000E+00  0.23593187884E+04  0.23593187884E+04  0.50400001928E-02 0.  1.
       -1   -1    0    0    0  501  0.00000000000E+00  0.00000000000E+00 -0.17059180868E+04  0.17059180868E+04  0.50400001928E-02 0. -1.
    10030    2    1    2    0    0  0.00000000000E+00  0.00000000000E+00  0.65340070156E+03  0.40652368752E+04  0.40123831291E+04 0.  0.
        2    1    3    3  502    0  0.10531286580E+04  0.15253984439E+04 -0.45079610090E+03  0.19076523550E+04  0.25500000920E-02 0. -1.
       -2    1    3    3    0  502 -0.10531286580E+04 -0.15253984439E+04  0.11041968025E+04  0.21575845202E+04  0.25500000920E-02 0.  1.
</event>
<event>
 5   0  0.1879500E-08  0.4008887E+04  0.7818609E-02  0.8002756E-01
       -1   -1    0    0    0  501  0.00000000000E+00  0.00000000000E+00  0.20440422547E+04  0.20440422547E+04  0.50400001928E-02 0. -1.
        1   -1    0    0  501    0  0.00000000000E+00  0.00000000000E+00 -0.19656123040E+04  0.19656123040E+04  0.50400001928E-02 0.  1.
    10030    2    1    2    0    0  0.00000000000E+00  0.00000000000E+00  0.78429950652E+02  0.40096545587E+04  0.40088874296E+04 0.  0.
        5    1    3    3  502    0 -0.58405002852E+03  0.38810088827E+03  0.19173484567E+04  0.20415640890E+04  0.46999998093E+01 0. -1.
       -5    1    3    3    0  502  0.58405002852E+03 -0.38810088827E+03 -0.18389185060E+04  0.19680904697E+04  0.46999998093E+01 0.  1.
</event>
<event>
 5   0  0.5951623E-08  0.3920027E+04  0.7818609E-02  0.8020877E-01
       -2   -1    0    0    0  501  0.00000000000E+00  0.00000000000E+00  0.13730291130E+04  0.13730291131E+04  0.25500000920E-02 0. -1.
        2   -1    0    0  501    0  0.00000000000E+00  0.00000000000E+00 -0.27979396244E+04  0.27979396244E+04  0.25500000920E-02 0.  1.
    10030    2    1    2    0    0  0.00000000000E+00  0.00000000000E+00 -0.14249105114E+04  0.41709687375E+04  0.39200268167E+04 0.  0.
        2    1    3    3  502    0  0.10534830452E+04 -0.14409206482E+04 -0.15739619658E+04  0.23797972836E+04  0.25500000920E-02 0. -1.
       -2    1    3    3    0  502 -0.10534830452E+04  0.14409206482E+04  0.14905145448E+03  0.17911714539E+04  0.25500000920E-02 0.  1.
</event>
<event>
 5   0  0.6161563E-08  0.3959306E+04  0.7818609E-02  0.8012807E-01
       -2   -1    0    0    0  501  0.00000000000E+00  0.00000000000E+00  0.29468794234E+04  0.29468794234E+04  0.25500000920E-02 0.  1.
        2   -1    0    0  501    0  0.00000000000E+00  0.00000000000E+00 -0.13298901472E+04  0.13298901472E+04  0.25500000920E-02 0. -1.
    10030    2    1    2    0    0  0.00000000000E+00  0.00000000000E+00  0.16169892762E+04  0.42767695706E+04  0.39593059544E+04 0.  0.
        1    1    3    3  502    0 -0.17403015874E+03 -0.71324793263E+03 -0.11774000668E+04  0.13875446036E+04  0.50400001928E-02 0. -1.
       -1    1    3    3    0  502  0.17403015874E+03  0.71324793263E+03  0.27943893430E+04  0.28892249670E+04  0.50400001928E-02 0.  1.
</event>
<event>
 5   0  0.6161563E-08  0.4024582E+04  0.7818609E-02  0.7999606E-01
       -2   -1    0    0    0  501  0.00000000000E+00  0.00000000000E+00  0.11705042354E+04  0.11705042354E+04  0.25500000920E-02 0.  1.
        2   -1    0    0  501    0  0.00000000000E+00  0.00000000000E+00 -0.34594616069E+04  0.34594616069E+04  0.25500000920E-02 0. -1.
    10030    2    1    2    0    0  0.00000000000E+00  0.00000000000E+00 -0.22889573715E+04  0.46299658423E+04  0.40245816990E+04 0.  0.
        1    1    3    3  502    0  0.77989494762E+03 -0.18258914611E+04 -0.15211406879E+04  0.25011966635E+04  0.50400001928E-02 0. -1.
       -1    1    3    3    0  502 -0.77989494762E+03  0.18258914611E+04 -0.76781668365E+03  0.21287691788E+04  0.50400001928E-02 0.  1.
</event>
<event>
 5   0  0.5945387E-08  0.4006582E+04  0.7818609E-02  0.8003220E-01
        2   -1    0    0  501    0  0.00000000000E+00  0.00000000000E+00  0.25409742899E+04  0.25409742899E+04  0.25500000920E-02 0. -1.
       -2   -1    0    0    0  501  0.00000000000E+00  0.00000000000E+00 -0.15793843784E+04  0.15793843784E+04  0.25500000920E-02 0.  1.
    10030    2    1    2    0    0  0.00000000000E+00  0.00000000000E+00  0.96158991148E+03  0.41203586682E+04  0.40065821341E+04 0.  0.
        3    1    3    3  502    0  0.12804647787E+04  0.15357872633E+04  0.35508406131E+03  0.20308415173E+04  0.10100000352E+00 0.  1.
       -3    1    3    3    0  502 -0.12804647787E+04 -0.15357872633E+04  0.60650585017E+03  0.20895171509E+04  0.10100000352E+00 0. -1.
</event>
<event>
 5   0  0.1879500E-08  0.3941719E+04  0.7818609E-02  0.8016408E-01
       -1   -1    0    0    0  501  0.00000000000E+00  0.00000000000E+00  0.23640640129E+04  0.23640640129E+04  0.50400001928E-02 0.  1.
        1   -1    0    0  501    0  0.00000000000E+00  0.00000000000E+00 -0.16430553863E+04  0.16430553863E+04  0.50400001928E-02 0. -1.
    10030    2    1    2    0    0  0.00000000000E+00  0.00000000000E+00  0.72100862661E+03  0.40071193992E+04  0.39417194776E+04 0.  0.
        4    1    3    3  502    0 -0.64849165002E+02  0.27615119216E+03 -0.16221940133E+04  0.16468090129E+04  0.12699999809E+01 0. -1.
       -4    1    3    3    0  502  0.64849165002E+02 -0.27615119216E+03  0.23432026399E+04  0.23603103863E+04  0.12699999809E+01 0.  1.
</event>
<event>
 5   0  0.5945387E-08  0.3911707E+04  0.7818609E-02  0.8022599E-01
        2   -1    0    0  501    0  0.00000000000E+00  0.00000000000E+00  0.24196226673E+04  0.24196226673E+04  0.25500000920E-02 0.  1.
       -2   -1    0    0    0  501  0.00000000000E+00  0.00000000000E+00 -0.15809748441E+04  0.15809748441E+04  0.25500000920E-02 0. -1.
    10030    2    1    2    0    0  0.00000000000E+00  0.00000000000E+00  0.83864782320E+03  0.40005975114E+04  0.39117068240E+04 0.  0.
        3    1    3    3  502    0  0.17442287407E+03 -0.33274282957E+03  0.23823741985E+04  0.24118142469E+04  0.10100000352E+00 0.  1.
       -3    1    3    3    0  502 -0.17442287407E+03  0.33274282957E+03 -0.15437263753E+04  0.15887832645E+04  0.10100000352E+00 0. -1.
</event>
<event>
 5   0  0.1879500E-08  0.4003230E+04  0.7818609E-02  0.8003895E-01
        1   -1    0    0  501    0  0.00000000000E+00  0.00000000000E+00  0.18260492571E+04  0.18260492571E+04  0.50400001928E-02 0.  1.
       -1   -1    0    0    0  501  0.00000000000E+00  0.00000000000E+00 -0.21940607818E+04  0.21940607818E+04  0.50400001928E-02 0. -1.
    10030    2    1    2    0    0  0.00000000000E+00  0.00000000000E+00 -0.36801152475E+03  0.40201100389E+04  0.40032302261E+04 0.  0.
        2    1    3    3  502    0 -0.96865560804E+03 -0.14003509195E+04  0.87266039721E+03  0.19133249995E+04  0.25500000920E-02 0.  1.
       -2    1    3    3    0  502  0.96865560804E+03  0.14003509195E+04 -0.12406719220E+04  0.21067850395E+04  0.25500000920E-02 0. -1.
</event>
<event>
 5   0  0.5888700E-08  0.4002126E+04  0.7818609E-02  0.8004118E-01
        2   -1    0    0  501    0  0.00000000000E+00  0.00000000000E+00  0.22231930561E+04  0.22231930561E+04  0.25500000920E-02 0.  1.
       -2   -1    0    0    0  501  0.00000000000E+00  0.00000000000E+00 -0.18011272956E+04  0.18011272956E+04  0.25500000920E-02 0. -1.
    10030    2    1    2    0    0  0.00000000000E+00  0.00000000000E+00  0.42206576045E+03  0.40243203517E+04  0.40021262832E+04 0.  0.
        5    1    3    3  502    0  0.14009530951E+03  0.12982600293E+04 -0.13136626421E+04  0.18522519879E+04  0.46999998093E+01 0. -1.
       -5    1    3    3    0  502 -0.14009530951E+03 -0.12982600293E+04  0.17357284026E+04  0.21720683638E+04  0.46999998093E+01 0.  1.
</event>
<event>
 5   0  0.5945387E-08  0.3972550E+04  0.7818609E-02  0.8010107E-01
       -2   -1    0    0    0  501  0.00000000000E+00  0.00000000000E+00  0.15220326410E+04  0.15220326410E+04  0.25500000920E-02 0. -1.
        2   -1    0    0  501    0  0.00000000000E+00  0.00000000000E+00 -0.25921180953E+04  0.25921180953E+04  0.25500000920E-02 0.  1.
    10030    2    1    2    0    0  0.00000000000E+00  0.00000000000E+00 -0.10700854543E+04  0.41141507363E+04  0.39725499873E+04 0.  0.
        3    1    3    3  502    0  0.12864720268E+04 -0.75221730080E+03  0.82494747372E+03  0.17033436200E+04  0.10100000352E+00 0. -1.
       -3    1    3    3    0  502 -0.12864720268E+04  0.75221730080E+03 -0.18950329280E+04  0.24108071163E+04  0.10100000352E+00 0.  1.
</event>
<event>
 5   0  0.1879500E-08  0.3974058E+04  0.7818609E-02  0.8009800E-01
        1   -1    0    0  501    0  0.00000000000E+00  0.00000000000E+00  0.14387838993E+04  0.14387838993E+04  0.50400001928E-02 0. -1.
       -1   -1    0    0    0  501  0.00000000000E+00  0.00000000000E+00 -0.27441811136E+04  0.27441811136E+04  0.50400001928E-02 0.  1.
    10030    2    1    2    0    0  0.00000000000E+00  0.00000000000E+00 -0.13053972143E+04  0.41829650128E+04  0.39740576759E+04 0.  0.
        2    1    3    3  502    0 -0.48044660715E+03 -0.79390399312E+03 -0.25020967493E+04  0.26686327277E+04  0.25500000920E-02 0.  1.
       -2    1    3    3    0  502  0.48044660715E+03  0.79390399312E+03  0.11966995350E+04  0.15143322851E+04  0.25500000920E-02 0. -1.
</event>
<event>
 5   0  0.1879500E-08  0.3994965E+04  0.7818609E-02  0.8005563E-01
       -1   -1    0    0    0  501  0.00000000000E+00  0.00000000000E+00  0.17329484259E+04  0.17329484259E+04  0.50400001928E-02 0. -1.
        1   -1    0    0  501    0  0.00000000000E+00  0.00000000000E+00 -0.23023973988E+04  0.23023973988E+04  0.50400001928E-02 0.  1.
    10030    2    1    2    0    0  0.00000000000E+00  0.00000000000E+00 -0.56944897284E+03  0.40353458247E+04  0.39949648049E+04 0.  0.
        2    1    3    3  502    0  0.11573230897E+04  0.37421311427E+03 -0.18851970724E+04  0.22435240562E+04  0.25500000920E-02 0.  1.
       -2    1    3    3    0  502 -0.11573230897E+04 -0.37421311427E+03  0.13157480995E+04  0.17918217686E+04  0.25500000920E-02 0. -1.
</event>
<event>
 5   0  0.1879500E-08  0.4002840E+04  0.7818609E-02  0.8003974E-01
        3   -1    0    0  501    0  0.00000000000E+00  0.00000000000E+00  0.16382793660E+04  0.16382793691E+04  0.10100000352E+00 0.  1.
       -3   -1    0    0    0  501  0.00000000000E+00  0.00000000000E+00 -0.24450538528E+04  0.24450538548E+04  0.10100000352E+00 0. -1.
    10030    2    1    2    0    0  0.00000000000E+00  0.00000000000E+00 -0.80677448679E+03  0.40833332239E+04  0.40028396352E+04 0.  0.
        5    1    3    3  502    0 -0.12493275410E+04  0.74366145206E+03 -0.18064758773E+04  0.23188852592E+04  0.46999998093E+01 0. -1.
       -5    1    3    3    0  502  0.12493275410E+04 -0.74366145206E+03  0.99970139055E+03  0.17644479647E+04  0.46999998093E+01 0.  1.
</event>
<event>
 5   0  0.5951623E-08  0.4010646E+04  0.7818609E-02  0.8002402E-01
        2   -1    0    0  501    0  0.00000000000E+00  0.00000000000E+00  0.31953063008E+04  0.31953063008E+04  0.25500000920E-02 0.  1.
       -2   -1    0    0    0  501  0.00000000000E+00  0.00000000000E+00 -0.12585086270E+04  0.12585086270E+04  0.25500000920E-02 0. -1.
    10030    2    1    2    0    0  0.00000000000E+00  0.00000000000E+00  0.19367976737E+04  0.44538149278E+04  0.40106461053E+04 0.  0.
        2    1    3    3  502    0  0.16918772371E+04  0.10186097845E+04  0.58162322170E+03  0.20587132026E+04  0.25500000920E-02 0.  1.
       -2    1    3    3    0  502 -0.16918772371E+04 -0.10186097845E+04  0.13551744521E+04  0.23951017252E+04  0.25500000920E-02 0. -1.
</event>
<event>
 5   0  0.5951623E-08  0.4008103E+04  0.7818609E-02  0.8002914E-01
       -2   -1    0    0    0  501  0.00000000000E+00  0.00000000000E+00  0.15182439314E+04  0.15182439314E+04  0.25500000920E-02 0. -1.
        2   -1    0    0  501    0  0.00000000000E+00  0.00000000000E+00 -0.26453081736E+04  0.26453081736E+04  0.25500000920E-02 0.  1.
    10030    2    1    2    0    0  0.00000000000E+00  0.00000000000E+00 -0.11270642422E+04  0.41635521051E+04  0.40081033327E+04 0.  0.
        2    1    3    3  502    0 -0.60612671029E+01  0.11191463429E+04  0.11633805311E+04  0.16143046602E+04  0.25500000920E-02 0. -1.
       -2    1    3    3    0  502  0.60612671029E+01 -0.11191463429E+04 -0.22904447733E+04  0.25492474449E+04  0.25500000920E-02 0.  1.
</event>
<event>
 5   0  0.1879500E-08  0.3982259E+04  0.7818609E-02  0.8008135E-01
        1   -1    0    0  501    0  0.00000000000E+00  0.00000000000E+00  0.25212281420E+04  0.25212281420E+04  0.50400001928E-02 0.  1.
       -1   -1    0    0    0  501  0.00000000000E+00  0.00000000000E+00 -0.15724861949E+04  0.15724861949E+04  0.50400001928E-02 0. -1.
    10030    2    1    2    0    0  0.00000000000E+00  0.00000000000E+00  0.94874194701E+03  0.40937143369E+04  0.39822588804E+04 0.  0.
        3    1    3    3  502    0 -0.99760438171E+03 -0.12908137040E+04 -0.69914921941E+03  0.17748870843E+04  0.10100000352E+00 0. -1.
       -3    1    3    3    0  502  0.99760438171E+03  0.12908137040E+04  0.16478911664E+04  0.23188272526E+04  0.10100000352E+00 0.  1.
</event>
<event>
 5   0  0.5846812E-08  0.3963644E+04  0.7818609E-02  0.8011921E-01
       -2   -1    0    0    0  501  0.00000000000E+00  0.00000000000E+00  0.13967455487E+04  0.13967455487E+04  0.25500000920E-02 0.  1.
        2   -1    0    0  501    0  0.00000000000E+00  0.00000000000E+00 -0.28119779141E+04  0.28119779141E+04  0.25500000920E-02 0. -1.
    10030    2    1    2    0    0  0.00000000000E+00  0.00000000000E+00 -0.14152323653E+04  0.42087234628E+04  0.39636435938E+04 0.  0.
        4    1    3    3  502    0  0.15400192157E+04 -0.11530164938E+03 -0.20264535303E+04  0.25478361757E+04  0.12699999809E+01 0. -1.
       -4    1    3    3    0  502 -0.15400192157E+04  0.11530164938E+03  0.61122116497E+03  0.16608872871E+04  0.12699999809E+01 0.  1.
</event>
<event>
 5   0  0.1879500E-08  0.3986448E+04  0.7818609E-02  0.8007286E-01
        1   -1    0    0  501    0  0.00000000000E+00  0.00000000000E+00  0.28647076039E+04  0.28647076039E+04  0.50400001928E-02 0.  1.
       -1   -1    0    0    0  501  0.00000000000E+00  0.00000000000E+00 -0.13868576668E+04  0.13868576668E+04  0.50400001928E-02 0. -1.
    10030    2    1    2    0    0  0.00000000000E+00  0.00000000000E+00  0.14778499371E+04  0.42515652708E+04  0.39864478944E+04 0.  0.
        1    1    3    3  502    0  0.87055532145E+03  0.82870061140E+03  0.24347446642E+04  0.27152518946E+04  0.50400001928E-02 0.  1.
       -1    1    3    3    0  502 -0.87055532145E+03 -0.82870061140E+03 -0.95689472713E+03  0.15363133762E+04  0.50400001928E-02 0. -1.
</event>
<event>
 5   0  0.5951623E-08  0.3759923E+04  0.7818609E-02  0.8054810E-01
       -2   -1    0    0    0  501  0.00000000000E+00  0.00000000000E+00  0.10786389468E+04  0.10786389468E+04  0.25500000920E-02 0.  1.
        2   -1    0    0  501    0  0.00000000000E+00  0.00000000000E+00 -0.32765873479E+04  0.32765873479E+04  0.25500000920E-02 0. -1.
    10030    2    1    2    0    0  0.00000000000E+00  0.00000000000E+00 -0.21979484011E+04  0.43552262948E+04  0.37599227259E+04 0.  0.
        2    1    3    3  502    0  0.51864630231E+03 -0.47408988010E+03  0.92080676995E+03  0.11582919791E+04  0.25500000920E-02 0.  1.
       -2    1    3    3    0  502 -0.51864630231E+03  0.47408988010E+03 -0.31187551711E+04  0.31969343156E+04  0.25500000920E-02 0. -1.
</event>
<event>
 5   0  0.1879500E-08  0.4000631E+04  0.7818609E-02  0.8004419E-01
        1   -1    0    0  501    0  0.00000000000E+00  0.00000000000E+00  0.20651739710E+04  0.20651739710E+04  0.50400001928E-02 0.  1.
       -1   -1    0    0    0  501  0.00000000000E+00  0.00000000000E+00 -0.19374937355E+04  0.19374937355E+04  0.50400001928E-02 0. -1.
    10030    2    1    2    0    0  0.00000000000E+00  0.00000000000E+00  0.12768023550E+03  0.40026677065E+04  0.40006307661E+04 0.  0.
        5    1    3    3  502    0 -0.17886224506E+03  0.19610707456E+04 -0.28769240031E+03  0.19901203932E+04  0.46999998093E+01 0. -1.
       -5    1    3    3    0  502  0.17886224506E+03 -0.19610707456E+04  0.41537263581E+03  0.20125473134E+04  0.46999998093E+01 0.  1.
</event>
<event>
 5   0  0.6161563E-08  0.3990419E+04  0.7818609E-02  0.8006482E-01
       -2   -1    0    0    0  501  0.00000000000E+00  0.00000000000E+00  0.30766152115E+04  0.30766152115E+04  0.25500000920E-02 0.  1.
        2   -1    0    0  501    0  0.00000000000E+00  0.00000000000E+00 -0.12939093843E+04  0.12939093843E+04  0.25500000920E-02 0. -1.
    10030    2    1    2    0    0  0.00000000000E+00  0.00000000000E+00  0.17827058272E+04  0.43705245958E+04  0.39904191730E+04 0.  0.
        1    1    3    3  502    0  0.35160171123E+03  0.37020956415E+03  0.30038551023E+04  0.30469368816E+04  0.50400001928E-02 0.  1.
       -1    1    3    3    0  502 -0.35160171123E+03 -0.37020956415E+03 -0.12211492752E+04  0.13235877141E+04  0.50400001928E-02 0. -1.
</event>
<event>
 5   0  0.5888700E-08  0.3995544E+04  0.7818609E-02  0.8005446E-01
        2   -1    0    0  501    0  0.00000000000E+00  0.00000000000E+00  0.26193077697E+04  0.26193077697E+04  0.25500000920E-02 0. -1.
       -2   -1    0    0    0  501  0.00000000000E+00  0.00000000000E+00 -0.15237202172E+04  0.15237202172E+04  0.25500000920E-02 0.  1.
    10030    2    1    2    0    0  0.00000000000E+00  0.00000000000E+00  0.10955875525E+04  0.41430279869E+04  0.39955436195E+04 0.  0.
        5    1    3    3  502    0 -0.86022919659E+03  0.17370795086E+04  0.46598608471E+02  0.19389773104E+04  0.46999998093E+01 0. -1.
       -5    1    3    3    0  502  0.86022919659E+03 -0.17370795086E+04  0.10489889440E+04  0.22040506765E+04  0.46999998093E+01 0.  1.
</event>
<event>
 5   0  0.1879500E-08  0.3974559E+04  0.7818609E-02  0.8009699E-01
       -1   -1    0    0    0  501  0.00000000000E+00  0.00000000000E+00  0.13780549566E+04  0.13780549566E+04  0.50400001928E-02 0. -1.
        1   -1    0    0  501    0  0.00000000000E+00  0.00000000000E+00 -0.28658364939E+04  0.28658364939E+04  0.50400001928E-02 0.  1.
    10030    2    1    2    0    0  0.00000000000E+00  0.00000000000E+00 -0.14877815373E+04  0.42438914505E+04  0.39745591882E+04 0.  0.
        3    1    3    3  502    0 -0.14127718647E+04  0.67322843127E+03  0.56389979500E+03  0.16634734297E+04  0.10100000352E+00 0. -1.
       -3    1    3    3    0  502  0.14127718647E+04 -0.67322843127E+03 -0.20516813323E+04  0.25804180207E+04  0.10100000352E+00 0.  1.
</event>
<event>
 5   0  0.1879500E-08  0.3998638E+04  0.7818609E-02  0.8004821E-01
       -1   -1    0    0    0  501  0.00000000000E+00  0.00000000000E+00  0.17634218063E+04  0.17634218063E+04  0.50400001928E-02 0.  1.
        1   -1    0    0  501    0  0.00000000000E+00  0.00000000000E+00 -0.22667729564E+04  0.22667729564E+04  0.50400001928E-02 0. -1.
    10030    2    1    2    0    0  0.00000000000E+00  0.00000000000E+00 -0.50335115017E+03  0.40301947627E+04  0.39986381988E+04 0.  0.
        4    1    3    3  502    0  0.18132897243E+04  0.26448180269E+03  0.55419996528E+03  0.19144475607E+04  0.12699999809E+01 0. -1.
       -4    1    3    3    0  502 -0.18132897243E+04 -0.26448180269E+03 -0.10575511154E+04  0.21157472020E+04  0.12699999809E+01 0.  1.
</event>
<event>
 5   0  0.1879500E-08  0.3977595E+04  0.7818609E-02  0.8009082E-01
       -1   -1    0    0    0  501  0.00000000000E+00  0.00000000000E+00  0.23703670864E+04  0.23703670864E+04  0.50400001928E-02 0. -1.
        1   -1    0    0  501    0  0.00000000000E+00  0.00000000000E+00 -0.16686514190E+04  0.16686514190E+04  0.50400001928E-02 0.  1.
    10030    2    1    2    0    0  0.00000000000E+00  0.00000000000E+00  0.70171566744E+03  0.40390185054E+04  0.39775954556E+04 0.  0.
        4    1    3    3  502    0 -0.93906600453E+03  0.91065243326E+03 -0.11703349868E+04  0.17552260279E+04  0.12699999809E+01 0.  1.
       -4    1    3    3    0  502  0.93906600453E+03 -0.91065243326E+03  0.18720506542E+04  0.22837924774E+04  0.12699999809E+01 0. -1.
</event>
<event>
 5   0  0.5951623E-08  0.4005456E+04  0.7818609E-02  0.8003447E-01
       -2   -1    0    0    0  501  0.00000000000E+00  0.00000000000E+00  0.24636017529E+04  0.24636017529E+04  0.25500000920E-02 0. -1.
        2   -1    0    0  501    0  0.00000000000E+00  0.00000000000E+00 -0.16280712155E+04  0.16280712155E+04  0.25500000920E-02 0.  1.
    10030    2    1    2    0    0  0.00000000000E+00  0.00000000000E+00  0.83553053743E+03  0.40916729685E+04  0.40054558295E+04 0.  0.
        2    1    3    3  502    0 -0.17595055883E+04  0.13176678516E+03 -0.55009749625E+03  0.18481963252E+04  0.25500000920E-02 0.  1.
       -2    1    3    3    0  502  0.17595055883E+04 -0.13176678516E+03  0.13856280337E+04  0.22434766433E+04  0.25500000920E-02 0. -1.
</event>
<event>
 5   0  0.5951623E-08  0.3985530E+04  0.7818609E-02  0.8007472E-01
        2   -1    0    0  501    0  0.00000000000E+00  0.00000000000E+00  0.25850605423E+04  0.25850605423E+04  0.25500000920E-02 0. -1.
       -2   -1    0    0    0  501  0.00000000000E+00  0.00000000000E+00 -0.15361773514E+04  0.15361773514E+04  0.25500000920E-02 0.  1.
    10030    2    1    2    0    0  0.00000000000E+00  0.00000000000E+00  0.10488831909E+04  0.41212378937E+04  0.39855295543E+04 0.  0.
        2    1    3    3  502    0 -0.74219487745E+03 -0.19492625584E+03  0.24261558948E+04  0.25446182242E+04  0.25500000920E-02 0. -1.
       -2    1    3    3    0  502  0.74219487745E+03  0.19492625584E+03 -0.13772727038E+04  0.15766196694E+04  0.25500000920E-02 0.  1.
</event>
<event>
 5   0  0.5846812E-08  0.3998722E+04  0.7818609E-02  0.8004804E-01
       -2   -1    0    0    0  501  0.00000000000E+00  0.00000000000E+00  0.15666470615E+04  0.15666470615E+04  0.25500000920E-02 0. -1.
        2   -1    0    0  501    0  0.00000000000E+00  0.00000000000E+00 -0.25515920802E+04  0.25515920802E+04  0.25500000920E-02 0.  1.
    10030    2    1    2    0    0  0.00000000000E+00  0.00000000000E+00 -0.98494501873E+03  0.41182391417E+04  0.39987219131E+04 0.  0.
        4    1    3    3  502    0 -0.17673323870E+04  0.61216572180E+02 -0.14532166200E+04  0.22888974185E+04  0.12699999809E+01 0.  1.
       -4    1    3    3    0  502  0.17673323870E+04 -0.61216572180E+02  0.46827160128E+03  0.18293417232E+04  0.12699999809E+01 0. -1.
</event>
<event>
 5   0  0.5888700E-08  0.4000099E+04  0.7818609E-02  0.8004527E-01
        2   -1    0    0  501    0  0.00000000000E+00  0.00000000000E+00  0.11973674434E+04  0.11973674435E+04  0.25500000920E-02 0.  1.
       -2   -1    0    0    0  501  0.00000000000E+00  0.00000000000E+00 -0.33408277236E+04  0.33408277236E+04  0.25500000920E-02 0. -1.
    10030    2    1    2    0    0  0.00000000000E+00  0.00000000000E+00 -0.21434602801E+04  0.45381951670E+04  0.40000991740E+04 0.  0.
        5    1    3    3  502    0  0.19721114260E+04 -0.22775419799E+02 -0.14487497479E+04  0.24471698181E+04  0.46999998093E+01 0.  1.
       -5    1    3    3    0  502 -0.19721114260E+04  0.22775419799E+02 -0.69471053220E+03  0.20910253490E+04  0.46999998093E+01 0. -1.
</event>
<event>
 5   0  0.5951623E-08  0.4009605E+04  0.7818609E-02  0.8002612E-01
        2   -1    0    0  501    0  0.00000000000E+00  0.00000000000E+00  0.17682291477E+04  0.17682291477E+04  0.25500000920E-02 0. -1.
       -2   -1    0    0    0  501  0.00000000000E+00  0.00000000000E+00 -0.22730273214E+04  0.22730273214E+04  0.25500000920E-02 0.  1.
    10030    2    1    2    0    0  0.00000000000E+00  0.00000000000E+00 -0.50479817364E+03  0.40412564691E+04  0.40096050495E+04 0.  0.
        2    1    3    3  502    0 -0.17495480066E+04 -0.15826822168E+03  0.72128385894E+03  0.18990043345E+04  0.25500000920E-02 0. -1.
       -2    1    3    3    0  502  0.17495480066E+04  0.15826822168E+03 -0.12260820326E+04  0.21422521345E+04  0.25500000920E-02 0.  1.
</event>
<event>
 5   0  0.6161563E-08  0.4008901E+04  0.7818609E-02  0.8002753E-01
        2   -1    0    0  501    0  0.00000000000E+00  0.00000000000E+00  0.29510792550E+04  0.29510792550E+04  0.25500000920E-02 0.  1.
       -2   -1    0    0    0  501  0.00000000000E+00  0.00000000000E+00 -0.13614751484E+04  0.13614751484E+04  0.25500000920E-02 0. -1.
    10030    2    1    2    0    0  0.00000000000E+00  0.00000000000E+00  0.15896041067E+04  0.43125544034E+04  0.40089006307E+04 0.  0.
        1    1    3    3  502    0 -0.19325300716E+04 -0.38469384625E+03  0.39931510510E+03  0.20105010287E+04  0.50400001928E-02 0. -1.
       -1    1    3    3    0  502  0.19325300716E+04  0.38469384625E+03  0.11902890016E+04  0.23020533748E+04  0.50400001928E-02 0.  1.
</event>
<event>
 5   0  0.5846812E-08  0.4011339E+04  0.7818609E-02  0.8002263E-01
        2   -1    0    0  501    0  0.00000000000E+00  0.00000000000E+00  0.26839654943E+04  0.26839654943E+04  0.25500000920E-02 0. -1.
       -2   -1    0    0    0  501  0.00000000000E+00  0.00000000000E+00 -0.14987938368E+04  0.14987938368E+04  0.25500000920E-02 0.  1.
    10030    2    1    2    0    0  0.00000000000E+00  0.00000000000E+00  0.11851716576E+04  0.41827593311E+04  0.40113393977E+04 0.  0.
        4    1    3    3  502    0  0.14077454366E+04 -0.53941538477E+03  0.19719903429E+04  0.24822295819E+04  0.12699999809E+01 0. -1.
       -4    1    3    3    0  502 -0.14077454366E+04  0.53941538477E+03 -0.78681868535E+03  0.17005297492E+04  0.12699999809E+01 0.  1.
</event>
<event>
 5   0  0.5846812E-08  0.3993953E+04  0.7818609E-02  0.8005767E-01
        2   -1    0    0  501    0  0.00000000000E+00  0.00000000000E+00  0.25948198431E+04  0.25948198431E+04  0.25500000920E-02 0.  1.
       -2   -1    0    0    0  501  0.00000000000E+00  0.00000000000E+00 -0.15368757202E+04  0.15368757202E+04  0.25500000920E-02 0. -1.
    10030    2    1    2    0    0  0.00000000000E+00  0.00000000000E+00  0.10579441229E+04  0.41316955633E+04  0.39939532372E+04 0.  0.
        4    1    3    3  502    0  0.15203104956E+04 -0.11716300694E+03  0.18629570397E+04  0.24074222143E+04  0.12699999809E+01 0.  1.
       -4    1    3    3    0  502 -0.15203104956E+04  0.11716300694E+03 -0.80501291678E+03  0.17242733490E+04  0.12699999809E+01 0. -1.
</event>
<event>
 5   0  0.5888700E-08  0.3989281E+04  0.7818609E-02  0.8006712E-01
       -2   -1    0    0    0  501  0.00000000000E+00  0.00000000000E+00  0.21742437195E+04  0.21742437195E+04  0.25500000920E-02 0.  1.
        2   -1    0    0  501    0  0.00000000000E+00  0.00000000000E+00 -0.18298735093E+04  0.18298735093E+04  0.25500000920E-02 0. -1.
    10030    2    1    2    0    0  0.00000000000E+00  0.00000000000E+00  0.34437021022E+03  0.40041172288E+04  0.39892811308E+04 0.  0.
        5    1    3    3  502    0 -0.86929797296E+03 -0.76189311577E+03 -0.14594090669E+04  0.18617349436E+04  0.46999998093E+01 0. -1.
       -5    1    3    3    0  502  0.86929797296E+03  0.76189311577E+03  0.18037792771E+04  0.21423822852E+04  0.46999998093E+01 0.  1.
</event>
<event>
 5   0  0.1879500E-08  0.4011825E+04  0.7818609E-02  0.8002165E-01
       -1   -1    0    0    0  501  0.00000000000E+00  0.00000000000E+00  0.13056099075E+04  0.13056099075E+04  0.50400001928E-02 0. -1.
        1   -1    0    0  501    0  0.00000000000E+00  0.00000000000E+00 -0.30818437903E+04  0.30818437903E+04  0.50400001928E-02 0.  1.
    10030    2    1    2    0    0  0.00000000000E+00  0.00000000000E+00 -0.17762338828E+04  0.43874536979E+04  0.40118254130E+04 0.  0.
        4    1    3    3  502    0 -0.90669179853E+02 -0.66008415723E+03  0.11810570086E+04  0.13560343894E+04  0.12699999809E+01 0. -1.
       -4    1    3    3    0  502  0.90669179853E+02  0.66008415723E+03 -0.29572908914E+04  0.30314193085E+04  0.12699999809E+01 0.  1.
</event>
<event>
 5   0  0.5888700E-08  0.3996925E+04  0.7818609E-02  0.8005167E-01
       -2   -1    0    0    0  501  0.00000000000E+00  0.00000000000E+00  0.24629180816E+04  0.24629180816E+04  0.25500000920E-02 0.  1.
        2   -1    0    0  501    0  0.00000000000E+00  0.00000000000E+00 -0.16215940129E+04  0.16215940129E+04  0.25500000920E-02 0. -1.
    10030    2    1    2    0    0  0.00000000000E+00  0.00000000000E+00  0.84132406869E+03  0.40845120945E+04  0.39969254261E+04 0.  0.
        5    1    3    3  502    0  0.32149212359E+03 -0.18059365487E+04  0.12311799796E+04  0.22092057930E+04  0.46999998093E+01 0.  1.
       -5    1    3    3    0  502 -0.32149212359E+03  0.18059365487E+04 -0.38985591091E+03  0.18753063016E+04  0.46999998093E+01 0. -1.
</event>
<event>
 5   0  0.5945387E-08  0.3997293E+04  0.7818609E-02  0.8005093E-01
       -2   -1    0    0    0  501  0.00000000000E+00  0.00000000000E+00  0.15538006899E+04  0.15538006899E+04  0.25500000920E-02 0.  1.
        2   -1    0    0  501    0  0.00000000000E+00  0.00000000000E+00 -0.25708501722E+04  0.25708501722E+04  0.25500000920E-02 0. -1.
    10030    2    1    2    0    0  0.00000000000E+00  0.00000000000E+00 -0.10170494824E+04  0.41246508621E+04  0.39972934700E+04 0.  0.
        3    1    3    3  502    0  0.11661717635E+04 -0.94579921701E+03  0.85263083179E+03  0.17266939759E+04  0.10100000352E+00 0.  1.
       -3    1    3    3    0  502 -0.11661717635E+04  0.94579921701E+03 -0.18696803141E+04  0.23979568862E+04  0.10100000352E+00 0. -1.
</event>
<event>
 5   0  0.5888700E-08  0.4011862E+04  0.7818609E-02  0.8002158E-01
        2   -1    0    0  501    0  0.00000000000E+00  0.00000000000E+00  0.17397659929E+04  0.17397659929E+04  0.25500000920E-02 0.  1.
       -2   -1    0    0    0  501  0.00000000000E+00  0.00000000000E+00 -0.23128166651E+04  0.23128166651E+04  0.25500000920E-02 0. -1.
    10030    2    1    2    0    0  0.00000000000E+00  0.00000000000E+00 -0.57305067218E+03  0.40525826579E+04  0.40118623016E+04 0.  0.
        5    1    3    3  502    0  0.66415752932E+03  0.16935934062E+04 -0.11403105617E+04  0.21470198221E+04  0.46999998093E+01 0. -1.
       -5    1    3    3    0  502 -0.66415752932E+03 -0.16935934062E+04  0.56725988950E+03  0.19055628359E+04  0.46999998093E+01 0.  1.
</event>
<event>
 5   0  0.1879500E-08  0.3988749E+04  0.7818609E-02  0.8006820E-01
        1   -1    0    0  501    0  0.00000000000E+00  0.00000000000E+00  0.18116548445E+04  0.18116548445E+04  0.50400001928E-02 0.  1.
       -1   -1    0    0    0  501  0.00000000000E+00  0.00000000000E+00 -0.21955230086E+04  0.21955230086E+04  0.50400001928E-02 0. -1.
    10030    2    1    2    0    0  0.00000000000E+00  0.00000000000E+00 -0.38386816409E+03  0.40071778531E+04  0.39887491246E+04 0.  0.
        1    1    3    3  502    0 -0.10187536058E+03  0.19325508310E+04  0.29237057163E+03  0.19571948944E+04  0.50400001928E-02 0.  1.
       -1    1    3    3    0  502  0.10187536058E+03 -0.19325508310E+04 -0.67623873572E+03  0.20499829587E+04  0.50400001928E-02 0. -1.
</event>
<event>
 5   0  0.1879500E-08  0.3999173E+04  0.7818609E-02  0.8004713E-01
        3   -1    0    0  501    0  0.00000000000E+00  0.00000000000E+00  0.21298741583E+04  0.21298741607E+04  0.10100000352E+00 0.  1.
       -3   -1    0    0    0  501  0.00000000000E+00  0.00000000000E+00 -0.18772691813E+04  0.18772691841E+04  0.10100000352E+00 0. -1.
    10030    2    1    2    0    0  0.00000000000E+00  0.00000000000E+00  0.25260497699E+03  0.40071433448E+04  0.39991734785E+04 0.  0.
        2    1    3    3  502    0 -0.17345410316E+04  0.60337021507E+03  0.91886487098E+03  0.20535337489E+04  0.25500000920E-02 0. -1.
       -2    1    3    3    0  502  0.17345410316E+04 -0.60337021507E+03 -0.66625989399E+03  0.19536095959E+04  0.25500000920E-02 0.  1.
</event>
<event>
 5   0  0.1879500E-08  0.3986341E+04  0.7818609E-02  0.8007308E-01
       -1   -1    0    0    0  501  0.00000000000E+00  0.00000000000E+00  0.20449277651E+04  0.20449277651E+04  0.50400001928E-02 0. -1.
        1   -1    0    0  501    0  0.00000000000E+00  0.00000000000E+00 -0.19427228856E+04  0.19427228856E+04  0.50400001928E-02 0.  1.
    10030    2    1    2    0    0  0.00000000000E+00  0.00000000000E+00  0.10220487951E+03  0.39876506507E+04  0.39863406622E+04 0.  0.
        5    1    3    3  502    0 -0.94156935149E+03  0.10328057951E+03  0.18053851471E+04  0.20387882041E+04  0.46999998093E+01 0. -1.
       -5    1    3    3    0  502  0.94156935149E+03 -0.10328057951E+03 -0.17031802676E+04  0.19488624466E+04  0.46999998093E+01 0.  1.
</event>
<event>
 5   0  0.6161563E-08  0.3990270E+04  0.7818609E-02  0.8006512E-01
       -2   -1    0    0    0  501  0.00000000000E+00  0.00000000000E+00  0.22643653386E+04  0.22643653386E+04  0.25500000920E-02 0. -1.
        2   -1    0    0  501    0  0.00000000000E+00  0.00000000000E+00 -0.17579160721E+04  0.17579160721E+04  0.25500000920E-02 0.  1.
    10030    2    1    2    0    0  0.00000000000E+00  0.00000000000E+00  0.50644926647E+03  0.40222814107E+04  0.39902702775E+04 0.  0.
        1    1    3    3  502    0  0.18413281838E+04 -0.75816446278E+03  0.12869658934E+03  0.19954612613E+04  0.50400001928E-02 0. -1.
       -1    1    3    3    0  502 -0.18413281838E+04  0.75816446278E+03  0.37775267714E+03  0.20268201494E+04  0.50400001928E-02 0.  1.
</event>
<event>
 5   0  0.6161563E-08  0.4006406E+04  0.7818609E-02  0.8003255E-01
       -2   -1    0    0    0  501  0.00000000000E+00  0.00000000000E+00  0.19195048314E+04  0.19195048314E+04  0.25500000920E-02 0.  1.
        2   -1    0    0  501    0  0.00000000000E+00  0.00000000000E+00 -0.20905511642E+04  0.20905511642E+04  0.25500000920E-02 0. -1.
    10030    2    1    2    0    0  0.00000000000E+00  0.00000000000E+00 -0.17104633274E+03  0.40100559956E+04  0.40064063997E+04 0.  0.
        1    1    3    3  502    0 -0.88051394111E+03  0.26594252339E+02 -0.18862760013E+04  0.20818379398E+04  0.50400001928E-02 0. -1.
       -1    1    3    3    0  502  0.88051394111E+03 -0.26594252339E+02  0.17152296685E+04  0.19282180558E+04  0.50400001928E-02 0.  1.
</event>
<event>
 5   0  0.1879500E-08  0.3986999E+04  0.7818609E-02  0.8007174E-01
       -1   -1    0    0    0  501  0.00000000000E+00  0.00000000000E+00  0.24657196768E+04  0.24657196768E+04  0.50400001928E-02 0. -1.
        1   -1    0    0  501    0  0.00000000000E+00  0.00000000000E+00 -0.16117163617E+04  0.16117163617E+04  0.50400001928E-02 0.  1.
    10030    2    1    2    0    0  0.00000000000E+00  0.00000000000E+00  0.85400331506E+03  0.40774360385E+04  0.39869992458E+04 0.  0.
        1    1    3    3  502    0  0.41339853477E+03 -0.18432155905E+04 -0.22439091704E+03  0.19022863468E+04  0.50400001928E-02 0.  1.
       -1    1    3    3    0  502 -0.41339853477E+03  0.18432155905E+04  0.10783942321E+04  0.21751496917E+04  0.50400001928E-02 0. -1.
</event>
<event>
 5   0  0.5951623E-08  0.3988123E+04  0.7818609E-02  0.8006947E-01
       -2   -1    0    0    0  501  0.00000000000E+00  0.00000000000E+00  0.20868605150E+04  0.20868605150E+04  0.25500000920E-02 0.  1.
        2   -1    0    0  501    0  0.00000000000E+00  0.00000000000E+00 -0.19053889748E+04  0.19053889748E+04  0.25500000920E-02 0. -1.
    10030    2    1    2    0    0  0.00000000000E+00  0.00000000000E+00  0.18147154025E+03  0.39922494898E+04  0.39881228753E+04 0.  0.
        2    1    3    3  502    0 -0.11407259078E+04  0.15883962079E+04 -0.29956882136E+03  0.19783830743E+04  0.25500000920E-02 0. -1.
       -2    1    3    3    0  502  0.11407259078E+04 -0.15883962079E+04  0.48104036161E+03  0.20138664155E+04  0.25500000920E-02 0.  1.
</event>
<event>
 5   0  0.5888700E-08  0.3979989E+04  0.7818609E-02  0.8008596E-01
       -2   -1    0    0    0  501  0.00000000000E+00  0.00000000000E+00  0.26926398723E+04  0.26926398723E+04  0.25500000920E-02 0. -1.
        2   -1    0    0  501    0  0.00000000000E+00  0.00000000000E+00 -0.14707048071E+04  0.14707048071E+04  0.25500000920E-02 0.  1.
    10030    2    1    2    0    0  0.00000000000E+00  0.00000000000E+00  0.12219350652E+04  0.41633446795E+04  0.39799891478E+04 0.  0.
        5    1    3    3  502    0  0.12696799560E+04 -0.12115165538E+04  0.15923772707E+04  0.23697145425E+04  0.46999998093E+01 0. -1.
       -5    1    3    3    0  502 -0.12696799560E+04  0.12115165538E+04 -0.37044220551E+03  0.17936301370E+04  0.46999998093E+01 0.  1.
</event>
<event>
 5   0  0.5888700E-08  0.3990922E+04  0.7818609E-02  0.8006380E-01
       -2   -1    0    0    0  501  0.00000000000E+00  0.00000000000E+00  0.15008539331E+04  0.15008539331E+04  0.25500000920E-02 0.  1.
        2   -1    0    0  501    0  0.00000000000E+00  0.00000000000E+00 -0.26530662232E+04  0.26530662232E+04  0.25500000920E-02 0. -1.
    10030    2    1    2    0    0  0.00000000000E+00  0.00000000000E+00 -0.11522122901E+04  0.41539201563E+04  0.39909221370E+04 0.  0.
        5    1    3    3  502    0 -0.15615044489E+04 -0.16081078598E+03 -0.18583656590E+04  0.24326325792E+04  0.46999998093E+01 0. -1.
       -5    1    3    3    0  502  0.15615044489E+04  0.16081078598E+03  0.70615336892E+03  0.17212875771E+04  0.46999998093E+01 0.  1.
</event>
<event>
 5   0  0.1879500E-08  0.4009965E+04  0.7818609E-02  0.8002539E-01
       -1   -1    0    0    0  501  0.00000000000E+00  0.00000000000E+00  0.22176539715E+04  0.22176539715E+04  0.50400001928E-02 0.  1.
        1   -1    0    0  501    0  0.00000000000E+00  0.00000000000E+00 -0.18127058831E+04  0.18127058831E+04  0.50400001928E-02 0. -1.
    10030    2    1    2    0    0  0.00000000000E+00  0.00000000000E+00  0.40494808836E+03  0.40303598546E+04  0.40099647883E+04 0.  0.
        1    1    3    3  502    0  0.14095487196E+04 -0.14093861835E+04 -0.14860325905E+02  0.19933433815E+04  0.50400001928E-02 0.  1.
       -1    1    3    3    0  502 -0.14095487196E+04  0.14093861835E+04  0.41980841427E+03  0.20370164731E+04  0.50400001928E-02 0. -1.
</event>
<event>
 5   0  0.1879500E-08  0.4205514E+04  0.7818609E-02  0.7964324E-01
       -1   -1    0    0    0  501  0.00000000000E+00  0.00000000000E+00  0.27519763900E+04  0.27519763900E+04  0.50400001928E-02 0. -1.
        1   -1    0    0  501    0  0.00000000000E+00  0.00000000000E+00 -0.16066950422E+04  0.16066950422E+04  0.50400001928E-02 0.  1.
    10030    2    1    2    0    0  0.00000000000E+00  0.00000000000E+00  0.11452813477E+04  0.43586714322E+04  0.42055139149E+04 0.  0.
        4    1    3    3  502    0  0.11494438454E+04 -0.11984241913E+04  0.19096377145E+04  0.25306440899E+04  0.12699999809E+01 0. -1.
       -4    1    3    3    0  502 -0.11494438454E+04  0.11984241913E+04 -0.76435636680E+03  0.18280273423E+04  0.12699999809E+01 0.  1.
</event>
<event>
 5   0  0.5945387E-08  0.3986498E+04  0.7818609E-02  0.8007276E-01
        2   -1    0    0  501    0  0.00000000000E+00  0.00000000000E+00  0.20656577696E+04  0.20656577696E+04  0.25500000920E-02 0. -1.
       -2   -1    0    0    0  501  0.00000000000E+00  0.00000000000E+00 -0.19233784217E+04  0.19233784217E+04  0.25500000920E-02 0.  1.
    10030    2    1    2    0    0  0.00000000000E+00  0.00000000000E+00  0.14227934792E+03  0.39890361913E+04  0.39864980023E+04 0.  0.
        3    1    3    3  502    0  0.29631678425E+03 -0.24079915087E+03 -0.18864427257E+04  0.19246958293E+04  0.10100000352E+00 0.  1.
       -3    1    3    3    0  502 -0.29631678425E+03  0.24079915087E+03  0.20287220737E+04  0.20643403620E+04  0.10100000352E+00 0. -1.
</event>
<event>
 5   0  0.6161563E-08  0.3992208E+04  0.7818609E-02  0.8006120E-01
       -2   -1    0    0    0  501  0.00000000000E+00  0.00000000000E+00  0.15060366098E+04  0.15060366098E+04  0.25500000920E-02 0. -1.
        2   -1    0    0  501    0  0.00000000000E+00  0.00000000000E+00 -0.26456399002E+04  0.26456399002E+04  0.25500000920E-02 0.  1.
    10030    2    1    2    0    0  0.00000000000E+00  0.00000000000E+00 -0.11396032904E+04  0.41516765100E+04  0.39922076830E+04 0.  0.
        1    1    3    3  502    0  0.24045434904E+03  0.90829535543E+02 -0.26283575818E+04  0.26408960367E+04  0.50400001928E-02 0.  1.
       -1    1    3    3    0  502 -0.24045434904E+03 -0.90829535543E+02  0.14887542914E+04  0.15107804734E+04  0.50400001928E-02 0. -1.
</event>
<event>
 5   0  0.5888700E-08  0.4016634E+04  0.7818609E-02  0.8001199E-01
        2   -1    0    0  501    0  0.00000000000E+00  0.00000000000E+00  0.12713687960E+04  0.12713687960E+04  0.25500000920E-02 0. -1.
       -2   -1    0    0    0  501  0.00000000000E+00  0.00000000000E+00 -0.31724362765E+04  0.31724362765E+04  0.25500000920E-02 0.  1.
    10030    2    1    2    0    0  0.00000000000E+00  0.00000000000E+00 -0.19010674805E+04  0.44438050725E+04  0.40166336598E+04 0.  0.
        5    1    3    3  502    0 -0.36838315803E+03 -0.18739379847E+04 -0.26320175001E+03  0.19278607244E+04  0.46999998093E+01 0.  1.
       -5    1    3    3    0  502  0.36838315803E+03  0.18739379847E+04 -0.16378657305E+04  0.25159443481E+04  0.46999998093E+01 0. -1.
</event>
<event>
 5   0  0.5888700E-08  0.4002708E+04  0.7818609E-02  0.8004001E-01
       -2   -1    0    0    0  501  0.00000000000E+00  0.00000000000E+00  0.16123634655E+04  0.16123634655E+04  0.25500000920E-02 0.  1.
        2   -1    0    0  501    0  0.00000000000E+00  0.00000000000E+00 -0.24841900984E+04  0.24841900984E+04  0.25500000920E-02 0. -1.
    10030    2    1    2    0    0  0.00000000000E+00  0.00000000000E+00 -0.87182663293E+03  0.40965535639E+04  0.40027077615E+04 0.  0.
        5    1    3    3  502    0  0.96866060108E+03 -0.44974257448E+03  0.12963491339E+04  0.16796174893E+04  0.46999998093E+01 0.  1.
       -5    1    3    3    0  502 -0.96866060108E+03  0.44974257448E+03 -0.21681757668E+04  0.24169360747E+04  0.46999998093E+01 0. -1.
</event>
<event>
 5   0  0.5945387E-08  0.3886418E+04  0.7818609E-02  0.8027860E-01
        2   -1    0    0  501    0  0.00000000000E+00  0.00000000000E+00  0.22244229542E+04  0.22244229542E+04  0.25500000920E-02 0.  1.
       -2   -1    0    0    0  501  0.00000000000E+00  0.00000000000E+00 -0.16975467789E+04  0.16975467789E+04  0.25500000920E-02 0. -1.
    10030    2    1    2    0    0  0.00000000000E+00  0.00000000000E+00  0.52687617529E+03  0.39219697330E+04  0.38864184132E+04 0.  0.
        3    1    3    3  502    0  0.98347391824E+03  0.11467523628E+04 -0.96995332970E+03  0.17952914530E+04  0.10100000352E+00 0. -1.
       -3    1    3    3    0  502 -0.98347391824E+03 -0.11467523628E+04  0.14968295050E+04  0.21266782800E+04  0.10100000352E+00 0.  1.
</event>
<event>
 5   0  0.5846812E-08  0.3993449E+04  0.7818609E-02  0.8005869E-01
        2   -1    0    0  501    0  0.00000000000E+00  0.00000000000E+00  0.24449905524E+04  0.24449905524E+04  0.25500000920E-02 0. -1.
       -2   -1    0    0    0  501  0.00000000000E+00  0.00000000000E+00 -0.16306434855E+04  0.16306434855E+04  0.25500000920E-02 0.  1.
    10030    2    1    2    0    0  0.00000000000E+00  0.00000000000E+00  0.81434706685E+03  0.40756340379E+04  0.39934485931E+04 0.  0.
        4    1    3    3  502    0  0.86035464503E+03 -0.17708071406E+04  0.67244894499E+02  0.19698963255E+04  0.12699999809E+01 0.  1.
       -4    1    3    3    0  502 -0.86035464503E+03  0.17708071406E+04  0.74710217235E+03  0.21057377124E+04  0.12699999809E+01 0. -1.
</event>
<event>
 5   0  0.5945387E-08  0.3999385E+04  0.7818609E-02  0.8004671E-01
       -2   -1    0    0    0  501  0.00000000000E+00  0.00000000000E+00  0.16993915689E+04  0.16993915689E+04  0.25500000920E-02 0. -1.
        2   -1    0    0  501    0  0.00000000000E+00  0.00000000000E+00 -0.23530602235E+04  0.23530602235E+04  0.25500000920E-02 0.  1.
    10030    2    1    2    0    0  0.00000000000E+00  0.00000000000E+00 -0.65366865461E+03  0.40524517924E+04  0.39993853052E+04 0.  0.
        3    1    3    3  502    0  0.87678241535E+02  0.18163903067E+04  0.51595274123E+03  0.18902826407E+04  0.10100000352E+00 0. -1.
       -3    1    3    3    0  502 -0.87678241535E+02 -0.18163903067E+04 -0.11696213958E+04  0.21621691516E+04  0.10100000352E+00 0.  1.
</event>
<event>
 5   0  0.5846812E-08  0.3981945E+04  0.7818609E-02  0.8008199E-01
        2   -1    0    0  501    0  0.00000000000E+00  0.00000000000E+00  0.18027888344E+04  0.18027888344E+04  0.25500000920E-02 0. -1.
       -2   -1    0    0    0  501  0.00000000000E+00  0.00000000000E+00 -0.21987991572E+04  0.21987991572E+04  0.25500000920E-02 0.  1.
    10030    2    1    2    0    0  0.00000000000E+00  0.00000000000E+00 -0.39601032283E+03  0.40015879915E+04  0.39819445348E+04 0.  0.
        4    1    3    3  502    0  0.79106386326E+03 -0.18265292933E+04 -0.15331487404E+03  0.19963712978E+04  0.12699999809E+01 0. -1.
       -4    1    3    3    0  502 -0.79106386326E+03  0.18265292933E+04 -0.24269544879E+03  0.20052166938E+04  0.12699999809E+01 0.  1.
</event>
<event>
 5   0  0.6161563E-08  0.3978087E+04  0.7818609E-02  0.8008982E-01
       -2   -1    0    0    0  501  0.00000000000E+00  0.00000000000E+00  0.13123113614E+04  0.13123113614E+04  0.25500000920E-02 0.  1.
        2   -1    0    0  501    0  0.00000000000E+00  0.00000000000E+00 -0.30147532110E+04  0.30147532110E+04  0.25500000920E-02 0. -1.
    10030    2    1    2    0    0  0.00000000000E+00  0.00000000000E+00 -0.17024418495E+04  0.43270645724E+04  0.39780874252E+04 0.  0.
        1    1    3    3  502    0  0.96725850338E+03 -0.70426153764E+03  0.87710561024E+03  0.14835388695E+04  0.50400001928E-02 0.  1.
       -1    1    3    3    0  502 -0.96725850338E+03  0.70426153764E+03 -0.25795474598E+04  0.28435257029E+04  0.50400001928E-02 0. -1.
</event>
<event>
 5   0  0.1879500E-08  0.4005879E+04  0.7818609E-02  0.8003362E-01
       -1   -1    0    0    0  501  0.00000000000E+00  0.00000000000E+00  0.15840209404E+04  0.15840209404E+04  0.50400001928E-02 0.  1.
        1   -1    0    0  501    0  0.00000000000E+00  0.00000000000E+00 -0.25326479741E+04  0.25326479741E+04  0.50400001928E-02 0. -1.
    10030    2    1    2    0    0  0.00000000000E+00  0.00000000000E+00 -0.94862703373E+03  0.41166689145E+04  0.40058793920E+04 0.  0.
        4    1    3    3  502    0 -0.13427541508E+04  0.11893099784E+04 -0.13902081470E+04  0.22693891775E+04  0.12699999809E+01 0. -1.
       -4    1    3    3    0  502  0.13427541508E+04 -0.11893099784E+04  0.44158111329E+03  0.18472797370E+04  0.12699999809E+01 0.  1.
</event>
<event>
 5   0  0.5945387E-08  0.4016498E+04  0.7818609E-02  0.8001227E-01
        2   -1    0    0  501    0  0.00000000000E+00  0.00000000000E+00  0.24211439219E+04  0.24211439219E+04  0.25500000920E-02 0. -1.
       -2   -1    0    0    0  501  0.00000000000E+00  0.00000000000E+00 -0.16657681670E+04  0.16657681670E+04  0.25500000920E-02 0.  1.
    10030    2    1    2    0    0  0.00000000000E+00  0.00000000000E+00  0.75537575481E+03  0.40869120889E+04  0.40164982125E+04 0.  0.
        3    1    3    3  502    0 -0.11195662040E+03  0.19398517997E+04 -0.13865798000E+03  0.19480208765E+04  0.10100000352E+00 0. -1.
       -3    1    3    3    0  502  0.11195662040E+03 -0.19398517997E+04  0.89403373481E+03  0.21388912124E+04  0.10100000352E+00 0.  1.
</event>
<event>
 5   0  0.5888700E-08  0.4002371E+04  0.7818609E-02  0.8004068E-01
       -2   -1    0    0    0  501  0.00000000000E+00  0.00000000000E+00  0.27680483662E+04  0.27680483662E+04  0.25500000920E-02 0.  1.
        2   -1    0    0  501    0  0.00000000000E+00  0.00000000000E+00 -0.14467749993E+04  0.14467749993E+04  0.25500000920E-02 0. -1.
    10030    2    1    2    0    0  0.00000000000E+00  0.00000000000E+00  0.13212733669E+04  0.42148233654E+04  0.40023708838E+04 0.  0.
        5    1    3    3  502    0 -0.11635271291E+04 -0.15691285048E+04  0.11181657474E+04  0.22508390376E+04  0.46999998093E+01 0. -1.
       -5    1    3    3    0  502  0.11635271291E+04  0.15691285048E+04  0.20310761947E+03  0.19639843278E+04  0.46999998093E+01 0.  1.
</event>
<event>
 5   0  0.1879500E-08  0.3992484E+04  0.7818609E-02  0.8006064E-01
       -1   -1    0    0    0  501  0.00000000000E+00  0.00000000000E+00  0.16733116890E+04  0.16733116890E+04  0.50400001928E-02 0.  1.
        1   -1    0    0  501    0  0.00000000000E+00  0.00000000000E+00 -0.23814944587E+04  0.23814944587E+04  0.50400001928E-02 0. -1.
    10030    2    1    2    0    0  0.00000000000E+00  0.00000000000E+00 -0.70818276977E+03  0.40548061477E+04  0.39924841966E+04 0.  0.
        3    1    3    3  502    0  0.40126537533E+03 -0.88470465318E+03 -0.21252363704E+04  0.23367382963E+04  0.10100000352E+00 0. -1.
       -3    1    3    3    0  502 -0.40126537533E+03  0.88470465318E+03  0.14170536007E+04  0.17180678515E+04  0.10100000352E+00 0.  1.
</event>
<event>
 5   0  0.1879500E-08  0.4001128E+04  0.7818609E-02  0.8004319E-01
       -1   -1    0    0    0  501  0.00000000000E+00  0.00000000000E+00  0.23679981956E+04  0.23679981956E+04  0.50400001928E-02 0. -1.
        1   -1    0    0  501    0  0.00000000000E+00  0.00000000000E+00 -0.16901433190E+04  0.16901433190E+04  0.50400001928E-02 0.  1.
    10030    2    1    2    0    0  0.00000000000E+00  0.00000000000E+00  0.67785487661E+03  0.40581415146E+04  0.40011280058E+04 0.  0.
        4    1    3    3  502    0  0.90747943901E+03  0.15042615686E+04 -0.63175366611E+03  0.18669322715E+04  0.12699999809E+01 0.  1.
       -4    1    3    3    0  502 -0.90747943901E+03 -0.15042615686E+04  0.13096085427E+04  0.21912092431E+04  0.12699999809E+01 0. -1.
</event>
<event>
 5   0  0.5846812E-08  0.4010339E+04  0.7818609E-02  0.8002464E-01
        2   -1    0    0  501    0  0.00000000000E+00  0.00000000000E+00  0.22239744803E+04  0.22239744803E+04  0.25500000920E-02 0. -1.
       -2   -1    0    0    0  501  0.00000000000E+00  0.00000000000E+00 -0.18078919165E+04  0.18078919165E+04  0.25500000920E-02 0.  1.
    10030    2    1    2    0    0  0.00000000000E+00  0.00000000000E+00  0.41608256377E+03  0.40318663969E+04  0.40103393799E+04 0.  0.
        4    1    3    3  502    0 -0.84788630939E+03 -0.15875370737E+04  0.10968221511E+04  0.21076540508E+04  0.12699999809E+01 0. -1.
       -4    1    3    3    0  502  0.84788630939E+03  0.15875370737E+04 -0.68073958733E+03  0.19242123460E+04  0.12699999809E+01 0.  1.
</event>
<event>
 5   0  0.1879500E-08  0.4037100E+04  0.7818609E-02  0.7997104E-01
       -1   -1    0    0    0  501  0.00000000000E+00  0.00000000000E+00  0.14678976323E+04  0.14678976323E+04  0.50400001928E-02 0.  1.
        1   -1    0    0  501    0  0.00000000000E+00  0.00000000000E+00 -0.27757685278E+04  0.27757685278E+04  0.50400001928E-02 0. -1.
    10030    2    1    2    0    0  0.00000000000E+00  0.00000000000E+00 -0.13078708955E+04  0.42436661601E+04  0.40370999739E+04 0.  0.
        3    1    3    3  502    0 -0.31075846579E+03 -0.17873489131E+04 -0.15842966544E+04  0.24085644813E+04  0.10100000352E+00 0.  1.
       -3    1    3    3    0  502  0.31075846579E+03  0.17873489131E+04  0.27642575890E+03  0.18351016788E+04  0.10100000352E+00 0. -1.
</event>
<event>
 5   0  0.5888700E-08  0.4013622E+04  0.7818609E-02  0.8001804E-01
        2   -1    0    0  501    0  0.00000000000E+00  0.00000000000E+00  0.14007242524E+04  0.14007242524E+04  0.25500000920E-02 0.  1.
       -2   -1    0    0    0  501  0.00000000000E+00  0.00000000000E+00 -0.28751491989E+04  0.28751491989E+04  0.25500000920E-02 0. -1.
    10030    2    1    2    0    0  0.00000000000E+00  0.00000000000E+00 -0.14744249464E+04  0.42758734513E+04  0.40136224099E+04 0.  0.
        5    1    3    3  502    0 -0.99749434827E+03  0.12889830500E+04  0.51009888881E+03  0.17078334943E+04  0.46999998093E+01 0.  1.
       -5    1    3    3    0  502  0.99749434827E+03 -0.12889830500E+04 -0.19845238353E+04  0.25680399570E+04  0.46999998093E+01 0. -1.
</event>
<event>
 5   0  0.5951623E-08  0.4009052E+04  0.7818609E-02  0.8002723E-01
        2   -1    0    0  501    0  0.00000000000E+00  0.00000000000E+00  0.24878857290E+04  0.24878857290E+04  0.25500000920E-02 0.  1.
       -2   -1    0    0    0  501  0.00000000000E+00  0.00000000000E+00 -0.16150756565E+04  0.16150756565E+04  0.25500000920E-02 0. -1.
    10030    2    1    2    0    0  0.00000000000E+00  0.00000000000E+00  0.87281007245E+03  0.41029613855E+04  0.40090515972E+04 0.  0.
        2    1    3    3  502    0  0.93565659126E+03 -0.11525712925E+04  0.18148972906E+04  0.23447230149E+04  0.25500000920E-02 0.  1.
       -2    1    3    3    0  502 -0.93565659126E+03  0.11525712925E+04 -0.94208721820E+03  0.17582383706E+04  0.25500000920E-02 0. -1.
</event>
<event>
 5   0  0.5888700E-08  0.4066091E+04  0.7818609E-02  0.7991345E-01
        2   -1    0    0  501    0  0.00000000000E+00  0.00000000000E+00  0.25505762547E+04  0.25505762547E+04  0.25500000920E-02 0. -1.
       -2   -1    0    0    0  501  0.00000000000E+00  0.00000000000E+00 -0.16205257713E+04  0.16205257713E+04  0.25500000920E-02 0.  1.
    10030    2    1    2    0    0  0.00000000000E+00  0.00000000000E+00  0.93005048345E+03  0.41711020260E+04  0.40660912692E+04 0.  0.
        5    1    3    3  502    0  0.91427768152E+03 -0.53651316727E+03 -0.13145691871E+04  0.16887463680E+04  0.46999998093E+01 0.  1.
       -5    1    3    3    0  502 -0.91427768152E+03  0.53651316727E+03  0.22446196706E+04  0.24823556581E+04  0.46999998093E+01 0. -1.
</event>
<event>
 5   0  0.1879500E-08  0.4036813E+04  0.7818609E-02  0.7997161E-01
       -1   -1    0    0    0  501  0.00000000000E+00  0.00000000000E+00  0.18220375869E+04  0.18220375869E+04  0.50400001928E-02 0.  1.
        1   -1    0    0  501    0  0.00000000000E+00  0.00000000000E+00 -0.22359393126E+04  0.22359393126E+04  0.50400001928E-02 0. -1.
    10030    2    1    2    0    0  0.00000000000E+00  0.00000000000E+00 -0.41390172566E+03  0.40579768995E+04  0.40368133321E+04 0.  0.
        5    1    3    3  502    0  0.66904430317E+02 -0.13330702415E+04 -0.17289529276E+04  0.21842281903E+04  0.46999998093E+01 0. -1.
       -5    1    3    3    0  502 -0.66904430317E+02  0.13330702415E+04  0.13150512019E+04  0.18737487092E+04  0.46999998093E+01 0.  1.
</event>
<event>
 5   0  0.1879500E-08  0.3880394E+04  0.7818609E-02  0.8029119E-01
        1   -1    0    0  501    0  0.00000000000E+00  0.00000000000E+00  0.17596844050E+04  0.17596844050E+04  0.50400001928E-02 0.  1.
       -1   -1    0    0    0  501  0.00000000000E+00  0.00000000000E+00 -0.21392270309E+04  0.21392270309E+04  0.50400001928E-02 0. -1.
    10030    2    1    2    0    0  0.00000000000E+00  0.00000000000E+00 -0.37954262590E+03  0.38989114359E+04  0.38803940239E+04 0.  0.
        4    1    3    3  502    0  0.10123260682E+04  0.10057577152E+04  0.11310397315E+04  0.18208803193E+04  0.12699999809E+01 0.  1.
       -4    1    3    3    0  502 -0.10123260682E+04 -0.10057577152E+04 -0.15105823574E+04  0.20780311166E+04  0.12699999809E+01 0. -1.
</event>
<event>
 5   0  0.5945387E-08  0.4003089E+04  0.7818609E-02  0.8003924E-01
       -2   -1    0    0    0  501  0.00000000000E+00  0.00000000000E+00  0.23688323713E+04  0.23688323713E+04  0.25500000920E-02 0.  1.
        2   -1    0    0  501    0  0.00000000000E+00  0.00000000000E+00 -0.16912050261E+04  0.16912050261E+04  0.25500000920E-02 0. -1.
    10030    2    1    2    0    0  0.00000000000E+00  0.00000000000E+00  0.67762734518E+03  0.40600373974E+04  0.40030894131E+04 0.  0.
        3    1    3    3  502    0  0.11737643872E+04  0.89026620539E+03  0.17130373115E+04  0.22593790284E+04  0.10100000352E+00 0.  1.
       -3    1    3    3    0  502 -0.11737643872E+04 -0.89026620539E+03 -0.10354099664E+04  0.18006583690E+04  0.10100000352E+00 0. -1.
</event>
<event>
 5   0  0.1879500E-08  0.4044367E+04  0.7818609E-02  0.7995656E-01
        1   -1    0    0  501    0  0.00000000000E+00  0.00000000000E+00  0.18780805448E+04  0.18780805448E+04  0.50400001928E-02 0.  1.
       -1   -1    0    0    0  501  0.00000000000E+00  0.00000000000E+00 -0.21773429383E+04  0.21773429383E+04  0.50400001928E-02 0. -1.
    10030    2    1    2    0    0  0.00000000000E+00  0.00000000000E+00 -0.29926239352E+03  0.40554234832E+04  0.40443666560E+04 0.  0.
        2    1    3    3  502    0  0.17613431696E+04  0.93530108152E+03  0.18610881228E+03  0.20029364354E+04  0.25500000920E-02 0.  1.
       -2    1    3    3    0  502 -0.17613431696E+04 -0.93530108152E+03 -0.48537120580E+03  0.20524870478E+04  0.25500000920E-02 0. -1.
</event>
<event>
 5   0  0.5846812E-08  0.4007147E+04  0.7818609E-02  0.8003106E-01
       -2   -1    0    0    0  501  0.00000000000E+00  0.00000000000E+00  0.16765732231E+04  0.16765732231E+04  0.25500000920E-02 0.  1.
        2   -1    0    0  501    0  0.00000000000E+00  0.00000000000E+00 -0.23943525378E+04  0.23943525378E+04  0.25500000920E-02 0. -1.
    10030    2    1    2    0    0  0.00000000000E+00  0.00000000000E+00 -0.71777931472E+03  0.40709257609E+04  0.40071472903E+04 0.  0.
        4    1    3    3  502    0  0.19460396481E+04  0.12411985407E+03  0.10868535079E+03  0.19530207804E+04  0.12699999809E+01 0.  1.
       -4    1    3    3    0  502 -0.19460396481E+04 -0.12411985407E+03 -0.82646466550E+03  0.21179049805E+04  0.12699999809E+01 0. -1.
</event>
<event>
 5   0  0.1879500E-08  0.3865999E+04  0.7818609E-02  0.8032138E-01
        1   -1    0    0  501    0  0.00000000000E+00  0.00000000000E+00  0.14805807727E+04  0.14805807727E+04  0.50400001928E-02 0.  1.
       -1   -1    0    0    0  501  0.00000000000E+00  0.00000000000E+00 -0.25236627903E+04  0.25236627903E+04  0.50400001928E-02 0. -1.
    10030    2    1    2    0    0  0.00000000000E+00  0.00000000000E+00 -0.10430820176E+04  0.40042435630E+04  0.38659987605E+04 0.  0.
        4    1    3    3  502    0  0.66025489673E+03  0.72477862131E+03 -0.22470188807E+04  0.24515986706E+04  0.12699999809E+01 0. -1.
       -4    1    3    3    0  502 -0.66025489673E+03 -0.72477862131E+03  0.12039368631E+04  0.15526448924E+04  0.12699999809E+01 0.  1.
</event>
<event>
 5   0  0.1879500E-08  0.4030332E+04  0.7818609E-02  0.7998455E-01
        1   -1    0    0  501    0  0.00000000000E+00  0.00000000000E+00  0.14161918385E+04  0.14161918385E+04  0.50400001928E-02 0.  1.
       -1   -1    0    0    0  501  0.00000000000E+00  0.00000000000E+00 -0.28674748839E+04  0.28674748839E+04  0.50400001928E-02 0. -1.
    10030    2    1    2    0    0  0.00000000000E+00  0.00000000000E+00 -0.14512830454E+04  0.42836667224E+04  0.40303322581E+04 0.  0.
        1    1    3    3  502    0  0.28122699323E+03 -0.16199744953E+04  0.51270705592E+03  0.17222875812E+04  0.50400001928E-02 0.  1.
       -1    1    3    3    0  502 -0.28122699323E+03  0.16199744953E+04 -0.19639901013E+04  0.25613791412E+04  0.50400001928E-02 0. -1.
</event>
<event>
 5   0  0.1879500E-08  0.3985547E+04  0.7818609E-02  0.8007469E-01
        1   -1    0    0  501    0  0.00000000000E+00  0.00000000000E+00  0.33927884077E+04  0.33927884077E+04  0.50400001928E-02 0.  1.
       -1   -1    0    0    0  501  0.00000000000E+00  0.00000000000E+00 -0.11704666609E+04  0.11704666609E+04  0.50400001928E-02 0. -1.
    10030    2    1    2    0    0  0.00000000000E+00  0.00000000000E+00  0.22223217468E+04  0.45632550687E+04  0.39855467474E+04 0.  0.
        5    1    3    3  502    0  0.10608050513E+04 -0.11237761349E+04 -0.32935994916E+03  0.15800886761E+04  0.46999998093E+01 0. -1.
       -5    1    3    3    0  502 -0.10608050513E+04  0.11237761349E+04  0.25516816960E+04  0.29831663926E+04  0.46999998093E+01 0.  1.
</event>
<event>
 5   0  0.1879500E-08  0.3923483E+04  0.7818609E-02  0.8020163E-01
        1   -1    0    0  501    0  0.00000000000E+00  0.00000000000E+00  0.15351914762E+04  0.15351914762E+04  0.50400001928E-02 0.  1.
       -1   -1    0    0    0  501  0.00000000000E+00  0.00000000000E+00 -0.25068077205E+04  0.25068077205E+04  0.50400001928E-02 0. -1.
    10030    2    1    2    0    0  0.00000000000E+00  0.00000000000E+00 -0.97161624428E+03  0.40419991968E+04  0.39234830674E+04 0.  0.
        3    1    3    3  502    0 -0.22182798632E+03  0.16485007779E+04 -0.15572566280E+04  0.22785545168E+04  0.10100000352E+00 0. -1.
       -3    1    3    3    0  502  0.22182798632E+03 -0.16485007779E+04  0.58564038373E+03  0.17634446800E+04  0.10100000352E+00 0.  1.
</event>
<event>
 5   0  0.5951623E-08  0.3998056E+04  0.7818609E-02  0.8004939E-01
       -2   -1    0    0    0  501  0.00000000000E+00  0.00000000000E+00  0.12774204859E+04  0.12774204859E+04  0.25500000920E-02 0.  1.
        2   -1    0    0  501    0  0.00000000000E+00  0.00000000000E+00 -0.31282673788E+04  0.31282673788E+04  0.25500000920E-02 0. -1.
    10030    2    1    2    0    0  0.00000000000E+00  0.00000000000E+00 -0.18508468929E+04  0.44056878647E+04  0.39980559451E+04 0.  0.
        2    1    3    3  502    0  0.10030779898E+04  0.93166713294E+03  0.67978630722E+03  0.15284889675E+04  0.25500000920E-02 0.  1.
       -2    1    3    3    0  502 -0.10030779898E+04 -0.93166713294E+03 -0.25306332002E+04  0.28771988972E+04  0.25500000920E-02 0. -1.
</event>
<event>
 5   0  0.1879500E-08  0.3993708E+04  0.7818609E-02  0.8005817E-01
       -1   -1    0    0    0  501  0.00000000000E+00  0.00000000000E+00  0.19537108836E+04  0.19537108836E+04  0.50400001928E-02 0. -1.
        1   -1    0    0  501    0  0.00000000000E+00  0.00000000000E+00 -0.20409497294E+04  0.20409497294E+04  0.50400001928E-02 0.  1.
    10030    2    1    2    0    0  0.00000000000E+00  0.00000000000E+00 -0.87238845787E+02  0.39946606131E+04  0.39937079008E+04 0.  0.
        4    1    3    3  502    0  0.17415091717E+04 -0.17761792996E+03 -0.10045888264E+04  0.20183167857E+04  0.12699999809E+01 0.  1.
       -4    1    3    3    0  502 -0.17415091717E+04  0.17761792996E+03  0.91734998061E+03  0.19763438274E+04  0.12699999809E+01 0. -1.
</event>
<event>
 5   0  0.5945387E-08  0.3982225E+04  0.7818609E-02  0.8008142E-01
       -2   -1    0    0    0  501  0.00000000000E+00  0.00000000000E+00  0.16212364463E+04  0.16212364463E+04  0.25500000920E-02 0.  1.
        2   -1    0    0  501    0  0.00000000000E+00  0.00000000000E+00 -0.24453734414E+04  0.24453734414E+04  0.25500000920E-02 0. -1.
    10030    2    1    2    0    0  0.00000000000E+00  0.00000000000E+00 -0.82413699505E+03  0.40666098877E+04  0.39822247792E+04 0.  0.
        3    1    3    3  502    0 -0.21399403526E+03 -0.33131222803E+03 -0.24050825639E+04  0.24372081136E+04  0.10100000352E+00 0. -1.
       -3    1    3    3    0  502  0.21399403526E+03  0.33131222803E+03  0.15809455689E+04  0.16294017741E+04  0.10100000352E+00 0.  1.
</event>
<event>
 5   0  0.5846812E-08  0.4012052E+04  0.7818609E-02  0.8002120E-01
        2   -1    0    0  501    0  0.00000000000E+00  0.00000000000E+00  0.21966694391E+04  0.21966694391E+04  0.25500000920E-02 0. -1.
       -2   -1    0    0    0  501  0.00000000000E+00  0.00000000000E+00 -0.18319278562E+04  0.18319278562E+04  0.25500000920E-02 0.  1.
    10030    2    1    2    0    0  0.00000000000E+00  0.00000000000E+00  0.36474158283E+03  0.40285972953E+04  0.40120518124E+04 0.  0.
        4    1    3    3  502    0 -0.89238696724E+03  0.15439447720E+04 -0.74012261811E+03  0.19307778384E+04  0.12699999809E+01 0. -1.
       -4    1    3    3    0  502  0.89238696724E+03 -0.15439447720E+04  0.11048642009E+04  0.20978194569E+04  0.12699999809E+01 0.  1.
</event>
<event>
 5   0  0.1879500E-08  0.4000184E+04  0.7818609E-02  0.8004509E-01
        1   -1    0    0  501    0  0.00000000000E+00  0.00000000000E+00  0.27764256593E+04  0.27764256593E+04  0.50400001928E-02 0. -1.
       -1   -1    0    0    0  501  0.00000000000E+00  0.00000000000E+00 -0.14408337315E+04  0.14408337315E+04  0.50400001928E-02 0.  1.
    10030    2    1    2    0    0  0.00000000000E+00  0.00000000000E+00  0.13355919277E+04  0.42172593908E+04  0.40001838673E+04 0.  0.
        3    1    3    3  502    0 -0.74011624001E+03 -0.15584457774E+04  0.17345564596E+04  0.24464691724E+04  0.10100000352E+00 0. -1.
       -3    1    3    3    0  502  0.74011624001E+03  0.15584457774E+04 -0.39896453182E+03  0.17707902184E+04  0.10100000352E+00 0.  1.
</event>
<event>
 5   0  0.5888700E-08  0.4036739E+04  0.7818609E-02  0.7997176E-01
        2   -1    0    0  501    0  0.00000000000E+00  0.00000000000E+00  0.25800966396E+04  0.25800966396E+04  0.25500000920E-02 0. -1.
       -2   -1    0    0    0  501  0.00000000000E+00  0.00000000000E+00 -0.15789387913E+04  0.15789387913E+04  0.25500000920E-02 0.  1.
    10030    2    1    2    0    0  0.00000000000E+00  0.00000000000E+00  0.10011578483E+04  0.41590354308E+04  0.40367386189E+04 0.  0.
        5    1    3    3  502    0  0.28673591828E+03  0.16940364405E+04  0.15918250984E+04  0.23422011404E+04  0.46999998093E+01 0.  1.
       -5    1    3    3    0  502 -0.28673591828E+03 -0.16940364405E+04 -0.59066725008E+03  0.18168342904E+04  0.46999998093E+01 0. -1.
</event>
<event>
 5   0  0.6161563E-08  0.3983548E+04  0.7818609E-02  0.8007874E-01
        2   -1    0    0  501    0  0.00000000000E+00  0.00000000000E+00  0.24492420776E+04  0.24492420776E+04  0.25500000920E-02 0.  1.
       -2   -1    0    0    0  501  0.00000000000E+00  0.00000000000E+00 -0.16197511659E+04  0.16197511660E+04  0.25500000920E-02 0. -1.
    10030    2    1    2    0    0  0.00000000000E+00  0.00000000000E+00  0.82949091162E+03  0.40689932435E+04  0.39835475199E+04 0.  0.
        1    1    3    3  502    0 -0.38063267468E+03  0.19018632444E+04  0.87744938442E+03  0.21288218468E+04  0.50400001928E-02 0.  1.
       -1    1    3    3    0  502  0.38063267468E+03 -0.19018632444E+04 -0.47958472800E+02  0.19401713967E+04  0.50400001928E-02 0. -1.
</event>
<event>
 5   0  0.5945387E-08  0.3992351E+04  0.7818609E-02  0.8006091E-01
       -2   -1    0    0    0  501  0.00000000000E+00  0.00000000000E+00  0.19151031712E+04  0.19151031712E+04  0.25500000920E-02 0. -1.
        2   -1    0    0  501    0  0.00000000000E+00  0.00000000000E+00 -0.20806797592E+04  0.20806797592E+04  0.25500000920E-02 0.  1.
    10030    2    1    2    0    0  0.00000000000E+00  0.00000000000E+00 -0.16557658794E+03  0.39957829304E+04  0.39923508890E+04 0.  0.
        3    1    3    3  502    0 -0.56501441350E+02 -0.15906919838E+04  0.11229144751E+04  0.19479297546E+04  0.10100000352E+00 0. -1.
       -3    1    3    3    0  502  0.56501441350E+02  0.15906919838E+04 -0.12884910630E+04  0.20478531759E+04  0.10100000352E+00 0.  1.
</event>
<event>
 5   0  0.1879500E-08  0.3945393E+04  0.7818609E-02  0.8015654E-01
       -1   -1    0    0    0  501  0.00000000000E+00  0.00000000000E+00  0.17362510520E+04  0.17362510520E+04  0.50400001928E-02 0. -1.
        1   -1    0    0  501    0  0.00000000000E+00  0.00000000000E+00 -0.22413416822E+04  0.22413416822E+04  0.50400001928E-02 0.  1.
    10030    2    1    2    0    0  0.00000000000E+00  0.00000000000E+00 -0.50509063023E+03  0.39775927342E+04  0.39453931888E+04 0.  0.
        1    1    3    3  502    0 -0.10537140230E+04 -0.26276222721E+03 -0.19128540289E+04  0.21996290065E+04  0.50400001928E-02 0.  1.
       -1    1    3    3    0  502  0.10537140230E+04  0.26276222721E+03  0.14077633987E+04  0.17779637277E+04  0.50400001928E-02 0. -1.
</event>
<event>
 5   0  0.1879500E-08  0.4010399E+04  0.7818609E-02  0.8002452E-01
        1   -1    0    0  501    0  0.00000000000E+00  0.00000000000E+00  0.13200081322E+04  0.13200081322E+04  0.50400001928E-02 0. -1.
       -1   -1    0    0    0  501  0.00000000000E+00  0.00000000000E+00 -0.30460611575E+04  0.30460611575E+04  0.50400001928E-02 0.  1.
    10030    2    1    2    0    0  0.00000000000E+00  0.00000000000E+00 -0.17260530253E+04  0.43660692897E+04  0.40103992316E+04 0.  0.
        2    1    3    3  502    0 -0.14356680182E+04 -0.12902057448E+04 -0.14543869679E+04  0.24168191854E+04  0.25500000920E-02 0.  1.
       -2    1    3    3    0  502  0.14356680182E+04  0.12902057448E+04 -0.27166605740E+03  0.19492501043E+04  0.25500000920E-02 0. -1.
</event>
<event>
 5   0  0.6161563E-08  0.4002233E+04  0.7818609E-02  0.8004096E-01
        2   -1    0    0  501    0  0.00000000000E+00  0.00000000000E+00  0.18991891141E+04  0.18991891141E+04  0.25500000920E-02 0. -1.
       -2   -1    0    0    0  501  0.00000000000E+00  0.00000000000E+00 -0.21085139709E+04  0.21085139710E+04  0.25500000920E-02 0.  1.
    10030    2    1    2    0    0  0.00000000000E+00  0.00000000000E+00 -0.20932485689E+03  0.40077030850E+04  0.40022327671E+04 0.  0.
        1    1    3    3  502    0  0.91368535487E+03 -0.13745754532E+04  0.10283380714E+04  0.19446742126E+04  0.50400001928E-02 0. -1.
       -1    1    3    3    0  502 -0.91368535487E+03  0.13745754532E+04 -0.12376629283E+04  0.20630288724E+04  0.50400001928E-02 0.  1.
</event>
<event>
 5   0  0.5945387E-08  0.4039176E+04  0.7818609E-02  0.7996690E-01
        2   -1    0    0  501    0  0.00000000000E+00  0.00000000000E+00  0.25385682099E+04  0.25385682099E+04  0.25500000920E-02 0. -1.
       -2   -1    0    0    0  501  0.00000000000E+00  0.00000000000E+00 -0.16067071895E+04  0.16067071895E+04  0.25500000920E-02 0.  1.
    10030    2    1    2    0    0  0.00000000000E+00  0.00000000000E+00  0.93186102037E+03  0.41452753994E+04  0.40391760515E+04 0.  0.
        3    1    3    3  502    0 -0.19172590358E+04 -0.62237514195E+03  0.59371115078E+03  0.21013628836E+04  0.10100000352E+00 0. -1.
       -3    1    3    3    0  502  0.19172590358E+04  0.62237514195E+03  0.33814986959E+03  0.20439125158E+04  0.10100000352E+00 0.  1.
</event>
<event>
 5   0  0.1879500E-08  0.4010294E+04  0.7818609E-02  0.8002473E-01
       -1   -1    0    0    0  501  0.00000000000E+00  0.00000000000E+00  0.22488170453E+04  0.22488170454E+04  0.50400001928E-02 0.  1.
        1   -1    0    0  501    0  0.00000000000E+00  0.00000000000E+00 -0.17878801139E+04  0.17878801139E+04  0.50400001928E-02 0. -1.
    10030    2    1    2    0    0  0.00000000000E+00  0.00000000000E+00  0.46093693145E+03  0.40366971592E+04  0.40102943908E+04 0.  0.
        5    1    3    3  502    0  0.14089246115E+03  0.16757177508E+04  0.13297724529E+04  0.21438744208E+04  0.46999998093E+01 0. -1.
       -5    1    3    3    0  502 -0.14089246115E+03 -0.16757177508E+04 -0.86883552141E+03  0.18928227384E+04  0.46999998093E+01 0.  1.
</event>
<event>
 5   0  0.5945387E-08  0.3999049E+04  0.7818609E-02  0.8004738E-01
       -2   -1    0    0    0  501  0.00000000000E+00  0.00000000000E+00  0.27711729884E+04  0.27711729884E+04  0.25500000920E-02 0.  1.
        2   -1    0    0  501    0  0.00000000000E+00  0.00000000000E+00 -0.14427457295E+04  0.14427457295E+04  0.25500000920E-02 0. -1.
    10030    2    1    2    0    0  0.00000000000E+00  0.00000000000E+00  0.13284272589E+04  0.42139187179E+04  0.39990488843E+04 0.  0.
        3    1    3    3  502    0 -0.10002975442E+04 -0.14013547111E+04 -0.40712887153E+03  0.17692213348E+04  0.10100000352E+00 0. -1.
       -3    1    3    3    0  502  0.10002975442E+04  0.14013547111E+04  0.17355561304E+04  0.24446973832E+04  0.10100000352E+00 0.  1.
</event>
<event>
 5   0  0.1879500E-08  0.3985201E+04  0.7818609E-02  0.8007539E-01
       -1   -1    0    0    0  501  0.00000000000E+00  0.00000000000E+00  0.12644374200E+04  0.12644374200E+04  0.50400001928E-02 0.  1.
        1   -1    0    0  501    0  0.00000000000E+00  0.00000000000E+00 -0.31400978443E+04  0.31400978443E+04  0.50400001928E-02 0. -1.
    10030    2    1    2    0    0  0.00000000000E+00  0.00000000000E+00 -0.18756604243E+04  0.44045352643E+04  0.39852012329E+04 0.  0.
        4    1    3    3  502    0  0.22935359535E+03 -0.19675359040E+04 -0.69910464986E+03  0.21006069432E+04  0.12699999809E+01 0. -1.
       -4    1    3    3    0  502 -0.22935359535E+03  0.19675359040E+04 -0.11765557745E+04  0.23039283211E+04  0.12699999809E+01 0.  1.
</event>
<event>
 5   0  0.1879500E-08  0.4004794E+04  0.7818609E-02  0.8003580E-01
        1   -1    0    0  501    0  0.00000000000E+00  0.00000000000E+00  0.20787582695E+04  0.20787582695E+04  0.50400001928E-02 0.  1.
       -1   -1    0    0    0  501  0.00000000000E+00  0.00000000000E+00 -0.19288404887E+04  0.19288404887E+04  0.50400001928E-02 0. -1.
    10030    2    1    2    0    0  0.00000000000E+00  0.00000000000E+00  0.14991778074E+03  0.40075987582E+04  0.40047936858E+04 0.  0.
        4    1    3    3  502    0  0.10277883562E+04 -0.11664114999E+04 -0.11879578828E+04  0.19565557075E+04  0.12699999809E+01 0. -1.
       -4    1    3    3    0  502 -0.10277883562E+04  0.11664114999E+04  0.13378756635E+04  0.20510430508E+04  0.12699999809E+01 0.  1.
</event>
<event>
 5   0  0.5945387E-08  0.4005941E+04  0.7818609E-02  0.8003349E-01
        2   -1    0    0  501    0  0.00000000000E+00  0.00000000000E+00  0.25811158887E+04  0.25811158887E+04  0.25500000920E-02 0.  1.
       -2   -1    0    0    0  501  0.00000000000E+00  0.00000000000E+00 -0.15543244108E+04  0.15543244108E+04  0.25500000920E-02 0. -1.
    10030    2    1    2    0    0  0.00000000000E+00  0.00000000000E+00  0.10267914778E+04  0.41354402995E+04  0.40059413041E+04 0.  0.
        3    1    3    3  502    0  0.11009966409E+04 -0.12767467936E+04  0.16298443073E+04  0.23449239763E+04  0.10100000352E+00 0.  1.
       -3    1    3    3    0  502 -0.11009966409E+04  0.12767467936E+04 -0.60305282943E+03  0.17905163232E+04  0.10100000352E+00 0. -1.
</event>
<event>
 5   0  0.1879500E-08  0.3960415E+04  0.7818609E-02  0.8012580E-01
       -1   -1    0    0    0  501  0.00000000000E+00  0.00000000000E+00  0.25536730896E+04  0.25536730896E+04  0.50400001928E-02 0.  1.
        1   -1    0    0  501    0  0.00000000000E+00  0.00000000000E+00 -0.15355225473E+04  0.15355225473E+04  0.50400001928E-02 0. -1.
    10030    2    1    2    0    0  0.00000000000E+00  0.00000000000E+00  0.10181505423E+04  0.40891956369E+04  0.39604154366E+04 0.  0.
        5    1    3    3  502    0 -0.67809114768E+03 -0.25837949065E+03 -0.13932884512E+04  0.15709367791E+04  0.46999998093E+01 0. -1.
       -5    1    3    3    0  502  0.67809114768E+03  0.25837949065E+03  0.24114389934E+04  0.25182588578E+04  0.46999998093E+01 0.  1.
</event>
<event>
 5   0  0.1879500E-08  0.4019339E+04  0.7818609E-02  0.8000657E-01
        1   -1    0    0  501    0  0.00000000000E+00  0.00000000000E+00  0.25841440205E+04  0.25841440205E+04  0.50400001928E-02 0.  1.
       -1   -1    0    0    0  501  0.00000000000E+00  0.00000000000E+00 -0.15629045930E+04  0.15629045930E+04  0.50400001928E-02 0. -1.
    10030    2    1    2    0    0  0.00000000000E+00  0.00000000000E+00  0.10212394275E+04  0.41470486136E+04  0.40193385320E+04 0.  0.
        1    1    3    3  502    0  0.11051964357E+04 -0.15508420498E+04  0.11730477566E+04  0.22366517978E+04  0.50400001928E-02 0.  1.
       -1    1    3    3    0  502 -0.11051964357E+04  0.15508420498E+04 -0.15180832913E+03  0.19103968158E+04  0.50400001928E-02 0. -1.
</event>
<event>
 5   0  0.1879500E-08  0.3988010E+04  0.7818609E-02  0.8006970E-01
       -1   -1    0    0    0  501  0.00000000000E+00  0.00000000000E+00  0.30939282198E+04  0.30939282198E+04  0.50400001928E-02 0.  1.
        1   -1    0    0  501    0  0.00000000000E+00  0.00000000000E+00 -0.12851155645E+04  0.12851155645E+04  0.50400001928E-02 0. -1.
    10030    2    1    2    0    0  0.00000000000E+00  0.00000000000E+00  0.18088126553E+04  0.43790437842E+04  0.39880096843E+04 0.  0.
        4    1    3    3  502    0  0.48204780926E+03 -0.19096218559E+04  0.12464421291E+04  0.23308035775E+04  0.12699999809E+01 0.  1.
       -4    1    3    3    0  502 -0.48204780926E+03  0.19096218559E+04  0.56237052616E+03  0.20482402067E+04  0.12699999809E+01 0. -1.
</event>
<event>
 5   0  0.5951623E-08  0.3949280E+04  0.7818609E-02  0.8014857E-01
        2   -1    0    0  501    0  0.00000000000E+00  0.00000000000E+00  0.17326555794E+04  0.17326555794E+04  0.25500000920E-02 0. -1.
       -2   -1    0    0    0  501  0.00000000000E+00  0.00000000000E+00 -0.22504206282E+04  0.22504206282E+04  0.25500000920E-02 0.  1.
    10030    2    1    2    0    0  0.00000000000E+00  0.00000000000E+00 -0.51776504878E+03  0.39830762077E+04  0.39492803687E+04 0.  0.
        2    1    3    3  502    0 -0.55848686258E+03  0.21680394678E+03 -0.21565504251E+04  0.22382183233E+04  0.25500000920E-02 0.  1.
       -2    1    3    3    0  502  0.55848686258E+03 -0.21680394678E+03  0.16387853763E+04  0.17448578843E+04  0.25500000920E-02 0. -1.
</event>
<event>
 5   0  0.5951623E-08  0.4002712E+04  0.7818609E-02  0.8004000E-01
       -2   -1    0    0    0  501  0.00000000000E+00  0.00000000000E+00  0.26158486692E+04  0.26158486692E+04  0.25500000920E-02 0.  1.
        2   -1    0    0  501    0  0.00000000000E+00  0.00000000000E+00 -0.15312148697E+04  0.15312148697E+04  0.25500000920E-02 0. -1.
    10030    2    1    2    0    0  0.00000000000E+00  0.00000000000E+00  0.10846337995E+04  0.41470635390E+04  0.40027122701E+04 0.  0.
        2    1    3    3  502    0 -0.19079490592E+03 -0.18849162749E+04  0.12106495028E+04  0.22483292192E+04  0.25500000920E-02 0.  1.
       -2    1    3    3    0  502  0.19079490592E+03  0.18849162749E+04 -0.12601570334E+03  0.18987343197E+04  0.25500000920E-02 0. -1.
</event>
<event>
 5   0  0.5951623E-08  0.4007983E+04  0.7818609E-02  0.8002938E-01
       -2   -1    0    0    0  501  0.00000000000E+00  0.00000000000E+00  0.17888187779E+04  0.17888187779E+04  0.25500000920E-02 0.  1.
        2   -1    0    0  501    0  0.00000000000E+00  0.00000000000E+00 -0.22450473765E+04  0.22450473765E+04  0.25500000920E-02 0. -1.
    10030    2    1    2    0    0  0.00000000000E+00  0.00000000000E+00 -0.45622859859E+03  0.40338661544E+04  0.40079834852E+04 0.  0.
        2    1    3    3  502    0 -0.12075637466E+04 -0.15993013562E+04 -0.22529004845E+03  0.20166136556E+04  0.25500000920E-02 0.  1.
       -2    1    3    3    0  502  0.12075637466E+04  0.15993013562E+04 -0.23093855014E+03  0.20172524988E+04  0.25500000920E-02 0. -1.
</event>
<event>
 5   0  0.1879500E-08  0.3987179E+04  0.7818609E-02  0.8007138E-01
        1   -1    0    0  501    0  0.00000000000E+00  0.00000000000E+00  0.15050135338E+04  0.15050135338E+04  0.50400001928E-02 0. -1.
       -1   -1    0    0    0  501  0.00000000000E+00  0.00000000000E+00 -0.26407728293E+04  0.26407728293E+04  0.50400001928E-02 0.  1.
    10030    2    1    2    0    0  0.00000000000E+00  0.00000000000E+00 -0.11357592955E+04  0.41457863631E+04  0.39871788762E+04 0.  0.
        2    1    3    3  502    0  0.77321349069E+03 -0.10997727752E+04 -0.20985251565E+04  0.24922213168E+04  0.25500000920E-02 0.  1.
       -2    1    3    3    0  502 -0.77321349069E+03  0.10997727752E+04  0.96276586101E+03  0.16535650463E+04  0.25500000920E-02 0. -1.
</event>
<event>
 5   0  0.1879500E-08  0.4001207E+04  0.7818609E-02  0.8004303E-01
       -1   -1    0    0    0  501  0.00000000000E+00  0.00000000000E+00  0.20422020266E+04  0.20422020266E+04  0.50400001928E-02 0. -1.
        1   -1    0    0  501    0  0.00000000000E+00  0.00000000000E+00 -0.19598519235E+04  0.19598519235E+04  0.50400001928E-02 0.  1.
    10030    2    1    2    0    0  0.00000000000E+00  0.00000000000E+00  0.82350103080E+02  0.40020539502E+04  0.40012066031E+04 0.  0.
        4    1    3    3  502    0 -0.73442354092E+03 -0.90531177657E+03 -0.15850366030E+04  0.19675644833E+04  0.12699999809E+01 0.  1.
       -4    1    3    3    0  502  0.73442354092E+03  0.90531177657E+03  0.16673867061E+04  0.20344894669E+04  0.12699999809E+01 0. -1.
</event>
<event>
 5   0  0.1879500E-08  0.4001636E+04  0.7818609E-02  0.8004217E-01
       -1   -1    0    0    0  501  0.00000000000E+00  0.00000000000E+00  0.26284490754E+04  0.26284490754E+04  0.50400001928E-02 0. -1.
        1   -1    0    0  501    0  0.00000000000E+00  0.00000000000E+00 -0.15230553886E+04  0.15230553886E+04  0.50400001928E-02 0.  1.
    10030    2    1    2    0    0  0.00000000000E+00  0.00000000000E+00  0.11053936868E+04  0.41515044640E+04  0.40016364292E+04 0.  0.
        3    1    3    3  502    0  0.29847540990E+03  0.16394507016E+04 -0.59620178598E+03  0.17698425786E+04  0.10100000352E+00 0.  1.
       -3    1    3    3    0  502 -0.29847540990E+03 -0.16394507016E+04  0.17015954728E+04  0.23816618854E+04  0.10100000352E+00 0. -1.
</event>
<event>
 5   0  0.5888700E-08  0.3997261E+04  0.7818609E-02  0.8005099E-01
       -2   -1    0    0    0  501  0.00000000000E+00  0.00000000000E+00  0.16736869590E+04  0.16736869590E+04  0.25500000920E-02 0.  1.
        2   -1    0    0  501    0  0.00000000000E+00  0.00000000000E+00 -0.23866610338E+04  0.23866610338E+04  0.25500000920E-02 0. -1.
    10030    2    1    2    0    0  0.00000000000E+00  0.00000000000E+00 -0.71297407483E+03  0.40603479928E+04  0.39972607860E+04 0.  0.
        5    1    3    3  502    0 -0.55153494706E+03  0.19114273756E+04 -0.55123126189E+03  0.20643699775E+04  0.46999998093E+01 0.  1.
       -5    1    3    3    0  502  0.55153494706E+03 -0.19114273756E+04 -0.16174281295E+03  0.19959780153E+04  0.46999998093E+01 0. -1.
</event>
<event>
 5   0  0.1879500E-08  0.3989569E+04  0.7818609E-02  0.8006654E-01
        1   -1    0    0  501    0  0.00000000000E+00  0.00000000000E+00  0.27015524530E+04  0.27015524530E+04  0.50400001928E-02 0.  1.
       -1   -1    0    0    0  501  0.00000000000E+00  0.00000000000E+00 -0.14729183385E+04  0.14729183385E+04  0.50400001928E-02 0. -1.
    10030    2    1    2    0    0  0.00000000000E+00  0.00000000000E+00  0.12286341145E+04  0.41744707915E+04  0.39895694758E+04 0.  0.
        4    1    3    3  502    0  0.46026900619E+03  0.12539251604E+04 -0.93589651851E+03  0.16309750986E+04  0.12699999809E+01 0. -1.
       -4    1    3    3    0  502 -0.46026900619E+03 -0.12539251604E+04  0.21645306330E+04  0.25434956929E+04  0.12699999809E+01 0.  1.
</event>
<event>
 5   0  0.5888700E-08  0.4000208E+04  0.7818609E-02  0.8004504E-01
        2   -1    0    0  501    0  0.00000000000E+00  0.00000000000E+00  0.15059528602E+04  0.15059528602E+04  0.25500000920E-02 0.  1.
       -2   -1    0    0    0  501  0.00000000000E+00  0.00000000000E+00 -0.26564025360E+04  0.26564025360E+04  0.25500000920E-02 0. -1.
    10030    2    1    2    0    0  0.00000000000E+00  0.00000000000E+00 -0.11504496758E+04  0.41623553961E+04  0.40002084930E+04 0.  0.
        5    1    3    3  502    0 -0.73372352305E+03  0.13209621010E+04  0.78827411702E+03  0.17043148929E+04  0.46999998093E+01 0.  1.
       -5    1    3    3    0  502  0.73372352305E+03 -0.13209621010E+04 -0.19387237928E+04  0.24580405032E+04  0.46999998093E+01 0. -1.
</event>
<event>
 5   0  0.1879500E-08  0.4012576E+04  0.7818609E-02  0.8002014E-01
        1   -1    0    0  501    0  0.00000000000E+00  0.00000000000E+00  0.25159773620E+04  0.25159773620E+04  0.50400001928E-02 0.  1.
       -1   -1    0    0    0  501  0.00000000000E+00  0.00000000000E+00 -0.15998521974E+04  0.15998521974E+04  0.50400001928E-02 0. -1.
    10030    2    1    2    0    0  0.00000000000E+00  0.00000000000E+00  0.91612516462E+03  0.41158295593E+04  0.40125761855E+04 0.  0.
        4    1    3    3  502    0  0.17470487277E+04 -0.70659604463E+03  0.11640564721E+04  0.22150589858E+04  0.12699999809E+01 0. -1.
       -4    1    3    3    0  502 -0.17470487277E+04  0.70659604463E+03 -0.24793130749E+03  0.19007705736E+04  0.12699999809E+01 0.  1.
</event>
<event>
 5   0  0.1879500E-08  0.4004365E+04  0.7818609E-02  0.8003667E-01
       -1   -1    0    0    0  501  0.00000000000E+00  0.00000000000E+00  0.16667135946E+04  0.16667135946E+04  0.50400001928E-02 0.  1.
        1   -1    0    0  501    0  0.00000000000E+00  0.00000000000E+00 -0.24051734672E+04  0.24051734672E+04  0.50400001928E-02 0. -1.
    10030    2    1    2    0    0  0.00000000000E+00  0.00000000000E+00 -0.73845987264E+03  0.40718870619E+04  0.40043652757E+04 0.  0.
        3    1    3    3  502    0  0.35601921144E+03  0.19390662947E+04 -0.72441554118E+03  0.21003584601E+04  0.10100000352E+00 0. -1.
       -3    1    3    3    0  502 -0.35601921144E+03 -0.19390662947E+04 -0.14044331465E+02  0.19715286018E+04  0.10100000352E+00 0.  1.
</event>
<event>
 5   0  0.1879500E-08  0.3976544E+04  0.7818609E-02  0.8009295E-01
        1   -1    0    0  501    0  0.00000000000E+00  0.00000000000E+00  0.24101693046E+04  0.24101693047E+04  0.50400001928E-02 0.  1.
       -1   -1    0    0    0  501  0.00000000000E+00  0.00000000000E+00 -0.16402276713E+04  0.16402276713E+04  0.50400001928E-02 0. -1.
    10030    2    1    2    0    0  0.00000000000E+00  0.00000000000E+00  0.76994163332E+03  0.40503969760E+04  0.39765444225E+04 0.  0.
        3    1    3    3  502    0 -0.19180852177E+04  0.24376933216E+03 -0.87049124642E+02  0.19354720225E+04  0.10100000352E+00 0.  1.
       -3    1    3    3    0  502  0.19180852177E+04 -0.24376933216E+03  0.85699075796E+03  0.21149249535E+04  0.10100000352E+00 0. -1.
</event>
<event>
 5   0  0.5846812E-08  0.3975709E+04  0.7818609E-02  0.8009465E-01
       -2   -1    0    0    0  501  0.00000000000E+00  0.00000000000E+00  0.12982445498E+04  0.12982445498E+04  0.25500000920E-02 0.  1.
        2   -1    0    0  501    0  0.00000000000E+00  0.00000000000E+00 -0.30437763700E+04  0.30437763700E+04  0.25500000920E-02 0. -1.
    10030    2    1    2    0    0  0.00000000000E+00  0.00000000000E+00 -0.17455318202E+04  0.43420209198E+04  0.39757092868E+04 0.  0.
        4    1    3    3  502    0 -0.85381537286E+03 -0.10696865920E+04 -0.24472381274E+04  0.28039625820E+04  0.12699999809E+01 0. -1.
       -4    1    3    3    0  502  0.85381537286E+03  0.10696865920E+04  0.70170630725E+03  0.15380583378E+04  0.12699999809E+01 0.  1.
</event>
<event>
 5   0  0.5951623E-08  0.4003042E+04  0.7818609E-02  0.8003933E-01
        2   -1    0    0  501    0  0.00000000000E+00  0.00000000000E+00  0.26007142405E+04  0.26007142405E+04  0.25500000920E-02 0. -1.
       -2   -1    0    0    0  501  0.00000000000E+00  0.00000000000E+00 -0.15403789038E+04  0.15403789038E+04  0.25500000920E-02 0.  1.
    10030    2    1    2    0    0  0.00000000000E+00  0.00000000000E+00  0.10603353367E+04  0.41410931443E+04  0.40030415191E+04 0.  0.
        2    1    3    3  502    0  0.17323368035E+04 -0.10023968245E+04  0.54794027338E+03  0.20750972839E+04  0.25500000920E-02 0. -1.
       -2    1    3    3    0  502 -0.17323368035E+04  0.10023968245E+04  0.51239506328E+03  0.20659958604E+04  0.25500000920E-02 0.  1.
</event>
<event>
 5   0  0.1879500E-08  0.3996543E+04  0.7818609E-02  0.8005244E-01
       -1   -1    0    0    0  501  0.00000000000E+00  0.00000000000E+00  0.22637125307E+04  0.22637125307E+04  0.50400001928E-02 0. -1.
        1   -1    0    0  501    0  0.00000000000E+00  0.00000000000E+00 -0.17639561361E+04  0.17639561361E+04  0.50400001928E-02 0.  1.
    10030    2    1    2    0    0  0.00000000000E+00  0.00000000000E+00  0.49975639456E+03  0.40276686668E+04  0.39965433109E+04 0.  0.
        3    1    3    3  502    0  0.25304430365E+03  0.14260763232E+04 -0.11375661875E+04  0.18416791090E+04  0.10100000352E+00 0.  1.
       -3    1    3    3    0  502 -0.25304430365E+03 -0.14260763232E+04  0.16373225821E+04  0.21859895579E+04  0.10100000352E+00 0. -1.
</event>
<event>
 5   0  0.5945387E-08  0.4005834E+04  0.7818609E-02  0.8003371E-01
       -2   -1    0    0    0  501  0.00000000000E+00  0.00000000000E+00  0.13599043318E+04  0.13599043318E+04  0.25500000920E-02 0. -1.
        2   -1    0    0  501    0  0.00000000000E+00  0.00000000000E+00 -0.29499695469E+04  0.29499695469E+04  0.25500000920E-02 0.  1.
    10030    2    1    2    0    0  0.00000000000E+00  0.00000000000E+00 -0.15900652150E+04  0.43098738787E+04  0.40058339285E+04 0.  0.
        3    1    3    3  502    0 -0.72128452555E+03 -0.17478397201E+04 -0.84221112181E+02  0.18926933877E+04  0.10100000352E+00 0. -1.
       -3    1    3    3    0  502  0.72128452555E+03  0.17478397201E+04 -0.15058441029E+04  0.24171804910E+04  0.10100000352E+00 0.  1.
</event>
<event>
 5   0  0.1879500E-08  0.3997749E+04  0.7818609E-02  0.8005001E-01
        1   -1    0    0  501    0  0.00000000000E+00  0.00000000000E+00  0.18850762913E+04  0.18850762913E+04  0.50400001928E-02 0.  1.
       -1   -1    0    0    0  501  0.00000000000E+00  0.00000000000E+00 -0.21195426774E+04  0.21195426774E+04  0.50400001928E-02 0. -1.
    10030    2    1    2    0    0  0.00000000000E+00  0.00000000000E+00 -0.23446638614E+03  0.40046189687E+04  0.39977491915E+04 0.  0.
        1    1    3    3  502    0  0.95783400197E+02 -0.13288797896E+04  0.13754293222E+04  0.19149156053E+04  0.50400001928E-02 0.  1.
       -1    1    3    3    0  502 -0.95783400197E+02  0.13288797896E+04 -0.16098957084E+04  0.20897033634E+04  0.50400001928E-02 0. -1.
</event>
<event>
 5   0  0.1879500E-08  0.3976547E+04  0.7818609E-02  0.8009295E-01
        1   -1    0    0  501    0  0.00000000000E+00  0.00000000000E+00  0.13757204916E+04  0.13757204917E+04  0.50400001928E-02 0.  1.
       -1   -1    0    0    0  501  0.00000000000E+00  0.00000000000E+00 -0.28735712016E+04  0.28735712016E+04  0.50400001928E-02 0. -1.
    10030    2    1    2    0    0  0.00000000000E+00  0.00000000000E+00 -0.14978507099E+04  0.42492916932E+04  0.39765466356E+04 0.  0.
        4    1    3    3  502    0  0.15023275791E+03  0.19800102844E+04 -0.64090504246E+03  0.20865693121E+04  0.12699999809E+01 0.  1.
       -4    1    3    3    0  502 -0.15023275791E+03 -0.19800102844E+04 -0.85694566745E+03  0.21627223811E+04  0.12699999809E+01 0. -1.
</event>
<event>
 5   0  0.1879500E-08  0.4060875E+04  0.7818609E-02  0.7992377E-01
       -1   -1    0    0    0  501  0.00000000000E+00  0.00000000000E+00  0.16781938746E+04  0.16781938746E+04  0.50400001928E-02 0.  1.
        1   -1    0    0  501    0  0.00000000000E+00  0.00000000000E+00 -0.24566154554E+04  0.24566154554E+04  0.50400001928E-02 0. -1.
    10030    2    1    2    0    0  0.00000000000E+00  0.00000000000E+00 -0.77842158078E+03  0.41348093300E+04  0.40608752798E+04 0.  0.
        5    1    3    3  502    0  0.12799523998E+04  0.15456181025E+04 -0.74650163560E+02  0.20081853006E+04  0.46999998093E+01 0. -1.
       -5    1    3    3    0  502 -0.12799523998E+04 -0.15456181025E+04 -0.70377141722E+03  0.21266240294E+04  0.46999998093E+01 0.  1.
</event>
<event>
 5   0  0.5945387E-08  0.4001388E+04  0.7818609E-02  0.8004267E-01
        2   -1    0    0  501    0  0.00000000000E+00  0.00000000000E+00  0.27059031988E+04  0.27059031988E+04  0.25500000920E-02 0.  1.
       -2   -1    0    0    0  501  0.00000000000E+00  0.00000000000E+00 -0.14792756161E+04  0.14792756161E+04  0.25500000920E-02 0. -1.
    10030    2    1    2    0    0  0.00000000000E+00  0.00000000000E+00  0.12266275827E+04  0.41851788149E+04  0.40013880699E+04 0.  0.
        3    1    3    3  502    0 -0.91622368705E+02 -0.19946775221E+04  0.74413278529E+03  0.21309309439E+04  0.10100000352E+00 0.  1.
       -3    1    3    3    0  502  0.91622368705E+02  0.19946775221E+04  0.48249479742E+03  0.20542478709E+04  0.10100000352E+00 0. -1.
</event>
<event>
 5   0  0.1879500E-08  0.4017392E+04  0.7818609E-02  0.8001047E-01
       -1   -1    0    0    0  501  0.00000000000E+00  0.00000000000E+00  0.24114132315E+04  0.24114132315E+04  0.50400001928E-02 0. -1.
        1   -1    0    0  501    0  0.00000000000E+00  0.00000000000E+00 -0.16732340952E+04  0.16732340952E+04  0.50400001928E-02 0.  1.
    10030    2    1    2    0    0  0.00000000000E+00  0.00000000000E+00  0.73817913630E+03  0.40846473268E+04  0.40173916099E+04 0.  0.
        1    1    3    3  502    0 -0.57742683099E+03 -0.11894752166E+04  0.19065507091E+04  0.23201742699E+04  0.50400001928E-02 0. -1.
       -1    1    3    3    0  502  0.57742683099E+03  0.11894752166E+04 -0.11683715729E+04  0.17644730569E+04  0.50400001928E-02 0.  1.
</event>
<event>
 5   0  0.6161563E-08  0.4026076E+04  0.7818609E-02  0.7999307E-01
        2   -1    0    0  501    0  0.00000000000E+00  0.00000000000E+00  0.15740729973E+04  0.15740729973E+04  0.25500000920E-02 0. -1.
       -2   -1    0    0    0  501  0.00000000000E+00  0.00000000000E+00 -0.25744186362E+04  0.25744186362E+04  0.25500000920E-02 0.  1.
    10030    2    1    2    0    0  0.00000000000E+00  0.00000000000E+00 -0.10003456389E+04  0.41484916335E+04  0.40260764319E+04 0.  0.
        1    1    3    3  502    0 -0.17907840835E+04  0.81947418751E+03 -0.70508170298E+02  0.19706387238E+04  0.50400001928E-02 0. -1.
       -1    1    3    3    0  502  0.17907840835E+04 -0.81947418751E+03 -0.92983746861E+03  0.21778529096E+04  0.50400001928E-02 0.  1.
</event>
<event>
 5   0  0.1879500E-08  0.4005881E+04  0.7818609E-02  0.8003361E-01
       -1   -1    0    0    0  501  0.00000000000E+00  0.00000000000E+00  0.28392361776E+04  0.28392361776E+04  0.50400001928E-02 0.  1.
        1   -1    0    0  501    0  0.00000000000E+00  0.00000000000E+00 -0.14129753422E+04  0.14129753422E+04  0.50400001928E-02 0. -1.
    10030    2    1    2    0    0  0.00000000000E+00  0.00000000000E+00  0.14262608355E+04  0.42522115198E+04  0.40058810315E+04 0.  0.
        4    1    3    3  502    0  0.92229835435E+03  0.17241713481E+04  0.11738327186E+04  0.22806327973E+04  0.12699999809E+01 0.  1.
       -4    1    3    3    0  502 -0.92229835435E+03 -0.17241713481E+04  0.25242811691E+03  0.19715787225E+04  0.12699999809E+01 0. -1.
</event>
<event>
 5   0  0.1879500E-08  0.3994238E+04  0.7818609E-02  0.8005710E-01
        1   -1    0    0  501    0  0.00000000000E+00  0.00000000000E+00  0.23399449290E+04  0.23399449290E+04  0.50400001928E-02 0. -1.
       -1   -1    0    0    0  501  0.00000000000E+00  0.00000000000E+00 -0.17045207885E+04  0.17045207885E+04  0.50400001928E-02 0.  1.
    10030    2    1    2    0    0  0.00000000000E+00  0.00000000000E+00  0.63542414045E+03  0.40444657175E+04  0.39942382380E+04 0.  0.
        5    1    3    3  502    0 -0.14383510820E+04 -0.11826748855E+04  0.10485141460E+04  0.21370488353E+04  0.46999998093E+01 0. -1.
       -5    1    3    3    0  502  0.14383510820E+04  0.11826748855E+04 -0.41309000556E+03  0.19074168822E+04  0.46999998093E+01 0.  1.
</event>
<event>
 5   0  0.1879500E-08  0.3982143E+04  0.7818609E-02  0.8008159E-01
        1   -1    0    0  501    0  0.00000000000E+00  0.00000000000E+00  0.25989423316E+04  0.25989423316E+04  0.50400001928E-02 0. -1.
       -1   -1    0    0    0  501  0.00000000000E+00  0.00000000000E+00 -0.15253763020E+04  0.15253763021E+04  0.50400001928E-02 0.  1.
    10030    2    1    2    0    0  0.00000000000E+00  0.00000000000E+00  0.10735660295E+04  0.41243186336E+04  0.39821426609E+04 0.  0.
        2    1    3    3  502    0  0.17879954639E+04 -0.65604775891E+03  0.11380608822E+04  0.22186728043E+04  0.25500000920E-02 0. -1.
       -2    1    3    3    0  502 -0.17879954639E+04  0.65604775891E+03 -0.64494852655E+02  0.19056458294E+04  0.25500000920E-02 0.  1.
</event>
<event>
 5   0  0.1879500E-08  0.4033202E+04  0.7818609E-02  0.7997882E-01
       -1   -1    0    0    0  501  0.00000000000E+00  0.00000000000E+00  0.13962354647E+04  0.13962354647E+04  0.50400001928E-02 0.  1.
        1   -1    0    0  501    0  0.00000000000E+00  0.00000000000E+00 -0.29126027003E+04  0.29126027003E+04  0.50400001928E-02 0. -1.
    10030    2    1    2    0    0  0.00000000000E+00  0.00000000000E+00 -0.15163672356E+04  0.43088381649E+04  0.40332017974E+04 0.  0.
        4    1    3    3  502    0 -0.95275092954E+02 -0.19249324593E+04 -0.12412904063E+03  0.19312824620E+04  0.12699999809E+01 0. -1.
       -4    1    3    3    0  502  0.95275092954E+02  0.19249324593E+04 -0.13922381950E+04  0.23775557030E+04  0.12699999809E+01 0.  1.
</event>
<event>
 5   0  0.1879500E-08  0.3979411E+04  0.7818609E-02  0.8008713E-01
       -1   -1    0    0    0  501  0.00000000000E+00  0.00000000000E+00  0.21388181856E+04  0.21388181856E+04  0.50400001928E-02 0. -1.
        1   -1    0    0  501    0  0.00000000000E+00  0.00000000000E+00 -0.18509886012E+04  0.18509886012E+04  0.50400001928E-02 0.  1.
    10030    2    1    2    0    0  0.00000000000E+00  0.00000000000E+00  0.28782958437E+03  0.39898067868E+04  0.39794110527E+04 0.  0.
        5    1    3    3  502    0 -0.91374547448E+03 -0.15238805773E+04 -0.75383666425E+03  0.19301384956E+04  0.46999998093E+01 0.  1.
       -5    1    3    3    0  502  0.91374547448E+03  0.15238805773E+04  0.10416662486E+04  0.20596682911E+04  0.46999998093E+01 0. -1.
</event>
<event>
 5   0  0.5951623E-08  0.3993006E+04  0.7818609E-02  0.8005959E-01
        2   -1    0    0  501    0  0.00000000000E+00  0.00000000000E+00  0.16552800988E+04  0.16552800988E+04  0.25500000920E-02 0.  1.
       -2   -1    0    0    0  501  0.00000000000E+00  0.00000000000E+00 -0.24080665933E+04  0.24080665933E+04  0.25500000920E-02 0. -1.
    10030    2    1    2    0    0  0.00000000000E+00  0.00000000000E+00 -0.75278649445E+03  0.40633466921E+04  0.39930062402E+04 0.  0.
        2    1    3    3  502    0 -0.12953284669E+04  0.15190843667E+04 -0.39985493951E+03  0.20360199220E+04  0.25500000920E-02 0. -1.
       -2    1    3    3    0  502  0.12953284669E+04 -0.15190843667E+04 -0.35293155494E+03  0.20273267701E+04  0.25500000920E-02 0.  1.
</event>
<event>
 5   0  0.1879500E-08  0.4031424E+04  0.7818609E-02  0.7998237E-01
        1   -1    0    0  501    0  0.00000000000E+00  0.00000000000E+00  0.26029418672E+04  0.26029418673E+04  0.50400001928E-02 0. -1.
       -1   -1    0    0    0  501  0.00000000000E+00  0.00000000000E+00 -0.15609629343E+04  0.15609629343E+04  0.50400001928E-02 0.  1.
    10030    2    1    2    0    0  0.00000000000E+00  0.00000000000E+00  0.10419789329E+04  0.41639048016E+04  0.40314244505E+04 0.  0.
        1    1    3    3  502    0  0.11996709795E+03 -0.16856627466E+04 -0.61386437890E+03  0.17979656491E+04  0.50400001928E-02 0.  1.
       -1    1    3    3    0  502 -0.11996709795E+03  0.16856627466E+04  0.16558433118E+04  0.23659391525E+04  0.50400001928E-02 0. -1.
</event>
<event>
 5   0  0.1879500E-08  0.3992844E+04  0.7818609E-02  0.8005992E-01
        1   -1    0    0  501    0  0.00000000000E+00  0.00000000000E+00  0.19230338205E+04  0.19230338205E+04  0.50400001928E-02 0. -1.
       -1   -1    0    0    0  501  0.00000000000E+00  0.00000000000E+00 -0.20726112403E+04  0.20726112403E+04  0.50400001928E-02 0.  1.
    10030    2    1    2    0    0  0.00000000000E+00  0.00000000000E+00 -0.14957741979E+03  0.39956450609E+04  0.39928443556E+04 0.  0.
        1    1    3    3  502    0 -0.12522276383E+04 -0.13550272308E+04  0.68832645082E+03  0.19692552290E+04  0.50400001928E-02 0. -1.
       -1    1    3    3    0  502  0.12522276383E+04  0.13550272308E+04 -0.83790387061E+03  0.20263898318E+04  0.50400001928E-02 0.  1.
</event>
<event>
 5   0  0.1879500E-08  0.4001591E+04  0.7818609E-02  0.8004226E-01
       -1   -1    0    0    0  501  0.00000000000E+00  0.00000000000E+00  0.17861843855E+04  0.17861843855E+04  0.50400001928E-02 0. -1.
        1   -1    0    0  501    0  0.00000000000E+00  0.00000000000E+00 -0.22411919262E+04  0.22411919262E+04  0.50400001928E-02 0.  1.
    10030    2    1    2    0    0  0.00000000000E+00  0.00000000000E+00 -0.45500754078E+03  0.40273763117E+04  0.40015906955E+04 0.  0.
        3    1    3    3  502    0 -0.58274655146E+03 -0.14036937425E+04  0.10821238474E+04  0.18657281949E+04  0.10100000352E+00 0. -1.
       -3    1    3    3    0  502  0.58274655146E+03  0.14036937425E+04 -0.15371313882E+04  0.21616481168E+04  0.10100000352E+00 0.  1.
</event>
<event>
 5   0  0.5846812E-08  0.3997557E+04  0.7818609E-02  0.8005040E-01
       -2   -1    0    0    0  501  0.00000000000E+00  0.00000000000E+00  0.16352218196E+04  0.16352218196E+04  0.25500000920E-02 0.  1.
        2   -1    0    0  501    0  0.00000000000E+00  0.00000000000E+00 -0.24431645804E+04  0.24431645804E+04  0.25500000920E-02 0. -1.
    10030    2    1    2    0    0  0.00000000000E+00  0.00000000000E+00 -0.80794276086E+03  0.40783864000E+04  0.39975572695E+04 0.  0.
        4    1    3    3  502    0  0.45662376842E+03  0.11356577695E+04  0.12081340146E+04  0.17198294233E+04  0.12699999809E+01 0.  1.
       -4    1    3    3    0  502 -0.45662376842E+03 -0.11356577695E+04 -0.20160767754E+04  0.23585569767E+04  0.12699999809E+01 0. -1.
</event>
<event>
 5   0  0.1879500E-08  0.3879281E+04  0.7818609E-02  0.8029352E-01
        1   -1    0    0  501    0  0.00000000000E+00  0.00000000000E+00  0.21993851002E+04  0.21993851002E+04  0.50400001928E-02 0.  1.
       -1   -1    0    0    0  501  0.00000000000E+00  0.00000000000E+00 -0.17105714522E+04  0.17105714522E+04  0.50400001928E-02 0. -1.
    10030    2    1    2    0    0  0.00000000000E+00  0.00000000000E+00  0.48881364794E+03  0.39099565524E+04  0.38792810493E+04 0.  0.
        3    1    3    3  502    0 -0.10842611656E+04  0.27202546724E+03 -0.13532411296E+04  0.17552440557E+04  0.10100000352E+00 0. -1.
       -3    1    3    3    0  502  0.10842611656E+04 -0.27202546724E+03  0.18420547775E+04  0.21547124967E+04  0.10100000352E+00 0.  1.
</event>
<event>
 5   0  0.5846812E-08  0.4007150E+04  0.7818609E-02  0.8003106E-01
        2   -1    0    0  501    0  0.00000000000E+00  0.00000000000E+00  0.26683992382E+04  0.26683992382E+04  0.25500000920E-02 0.  1.
       -2   -1    0    0    0  501  0.00000000000E+00  0.00000000000E+00 -0.15043897051E+04  0.15043897051E+04  0.25500000920E-02 0. -1.
    10030    2    1    2    0    0  0.00000000000E+00  0.00000000000E+00  0.11640095331E+04  0.41727889432E+04  0.40071497815E+04 0.  0.
        4    1    3    3  502    0  0.76422903446E+03 -0.58848771920E+03 -0.12467029184E+04  0.15762720553E+04  0.12699999809E+01 0. -1.
       -4    1    3    3    0  502 -0.76422903446E+03  0.58848771920E+03  0.24107124515E+04  0.25965168879E+04  0.12699999809E+01 0.  1.
</event>
<event>
 5   0  0.5945387E-08  0.3990637E+04  0.7818609E-02  0.8006438E-01
       -2   -1    0    0    0  501  0.00000000000E+00  0.00000000000E+00  0.19545347588E+04  0.19545347588E+04  0.25500000920E-02 0.  1.
        2   -1    0    0  501    0  0.00000000000E+00  0.00000000000E+00 -0.20369531591E+04  0.20369531591E+04  0.25500000920E-02 0. -1.
    10030    2    1    2    0    0  0.00000000000E+00  0.00000000000E+00 -0.82418400251E+02  0.39914879179E+04  0.39906369173E+04 0.  0.
        3    1    3    3  502    0  0.14448977112E+04  0.11989548621E+04 -0.71668541718E+03  0.20096915570E+04  0.10100000352E+00 0. -1.
       -3    1    3    3    0  502 -0.14448977112E+04 -0.11989548621E+04  0.63426701693E+03  0.19817963609E+04  0.10100000352E+00 0.  1.
</event>
<event>
 5   0  0.6161563E-08  0.4063576E+04  0.7818609E-02  0.7991843E-01
        2   -1    0    0  501    0  0.00000000000E+00  0.00000000000E+00  0.21946503689E+04  0.21946503689E+04  0.25500000920E-02 0.  1.
       -2   -1    0    0    0  501  0.00000000000E+00  0.00000000000E+00 -0.18810112236E+04  0.18810112236E+04  0.25500000920E-02 0. -1.
    10030    2    1    2    0    0  0.00000000000E+00  0.00000000000E+00  0.31363914530E+03  0.40756615925E+04  0.40635757534E+04 0.  0.
        1    1    3    3  502    0 -0.21635529242E+03  0.38525968828E+03 -0.18322396668E+04  0.18847643982E+04  0.50400001928E-02 0. -1.
       -1    1    3    3    0  502  0.21635529242E+03 -0.38525968828E+03  0.21458788121E+04  0.21908971944E+04  0.50400001928E-02 0.  1.
</event>
<event>
 5   0  0.5846812E-08  0.4004714E+04  0.7818609E-02  0.8003596E-01
       -2   -1    0    0    0  501  0.00000000000E+00  0.00000000000E+00  0.19555343400E+04  0.19555343400E+04  0.25500000920E-02 0. -1.
        2   -1    0    0  501    0  0.00000000000E+00  0.00000000000E+00 -0.20503007011E+04  0.20503007011E+04  0.25500000920E-02 0.  1.
    10030    2    1    2    0    0  0.00000000000E+00  0.00000000000E+00 -0.94766361102E+02  0.40058350411E+04  0.40047139365E+04 0.  0.
        4    1    3    3  502    0 -0.19889887025E+04  0.52321490513E+02 -0.27243109324E+03  0.20082414971E+04  0.12699999809E+01 0.  1.
       -4    1    3    3    0  502  0.19889887025E+04 -0.52321490513E+02  0.17766473214E+03  0.19975935440E+04  0.12699999809E+01 0. -1.
</event>
<event>
 5   0  0.1879500E-08  0.4008883E+04  0.7818609E-02  0.8002757E-01
        1   -1    0    0  501    0  0.00000000000E+00  0.00000000000E+00  0.21830690533E+04  0.21830690533E+04  0.50400001928E-02 0. -1.
       -1   -1    0    0    0  501  0.00000000000E+00  0.00000000000E+00 -0.18404300404E+04  0.18404300404E+04  0.50400001928E-02 0.  1.
    10030    2    1    2    0    0  0.00000000000E+00  0.00000000000E+00  0.34263901298E+03  0.40234990937E+04  0.40088830694E+04 0.  0.
        3    1    3    3  502    0  0.20621865419E+03 -0.74990339666E+03  0.20254598104E+04  0.21696471352E+04  0.10100000352E+00 0. -1.
       -3    1    3    3    0  502 -0.20621865419E+03  0.74990339666E+03 -0.16828207974E+04  0.18538519585E+04  0.10100000352E+00 0.  1.
</event>
<event>
 5   0  0.5945387E-08  0.4000588E+04  0.7818609E-02  0.8004428E-01
        2   -1    0    0  501    0  0.00000000000E+00  0.00000000000E+00  0.15337091512E+04  0.15337091512E+04  0.25500000920E-02 0. -1.
       -2   -1    0    0    0  501  0.00000000000E+00  0.00000000000E+00 -0.26088229776E+04  0.26088229776E+04  0.25500000920E-02 0.  1.
    10030    2    1    2    0    0  0.00000000000E+00  0.00000000000E+00 -0.10751138264E+04  0.41425321289E+04  0.40005877942E+04 0.  0.
        3    1    3    3  502    0 -0.13648803636E+04 -0.12709455927E+04  0.21127157905E+03  0.18769221606E+04  0.10100000352E+00 0. -1.
       -3    1    3    3    0  502  0.13648803636E+04  0.12709455927E+04 -0.12863854055E+04  0.22656099683E+04  0.10100000352E+00 0.  1.
</event>
<event>
 5   0  0.1879500E-08  0.4009982E+04  0.7818609E-02  0.8002536E-01
        1   -1    0    0  501    0  0.00000000000E+00  0.00000000000E+00  0.13848583535E+04  0.13848583535E+04  0.50400001928E-02 0. -1.
       -1   -1    0    0    0  501  0.00000000000E+00  0.00000000000E+00 -0.29028155300E+04  0.29028155300E+04  0.50400001928E-02 0.  1.
    10030    2    1    2    0    0  0.00000000000E+00  0.00000000000E+00 -0.15179571764E+04  0.42876738835E+04  0.40099817134E+04 0.  0.
        3    1    3    3  502    0 -0.63411431108E+02  0.16635005896E+04 -0.19538307299E+04  0.25668482137E+04  0.10100000352E+00 0.  1.
       -3    1    3    3    0  502  0.63411431108E+02 -0.16635005896E+04  0.43587355342E+03  0.17208256698E+04  0.10100000352E+00 0. -1.
</event>
<event>
 5   0  0.5846812E-08  0.4004505E+04  0.7818609E-02  0.8003638E-01
       -2   -1    0    0    0  501  0.00000000000E+00  0.00000000000E+00  0.16517436252E+04  0.16517436252E+04  0.25500000920E-02 0. -1.
        2   -1    0    0  501    0  0.00000000000E+00  0.00000000000E+00 -0.24271414741E+04  0.24271414741E+04  0.25500000920E-02 0.  1.
    10030    2    1    2    0    0  0.00000000000E+00  0.00000000000E+00 -0.77539784888E+03  0.40788850993E+04  0.40045051915E+04 0.  0.
        4    1    3    3  502    0 -0.11262549053E+04  0.14352182210E+04 -0.12280764675E+04  0.21991986897E+04  0.12699999809E+01 0.  1.
       -4    1    3    3    0  502  0.11262549053E+04 -0.14352182210E+04  0.45267861866E+03  0.18796864096E+04  0.12699999809E+01 0. -1.
</event>
<event>
 5   0  0.5951623E-08  0.3983511E+04  0.7818609E-02  0.8007881E-01
       -2   -1    0    0    0  501  0.00000000000E+00  0.00000000000E+00  0.13198242216E+04  0.13198242216E+04  0.25500000920E-02 0. -1.
        2   -1    0    0  501    0  0.00000000000E+00  0.00000000000E+00 -0.30057710366E+04  0.30057710366E+04  0.25500000920E-02 0.  1.
    10030    2    1    2    0    0  0.00000000000E+00  0.00000000000E+00 -0.16859468150E+04  0.43255952581E+04  0.39835107223E+04 0.  0.
        2    1    3    3  502    0 -0.59416418702E+02 -0.10422464539E+04 -0.26848946728E+04  0.28807060568E+04  0.25500000920E-02 0.  1.
       -2    1    3    3    0  502  0.59416418702E+02  0.10422464539E+04  0.99894785786E+03  0.14448892013E+04  0.25500000920E-02 0. -1.
</event>
<event>
 5   0  0.6161563E-08  0.4017469E+04  0.7818609E-02  0.8001032E-01
        2   -1    0    0  501    0  0.00000000000E+00  0.00000000000E+00  0.24355411171E+04  0.24355411171E+04  0.25500000920E-02 0. -1.
       -2   -1    0    0    0  501  0.00000000000E+00  0.00000000000E+00 -0.16567219602E+04  0.16567219602E+04  0.25500000920E-02 0.  1.
    10030    2    1    2    0    0  0.00000000000E+00  0.00000000000E+00  0.77881915698E+03  0.40922630773E+04  0.40174690807E+04 0.  0.
        1    1    3    3  502    0  0.19486842886E+04 -0.43214122149E+03  0.61921549055E+03  0.20898670570E+04  0.50400001928E-02 0.  1.
       -1    1    3    3    0  502 -0.19486842886E+04  0.43214122149E+03  0.15960366643E+03  0.20023960204E+04  0.50400001928E-02 0. -1.
</event>
<event>
 5   0  0.5945387E-08  0.4004566E+04  0.7818609E-02  0.8003626E-01
        2   -1    0    0  501    0  0.00000000000E+00  0.00000000000E+00  0.15535573084E+04  0.15535573084E+04  0.25500000920E-02 0.  1.
       -2   -1    0    0    0  501  0.00000000000E+00  0.00000000000E+00 -0.25806171049E+04  0.25806171049E+04  0.25500000920E-02 0. -1.
    10030    2    1    2    0    0  0.00000000000E+00  0.00000000000E+00 -0.10270597966E+04  0.41341744133E+04  0.40045656760E+04 0.  0.
        3    1    3    3  502    0 -0.72247572896E+03 -0.18651332548E+04 -0.41866841708E+03  0.20435206118E+04  0.10100000352E+00 0.  1.
       -3    1    3    3    0  502  0.72247572896E+03  0.18651332548E+04 -0.60839137948E+03  0.20906538015E+04  0.10100000352E+00 0. -1.
</event>
<event>
 5   0  0.5951623E-08  0.4020993E+04  0.7818609E-02  0.8000325E-01
        2   -1    0    0  501    0  0.00000000000E+00  0.00000000000E+00  0.15479155376E+04  0.15479155376E+04  0.25500000920E-02 0. -1.
       -2   -1    0    0    0  501  0.00000000000E+00  0.00000000000E+00 -0.26113161488E+04  0.26113161488E+04  0.25500000920E-02 0.  1.
    10030    2    1    2    0    0  0.00000000000E+00  0.00000000000E+00 -0.10634006112E+04  0.41592316864E+04  0.40209933301E+04 0.  0.
        2    1    3    3  502    0  0.26726730272E+03 -0.87723719618E+02 -0.25908604775E+04  0.26060861989E+04  0.25500000920E-02 0.  1.
       -2    1    3    3    0  502 -0.26726730272E+03  0.87723719618E+02  0.15274598663E+04  0.15531454875E+04  0.25500000920E-02 0. -1.
</event>
<event>
 5   0  0.1879500E-08  0.4018511E+04  0.7818609E-02  0.8000823E-01
        1   -1    0    0  501    0  0.00000000000E+00  0.00000000000E+00  0.19095320167E+04  0.19095320167E+04  0.50400001928E-02 0.  1.
       -1   -1    0    0    0  501  0.00000000000E+00  0.00000000000E+00 -0.21141868388E+04  0.21141868388E+04  0.50400001928E-02 0. -1.
    10030    2    1    2    0    0  0.00000000000E+00  0.00000000000E+00 -0.20465482203E+03  0.40237188555E+04  0.40185108973E+04 0.  0.
        2    1    3    3  502    0  0.14825686160E+04 -0.48236179550E+03 -0.13714181803E+04  0.20764080592E+04  0.25500000920E-02 0. -1.
       -2    1    3    3    0  502 -0.14825686160E+04  0.48236179550E+03  0.11667633583E+04  0.19473107963E+04  0.25500000920E-02 0.  1.
</event>
<event>
 5   0  0.1879500E-08  0.4003762E+04  0.7818609E-02  0.8003788E-01
        1   -1    0    0  501    0  0.00000000000E+00  0.00000000000E+00  0.21630845953E+04  0.21630845953E+04  0.50400001928E-02 0.  1.
       -1   -1    0    0    0  501  0.00000000000E+00  0.00000000000E+00 -0.18526906963E+04  0.18526906963E+04  0.50400001928E-02 0. -1.
    10030    2    1    2    0    0  0.00000000000E+00  0.00000000000E+00  0.31039389901E+03  0.40157752916E+04  0.40037615838E+04 0.  0.
        2    1    3    3  502    0  0.45162122230E+03 -0.19198969986E+04  0.49909672434E+03  0.20344689120E+04  0.25500000920E-02 0.  1.
       -2    1    3    3    0  502 -0.45162122230E+03  0.19198969986E+04 -0.18870282533E+03  0.19813063796E+04  0.25500000920E-02 0. -1.
</event>
<event>
 5   0  0.1879500E-08  0.3998546E+04  0.7818609E-02  0.8004840E-01
        1   -1    0    0  501    0  0.00000000000E+00  0.00000000000E+00  0.16765025446E+04  0.16765025446E+04  0.50400001928E-02 0.  1.
       -1   -1    0    0    0  501  0.00000000000E+00  0.00000000000E+00 -0.23841854196E+04  0.23841854196E+04  0.50400001928E-02 0. -1.
    10030    2    1    2    0    0  0.00000000000E+00  0.00000000000E+00 -0.70768287496E+03  0.40606879642E+04  0.39985461972E+04 0.  0.
        4    1    3    3  502    0  0.62327205555E+03 -0.98676676861E+03  0.12946275155E+04  0.17430544247E+04  0.12699999809E+01 0.  1.
       -4    1    3    3    0  502 -0.62327205555E+03  0.98676676861E+03 -0.20023103904E+04  0.23176335395E+04  0.12699999809E+01 0. -1.
</event>
<event>
 5   0  0.1879500E-08  0.4010690E+04  0.7818609E-02  0.8002393E-01
       -1   -1    0    0    0  501  0.00000000000E+00  0.00000000000E+00  0.30649855405E+04  0.30649855405E+04  0.50400001928E-02 0.  1.
        1   -1    0    0  501    0  0.00000000000E+00  0.00000000000E+00 -0.13120482478E+04  0.13120482478E+04  0.50400001928E-02 0. -1.
    10030    2    1    2    0    0  0.00000000000E+00  0.00000000000E+00  0.17529372927E+04  0.43770337884E+04  0.40106901691E+04 0.  0.
        5    1    3    3  502    0  0.11145827038E+04 -0.60268385046E+03  0.25727467730E+04  0.28678511947E+04  0.46999998093E+01 0.  1.
       -5    1    3    3    0  502 -0.11145827038E+04  0.60268385046E+03 -0.81980948026E+03  0.15091825937E+04  0.46999998093E+01 0. -1.
</event>
<event>
 5   0  0.1879500E-08  0.3968979E+04  0.7818609E-02  0.8010834E-01
       -1   -1    0    0    0  501  0.00000000000E+00  0.00000000000E+00  0.12003057020E+04  0.12003057020E+04  0.50400001928E-02 0.  1.
        1   -1    0    0  501    0  0.00000000000E+00  0.00000000000E+00 -0.32809964781E+04  0.32809964781E+04  0.50400001928E-02 0. -1.
    10030    2    1    2    0    0  0.00000000000E+00  0.00000000000E+00 -0.20806907761E+04  0.44813021801E+04  0.39689791034E+04 0.  0.
        5    1    3    3  502    0 -0.16605519829E+04  0.30211157704E+03 -0.22188560976E+04  0.27878394438E+04  0.46999998093E+01 0. -1.
       -5    1    3    3    0  502  0.16605519829E+04 -0.30211157704E+03  0.13816532147E+03  0.16934627362E+04  0.46999998093E+01 0.  1.
</event>
<event>
 5   0  0.5945387E-08  0.3930983E+04  0.7818609E-02  0.8018616E-01
        2   -1    0    0  501    0  0.00000000000E+00  0.00000000000E+00  0.16310504448E+04  0.16310504448E+04  0.25500000920E-02 0.  1.
       -2   -1    0    0    0  501  0.00000000000E+00  0.00000000000E+00 -0.23685087209E+04  0.23685087209E+04  0.25500000920E-02 0. -1.
    10030    2    1    2    0    0  0.00000000000E+00  0.00000000000E+00 -0.73745827607E+03  0.39995591657E+04  0.39309831863E+04 0.  0.
        3    1    3    3  502    0 -0.90447843647E+03  0.13319183673E+04 -0.15158140662E+04  0.22112847109E+04  0.10100000352E+00 0. -1.
       -3    1    3    3    0  502  0.90447843647E+03 -0.13319183673E+04  0.77835579017E+03  0.17882744548E+04  0.10100000352E+00 0.  1.
</event>
<event>
 5   0  0.5945387E-08  0.3989077E+04  0.7818609E-02  0.8006754E-01
        2   -1    0    0  501    0  0.00000000000E+00  0.00000000000E+00  0.16064485952E+04  0.16064485952E+04  0.25500000920E-02 0. -1.
       -2   -1    0    0    0  501  0.00000000000E+00  0.00000000000E+00 -0.24763844087E+04  0.24763844087E+04  0.25500000920E-02 0.  1.
    10030    2    1    2    0    0  0.00000000000E+00  0.00000000000E+00 -0.86993581347E+03  0.40828330040E+04  0.39890772139E+04 0.  0.
        3    1    3    3  502    0  0.80196668584E+03  0.25485502733E+03 -0.22858064502E+04  0.24357776557E+04  0.10100000352E+00 0.  1.
       -3    1    3    3    0  502 -0.80196668584E+03 -0.25485502733E+03  0.14158706367E+04  0.16470553483E+04  0.10100000352E+00 0. -1.
</event>
<event>
 5   0  0.6161563E-08  0.3986836E+04  0.7818609E-02  0.8007207E-01
       -2   -1    0    0    0  501  0.00000000000E+00  0.00000000000E+00  0.31660644232E+04  0.31660644232E+04  0.25500000920E-02 0. -1.
        2   -1    0    0  501    0  0.00000000000E+00  0.00000000000E+00 -0.12550963111E+04  0.12550963111E+04  0.25500000920E-02 0.  1.
    10030    2    1    2    0    0  0.00000000000E+00  0.00000000000E+00  0.19109681121E+04  0.44211607343E+04  0.39868362285E+04 0.  0.
        1    1    3    3  502    0  0.15710363266E+04  0.12131460855E+04  0.75149578025E+03  0.21224100622E+04  0.50400001928E-02 0. -1.
       -1    1    3    3    0  502 -0.15710363266E+04 -0.12131460855E+04  0.11594723319E+04  0.22987506721E+04  0.50400001928E-02 0.  1.
</event>
<event>
 5   0  0.1879500E-08  0.3996572E+04  0.7818609E-02  0.8005239E-01
        1   -1    0    0  501    0  0.00000000000E+00  0.00000000000E+00  0.20495543697E+04  0.20495543697E+04  0.50400001928E-02 0.  1.
       -1   -1    0    0    0  501  0.00000000000E+00  0.00000000000E+00 -0.19482996910E+04  0.19482996910E+04  0.50400001928E-02 0. -1.
    10030    2    1    2    0    0  0.00000000000E+00  0.00000000000E+00  0.10125467871E+03  0.39978540608E+04  0.39965716034E+04 0.  0.
        2    1    3    3  502    0 -0.23514506773E+03  0.12713920045E+04 -0.14734807235E+04  0.19603255532E+04  0.25500000920E-02 0. -1.
       -2    1    3    3    0  502  0.23514506773E+03 -0.12713920045E+04  0.15747354022E+04  0.20375285075E+04  0.25500000920E-02 0.  1.
</event>
<event>
 5   0  0.5945387E-08  0.3999351E+04  0.7818609E-02  0.8004678E-01
        2   -1    0    0  501    0  0.00000000000E+00  0.00000000000E+00  0.29371789413E+04  0.29371789413E+04  0.25500000920E-02 0.  1.
       -2   -1    0    0    0  501  0.00000000000E+00  0.00000000000E+00 -0.13614089427E+04  0.13614089427E+04  0.25500000920E-02 0. -1.
    10030    2    1    2    0    0  0.00000000000E+00  0.00000000000E+00  0.15757699986E+04  0.42985878840E+04  0.39993507858E+04 0.  0.
        3    1    3    3  502    0 -0.82105452648E+03  0.11729773560E+04 -0.71251921687E+03  0.15992779801E+04  0.10100000352E+00 0. -1.
       -3    1    3    3    0  502  0.82105452648E+03 -0.11729773560E+04  0.22882892155E+04  0.26993099039E+04  0.10100000352E+00 0.  1.
</event>
<event>
 5   0  0.5846812E-08  0.4000565E+04  0.7818609E-02  0.8004433E-01
        2   -1    0    0  501    0  0.00000000000E+00  0.00000000000E+00  0.22450346962E+04  0.22450346962E+04  0.25500000920E-02 0.  1.
       -2   -1    0    0    0  501  0.00000000000E+00  0.00000000000E+00 -0.17822129679E+04  0.17822129679E+04  0.25500000920E-02 0. -1.
    10030    2    1    2    0    0  0.00000000000E+00  0.00000000000E+00  0.46282172828E+03  0.40272476641E+04  0.40005649346E+04 0.  0.
        4    1    3    3  502    0  0.14864867116E+04 -0.12806483731E+04 -0.16031864521E+03  0.19686052627E+04  0.12699999809E+01 0. -1.
       -4    1    3    3    0  502 -0.14864867116E+04  0.12806483731E+04  0.62314037349E+03  0.20586424015E+04  0.12699999809E+01 0.  1.
</event>
<event>
 5   0  0.5888700E-08  0.3998544E+04  0.7818609E-02  0.8004840E-01
       -2   -1    0    0    0  501  0.00000000000E+00  0.00000000000E+00  0.17363866119E+04  0.17363866119E+04  0.25500000920E-02 0.  1.
        2   -1    0    0  501    0  0.00000000000E+00  0.00000000000E+00 -0.23019573348E+04  0.23019573348E+04  0.25500000920E-02 0. -1.
    10030    2    1    2    0    0  0.00000000000E+00  0.00000000000E+00 -0.56557072289E+03  0.40383439467E+04  0.39985436835E+04 0.  0.
        5    1    3    3  502    0 -0.90785593121E+03  0.11187774361E+04 -0.16826556680E+04  0.22152240362E+04  0.46999998093E+01 0. -1.
       -5    1    3    3    0  502  0.90785593121E+03 -0.11187774361E+04  0.11170849451E+04  0.18231199105E+04  0.46999998093E+01 0.  1.
</event>
<event>
 5   0  0.1879500E-08  0.3999791E+04  0.7818609E-02  0.8004589E-01
        1   -1    0    0  501    0  0.00000000000E+00  0.00000000000E+00  0.20615138509E+04  0.20615138509E+04  0.50400001928E-02 0.  1.
       -1   -1    0    0    0  501  0.00000000000E+00  0.00000000000E+00 -0.19401186625E+04  0.19401186625E+04  0.50400001928E-02 0. -1.
    10030    2    1    2    0    0  0.00000000000E+00  0.00000000000E+00  0.12139518840E+03  0.40016325134E+04  0.39997907421E+04 0.  0.
        1    1    3    3  502    0  0.85201813245E+03  0.46790880033E+03  0.18092746681E+04  0.20538618181E+04  0.50400001928E-02 0.  1.
       -1    1    3    3    0  502 -0.85201813245E+03 -0.46790880033E+03 -0.16878794797E+04  0.19477706953E+04  0.50400001928E-02 0. -1.
</event>
<event>
 5   0  0.1879500E-08  0.4012546E+04  0.7818609E-02  0.8002020E-01
       -1   -1    0    0    0  501  0.00000000000E+00  0.00000000000E+00  0.18359980134E+04  0.18359980134E+04  0.50400001928E-02 0. -1.
        1   -1    0    0  501    0  0.00000000000E+00  0.00000000000E+00 -0.21923393215E+04  0.21923393215E+04  0.50400001928E-02 0.  1.
    10030    2    1    2    0    0  0.00000000000E+00  0.00000000000E+00 -0.35634130810E+03  0.40283373349E+04  0.40125456454E+04 0.  0.
        3    1    3    3  502    0  0.15729183977E+03  0.73530999682E+03 -0.20455202777E+04  0.21793519062E+04  0.10100000352E+00 0.  1.
       -3    1    3    3    0  502 -0.15729183977E+03 -0.73530999682E+03  0.16891789696E+04  0.18489854288E+04  0.10100000352E+00 0. -1.
</event>
<event>
 5   0  0.1879500E-08  0.3999869E+04  0.7818609E-02  0.8004573E-01
       -1   -1    0    0    0  501  0.00000000000E+00  0.00000000000E+00  0.26881937832E+04  0.26881937832E+04  0.50400001928E-02 0. -1.
        1   -1    0    0  501    0  0.00000000000E+00  0.00000000000E+00 -0.14878905686E+04  0.14878905686E+04  0.50400001928E-02 0.  1.
    10030    2    1    2    0    0  0.00000000000E+00  0.00000000000E+00  0.12003032146E+04  0.41760843518E+04  0.39998690862E+04 0.  0.
        4    1    3    3  502    0  0.15277428442E+04 -0.11911128851E+04  0.81277717989E+02  0.19389058212E+04  0.12699999809E+01 0.  1.
       -4    1    3    3    0  502 -0.15277428442E+04  0.11911128851E+04  0.11190254966E+04  0.22371785307E+04  0.12699999809E+01 0. -1.
</event>
<event>
 5   0  0.1879500E-08  0.4028579E+04  0.7818609E-02  0.7998806E-01
       -1   -1    0    0    0  501  0.00000000000E+00  0.00000000000E+00  0.14665635231E+04  0.14665635231E+04  0.50400001928E-02 0. -1.
        1   -1    0    0  501    0  0.00000000000E+00  0.00000000000E+00 -0.27665772193E+04  0.27665772193E+04  0.50400001928E-02 0.  1.
    10030    2    1    2    0    0  0.00000000000E+00  0.00000000000E+00 -0.13000136963E+04  0.42331407424E+04  0.40285785253E+04 0.  0.
        5    1    3    3  502    0 -0.17402126718E+04  0.87509114862E+03 -0.11091127565E+03  0.19510120611E+04  0.46999998093E+01 0. -1.
       -5    1    3    3    0  502  0.17402126718E+04 -0.87509114862E+03 -0.11891024206E+04  0.22821286813E+04  0.46999998093E+01 0.  1.
</event>
<event>
 5   0  0.5945387E-08  0.3991475E+04  0.7818609E-02  0.8006269E-01
       -2   -1    0    0    0  501  0.00000000000E+00  0.00000000000E+00  0.18518841214E+04  0.18518841214E+04  0.25500000920E-02 0.  1.
        2   -1    0    0  501    0  0.00000000000E+00  0.00000000000E+00 -0.21507653841E+04  0.21507653841E+04  0.25500000920E-02 0. -1.
    10030    2    1    2    0    0  0.00000000000E+00  0.00000000000E+00 -0.29888126266E+03  0.40026495054E+04  0.39914750474E+04 0.  0.
        3    1    3    3  502    0 -0.19207318424E+04 -0.40324353055E+03  0.21372251085E+03  0.19742070502E+04  0.10100000352E+00 0.  1.
       -3    1    3    3    0  502  0.19207318424E+04  0.40324353055E+03 -0.51260377351E+03  0.20284424552E+04  0.10100000352E+00 0. -1.
</event>
<event>
 5   0  0.1879500E-08  0.3982846E+04  0.7818609E-02  0.8008016E-01
       -1   -1    0    0    0  501  0.00000000000E+00  0.00000000000E+00  0.16607084058E+04  0.16607084058E+04  0.50400001928E-02 0. -1.
        1   -1    0    0  501    0  0.00000000000E+00  0.00000000000E+00 -0.23879962936E+04  0.23879962936E+04  0.50400001928E-02 0.  1.
    10030    2    1    2    0    0  0.00000000000E+00  0.00000000000E+00 -0.72728788780E+03  0.40487046995E+04  0.39828459764E+04 0.  0.
        2    1    3    3  502    0 -0.11586697356E+04  0.10337644662E+04 -0.16310893637E+04  0.22520295380E+04  0.25500000920E-02 0.  1.
       -2    1    3    3    0  502  0.11586697356E+04 -0.10337644662E+04  0.90380147590E+03  0.17966751614E+04  0.25500000920E-02 0. -1.
</event>
<event>
 5   0  0.1879500E-08  0.4004117E+04  0.7818609E-02  0.8003716E-01
       -1   -1    0    0    0  501  0.00000000000E+00  0.00000000000E+00  0.29407445304E+04  0.29407445304E+04  0.50400001928E-02 0.  1.
        1   -1    0    0  501    0  0.00000000000E+00  0.00000000000E+00 -0.13630013699E+04  0.13630013699E+04  0.50400001928E-02 0. -1.
    10030    2    1    2    0    0  0.00000000000E+00  0.00000000000E+00  0.15777431605E+04  0.43037459003E+04  0.40041172927E+04 0.  0.
        4    1    3    3  502    0 -0.14911676048E+04 -0.44325879297E+03 -0.56566089813E+03  0.16553045182E+04  0.12699999809E+01 0. -1.
       -4    1    3    3    0  502  0.14911676048E+04  0.44325879297E+03  0.21434040586E+04  0.26484413822E+04  0.12699999809E+01 0.  1.
</event>
<event>
 5   0  0.1879500E-08  0.4073265E+04  0.7818609E-02  0.7989928E-01
        1   -1    0    0  501    0  0.00000000000E+00  0.00000000000E+00  0.13557013282E+04  0.13557013282E+04  0.50400001928E-02 0. -1.
       -1   -1    0    0    0  501  0.00000000000E+00  0.00000000000E+00 -0.30595770839E+04  0.30595770839E+04  0.50400001928E-02 0.  1.
    10030    2    1    2    0    0  0.00000000000E+00  0.00000000000E+00 -0.17038757557E+04  0.44152784122E+04  0.40732653813E+04 0.  0.
        3    1    3    3  502    0 -0.12330468192E+04  0.12582546954E+04 -0.19596334249E+04  0.26351038892E+04  0.10100000352E+00 0.  1.
       -3    1    3    3    0  502  0.12330468192E+04 -0.12582546954E+04  0.25575766915E+03  0.17801745230E+04  0.10100000352E+00 0. -1.
</event>
<event>
 5   0  0.1879500E-08  0.3990019E+04  0.7818609E-02  0.8006563E-01
       -1   -1    0    0    0  501  0.00000000000E+00  0.00000000000E+00  0.28236327260E+04  0.28236327260E+04  0.50400001928E-02 0. -1.
        1   -1    0    0  501    0  0.00000000000E+00  0.00000000000E+00 -0.14095537768E+04  0.14095537768E+04  0.50400001928E-02 0.  1.
    10030    2    1    2    0    0  0.00000000000E+00  0.00000000000E+00  0.14140789492E+04  0.42331865027E+04  0.39900186331E+04 0.  0.
        4    1    3    3  502    0 -0.13928850304E+04  0.14195731546E+04  0.87392806644E+03  0.21723417152E+04  0.12699999809E+01 0. -1.
       -4    1    3    3    0  502  0.13928850304E+04 -0.14195731546E+04  0.54015088278E+03  0.20608447876E+04  0.12699999809E+01 0.  1.
</event>
<event>
 5   0  0.5951623E-08  0.3987046E+04  0.7818609E-02  0.8007165E-01
       -2   -1    0    0    0  501  0.00000000000E+00  0.00000000000E+00  0.19814841307E+04  0.19814841307E+04  0.25500000920E-02 0. -1.
        2   -1    0    0  501    0  0.00000000000E+00  0.00000000000E+00 -0.20056348544E+04  0.20056348544E+04  0.25500000920E-02 0.  1.
    10030    2    1    2    0    0  0.00000000000E+00  0.00000000000E+00 -0.24150723689E+02  0.39871189851E+04  0.39870458417E+04 0.  0.
        2    1    3    3  502    0  0.12493789492E+04 -0.13949950920E+04 -0.69558959843E+03  0.19976996658E+04  0.25500000920E-02 0.  1.
       -2    1    3    3    0  502 -0.12493789492E+04  0.13949950920E+04  0.67143887474E+03  0.19894193193E+04  0.25500000920E-02 0. -1.
</event>
<event>
 5   0  0.5888700E-08  0.4013422E+04  0.7818609E-02  0.8001844E-01
        2   -1    0    0  501    0  0.00000000000E+00  0.00000000000E+00  0.29981629487E+04  0.29981629487E+04  0.25500000920E-02 0. -1.
       -2   -1    0    0    0  501  0.00000000000E+00  0.00000000000E+00 -0.13431189453E+04  0.13431189453E+04  0.25500000920E-02 0.  1.
    10030    2    1    2    0    0  0.00000000000E+00  0.00000000000E+00  0.16550440034E+04  0.43412818939E+04  0.40134222092E+04 0.  0.
        5    1    3    3  502    0  0.85240753741E+03  0.16495798749E+04  0.43311410420E+01  0.18568126514E+04  0.46999998093E+01 0.  1.
       -5    1    3    3    0  502 -0.85240753741E+03 -0.16495798749E+04  0.16507128623E+04  0.24844692426E+04  0.46999998093E+01 0. -1.
</event>
<event>
 5   0  0.5945387E-08  0.4001916E+04  0.7818609E-02  0.8004160E-01
        2   -1    0    0  501    0  0.00000000000E+00  0.00000000000E+00  0.26206409564E+04  0.26206409564E+04  0.25500000920E-02 0.  1.
       -2   -1    0    0    0  501  0.00000000000E+00  0.00000000000E+00 -0.15278067448E+04  0.15278067448E+04  0.25500000920E-02 0. -1.
    10030    2    1    2    0    0  0.00000000000E+00  0.00000000000E+00  0.10928342116E+04  0.41484477012E+04  0.40019160056E+04 0.  0.
        3    1    3    3  502    0  0.14943377393E+04  0.74704225205E+03  0.16879728319E+04  0.23749462513E+04  0.10100000352E+00 0.  1.
       -3    1    3    3    0  502 -0.14943377393E+04 -0.74704225205E+03 -0.59513862027E+03  0.17735014499E+04  0.10100000352E+00 0. -1.
</event>
<event>
 5   0  0.5888700E-08  0.4007411E+04  0.7818609E-02  0.8003053E-01
        2   -1    0    0  501    0  0.00000000000E+00  0.00000000000E+00  0.25085052452E+04  0.25085052452E+04  0.25500000920E-02 0. -1.
       -2   -1    0    0    0  501  0.00000000000E+00  0.00000000000E+00 -0.16004893123E+04  0.16004893123E+04  0.25500000920E-02 0.  1.
    10030    2    1    2    0    0  0.00000000000E+00  0.00000000000E+00  0.90801593294E+03  0.41089945575E+04  0.40074110519E+04 0.  0.
        5    1    3    3  502    0 -0.11825182731E+04  0.10145738893E+04  0.17457458051E+04  0.23399487493E+04  0.46999998093E+01 0. -1.
       -5    1    3    3    0  502  0.11825182731E+04 -0.10145738893E+04 -0.83772987220E+03  0.17690458083E+04  0.46999998093E+01 0.  1.
</event>
<event>
 5   0  0.1879500E-08  0.3994857E+04  0.7818609E-02  0.8005585E-01
       -1   -1    0    0    0  501  0.00000000000E+00  0.00000000000E+00  0.24945188017E+04  0.24945188017E+04  0.50400001928E-02 0.  1.
        1   -1    0    0  501    0  0.00000000000E+00  0.00000000000E+00 -0.15993952511E+04  0.15993952511E+04  0.50400001928E-02 0. -1.
    10030    2    1    2    0    0  0.00000000000E+00  0.00000000000E+00  0.89512355067E+03  0.40939140528E+04  0.39948574569E+04 0.  0.
        4    1    3    3  502    0 -0.10038018168E+04 -0.14857460938E+04  0.13495338724E+04  0.22441708555E+04  0.12699999809E+01 0.  1.
       -4    1    3    3    0  502  0.10038018168E+04  0.14857460938E+04 -0.45441032177E+03  0.18497431973E+04  0.12699999809E+01 0. -1.
</event>
<event>
 5   0  0.1879500E-08  0.4006769E+04  0.7818609E-02  0.8003182E-01
       -1   -1    0    0    0  501  0.00000000000E+00  0.00000000000E+00  0.22317759081E+04  0.22317759081E+04  0.50400001928E-02 0.  1.
        1   -1    0    0  501    0  0.00000000000E+00  0.00000000000E+00 -0.17983661994E+04  0.17983661995E+04  0.50400001928E-02 0. -1.
    10030    2    1    2    0    0  0.00000000000E+00  0.00000000000E+00  0.43340970866E+03  0.40301421076E+04  0.40067694508E+04 0.  0.
        5    1    3    3  502    0  0.10731355242E+04 -0.10561491951E+02  0.19182575697E+04  0.21980595060E+04  0.46999998093E+01 0.  1.
       -5    1    3    3    0  502 -0.10731355242E+04  0.10561491951E+02 -0.14848478610E+04  0.18320826015E+04  0.46999998093E+01 0. -1.
</event>
<event>
 5   0  0.1879500E-08  0.4008520E+04  0.7818609E-02  0.8002830E-01
       -1   -1    0    0    0  501  0.00000000000E+00  0.00000000000E+00  0.15306110691E+04  0.15306110691E+04  0.50400001928E-02 0.  1.
        1   -1    0    0  501    0  0.00000000000E+00  0.00000000000E+00 -0.26244799453E+04  0.26244799453E+04  0.50400001928E-02 0. -1.
    10030    2    1    2    0    0  0.00000000000E+00  0.00000000000E+00 -0.10938688762E+04  0.41550910144E+04  0.40085199537E+04 0.  0.
        3    1    3    3  502    0 -0.90284958464E+03 -0.12186253300E+04  0.81127134062E+03  0.17199843795E+04  0.10100000352E+00 0.  1.
       -3    1    3    3    0  502  0.90284958464E+03  0.12186253300E+04 -0.19051402168E+04  0.24351066349E+04  0.10100000352E+00 0. -1.
</event>
<event>
 5   0  0.1879500E-08  0.3996236E+04  0.7818609E-02  0.8005306E-01
        1   -1    0    0  501    0  0.00000000000E+00  0.00000000000E+00  0.12627423818E+04  0.12627423818E+04  0.50400001928E-02 0.  1.
       -1   -1    0    0    0  501  0.00000000000E+00  0.00000000000E+00 -0.31617495764E+04  0.31617495764E+04  0.50400001928E-02 0. -1.
    10030    2    1    2    0    0  0.00000000000E+00  0.00000000000E+00 -0.18990071946E+04  0.44244919582E+04  0.39962358243E+04 0.  0.
        5    1    3    3  502    0 -0.12460582984E+04 -0.24958983355E+03 -0.26566558904E+04  0.29449616259E+04  0.46999998093E+01 0. -1.
       -5    1    3    3    0  502  0.12460582984E+04  0.24958983355E+03  0.75764869579E+03  0.14795303323E+04  0.46999998093E+01 0.  1.
</event>
<event>
 5   0  0.5951623E-08  0.3885946E+04  0.7818609E-02  0.8027959E-01
       -2   -1    0    0    0  501  0.00000000000E+00  0.00000000000E+00  0.19684792005E+04  0.19684792005E+04  0.25500000920E-02 0. -1.
        2   -1    0    0  501    0  0.00000000000E+00  0.00000000000E+00 -0.19177971442E+04  0.19177971442E+04  0.25500000920E-02 0.  1.
    10030    2    1    2    0    0  0.00000000000E+00  0.00000000000E+00  0.50682056281E+02  0.38862763447E+04  0.38859458510E+04 0.  0.
        2    1    3    3  502    0 -0.77763580046E+03 -0.24041826247E+03 -0.17390724383E+04  0.19201279449E+04  0.25500000920E-02 0.  1.
       -2    1    3    3    0  502  0.77763580046E+03  0.24041826247E+03  0.17897544946E+04  0.19661483998E+04  0.25500000920E-02 0. -1.
</event>
<event>
 5   0  0.5945387E-08  0.4006248E+04  0.7818609E-02  0.8003287E-01
       -2   -1    0    0    0  501  0.00000000000E+00  0.00000000000E+00  0.17072684985E+04  0.17072684985E+04  0.25500000920E-02 0.  1.
        2   -1    0    0  501    0  0.00000000000E+00  0.00000000000E+00 -0.23502485441E+04  0.23502485441E+04  0.25500000920E-02 0. -1.
    10030    2    1    2    0    0  0.00000000000E+00  0.00000000000E+00 -0.64298004556E+03  0.40575170426E+04  0.40062477722E+04 0.  0.
        3    1    3    3  502    0 -0.21308008918E+03 -0.19614141167E+04  0.29290151668E+02  0.19731716562E+04  0.10100000352E+00 0. -1.
       -3    1    3    3    0  502  0.21308008918E+03  0.19614141167E+04 -0.67227019723E+03  0.20843453864E+04  0.10100000352E+00 0.  1.
</event>
<event>
 5   0  0.5945387E-08  0.3885704E+04  0.7818609E-02  0.8028009E-01
        2   -1    0    0  501    0  0.00000000000E+00  0.00000000000E+00  0.11826850561E+04  0.11826850561E+04  0.25500000920E-02 0. -1.
       -2   -1    0    0    0  501  0.00000000000E+00  0.00000000000E+00 -0.31916145660E+04  0.31916145660E+04  0.25500000920E-02 0.  1.
    10030    2    1    2    0    0  0.00000000000E+00  0.00000000000E+00 -0.20089295099E+04  0.43742996221E+04  0.38857044932E+04 0.  0.
        3    1    3    3  502    0 -0.10313967317E+04 -0.13956848929E+04 -0.21157045473E+02  0.17355584603E+04  0.10100000352E+00 0. -1.
       -3    1    3    3    0  502  0.10313967317E+04  0.13956848929E+04 -0.19877724644E+04  0.26387411618E+04  0.10100000352E+00 0.  1.
</event>
<event>
 5   0  0.1879500E-08  0.4004737E+04  0.7818609E-02  0.8003592E-01
       -1   -1    0    0    0  501  0.00000000000E+00  0.00000000000E+00  0.22017552576E+04  0.22017552576E+04  0.50400001928E-02 0.  1.
        1   -1    0    0  501    0  0.00000000000E+00  0.00000000000E+00 -0.18210376389E+04  0.18210376389E+04  0.50400001928E-02 0. -1.
    10030    2    1    2    0    0  0.00000000000E+00  0.00000000000E+00  0.38071761867E+03  0.40227928966E+04  0.40047367933E+04 0.  0.
        2    1    3    3  502    0 -0.13406619041E+04 -0.13381900386E+04 -0.46168438837E+03  0.19496869992E+04  0.25500000920E-02 0.  1.
       -2    1    3    3    0  502  0.13406619041E+04  0.13381900386E+04  0.84240200703E+03  0.20731058974E+04  0.25500000920E-02 0. -1.
</event>
<event>
 5   0  0.5846812E-08  0.3978689E+04  0.7818609E-02  0.8008859E-01
        2   -1    0    0  501    0  0.00000000000E+00  0.00000000000E+00  0.27249660858E+04  0.27249660858E+04  0.25500000920E-02 0.  1.
       -2   -1    0    0    0  501  0.00000000000E+00  0.00000000000E+00 -0.14523085391E+04  0.14523085391E+04  0.25500000920E-02 0. -1.
    10030    2    1    2    0    0  0.00000000000E+00  0.00000000000E+00  0.12726575468E+04  0.41772746249E+04  0.39786889877E+04 0.  0.
        4    1    3    3  502    0  0.49649601345E+03 -0.13899368459E+04 -0.76405796327E+03  0.16619924522E+04  0.12699999809E+01 0. -1.
       -4    1    3    3    0  502 -0.49649601345E+03  0.13899368459E+04  0.20367155100E+04  0.25152821728E+04  0.12699999809E+01 0.  1.
</event>
<event>
 5   0  0.5945387E-08  0.3996118E+04  0.7818609E-02  0.8005330E-01
        2   -1    0    0  501    0  0.00000000000E+00  0.00000000000E+00  0.23655645937E+04  0.23655645937E+04  0.25500000920E-02 0.  1.
       -2   -1    0    0    0  501  0.00000000000E+00  0.00000000000E+00 -0.16876477155E+04  0.16876477155E+04  0.25500000920E-02 0. -1.
    10030    2    1    2    0    0  0.00000000000E+00  0.00000000000E+00  0.67791687823E+03  0.40532123091E+04  0.39961179574E+04 0.  0.
        3    1    3    3  502    0 -0.87623331800E+03  0.77655204444E+03  0.19811715091E+04  0.23012732267E+04  0.10100000352E+00 0.  1.
       -3    1    3    3    0  502  0.87623331800E+03 -0.77655204444E+03 -0.13032546309E+04  0.17519390824E+04  0.10100000352E+00 0. -1.
</event>
<event>
 5   0  0.5945387E-08  0.3991557E+04  0.7818609E-02  0.8006252E-01
       -2   -1    0    0    0  501  0.00000000000E+00  0.00000000000E+00  0.16643895669E+04  0.16643895669E+04  0.25500000920E-02 0. -1.
        2   -1    0    0  501    0  0.00000000000E+00  0.00000000000E+00 -0.23931484884E+04  0.23931484884E+04  0.25500000920E-02 0.  1.
    10030    2    1    2    0    0  0.00000000000E+00  0.00000000000E+00 -0.72875892154E+03  0.40575380553E+04  0.39915567770E+04 0.  0.
        3    1    3    3  502    0 -0.24697719104E+03 -0.18127775367E+04 -0.11750399886E+04  0.21743686706E+04  0.10100000352E+00 0.  1.
       -3    1    3    3    0  502  0.24697719104E+03  0.18127775367E+04  0.44628106711E+03  0.18831693847E+04  0.10100000352E+00 0. -1.
</event>
<event>
 5   0  0.5945387E-08  0.3984560E+04  0.7818609E-02  0.8007669E-01
        2   -1    0    0  501    0  0.00000000000E+00  0.00000000000E+00  0.12927016887E+04  0.12927016887E+04  0.25500000920E-02 0.  1.
       -2   -1    0    0    0  501  0.00000000000E+00  0.00000000000E+00 -0.30704524452E+04  0.30704524452E+04  0.25500000920E-02 0. -1.
    10030    2    1    2    0    0  0.00000000000E+00  0.00000000000E+00 -0.17777507565E+04  0.43631541339E+04  0.39845597302E+04 0.  0.
        3    1    3    3  502    0 -0.12537535631E+04 -0.91257756159E+03  0.48076222933E+03  0.16235233704E+04  0.10100000352E+00 0.  1.
       -3    1    3    3    0  502  0.12537535631E+04  0.91257756159E+03 -0.22585129858E+04  0.27396307635E+04  0.10100000352E+00 0. -1.
</event>
<event>
 5   0  0.5888700E-08  0.4003606E+04  0.7818609E-02  0.8003820E-01
       -2   -1    0    0    0  501  0.00000000000E+00  0.00000000000E+00  0.22233548790E+04  0.22233548790E+04  0.25500000920E-02 0.  1.
        2   -1    0    0  501    0  0.00000000000E+00  0.00000000000E+00 -0.18023279124E+04  0.18023279124E+04  0.25500000920E-02 0. -1.
    10030    2    1    2    0    0  0.00000000000E+00  0.00000000000E+00  0.42102696660E+03  0.40256827913E+04  0.40036056537E+04 0.  0.
        5    1    3    3  502    0 -0.55910571338E+03 -0.13026124206E+04 -0.12107140939E+04  0.18642019805E+04  0.46999998093E+01 0. -1.
       -5    1    3    3    0  502  0.55910571338E+03  0.13026124206E+04  0.16317410605E+04  0.21614808108E+04  0.46999998093E+01 0.  1.
</event>
<event>
 5   0  0.1879500E-08  0.3998306E+04  0.7818609E-02  0.8004888E-01
       -1   -1    0    0    0  501  0.00000000000E+00  0.00000000000E+00  0.21465274675E+04  0.21465274675E+04  0.50400001928E-02 0. -1.
        1   -1    0    0  501    0  0.00000000000E+00  0.00000000000E+00 -0.18618967394E+04  0.18618967394E+04  0.50400001928E-02 0.  1.
    10030    2    1    2    0    0  0.00000000000E+00  0.00000000000E+00  0.28463072803E+03  0.40084242069E+04  0.39983058876E+04 0.  0.
        5    1    3    3  502    0 -0.11429113524E+04  0.58909262632E+03  0.16769779166E+04  0.21131856295E+04  0.46999998093E+01 0. -1.
       -5    1    3    3    0  502  0.11429113524E+04 -0.58909262632E+03 -0.13923471886E+04  0.18952385774E+04  0.46999998093E+01 0.  1.
</event>
<event>
 5   0  0.1879500E-08  0.3995162E+04  0.7818609E-02  0.8005523E-01
        1   -1    0    0  501    0  0.00000000000E+00  0.00000000000E+00  0.13039604888E+04  0.13039604888E+04  0.50400001928E-02 0.  1.
       -1   -1    0    0    0  501  0.00000000000E+00  0.00000000000E+00 -0.30601613486E+04  0.30601613486E+04  0.50400001928E-02 0. -1.
    10030    2    1    2    0    0  0.00000000000E+00  0.00000000000E+00 -0.17562008598E+04  0.43641218374E+04  0.39951618180E+04 0.  0.
        2    1    3    3  502    0 -0.15698218965E+04  0.93421584875E+03 -0.17609676049E+04  0.25373424964E+04  0.25500000920E-02 0. -1.
       -2    1    3    3    0  502  0.15698218965E+04 -0.93421584875E+03  0.47667450769E+01  0.18267793410E+04  0.25500000920E-02 0.  1.
</event>
<event>
 5   0  0.1879500E-08  0.3999391E+04  0.7818609E-02  0.8004669E-01
        1   -1    0    0  501    0  0.00000000000E+00  0.00000000000E+00  0.13634000520E+04  0.13634000520E+04  0.50400001928E-02 0.  1.
       -1   -1    0    0    0  501  0.00000000000E+00  0.00000000000E+00 -0.29329485496E+04  0.29329485496E+04  0.50400001928E-02 0. -1.
    10030    2    1    2    0    0  0.00000000000E+00  0.00000000000E+00 -0.15695484976E+04  0.42963486016E+04  0.39993910562E+04 0.  0.
        4    1    3    3  502    0  0.43309392907E+03  0.84305914246E+03 -0.26763285551E+04  0.28391997494E+04  0.12699999809E+01 0. -1.
       -4    1    3    3    0  502 -0.43309392907E+03 -0.84305914246E+03  0.11067800575E+04  0.14571488522E+04  0.12699999809E+01 0.  1.
</event>
<event>
 5   0  0.5945387E-08  0.4036551E+04  0.7818609E-02  0.7997213E-01
       -2   -1    0    0    0  501  0.00000000000E+00  0.00000000000E+00  0.17290976173E+04  0.17290976173E+04  0.25500000920E-02 0.  1.
        2   -1    0    0  501    0  0.00000000000E+00  0.00000000000E+00 -0.23558159549E+04  0.23558159549E+04  0.25500000920E-02 0. -1.
    10030    2    1    2    0    0  0.00000000000E+00  0.00000000000E+00 -0.62671833760E+03  0.40849135723E+04  0.40365508814E+04 0.  0.
        3    1    3    3  502    0 -0.16151888072E+04  0.93878704926E+03 -0.10862370632E+04  0.21610337745E+04  0.10100000352E+00 0. -1.
       -3    1    3    3    0  502  0.16151888072E+04 -0.93878704926E+03  0.45951872564E+03  0.19238797978E+04  0.10100000352E+00 0.  1.
</event>
<event>
 5   0  0.5945387E-08  0.3998538E+04  0.7818609E-02  0.8004842E-01
       -2   -1    0    0    0  501  0.00000000000E+00  0.00000000000E+00  0.14750190128E+04  0.14750190128E+04  0.25500000920E-02 0.  1.
        2   -1    0    0  501    0  0.00000000000E+00  0.00000000000E+00 -0.27098471835E+04  0.27098471835E+04  0.25500000920E-02 0. -1.
    10030    2    1    2    0    0  0.00000000000E+00  0.00000000000E+00 -0.12348281708E+04  0.41848661963E+04  0.39985377914E+04 0.  0.
        3    1    3    3  502    0  0.93455241908E+03  0.53485737262E+03  0.11456055272E+04  0.15722190265E+04  0.10100000352E+00 0.  1.
       -3    1    3    3    0  502 -0.93455241908E+03 -0.53485737262E+03 -0.23804336980E+04  0.26126471698E+04  0.10100000352E+00 0. -1.
</event>
<event>
 5   0  0.6161563E-08  0.4001963E+04  0.7818609E-02  0.8004151E-01
        2   -1    0    0  501    0  0.00000000000E+00  0.00000000000E+00  0.20307156576E+04  0.20307156576E+04  0.25500000920E-02 0.  1.
       -2   -1    0    0    0  501  0.00000000000E+00  0.00000000000E+00 -0.19716825040E+04  0.19716825040E+04  0.25500000920E-02 0. -1.
    10030    2    1    2    0    0  0.00000000000E+00  0.00000000000E+00  0.59033153693E+02  0.40023981616E+04  0.40019627848E+04 0.  0.
        1    1    3    3  502    0 -0.60471564405E+03  0.16009473898E+04 -0.10075210006E+04  0.19859033515E+04  0.50400001928E-02 0. -1.
       -1    1    3    3    0  502  0.60471564405E+03 -0.16009473898E+04  0.10665541543E+04  0.20164948101E+04  0.50400001928E-02 0.  1.
</event>
<event>
 5   0  0.1879500E-08  0.3991074E+04  0.7818609E-02  0.8006350E-01
        1   -1    0    0  501    0  0.00000000000E+00  0.00000000000E+00  0.25788747824E+04  0.25788747824E+04  0.50400001928E-02 0.  1.
       -1   -1    0    0    0  501  0.00000000000E+00  0.00000000000E+00 -0.15441496578E+04  0.15441496578E+04  0.50400001928E-02 0. -1.
    10030    2    1    2    0    0  0.00000000000E+00  0.00000000000E+00  0.10347251246E+04  0.41230244402E+04  0.39910743480E+04 0.  0.
        1    1    3    3  502    0  0.16073103634E+04  0.68469815924E+03  0.15135628267E+04  0.23115212748E+04  0.50400001928E-02 0.  1.
       -1    1    3    3    0  502 -0.16073103634E+04 -0.68469815924E+03 -0.47883770206E+03  0.18115031654E+04  0.50400001928E-02 0. -1.
</event>
<event>
 5   0  0.5951623E-08  0.3995296E+04  0.7818609E-02  0.8005496E-01
        2   -1    0    0  501    0  0.00000000000E+00  0.00000000000E+00  0.31565137826E+04  0.31565137826E+04  0.25500000920E-02 0.  1.
       -2   -1    0    0    0  501  0.00000000000E+00  0.00000000000E+00 -0.12642419457E+04  0.12642419457E+04  0.25500000920E-02 0. -1.
    10030    2    1    2    0    0  0.00000000000E+00  0.00000000000E+00  0.18922718369E+04  0.44207557283E+04  0.39952957969E+04 0.  0.
        2    1    3    3  502    0  0.16733041337E+04 -0.10898807665E+04  0.10047936470E+04  0.22354858716E+04  0.25500000920E-02 0. -1.
       -2    1    3    3    0  502 -0.16733041337E+04  0.10898807665E+04  0.88747818986E+03  0.21852698567E+04  0.25500000920E-02 0.  1.
</event>
<event>
 5   0  0.5945387E-08  0.4000869E+04  0.7818609E-02  0.8004371E-01
        2   -1    0    0  501    0  0.00000000000E+00  0.00000000000E+00  0.20474405671E+04  0.20474405671E+04  0.25500000920E-02 0. -1.
       -2   -1    0    0    0  501  0.00000000000E+00  0.00000000000E+00 -0.19545080179E+04  0.19545080179E+04  0.25500000920E-02 0.  1.
    10030    2    1    2    0    0  0.00000000000E+00  0.00000000000E+00  0.92932549221E+02  0.40019485851E+04  0.40008694079E+04 0.  0.
        3    1    3    3  502    0  0.42174631097E+03 -0.25611595355E+03 -0.18926833886E+04  0.19559436986E+04  0.10100000352E+00 0.  1.
       -3    1    3    3    0  502 -0.42174631097E+03  0.25611595355E+03  0.19856159378E+04  0.20460048864E+04  0.10100000352E+00 0. -1.
</event>
<event>
 5   0  0.1879500E-08  0.4003840E+04  0.7818609E-02  0.8003772E-01
       -1   -1    0    0    0  501  0.00000000000E+00  0.00000000000E+00  0.28732884176E+04  0.28732884176E+04  0.50400001928E-02 0.  1.
        1   -1    0    0  501    0  0.00000000000E+00  0.00000000000E+00 -0.13948070626E+04  0.13948070626E+04  0.50400001928E-02 0. -1.
    10030    2    1    2    0    0  0.00000000000E+00  0.00000000000E+00  0.14784813550E+04  0.42680954802E+04  0.40038396461E+04 0.  0.
        1    1    3    3  502    0 -0.17382070555E+04  0.76537619616E+03  0.64605885231E+02  0.19003521805E+04  0.50400001928E-02 0.  1.
       -1    1    3    3    0  502  0.17382070555E+04 -0.76537619616E+03  0.14138754698E+04  0.23677432997E+04  0.50400001928E-02 0. -1.
</event>
<event>
 5   0  0.5846812E-08  0.3829908E+04  0.7818609E-02  0.8039767E-01
       -2   -1    0    0    0  501  0.00000000000E+00  0.00000000000E+00  0.14801887920E+04  0.14801887920E+04  0.25500000920E-02 0. -1.
        2   -1    0    0  501    0  0.00000000000E+00  0.00000000000E+00 -0.24774192655E+04  0.24774192655E+04  0.25500000920E-02 0.  1.
    10030    2    1    2    0    0  0.00000000000E+00  0.00000000000E+00 -0.99723047349E+03  0.39576080575E+04  0.38299076907E+04 0.  0.
        4    1    3    3  502    0  0.12857078208E+04  0.64250246044E+03  0.80895872206E+03  0.16493240552E+04  0.12699999809E+01 0. -1.
       -4    1    3    3    0  502 -0.12857078208E+04 -0.64250246044E+03 -0.18061891956E+04  0.23082840023E+04  0.12699999809E+01 0.  1.
</event>
<event>
 5   0  0.5888700E-08  0.4000609E+04  0.7818609E-02  0.8004424E-01
        2   -1    0    0  501    0  0.00000000000E+00  0.00000000000E+00  0.25708962027E+04  0.25708962027E+04  0.25500000920E-02 0.  1.
       -2   -1    0    0    0  501  0.00000000000E+00  0.00000000000E+00 -0.15563515306E+04  0.15563515306E+04  0.25500000920E-02 0. -1.
    10030    2    1    2    0    0  0.00000000000E+00  0.00000000000E+00  0.10145446721E+04  0.41272477333E+04  0.40006090737E+04 0.  0.
        5    1    3    3  502    0  0.74642597060E+03 -0.70701960257E+03 -0.12629005899E+04  0.16284865483E+04  0.46999998093E+01 0. -1.
       -5    1    3    3    0  502 -0.74642597060E+03  0.70701960257E+03  0.22774452620E+04  0.24987611850E+04  0.46999998093E+01 0.  1.
</event>
<event>
 5   0  0.5846812E-08  0.4057069E+04  0.7818609E-02  0.7993132E-01
        2   -1    0    0  501    0  0.00000000000E+00  0.00000000000E+00  0.27135399939E+04  0.27135399939E+04  0.25500000920E-02 0.  1.
       -2   -1    0    0    0  501  0.00000000000E+00  0.00000000000E+00 -0.15164519296E+04  0.15164519296E+04  0.25500000920E-02 0. -1.
    10030    2    1    2    0    0  0.00000000000E+00  0.00000000000E+00  0.11970880643E+04  0.42299919235E+04  0.40570693658E+04 0.  0.
        4    1    3    3  502    0 -0.16584898446E+04 -0.81199209049E+03 -0.27690608425E+03  0.18672435063E+04  0.12699999809E+01 0. -1.
       -4    1    3    3    0  502  0.16584898446E+04  0.81199209049E+03  0.14739941486E+04  0.23627484171E+04  0.12699999809E+01 0.  1.
</event>
<event>
 5   0  0.5945387E-08  0.4039433E+04  0.7818609E-02  0.7996639E-01
       -2   -1    0    0    0  501  0.00000000000E+00  0.00000000000E+00  0.23882632117E+04  0.23882632117E+04  0.25500000920E-02 0. -1.
        2   -1    0    0  501    0  0.00000000000E+00  0.00000000000E+00 -0.17080424638E+04  0.17080424638E+04  0.25500000920E-02 0.  1.
    10030    2    1    2    0    0  0.00000000000E+00  0.00000000000E+00  0.68022074798E+03  0.40963056755E+04  0.40394331188E+04 0.  0.
        3    1    3    3  502    0 -0.77631984861E+03 -0.16689918638E+04  0.11831077791E+04  0.21881385641E+04  0.10100000352E+00 0. -1.
       -3    1    3    3    0  502  0.77631984861E+03  0.16689918638E+04 -0.50288703107E+03  0.19081671114E+04  0.10100000352E+00 0.  1.
</event>
<event>
 5   0  0.5945387E-08  0.4039354E+04  0.7818609E-02  0.7996654E-01
        2   -1    0    0  501    0  0.00000000000E+00  0.00000000000E+00  0.19660335380E+04  0.19660335380E+04  0.25500000920E-02 0.  1.
       -2   -1    0    0    0  501  0.00000000000E+00  0.00000000000E+00 -0.20747844361E+04  0.20747844361E+04  0.25500000920E-02 0. -1.
    10030    2    1    2    0    0  0.00000000000E+00  0.00000000000E+00 -0.10875089808E+03  0.40408179741E+04  0.40393542977E+04 0.  0.
        3    1    3    3  502    0  0.19283516275E+04  0.19930054015E+03 -0.62100374398E+03  0.20356587054E+04  0.10100000352E+00 0. -1.
       -3    1    3    3    0  502 -0.19283516275E+04 -0.19930054015E+03  0.51225284590E+03  0.20051592687E+04  0.10100000352E+00 0.  1.
</event>
<event>
 5   0  0.5846812E-08  0.4043561E+04  0.7818609E-02  0.7995816E-01
        2   -1    0    0  501    0  0.00000000000E+00  0.00000000000E+00  0.28849872671E+04  0.28849872671E+04  0.25500000920E-02 0. -1.
       -2   -1    0    0    0  501  0.00000000000E+00  0.00000000000E+00 -0.14168510849E+04  0.14168510849E+04  0.25500000920E-02 0.  1.
    10030    2    1    2    0    0  0.00000000000E+00  0.00000000000E+00  0.14681361821E+04  0.43018383520E+04  0.40435614695E+04 0.  0.
        4    1    3    3  502    0  0.26685116958E+03  0.90274486643E+03 -0.11694744086E+04  0.15012760725E+04  0.12699999809E+01 0.  1.
       -4    1    3    3    0  502 -0.26685116958E+03 -0.90274486643E+03  0.26376105907E+04  0.28005622796E+04  0.12699999809E+01 0. -1.
</event>
<event>
 5   0  0.5945387E-08  0.4005448E+04  0.7818609E-02  0.8003448E-01
        2   -1    0    0  501    0  0.00000000000E+00  0.00000000000E+00  0.23571075169E+04  0.23571075169E+04  0.25500000920E-02 0.  1.
       -2   -1    0    0    0  501  0.00000000000E+00  0.00000000000E+00 -0.17016209149E+04  0.17016209149E+04  0.25500000920E-02 0. -1.
    10030    2    1    2    0    0  0.00000000000E+00  0.00000000000E+00  0.65548660203E+03  0.40587284317E+04  0.40054480145E+04 0.  0.
        3    1    3    3  502    0  0.11593054374E+04 -0.10974727069E+04 -0.89766856169E+03  0.18314596082E+04  0.10100000352E+00 0. -1.
       -3    1    3    3    0  502 -0.11593054374E+04  0.10974727069E+04  0.15531551637E+04  0.22272688236E+04  0.10100000352E+00 0.  1.
</event>
<event>
 5   0  0.1879500E-08  0.3990048E+04  0.7818609E-02  0.8006557E-01
       -1   -1    0    0    0  501  0.00000000000E+00  0.00000000000E+00  0.16019687553E+04  0.16019687553E+04  0.50400001928E-02 0. -1.
        1   -1    0    0  501    0  0.00000000000E+00  0.00000000000E+00 -0.24845179688E+04  0.24845179688E+04  0.50400001928E-02 0.  1.
    10030    2    1    2    0    0  0.00000000000E+00  0.00000000000E+00 -0.88254921344E+03  0.40864867241E+04  0.39900476980E+04 0.  0.
        5    1    3    3  502    0  0.87199034471E+03 -0.17761766965E+04 -0.18030765741E+03  0.19868829255E+04  0.46999998093E+01 0. -1.
       -5    1    3    3    0  502 -0.87199034471E+03  0.17761766965E+04 -0.70224155603E+03  0.20996037986E+04  0.46999998093E+01 0.  1.
</event>
<event>
 5   0  0.6161563E-08  0.3978348E+04  0.7818609E-02  0.8008929E-01
       -2   -1    0    0    0  501  0.00000000000E+00  0.00000000000E+00  0.12790824417E+04  0.12790824417E+04  0.25500000920E-02 0. -1.
        2   -1    0    0  501    0  0.00000000000E+00  0.00000000000E+00 -0.30934777167E+04  0.30934777167E+04  0.25500000920E-02 0.  1.
    10030    2    1    2    0    0  0.00000000000E+00  0.00000000000E+00 -0.18143952750E+04  0.43725601584E+04  0.39783479140E+04 0.  0.
        1    1    3    3  502    0 -0.14980490635E+04 -0.12950644729E+04 -0.11141945686E+04  0.22721735238E+04  0.50400001928E-02 0.  1.
       -1    1    3    3    0  502  0.14980490635E+04  0.12950644729E+04 -0.70020070634E+03  0.21003866346E+04  0.50400001928E-02 0. -1.
</event>
<event>
 5   0  0.1879500E-08  0.4021239E+04  0.7818609E-02  0.8000276E-01
        1   -1    0    0  501    0  0.00000000000E+00  0.00000000000E+00  0.24917477772E+04  0.24917477772E+04  0.50400001928E-02 0.  1.
       -1   -1    0    0    0  501  0.00000000000E+00  0.00000000000E+00 -0.16223917336E+04  0.16223917336E+04  0.50400001928E-02 0. -1.
    10030    2    1    2    0    0  0.00000000000E+00  0.00000000000E+00  0.86935604355E+03  0.41141395108E+04  0.40212391106E+04 0.  0.
        3    1    3    3  502    0 -0.16566055389E+04  0.11091352448E+04  0.16775202315E+03  0.20006658028E+04  0.10100000352E+00 0.  1.
       -3    1    3    3    0  502  0.16566055389E+04 -0.11091352448E+04  0.70160402040E+03  0.21134737081E+04  0.10100000352E+00 0. -1.
</event>
<event>
 5   0  0.5846812E-08  0.4010910E+04  0.7818609E-02  0.8002349E-01
        2   -1    0    0  501    0  0.00000000000E+00  0.00000000000E+00  0.23082178972E+04  0.23082178972E+04  0.25500000920E-02 0. -1.
       -2   -1    0    0    0  501  0.00000000000E+00  0.00000000000E+00 -0.17424050968E+04  0.17424050969E+04  0.25500000920E-02 0.  1.
    10030    2    1    2    0    0  0.00000000000E+00  0.00000000000E+00  0.56581280038E+03  0.40506229941E+04  0.40109104347E+04 0.  0.
        4    1    3    3  502    0  0.14933997863E+04  0.10145676727E+04  0.11646250086E+04  0.21484746934E+04  0.12699999809E+01 0. -1.
       -4    1    3    3    0  502 -0.14933997863E+04 -0.10145676727E+04 -0.59881220824E+03  0.19021483007E+04  0.12699999809E+01 0.  1.
</event>
<event>
 5   0  0.5846812E-08  0.4005904E+04  0.7818609E-02  0.8003357E-01
       -2   -1    0    0    0  501  0.00000000000E+00  0.00000000000E+00  0.16334142959E+04  0.16334142959E+04  0.25500000920E-02 0. -1.
        2   -1    0    0  501    0  0.00000000000E+00  0.00000000000E+00 -0.24560931135E+04  0.24560931135E+04  0.25500000920E-02 0.  1.
    10030    2    1    2    0    0  0.00000000000E+00  0.00000000000E+00 -0.82267881759E+03  0.40895074095E+04  0.40059044441E+04 0.  0.
        4    1    3    3  502    0 -0.97331763091E+03 -0.24097485808E+03  0.13587442302E+04  0.16886691769E+04  0.12699999809E+01 0. -1.
       -4    1    3    3    0  502  0.97331763091E+03  0.24097485808E+03 -0.21814230478E+04  0.24008382326E+04  0.12699999809E+01 0.  1.
</event>
<event>
 5   0  0.5846812E-08  0.3994808E+04  0.7818609E-02  0.8005595E-01
       -2   -1    0    0    0  501  0.00000000000E+00  0.00000000000E+00  0.26270244023E+04  0.26270244023E+04  0.25500000920E-02 0.  1.
        2   -1    0    0  501    0  0.00000000000E+00  0.00000000000E+00 -0.15186849624E+04  0.15186849624E+04  0.25500000920E-02 0. -1.
    10030    2    1    2    0    0  0.00000000000E+00  0.00000000000E+00  0.11083394400E+04  0.41457093647E+04  0.39948078580E+04 0.  0.
        4    1    3    3  502    0 -0.18321957652E+03 -0.14536347437E+04 -0.85468212669E+03  0.16962035644E+04  0.12699999809E+01 0. -1.
       -4    1    3    3    0  502  0.18321957652E+03  0.14536347437E+04  0.19630215667E+04  0.24495058003E+04  0.12699999809E+01 0.  1.
</event>
<event>
 5   0  0.6161563E-08  0.4009735E+04  0.7818609E-02  0.8002586E-01
        2   -1    0    0  501    0  0.00000000000E+00  0.00000000000E+00  0.26112006408E+04  0.26112006408E+04  0.25500000920E-02 0.  1.
       -2   -1    0    0    0  501  0.00000000000E+00  0.00000000000E+00 -0.15393277566E+04  0.15393277566E+04  0.25500000920E-02 0. -1.
    10030    2    1    2    0    0  0.00000000000E+00  0.00000000000E+00  0.10718728842E+04  0.41505283974E+04  0.40097349660E+04 0.  0.
        1    1    3    3  502    0 -0.15977734741E+04  0.76093036807E+02 -0.71514787570E+03  0.17521719975E+04  0.50400001928E-02 0. -1.
       -1    1    3    3    0  502  0.15977734741E+04 -0.76093036807E+02  0.17870207599E+04  0.23983563999E+04  0.50400001928E-02 0.  1.
</event>
<event>
 5   0  0.1879500E-08  0.3975404E+04  0.7818609E-02  0.8009527E-01
       -1   -1    0    0    0  501  0.00000000000E+00  0.00000000000E+00  0.18024275857E+04  0.18024275857E+04  0.50400001928E-02 0.  1.
        1   -1    0    0  501    0  0.00000000000E+00  0.00000000000E+00 -0.21920210531E+04  0.21920210531E+04  0.50400001928E-02 0. -1.
    10030    2    1    2    0    0  0.00000000000E+00  0.00000000000E+00 -0.38959346735E+03  0.39944486388E+04  0.39754039868E+04 0.  0.
        4    1    3    3  502    0  0.43205752526E+03 -0.34401975433E+03  0.17237836152E+04  0.18100980254E+04  0.12699999809E+01 0.  1.
       -4    1    3    3    0  502 -0.43205752526E+03  0.34401975433E+03 -0.21133770825E+04  0.21843506134E+04  0.12699999809E+01 0. -1.
</event>
<event>
 5   0  0.1879500E-08  0.4015140E+04  0.7818609E-02  0.8001499E-01
       -1   -1    0    0    0  501  0.00000000000E+00  0.00000000000E+00  0.32261749111E+04  0.32261749111E+04  0.50400001928E-02 0. -1.
        1   -1    0    0  501    0  0.00000000000E+00  0.00000000000E+00 -0.12492615963E+04  0.12492615963E+04  0.50400001928E-02 0.  1.
    10030    2    1    2    0    0  0.00000000000E+00  0.00000000000E+00  0.19769133148E+04  0.44754365075E+04  0.40151395590E+04 0.  0.
        5    1    3    3  502    0  0.51815090097E+03  0.19116723738E+03 -0.11629115362E+04  0.12874045983E+04  0.46999998093E+01 0.  1.
       -5    1    3    3    0  502 -0.51815090097E+03 -0.19116723738E+03  0.31398248510E+04  0.31880319092E+04  0.46999998093E+01 0. -1.
</event>
<event>
 5   0  0.5846812E-08  0.4007222E+04  0.7818609E-02  0.8003091E-01
       -2   -1    0    0    0  501  0.00000000000E+00  0.00000000000E+00  0.19062077978E+04  0.19062077978E+04  0.25500000920E-02 0.  1.
        2   -1    0    0  501    0  0.00000000000E+00  0.00000000000E+00 -0.21059917689E+04  0.21059917689E+04  0.25500000920E-02 0. -1.
    10030    2    1    2    0    0  0.00000000000E+00  0.00000000000E+00 -0.19978397116E+03  0.40121995667E+04  0.40072224455E+04 0.  0.
        4    1    3    3  502    0  0.80650950386E+03  0.15517716240E+04  0.87907677083E+03  0.19573528897E+04  0.12699999809E+01 0.  1.
       -4    1    3    3    0  502 -0.80650950386E+03 -0.15517716240E+04 -0.10788607420E+04  0.20548466771E+04  0.12699999809E+01 0. -1.
</event>
<event>
 5   0  0.6161563E-08  0.3831354E+04  0.7818609E-02  0.8039460E-01
        2   -1    0    0  501    0  0.00000000000E+00  0.00000000000E+00  0.19099394445E+04  0.19099394445E+04  0.25500000920E-02 0. -1.
       -2   -1    0    0    0  501  0.00000000000E+00  0.00000000000E+00 -0.19214320497E+04  0.19214320497E+04  0.25500000920E-02 0.  1.
    10030    2    1    2    0    0  0.00000000000E+00  0.00000000000E+00 -0.11492605173E+02  0.38313714941E+04  0.38313542575E+04 0.  0.
        1    1    3    3  502    0 -0.14880633514E+04  0.10936627571E+03 -0.12072197022E+04  0.19192896940E+04  0.50400001928E-02 0. -1.
       -1    1    3    3    0  502  0.14880633514E+04 -0.10936627571E+03  0.11957270970E+04  0.19120818002E+04  0.50400001928E-02 0.  1.
</event>
<event>
 5   0  0.5951623E-08  0.3998373E+04  0.7818609E-02  0.8004875E-01
        2   -1    0    0  501    0  0.00000000000E+00  0.00000000000E+00  0.18462749070E+04  0.18462749070E+04  0.25500000920E-02 0. -1.
       -2   -1    0    0    0  501  0.00000000000E+00  0.00000000000E+00 -0.21647620456E+04  0.21647620456E+04  0.25500000920E-02 0.  1.
    10030    2    1    2    0    0  0.00000000000E+00  0.00000000000E+00 -0.31848713859E+03  0.40110369526E+04  0.39983725911E+04 0.  0.
        2    1    3    3  502    0  0.96705723684E+03 -0.16744569476E+04  0.35004552588E+03  0.19650795503E+04  0.25500000920E-02 0. -1.
       -2    1    3    3    0  502 -0.96705723684E+03  0.16744569476E+04 -0.66853266447E+03  0.20459574023E+04  0.25500000920E-02 0.  1.
</event>
<event>
 5   0  0.5888700E-08  0.3994196E+04  0.7818609E-02  0.8005718E-01
       -2   -1    0    0    0  501  0.00000000000E+00  0.00000000000E+00  0.19475303284E+04  0.19475303284E+04  0.25500000920E-02 0.  1.
        2   -1    0    0  501    0  0.00000000000E+00  0.00000000000E+00 -0.20479277304E+04  0.20479277304E+04  0.25500000920E-02 0. -1.
    10030    2    1    2    0    0  0.00000000000E+00  0.00000000000E+00 -0.10039740202E+03  0.39954580588E+04  0.39941964726E+04 0.  0.
        5    1    3    3  502    0  0.94407698508E+03 -0.68246313298E+03  0.15724548358E+04  0.19569551814E+04  0.46999998093E+01 0.  1.
       -5    1    3    3    0  502 -0.94407698508E+03  0.68246313298E+03 -0.16728522378E+04  0.20385028774E+04  0.46999998093E+01 0. -1.
</event>
<event>
 5   0  0.5951623E-08  0.4001456E+04  0.7818609E-02  0.8004253E-01
       -2   -1    0    0    0  501  0.00000000000E+00  0.00000000000E+00  0.28682737018E+04  0.28682737018E+04  0.25500000920E-02 0. -1.
        2   -1    0    0  501    0  0.00000000000E+00  0.00000000000E+00 -0.13955823723E+04  0.13955823723E+04  0.25500000920E-02 0.  1.
    10030    2    1    2    0    0  0.00000000000E+00  0.00000000000E+00  0.14726913295E+04  0.42638560741E+04  0.40014558436E+04 0.  0.
        2    1    3    3  502    0 -0.30209873078E+03 -0.11596457080E+04  0.24435538306E+04  0.27215798967E+04  0.25500000920E-02 0. -1.
       -2    1    3    3    0  502  0.30209873078E+03  0.11596457080E+04 -0.97086250114E+03  0.15422761774E+04  0.25500000920E-02 0.  1.
</event>
<event>
 5   0  0.1879500E-08  0.4004630E+04  0.7818609E-02  0.8003613E-01
       -1   -1    0    0    0  501  0.00000000000E+00  0.00000000000E+00  0.13452246027E+04  0.13452246027E+04  0.50400001928E-02 0. -1.
        1   -1    0    0  501    0  0.00000000000E+00  0.00000000000E+00 -0.29803693118E+04  0.29803693118E+04  0.50400001928E-02 0.  1.
    10030    2    1    2    0    0  0.00000000000E+00  0.00000000000E+00 -0.16351447091E+04  0.43255939145E+04  0.40046303817E+04 0.  0.
        3    1    3    3  502    0 -0.13601789627E+04  0.51163103296E+03 -0.23054398028E+04  0.27252350025E+04  0.10100000352E+00 0.  1.
       -3    1    3    3    0  502  0.13601789627E+04 -0.51163103296E+03  0.67029509362E+03  0.16003589120E+04  0.10100000352E+00 0. -1.
</event>
<event>
 5   0  0.6161563E-08  0.4013029E+04  0.7818609E-02  0.8001923E-01
       -2   -1    0    0    0  501  0.00000000000E+00  0.00000000000E+00  0.24858883756E+04  0.24858883756E+04  0.25500000920E-02 0. -1.
        2   -1    0    0  501    0  0.00000000000E+00  0.00000000000E+00 -0.16195820944E+04  0.16195820944E+04  0.25500000920E-02 0.  1.
    10030    2    1    2    0    0  0.00000000000E+00  0.00000000000E+00  0.86630628123E+03  0.41054704700E+04  0.40130289317E+04 0.  0.
        1    1    3    3  502    0 -0.18951974626E+04 -0.61661138045E+03  0.67114310350E+03  0.21029541322E+04  0.50400001928E-02 0.  1.
       -1    1    3    3    0  502  0.18951974626E+04  0.61661138045E+03  0.19516317773E+03  0.20025163377E+04  0.50400001928E-02 0. -1.
</event>
<event>
 5   0  0.1879500E-08  0.3992869E+04  0.7818609E-02  0.8005987E-01
        1   -1    0    0  501    0  0.00000000000E+00  0.00000000000E+00  0.13665078697E+04  0.13665078698E+04  0.50400001928E-02 0. -1.
       -1   -1    0    0    0  501  0.00000000000E+00  0.00000000000E+00 -0.29167423387E+04  0.29167423387E+04  0.50400001928E-02 0.  1.
    10030    2    1    2    0    0  0.00000000000E+00  0.00000000000E+00 -0.15502344689E+04  0.42832502084E+04  0.39928693241E+04 0.  0.
        4    1    3    3  502    0  0.17319173795E+04 -0.28309455346E+03  0.24598466028E+03  0.17720582388E+04  0.12699999809E+01 0. -1.
       -4    1    3    3    0  502 -0.17319173795E+04  0.28309455346E+03 -0.17962191292E+04  0.25111919697E+04  0.12699999809E+01 0.  1.
</event>
<event>
 5   0  0.1879500E-08  0.4002516E+04  0.7818609E-02  0.8004039E-01
       -1   -1    0    0    0  501  0.00000000000E+00  0.00000000000E+00  0.19024073643E+04  0.19024073643E+04  0.50400001928E-02 0.  1.
        1   -1    0    0  501    0  0.00000000000E+00  0.00000000000E+00 -0.21052445623E+04  0.21052445623E+04  0.50400001928E-02 0. -1.
    10030    2    1    2    0    0  0.00000000000E+00  0.00000000000E+00 -0.20283719794E+03  0.40076519266E+04  0.40025155884E+04 0.  0.
        4    1    3    3  502    0 -0.69465770695E+03  0.14445623639E+04  0.10983349654E+04  0.19431034615E+04  0.12699999809E+01 0.  1.
       -4    1    3    3    0  502  0.69465770695E+03 -0.14445623639E+04 -0.13011721633E+04  0.20645484651E+04  0.12699999809E+01 0. -1.
</event>
<event>
 5   0  0.5945387E-08  0.4009987E+04  0.7818609E-02  0.8002535E-01
        2   -1    0    0  501    0  0.00000000000E+00  0.00000000000E+00  0.20872684261E+04  0.20872684261E+04  0.25500000920E-02 0.  1.
       -2   -1    0    0    0  501  0.00000000000E+00  0.00000000000E+00 -0.19259619999E+04  0.19259619999E+04  0.25500000920E-02 0. -1.
    10030    2    1    2    0    0  0.00000000000E+00  0.00000000000E+00  0.16130642612E+03  0.40132304260E+04  0.40099873677E+04 0.  0.
        3    1    3    3  502    0 -0.95887059400E+03  0.12313208170E+04  0.13404070405E+04  0.20572493322E+04  0.10100000352E+00 0.  1.
       -3    1    3    3    0  502  0.95887059400E+03 -0.12313208170E+04 -0.11791006143E+04  0.19559810938E+04  0.10100000352E+00 0. -1.
</event>
<event>
 5   0  0.5888700E-08  0.4008724E+04  0.7818609E-02  0.8002789E-01
        2   -1    0    0  501    0  0.00000000000E+00  0.00000000000E+00  0.31118917515E+04  0.31118917515E+04  0.25500000920E-02 0. -1.
       -2   -1    0    0    0  501  0.00000000000E+00  0.00000000000E+00 -0.12910046163E+04  0.12910046163E+04  0.25500000920E-02 0.  1.
    10030    2    1    2    0    0  0.00000000000E+00  0.00000000000E+00  0.18208871352E+04  0.44028963679E+04  0.40087237953E+04 0.  0.
        5    1    3    3  502    0 -0.14127924525E+04 -0.61103993590E+03  0.23204564571E+04  0.27845812210E+04  0.46999998093E+01 0. -1.
       -5    1    3    3    0  502  0.14127924525E+04  0.61103993590E+03 -0.49956932189E+03  0.16183151468E+04  0.46999998093E+01 0.  1.
</event>
<event>
 5   0  0.5888700E-08  0.3997490E+04  0.7818609E-02  0.8005053E-01
       -2   -1    0    0    0  501  0.00000000000E+00  0.00000000000E+00  0.24856370434E+04  0.24856370434E+04  0.25500000920E-02 0.  1.
        2   -1    0    0  501    0  0.00000000000E+00  0.00000000000E+00 -0.16072262073E+04  0.16072262073E+04  0.25500000920E-02 0. -1.
    10030    2    1    2    0    0  0.00000000000E+00  0.00000000000E+00  0.87841083608E+03  0.40928632508E+04  0.39974897114E+04 0.  0.
        5    1    3    3  502    0 -0.16218940368E+04 -0.61896705151E+03  0.14534447116E+04  0.22641077927E+04  0.46999998093E+01 0.  1.
       -5    1    3    3    0  502  0.16218940368E+04  0.61896705151E+03 -0.57503387548E+03  0.18287554581E+04  0.46999998093E+01 0. -1.
</event>
<event>
 5   0  0.6161563E-08  0.4004092E+04  0.7818609E-02  0.8003722E-01
       -2   -1    0    0    0  501  0.00000000000E+00  0.00000000000E+00  0.20624886927E+04  0.20624886927E+04  0.25500000920E-02 0. -1.
        2   -1    0    0  501    0  0.00000000000E+00  0.00000000000E+00 -0.19433745540E+04  0.19433745540E+04  0.25500000920E-02 0.  1.
    10030    2    1    2    0    0  0.00000000000E+00  0.00000000000E+00  0.11911413872E+03  0.40058632468E+04  0.40040919288E+04 0.  0.
        1    1    3    3  502    0  0.60498086536E+03 -0.17928908597E+04  0.71385599139E+03  0.20223871684E+04  0.50400001928E-02 0. -1.
       -1    1    3    3    0  502 -0.60498086536E+03  0.17928908597E+04 -0.59474185267E+03  0.19834760784E+04  0.50400001928E-02 0.  1.
</event>
<event>
 5   0  0.1879500E-08  0.3993050E+04  0.7818609E-02  0.8005950E-01
        1   -1    0    0  501    0  0.00000000000E+00  0.00000000000E+00  0.13902303207E+04  0.13902303207E+04  0.50400001928E-02 0.  1.
       -1   -1    0    0    0  501  0.00000000000E+00  0.00000000000E+00 -0.28672315665E+04  0.28672315665E+04  0.50400001928E-02 0. -1.
    10030    2    1    2    0    0  0.00000000000E+00  0.00000000000E+00 -0.14770012458E+04  0.42574618872E+04  0.39930500925E+04 0.  0.
        1    1    3    3  502    0  0.86263898672E+03  0.61796890375E+03  0.10646630612E+04  0.15031763108E+04  0.50400001928E-02 0.  1.
       -1    1    3    3    0  502 -0.86263898672E+03 -0.61796890375E+03 -0.25416643069E+04  0.27542855764E+04  0.50400001928E-02 0. -1.
</event>
<event>
 5   0  0.5888700E-08  0.3986987E+04  0.7818609E-02  0.8007177E-01
       -2   -1    0    0    0  501  0.00000000000E+00  0.00000000000E+00  0.34985878251E+04  0.34985878251E+04  0.25500000920E-02 0.  1.
        2   -1    0    0  501    0  0.00000000000E+00  0.00000000000E+00 -0.11358913664E+04  0.11358913664E+04  0.25500000920E-02 0. -1.
    10030    2    1    2    0    0  0.00000000000E+00  0.00000000000E+00  0.23626964586E+04  0.46344791915E+04  0.39869866843E+04 0.  0.
        5    1    3    3  502    0 -0.46053685814E+03 -0.13634258448E+04  0.27848596293E+04  0.31347231898E+04  0.46999998093E+01 0.  1.
       -5    1    3    3    0  502  0.46053685814E+03  0.13634258448E+04 -0.42216317065E+03  0.14997560017E+04  0.46999998093E+01 0. -1.
</event>
<event>
 5   0  0.5951623E-08  0.3969776E+04  0.7818609E-02  0.8010672E-01
       -2   -1    0    0    0  501  0.00000000000E+00  0.00000000000E+00  0.26188952286E+04  0.26188952286E+04  0.25500000920E-02 0.  1.
        2   -1    0    0  501    0  0.00000000000E+00  0.00000000000E+00 -0.15043670438E+04  0.15043670438E+04  0.25500000920E-02 0. -1.
    10030    2    1    2    0    0  0.00000000000E+00  0.00000000000E+00  0.11145281849E+04  0.41232622724E+04  0.39697756476E+04 0.  0.
        2    1    3    3  502    0 -0.29658217820E+03 -0.19187696148E+04  0.12883340358E+03  0.19458252412E+04  0.25500000920E-02 0. -1.
       -2    1    3    3    0  502  0.29658217820E+03  0.19187696148E+04  0.98569478129E+03  0.21774370313E+04  0.25500000920E-02 0.  1.
</event>
<event>
 5   0  0.5945387E-08  0.4015274E+04  0.7818609E-02  0.8001472E-01
       -2   -1    0    0    0  501  0.00000000000E+00  0.00000000000E+00  0.21841844785E+04  0.21841844785E+04  0.25500000920E-02 0. -1.
        2   -1    0    0  501    0  0.00000000000E+00  0.00000000000E+00 -0.18453601921E+04  0.18453601921E+04  0.25500000920E-02 0.  1.
    10030    2    1    2    0    0  0.00000000000E+00  0.00000000000E+00  0.33882428644E+03  0.40295446706E+04  0.40152743810E+04 0.  0.
        3    1    3    3  502    0 -0.16140910747E+04 -0.11803284435E+04  0.34933078244E+03  0.20299007951E+04  0.10100000352E+00 0.  1.
       -3    1    3    3    0  502  0.16140910747E+04  0.11803284435E+04 -0.10506495992E+02  0.19996438755E+04  0.10100000352E+00 0. -1.
</event>
<event>
 5   0  0.1879500E-08  0.3991150E+04  0.7818609E-02  0.8006334E-01
        1   -1    0    0  501    0  0.00000000000E+00  0.00000000000E+00  0.19175352494E+04  0.19175352494E+04  0.50400001928E-02 0.  1.
       -1   -1    0    0    0  501  0.00000000000E+00  0.00000000000E+00 -0.20767907840E+04  0.20767907840E+04  0.50400001928E-02 0. -1.
    10030    2    1    2    0    0  0.00000000000E+00  0.00000000000E+00 -0.15925553453E+03  0.39943260334E+04  0.39911499766E+04 0.  0.
        1    1    3    3  502    0 -0.76172700899E+03  0.12172864973E+04 -0.14664812412E+04  0.20524574743E+04  0.50400001928E-02 0. -1.
       -1    1    3    3    0  502  0.76172700899E+03 -0.12172864973E+04  0.13072257067E+04  0.19418685592E+04  0.50400001928E-02 0.  1.
</event>
<event>
 5   0  0.5945387E-08  0.3995922E+04  0.7818609E-02  0.8005370E-01
       -2   -1    0    0    0  501  0.00000000000E+00  0.00000000000E+00  0.15298400623E+04  0.15298400623E+04  0.25500000920E-02 0.  1.
        2   -1    0    0  501    0  0.00000000000E+00  0.00000000000E+00 -0.26093243940E+04  0.26093243940E+04  0.25500000920E-02 0. -1.
    10030    2    1    2    0    0  0.00000000000E+00  0.00000000000E+00 -0.10794843317E+04  0.41391644563E+04  0.39959224184E+04 0.  0.
        3    1    3    3  502    0  0.57598760616E+03 -0.18021207897E+04  0.12550065011E+03  0.18960884701E+04  0.10100000352E+00 0.  1.
       -3    1    3    3    0  502 -0.57598760616E+03  0.18021207897E+04 -0.12049849818E+04  0.22430759862E+04  0.10100000352E+00 0. -1.
</event>
<event>
 5   0  0.5888700E-08  0.4002471E+04  0.7818609E-02  0.8004048E-01
        2   -1    0    0  501    0  0.00000000000E+00  0.00000000000E+00  0.17125667234E+04  0.17125667234E+04  0.25500000920E-02 0.  1.
       -2   -1    0    0    0  501  0.00000000000E+00  0.00000000000E+00 -0.23385624830E+04  0.23385624830E+04  0.25500000920E-02 0. -1.
    10030    2    1    2    0    0  0.00000000000E+00  0.00000000000E+00 -0.62599575957E+03  0.40511292064E+04  0.40024713811E+04 0.  0.
        5    1    3    3  502    0 -0.52264585495E+03 -0.10895015357E+04 -0.19276181991E+04  0.22750618228E+04  0.46999998093E+01 0. -1.
       -5    1    3    3    0  502  0.52264585495E+03  0.10895015357E+04  0.13016224396E+04  0.17760673836E+04  0.46999998093E+01 0.  1.
</event>
<event>
 5   0  0.1879500E-08  0.4002240E+04  0.7818609E-02  0.8004095E-01
        1   -1    0    0  501    0  0.00000000000E+00  0.00000000000E+00  0.28024881000E+04  0.28024881000E+04  0.50400001928E-02 0.  1.
       -1   -1    0    0    0  501  0.00000000000E+00  0.00000000000E+00 -0.14289018337E+04  0.14289018337E+04  0.50400001928E-02 0. -1.
    10030    2    1    2    0    0  0.00000000000E+00  0.00000000000E+00  0.13735862663E+04  0.42313899337E+04  0.40022395655E+04 0.  0.
        1    1    3    3  502    0 -0.40812505260E+03 -0.47554892478E+03  0.26960703657E+04  0.27679429646E+04  0.50400001928E-02 0.  1.
       -1    1    3    3    0  502  0.40812505260E+03  0.47554892478E+03 -0.13224840993E+04  0.14634469691E+04  0.50400001928E-02 0. -1.
</event>
<event>
 5   0  0.1879500E-08  0.3974700E+04  0.7818609E-02  0.8009670E-01
       -1   -1    0    0    0  501  0.00000000000E+00  0.00000000000E+00  0.30153226402E+04  0.30153226402E+04  0.50400001928E-02 0.  1.
        1   -1    0    0  501    0  0.00000000000E+00  0.00000000000E+00 -0.13098299587E+04  0.13098299587E+04  0.50400001928E-02 0. -1.
    10030    2    1    2    0    0  0.00000000000E+00  0.00000000000E+00  0.17054926815E+04  0.43251525989E+04  0.39746999531E+04 0.  0.
        2    1    3    3  502    0 -0.12307982559E+04 -0.84021378295E+02 -0.84271881471E+03  0.14940210639E+04  0.25500000920E-02 0. -1.
       -2    1    3    3    0  502  0.12307982559E+04  0.84021378295E+02  0.25482114963E+04  0.28311315350E+04  0.25500000920E-02 0.  1.
</event>
<event>
 5   0  0.5846812E-08  0.4047460E+04  0.7818609E-02  0.7995040E-01
       -2   -1    0    0    0  501  0.00000000000E+00  0.00000000000E+00  0.18511955899E+04  0.18511955899E+04  0.25500000920E-02 0. -1.
        2   -1    0    0  501    0  0.00000000000E+00  0.00000000000E+00 -0.22123450450E+04  0.22123450450E+04  0.25500000920E-02 0.  1.
    10030    2    1    2    0    0  0.00000000000E+00  0.00000000000E+00 -0.36114945512E+03  0.40635406349E+04  0.40474601373E+04 0.  0.
        4    1    3    3  502    0  0.15588894243E+04  0.32223141040E+03  0.10739948549E+04  0.19202697415E+04  0.12699999809E+01 0. -1.
       -4    1    3    3    0  502 -0.15588894243E+04 -0.32223141040E+03 -0.14351443100E+04  0.21432708934E+04  0.12699999809E+01 0.  1.
</event>
<event>
 5   0  0.5846812E-08  0.3986431E+04  0.7818609E-02  0.8007289E-01
        2   -1    0    0  501    0  0.00000000000E+00  0.00000000000E+00  0.27820360202E+04  0.27820360202E+04  0.25500000920E-02 0. -1.
       -2   -1    0    0    0  501  0.00000000000E+00  0.00000000000E+00 -0.14280580150E+04  0.14280580151E+04  0.25500000920E-02 0.  1.
    10030    2    1    2    0    0  0.00000000000E+00  0.00000000000E+00  0.13539780052E+04  0.42100940353E+04  0.39864314051E+04 0.  0.
        4    1    3    3  502    0 -0.15126641606E+04  0.12467263683E+04  0.29557866655E+03  0.19823843879E+04  0.12699999809E+01 0.  1.
       -4    1    3    3    0  502  0.15126641606E+04 -0.12467263683E+04  0.10583993386E+04  0.22277096474E+04  0.12699999809E+01 0. -1.
</event>
<event>
 5   0  0.5951623E-08  0.3999917E+04  0.7818609E-02  0.8004563E-01
        2   -1    0    0  501    0  0.00000000000E+00  0.00000000000E+00  0.21707110648E+04  0.21707110648E+04  0.25500000920E-02 0.  1.
       -2   -1    0    0    0  501  0.00000000000E+00  0.00000000000E+00 -0.18426376964E+04  0.18426376964E+04  0.25500000920E-02 0. -1.
    10030    2    1    2    0    0  0.00000000000E+00  0.00000000000E+00  0.32807336835E+03  0.40133487612E+04  0.39999170171E+04 0.  0.
        2    1    3    3  502    0 -0.13863412513E+03  0.15364193243E+04  0.14411148669E+04  0.21110698284E+04  0.25500000920E-02 0.  1.
       -2    1    3    3    0  502  0.13863412513E+03 -0.15364193243E+04 -0.11130414986E+04  0.19022789328E+04  0.25500000920E-02 0. -1.
</event>
<event>
 5   0  0.6161563E-08  0.3998921E+04  0.7818609E-02  0.8004764E-01
       -2   -1    0    0    0  501  0.00000000000E+00  0.00000000000E+00  0.29603124502E+04  0.29603124502E+04  0.25500000920E-02 0. -1.
        2   -1    0    0  501    0  0.00000000000E+00  0.00000000000E+00 -0.13504796181E+04  0.13504796181E+04  0.25500000920E-02 0.  1.
    10030    2    1    2    0    0  0.00000000000E+00  0.00000000000E+00  0.16098328322E+04  0.43107920683E+04  0.39989206679E+04 0.  0.
        1    1    3    3  502    0  0.54315178448E+03  0.13755778867E+04  0.22554478108E+04  0.26970860591E+04  0.50400001928E-02 0. -1.
       -1    1    3    3    0  502 -0.54315178448E+03 -0.13755778867E+04 -0.64561497862E+03  0.16137060091E+04  0.50400001928E-02 0.  1.
</event>
<event>
 5   0  0.5846812E-08  0.3903908E+04  0.7818609E-02  0.8024217E-01
       -2   -1    0    0    0  501  0.00000000000E+00  0.00000000000E+00  0.15242443401E+04  0.15242443401E+04  0.25500000920E-02 0. -1.
        2   -1    0    0  501    0  0.00000000000E+00  0.00000000000E+00 -0.24996809941E+04  0.24996809941E+04  0.25500000920E-02 0.  1.
    10030    2    1    2    0    0  0.00000000000E+00  0.00000000000E+00 -0.97543665405E+03  0.40239253342E+04  0.39039080969E+04 0.  0.
        4    1    3    3  502    0  0.36223122813E+03  0.15830897392E+04  0.62850450840E+03  0.17413799457E+04  0.12699999809E+01 0. -1.
       -4    1    3    3    0  502 -0.36223122813E+03 -0.15830897392E+04 -0.16039411625E+04  0.22825453885E+04  0.12699999809E+01 0.  1.
</event>
<event>
 5   0  0.5945387E-08  0.4027282E+04  0.7818609E-02  0.7999065E-01
       -2   -1    0    0    0  501  0.00000000000E+00  0.00000000000E+00  0.25730323200E+04  0.25730323200E+04  0.25500000920E-02 0. -1.
        2   -1    0    0  501    0  0.00000000000E+00  0.00000000000E+00 -0.15758644488E+04  0.15758644488E+04  0.25500000920E-02 0.  1.
    10030    2    1    2    0    0  0.00000000000E+00  0.00000000000E+00  0.99716787118E+03  0.41488967688E+04  0.40272820406E+04 0.  0.
        3    1    3    3  502    0  0.14381087720E+04 -0.11331427837E+04  0.13620965847E+04  0.22819895979E+04  0.10100000352E+00 0. -1.
       -3    1    3    3    0  502 -0.14381087720E+04  0.11331427837E+04 -0.36492871354E+03  0.18669071709E+04  0.10100000352E+00 0.  1.
</event>
<event>
 5   0  0.1879500E-08  0.4012000E+04  0.7818609E-02  0.8002130E-01
        1   -1    0    0  501    0  0.00000000000E+00  0.00000000000E+00  0.20617661950E+04  0.20617661950E+04  0.50400001928E-02 0.  1.
       -1   -1    0    0    0  501  0.00000000000E+00  0.00000000000E+00 -0.19517420020E+04  0.19517420020E+04  0.50400001928E-02 0. -1.
    10030    2    1    2    0    0  0.00000000000E+00  0.00000000000E+00  0.11002419298E+03  0.40135081970E+04  0.40119998410E+04 0.  0.
        3    1    3    3  502    0  0.50048150421E+03  0.18620883000E+04  0.60855646279E+03  0.20219286713E+04  0.10100000352E+00 0. -1.
       -3    1    3    3    0  502 -0.50048150421E+03 -0.18620883000E+04 -0.49853226981E+03  0.19915795257E+04  0.10100000352E+00 0.  1.
</event>
<event>
 5   0  0.1879500E-08  0.3959777E+04  0.7818609E-02  0.8012710E-01
       -1   -1    0    0    0  501  0.00000000000E+00  0.00000000000E+00  0.29750256149E+04  0.29750256149E+04  0.50400001928E-02 0.  1.
        1   -1    0    0  501    0  0.00000000000E+00  0.00000000000E+00 -0.13176220144E+04  0.13176220145E+04  0.50400001928E-02 0. -1.
    10030    2    1    2    0    0  0.00000000000E+00  0.00000000000E+00  0.16574036005E+04  0.42926476294E+04  0.39597773896E+04 0.  0.
        3    1    3    3  502    0 -0.29954085823E+03 -0.10663533139E+04 -0.95032599605E+03  0.14594360639E+04  0.10100000352E+00 0. -1.
       -3    1    3    3    0  502  0.29954085823E+03  0.10663533139E+04  0.26077295965E+04  0.28332115654E+04  0.10100000352E+00 0.  1.
</event>
<event>
 5   0  0.1879500E-08  0.3988364E+04  0.7818609E-02  0.8006898E-01
        1   -1    0    0  501    0  0.00000000000E+00  0.00000000000E+00  0.21509292063E+04  0.21509292063E+04  0.50400001928E-02 0.  1.
       -1   -1    0    0    0  501  0.00000000000E+00  0.00000000000E+00 -0.18488572450E+04  0.18488572450E+04  0.50400001928E-02 0. -1.
    10030    2    1    2    0    0  0.00000000000E+00  0.00000000000E+00  0.30207196134E+03  0.39997864514E+04  0.39883635976E+04 0.  0.
        4    1    3    3  502    0  0.73155584265E+03 -0.14641120729E+04  0.12935799876E+04  0.20861804596E+04  0.12699999809E+01 0.  1.
       -4    1    3    3    0  502 -0.73155584265E+03  0.14641120729E+04 -0.99150802622E+03  0.19136059918E+04  0.12699999809E+01 0. -1.
</event>
<event>
 5   0  0.1879500E-08  0.4001989E+04  0.7818609E-02  0.8004145E-01
       -1   -1    0    0    0  501  0.00000000000E+00  0.00000000000E+00  0.13080938953E+04  0.13080938953E+04  0.50400001928E-02 0. -1.
        1   -1    0    0  501    0  0.00000000000E+00  0.00000000000E+00 -0.30609261150E+04  0.30609261150E+04  0.50400001928E-02 0.  1.
    10030    2    1    2    0    0  0.00000000000E+00  0.00000000000E+00 -0.17528322197E+04  0.43690200104E+04  0.40019888881E+04 0.  0.
        1    1    3    3  502    0  0.15221994562E+04  0.12976749583E+04 -0.93548251064E+03  0.22082071936E+04  0.50400001928E-02 0.  1.
       -1    1    3    3    0  502 -0.15221994562E+04 -0.12976749583E+04 -0.81734970910E+03  0.21608128168E+04  0.50400001928E-02 0. -1.
</event>
<event>
 5   0  0.6161563E-08  0.4001445E+04  0.7818609E-02  0.8004255E-01
        2   -1    0    0  501    0  0.00000000000E+00  0.00000000000E+00  0.22174634112E+04  0.22174634112E+04  0.25500000920E-02 0.  1.
       -2   -1    0    0    0  501  0.00000000000E+00  0.00000000000E+00 -0.18051666249E+04  0.18051666249E+04  0.25500000920E-02 0. -1.
    10030    2    1    2    0    0  0.00000000000E+00  0.00000000000E+00  0.41229678623E+03  0.40226300361E+04  0.40014452099E+04 0.  0.
        1    1    3    3  502    0  0.19106598791E+02  0.85516044266E+02 -0.18032367195E+04  0.18053644293E+04  0.50400001928E-02 0. -1.
       -1    1    3    3    0  502 -0.19106598791E+02 -0.85516044266E+02  0.22155335058E+04  0.22172656068E+04  0.50400001928E-02 0.  1.
</event>
<event>
 5   0  0.5846812E-08  0.3989448E+04  0.7818609E-02  0.8006679E-01
       -2   -1    0    0    0  501  0.00000000000E+00  0.00000000000E+00  0.16049319282E+04  0.16049319282E+04  0.25500000920E-02 0.  1.
        2   -1    0    0  501    0  0.00000000000E+00  0.00000000000E+00 -0.24791850119E+04  0.24791850119E+04  0.25500000920E-02 0. -1.
    10030    2    1    2    0    0  0.00000000000E+00  0.00000000000E+00 -0.87425308368E+03  0.40841169401E+04  0.39894476719E+04 0.  0.
        4    1    3    3  502    0 -0.12974130031E+04  0.27213409631E+03 -0.19629938740E+04  0.23686882508E+04  0.12699999809E+01 0. -1.
       -4    1    3    3    0  502  0.12974130031E+04 -0.27213409631E+03  0.10887407903E+04  0.17154286894E+04  0.12699999809E+01 0.  1.
</event>
<event>
 5   0  0.5951623E-08  0.4005824E+04  0.7818609E-02  0.8003373E-01
        2   -1    0    0  501    0  0.00000000000E+00  0.00000000000E+00  0.19986006280E+04  0.19986006280E+04  0.25500000920E-02 0.  1.
       -2   -1    0    0    0  501  0.00000000000E+00  0.00000000000E+00 -0.20072330657E+04  0.20072330657E+04  0.25500000920E-02 0. -1.
    10030    2    1    2    0    0  0.00000000000E+00  0.00000000000E+00 -0.86324376169E+01  0.40058336937E+04  0.40058243924E+04 0.  0.
        2    1    3    3  502    0  0.78416594077E+03  0.16182048134E+04 -0.88644877040E+03  0.20048178130E+04  0.25500000920E-02 0. -1.
       -2    1    3    3    0  502 -0.78416594077E+03 -0.16182048134E+04  0.87781633278E+03  0.20010158807E+04  0.25500000920E-02 0.  1.
</event>
<event>
 5   0  0.1879500E-08  0.4067190E+04  0.7818609E-02  0.7991128E-01
        3   -1    0    0  501    0  0.00000000000E+00  0.00000000000E+00  0.14961524161E+04  0.14961524196E+04  0.10100000352E+00 0.  1.
       -3   -1    0    0    0  501  0.00000000000E+00  0.00000000000E+00 -0.27640958758E+04  0.27640958777E+04  0.10100000352E+00 0. -1.
    10030    2    1    2    0    0  0.00000000000E+00  0.00000000000E+00 -0.12679434597E+04  0.42602482972E+04  0.40671900542E+04 0.  0.
        5    1    3    3  502    0 -0.17055374939E+04  0.78246722742E+03  0.18705386463E+03  0.18857688998E+04  0.46999998093E+01 0.  1.
       -5    1    3    3    0  502  0.17055374939E+04 -0.78246722742E+03 -0.14549973243E+04  0.23744793974E+04  0.46999998093E+01 0. -1.
</event>
<event>
 5   0  0.1879500E-08  0.3993888E+04  0.7818609E-02  0.8005781E-01
       -1   -1    0    0    0  501  0.00000000000E+00  0.00000000000E+00  0.16272491397E+04  0.16272491397E+04  0.50400001928E-02 0. -1.
        1   -1    0    0  501    0  0.00000000000E+00  0.00000000000E+00 -0.24506299320E+04  0.24506299320E+04  0.50400001928E-02 0.  1.
    10030    2    1    2    0    0  0.00000000000E+00  0.00000000000E+00 -0.82338079233E+03  0.40778790718E+04  0.39938880549E+04 0.  0.
        3    1    3    3  502    0  0.74429951935E+03  0.81556430701E+03 -0.21106112703E+04  0.23819754109E+04  0.10100000352E+00 0.  1.
       -3    1    3    3    0  502 -0.74429951935E+03 -0.81556430701E+03  0.12872304780E+04  0.16959036609E+04  0.10100000352E+00 0. -1.
</event>
<event>
 5   0  0.6161563E-08  0.3996814E+04  0.7818609E-02  0.8005189E-01
        2   -1    0    0  501    0  0.00000000000E+00  0.00000000000E+00  0.25880035336E+04  0.25880035336E+04  0.25500000920E-02 0. -1.
       -2   -1    0    0    0  501  0.00000000000E+00  0.00000000000E+00 -0.15431321161E+04  0.15431321161E+04  0.25500000920E-02 0.  1.
    10030    2    1    2    0    0  0.00000000000E+00  0.00000000000E+00  0.10448714175E+04  0.41311356497E+04  0.39968144161E+04 0.  0.
        1    1    3    3  502    0 -0.14451589691E+04 -0.24712106026E+02  0.19488644879E+04  0.24263486819E+04  0.50400001928E-02 0. -1.
       -1    1    3    3    0  502  0.14451589691E+04  0.24712106026E+02 -0.90399307045E+03  0.17047869678E+04  0.50400001928E-02 0.  1.
</event>
<event>
 5   0  0.1879500E-08  0.3995321E+04  0.7818609E-02  0.8005491E-01
       -1   -1    0    0    0  501  0.00000000000E+00  0.00000000000E+00  0.23986494763E+04  0.23986494763E+04  0.50400001928E-02 0.  1.
        1   -1    0    0  501    0  0.00000000000E+00  0.00000000000E+00 -0.16637058491E+04  0.16637058491E+04  0.50400001928E-02 0. -1.
    10030    2    1    2    0    0  0.00000000000E+00  0.00000000000E+00  0.73494362725E+03  0.40623553254E+04  0.39953208450E+04 0.  0.
        4    1    3    3  502    0 -0.94422272212E+03 -0.10338401255E+04 -0.10813082469E+04  0.17690706859E+04  0.12699999809E+01 0. -1.
       -4    1    3    3    0  502  0.94422272212E+03  0.10338401255E+04  0.18162518742E+04  0.22932846394E+04  0.12699999809E+01 0.  1.
</event>
<event>
 5   0  0.1879500E-08  0.3809763E+04  0.7818609E-02  0.8044063E-01
       -1   -1    0    0    0  501  0.00000000000E+00  0.00000000000E+00  0.23436038521E+04  0.23436038521E+04  0.50400001928E-02 0. -1.
        1   -1    0    0  501    0  0.00000000000E+00  0.00000000000E+00 -0.15482879674E+04  0.15482879674E+04  0.50400001928E-02 0.  1.
    10030    2    1    2    0    0  0.00000000000E+00  0.00000000000E+00  0.79531588473E+03  0.38918918195E+04  0.38097630606E+04 0.  0.
        3    1    3    3  502    0 -0.22422468886E+03 -0.33081752832E+03 -0.15049792069E+04  0.15571381993E+04  0.10100000352E+00 0.  1.
       -3    1    3    3    0  502  0.22422468886E+03  0.33081752832E+03  0.23002950916E+04  0.23347536202E+04  0.10100000352E+00 0. -1.
</event>
<event>
 5   0  0.1879500E-08  0.4033926E+04  0.7818609E-02  0.7997737E-01
        1   -1    0    0  501    0  0.00000000000E+00  0.00000000000E+00  0.28364564132E+04  0.28364564133E+04  0.50400001928E-02 0.  1.
       -1   -1    0    0    0  501  0.00000000000E+00  0.00000000000E+00 -0.14342333836E+04  0.14342333836E+04  0.50400001928E-02 0. -1.
    10030    2    1    2    0    0  0.00000000000E+00  0.00000000000E+00  0.14022230297E+04  0.42706897968E+04  0.40339263647E+04 0.  0.
        1    1    3    3  502    0 -0.62275291468E+03 -0.13353975244E+04  0.21592792151E+04  0.26141144714E+04  0.50400001928E-02 0.  1.
       -1    1    3    3    0  502  0.62275291468E+03  0.13353975244E+04 -0.75705618540E+03  0.16565753254E+04  0.50400001928E-02 0. -1.
</event>
<event>
 5   0  0.1879500E-08  0.4001983E+04  0.7818609E-02  0.8004147E-01
       -3   -1    0    0    0  501  0.00000000000E+00  0.00000000000E+00  0.24426123815E+04  0.24426123836E+04  0.10100000352E+00 0. -1.
        3   -1    0    0  501    0  0.00000000000E+00  0.00000000000E+00 -0.16392147154E+04  0.16392147185E+04  0.10100000352E+00 0.  1.
    10030    2    1    2    0    0  0.00000000000E+00  0.00000000000E+00  0.80339766611E+03  0.40818271021E+04  0.40019825939E+04 0.  0.
        3    1    3    3  502    0 -0.47752284526E+03  0.14708339451E+04 -0.89351298366E+03  0.17859860089E+04  0.10100000352E+00 0.  1.
       -3    1    3    3    0  502  0.47752284526E+03 -0.14708339451E+04  0.16969106498E+04  0.22958410932E+04  0.10100000352E+00 0. -1.
</event>
<event>
 5   0  0.1879500E-08  0.3999663E+04  0.7818609E-02  0.8004615E-01
        1   -1    0    0  501    0  0.00000000000E+00  0.00000000000E+00  0.11853893731E+04  0.11853893731E+04  0.50400001928E-02 0.  1.
       -1   -1    0    0    0  501  0.00000000000E+00  0.00000000000E+00 -0.33738493164E+04  0.33738493164E+04  0.50400001928E-02 0. -1.
    10030    2    1    2    0    0  0.00000000000E+00  0.00000000000E+00 -0.21884599433E+04  0.45592386896E+04  0.39996625489E+04 0.  0.
        3    1    3    3  502    0  0.77711766211E+03 -0.77293779375E+03  0.81250930920E+03  0.13643738789E+04  0.10100000352E+00 0.  1.
       -3    1    3    3    0  502 -0.77711766211E+03  0.77293779375E+03 -0.30009692525E+04  0.31948648106E+04  0.10100000352E+00 0. -1.
</event>
<event>
 5   0  0.5846812E-08  0.3983121E+04  0.7818609E-02  0.8007960E-01
       -2   -1    0    0    0  501  0.00000000000E+00  0.00000000000E+00  0.14197386527E+04  0.14197386527E+04  0.25500000920E-02 0.  1.
        2   -1    0    0  501    0  0.00000000000E+00  0.00000000000E+00 -0.27936924172E+04  0.27936924172E+04  0.25500000920E-02 0. -1.
    10030    2    1    2    0    0  0.00000000000E+00  0.00000000000E+00 -0.13739537645E+04  0.42134310699E+04  0.39831209414E+04 0.  0.
        4    1    3    3  502    0 -0.19413167611E+04 -0.35903176286E+03 -0.40972082701E+03  0.20163053694E+04  0.12699999809E+01 0.  1.
       -4    1    3    3    0  502  0.19413167611E+04  0.35903176286E+03 -0.96423293752E+03  0.21971257006E+04  0.12699999809E+01 0. -1.
</event>
<event>
 5   0  0.6161563E-08  0.3996812E+04  0.7818609E-02  0.8005190E-01
        2   -1    0    0  501    0  0.00000000000E+00  0.00000000000E+00  0.26104515580E+04  0.26104515580E+04  0.25500000920E-02 0. -1.
       -2   -1    0    0    0  501  0.00000000000E+00  0.00000000000E+00 -0.15298600700E+04  0.15298600700E+04  0.25500000920E-02 0.  1.
    10030    2    1    2    0    0  0.00000000000E+00  0.00000000000E+00  0.10805914879E+04  0.41403116280E+04  0.39968115308E+04 0.  0.
        1    1    3    3  502    0  0.10912220908E+04  0.46579204909E+03  0.22061040843E+04  0.25049197822E+04  0.50400001928E-02 0. -1.
       -1    1    3    3    0  502 -0.10912220908E+04 -0.46579204909E+03 -0.11255125964E+04  0.16353918458E+04  0.50400001928E-02 0.  1.
</event>
<event>
 5   0  0.1879500E-08  0.4016675E+04  0.7818609E-02  0.8001191E-01
       -1   -1    0    0    0  501  0.00000000000E+00  0.00000000000E+00  0.11666221821E+04  0.11666221821E+04  0.50400001928E-02 0.  1.
        1   -1    0    0  501    0  0.00000000000E+00  0.00000000000E+00 -0.34573493844E+04  0.34573493844E+04  0.50400001928E-02 0. -1.
    10030    2    1    2    0    0  0.00000000000E+00  0.00000000000E+00 -0.22907272024E+04  0.46239715665E+04  0.40166754825E+04 0.  0.
        4    1    3    3  502    0  0.23800275940E+03  0.45977389689E+03 -0.33792079198E+04  0.34186379053E+04  0.12699999809E+01 0. -1.
       -4    1    3    3    0  502 -0.23800275940E+03 -0.45977389689E+03  0.10884807174E+04  0.12053336612E+04  0.12699999809E+01 0.  1.
</event>
<event>
 5   0  0.5888700E-08  0.3987833E+04  0.7818609E-02  0.8007006E-01
       -2   -1    0    0    0  501  0.00000000000E+00  0.00000000000E+00  0.18504590536E+04  0.18504590536E+04  0.25500000920E-02 0.  1.
        2   -1    0    0  501    0  0.00000000000E+00  0.00000000000E+00 -0.21484952379E+04  0.21484952379E+04  0.25500000920E-02 0. -1.
    10030    2    1    2    0    0  0.00000000000E+00  0.00000000000E+00 -0.29803618427E+03  0.39989542915E+04  0.39878327270E+04 0.  0.
        5    1    3    3  502    0  0.19515024933E+04 -0.39417525583E+03 -0.39423493564E+02  0.19913092214E+04  0.46999998093E+01 0.  1.
       -5    1    3    3    0  502 -0.19515024933E+04  0.39417525583E+03 -0.25861269071E+03  0.20076450701E+04  0.46999998093E+01 0. -1.
</event>
<event>
 5   0  0.1879500E-08  0.3999301E+04  0.7818609E-02  0.8004688E-01
       -1   -1    0    0    0  501  0.00000000000E+00  0.00000000000E+00  0.18688623269E+04  0.18688623269E+04  0.50400001928E-02 0.  1.
        1   -1    0    0  501    0  0.00000000000E+00  0.00000000000E+00 -0.21395912070E+04  0.21395912070E+04  0.50400001928E-02 0. -1.
    10030    2    1    2    0    0  0.00000000000E+00  0.00000000000E+00 -0.27072888012E+03  0.40084535339E+04  0.39993006397E+04 0.  0.
        4    1    3    3  502    0 -0.18640579349E+04 -0.66296153674E+03  0.15576513272E+03  0.19845640260E+04  0.12699999809E+01 0. -1.
       -4    1    3    3    0  502  0.18640579349E+04  0.66296153674E+03 -0.42649401284E+03  0.20238895078E+04  0.12699999809E+01 0.  1.
</event>
<event>
 5   0  0.1879500E-08  0.4003060E+04  0.7818609E-02  0.8003930E-01
       -1   -1    0    0    0  501  0.00000000000E+00  0.00000000000E+00  0.14050345767E+04  0.14050345767E+04  0.50400001928E-02 0.  1.
        1   -1    0    0  501    0  0.00000000000E+00  0.00000000000E+00 -0.28512623163E+04  0.28512623163E+04  0.50400001928E-02 0. -1.
    10030    2    1    2    0    0  0.00000000000E+00  0.00000000000E+00 -0.14462277396E+04  0.42562968930E+04  0.40030599005E+04 0.  0.
        1    1    3    3  502    0 -0.10716940418E+04 -0.34403507116E+03  0.10366499460E+04  0.15302063129E+04  0.50400001928E-02 0.  1.
       -1    1    3    3    0  502  0.10716940418E+04  0.34403507116E+03 -0.24828776856E+04  0.27260905801E+04  0.50400001928E-02 0. -1.
</event>
<event>
 5   0  0.1879500E-08  0.3999734E+04  0.7818609E-02  0.8004600E-01
        1   -1    0    0  501    0  0.00000000000E+00  0.00000000000E+00  0.20397202618E+04  0.20397202618E+04  0.50400001928E-02 0.  1.
       -1   -1    0    0    0  501  0.00000000000E+00  0.00000000000E+00 -0.19607928335E+04  0.19607928336E+04  0.50400001928E-02 0. -1.
    10030    2    1    2    0    0  0.00000000000E+00  0.00000000000E+00  0.78927428251E+02  0.40005130954E+04  0.39997344271E+04 0.  0.
        3    1    3    3  502    0  0.95260521188E+03 -0.16100172422E+03 -0.17119027655E+04  0.19657032669E+04  0.10100000352E+00 0. -1.
       -3    1    3    3    0  502 -0.95260521188E+03  0.16100172422E+03  0.17908301937E+04  0.20348098284E+04  0.10100000352E+00 0.  1.
</event>
<event>
 5   0  0.1879500E-08  0.4011434E+04  0.7818609E-02  0.8002244E-01
       -1   -1    0    0    0  501  0.00000000000E+00  0.00000000000E+00  0.17005023768E+04  0.17005023768E+04  0.50400001928E-02 0. -1.
        1   -1    0    0  501    0  0.00000000000E+00  0.00000000000E+00 -0.23657133263E+04  0.23657133263E+04  0.50400001928E-02 0.  1.
    10030    2    1    2    0    0  0.00000000000E+00  0.00000000000E+00 -0.66521094955E+03  0.40662157031E+04  0.40114342244E+04 0.  0.
        3    1    3    3  502    0 -0.12534240967E+04 -0.81763117271E+03  0.10210369842E+04  0.18116592489E+04  0.10100000352E+00 0. -1.
       -3    1    3    3    0  502  0.12534240967E+04  0.81763117271E+03 -0.16862479337E+04  0.22545564542E+04  0.10100000352E+00 0.  1.
</event>
<event>
 5   0  0.5888700E-08  0.4004884E+04  0.7818609E-02  0.8003562E-01
        2   -1    0    0  501    0  0.00000000000E+00  0.00000000000E+00  0.17601082489E+04  0.17601082489E+04  0.25500000920E-02 0. -1.
       -2   -1    0    0    0  501  0.00000000000E+00  0.00000000000E+00 -0.22781410109E+04  0.22781410109E+04  0.25500000920E-02 0.  1.
    10030    2    1    2    0    0  0.00000000000E+00  0.00000000000E+00 -0.51803276199E+03  0.40382492598E+04  0.40048844106E+04 0.  0.
        5    1    3    3  502    0  0.53313759074E+03 -0.96385867678E+03 -0.19452200886E+04  0.22354334082E+04  0.46999998093E+01 0.  1.
       -5    1    3    3    0  502 -0.53313759074E+03  0.96385867678E+03  0.14271873266E+04  0.18028158516E+04  0.46999998093E+01 0. -1.
</event>
<event>
 5   0  0.6161563E-08  0.4005369E+04  0.7818609E-02  0.8003464E-01
       -2   -1    0    0    0  501  0.00000000000E+00  0.00000000000E+00  0.15004435805E+04  0.15004435805E+04  0.25500000920E-02 0.  1.
        2   -1    0    0  501    0  0.00000000000E+00  0.00000000000E+00 -0.26730397145E+04  0.26730397145E+04  0.25500000920E-02 0. -1.
    10030    2    1    2    0    0  0.00000000000E+00  0.00000000000E+00 -0.11725961340E+04  0.41734832950E+04  0.40053690367E+04 0.  0.
        1    1    3    3  502    0 -0.79907461353E+03 -0.14499180165E+04  0.58792779408E+03  0.17568271354E+04  0.50400001928E-02 0.  1.
       -1    1    3    3    0  502  0.79907461353E+03  0.14499180165E+04 -0.17605239280E+04  0.24166561596E+04  0.50400001928E-02 0. -1.
</event>
<event>
 5   0  0.1879500E-08  0.3986708E+04  0.7818609E-02  0.8007233E-01
       -1   -1    0    0    0  501  0.00000000000E+00  0.00000000000E+00  0.17236710431E+04  0.17236710431E+04  0.50400001928E-02 0.  1.
        1   -1    0    0  501    0  0.00000000000E+00  0.00000000000E+00 -0.23052309757E+04  0.23052309757E+04  0.50400001928E-02 0. -1.
    10030    2    1    2    0    0  0.00000000000E+00  0.00000000000E+00 -0.58155993258E+03  0.40289020189E+04  0.39867078552E+04 0.  0.
        4    1    3    3  502    0  0.53508046398E+02 -0.19925726923E+04 -0.27482610417E+03  0.20121481172E+04  0.12699999809E+01 0.  1.
       -4    1    3    3    0  502 -0.53508046398E+02  0.19925726923E+04 -0.30673382842E+03  0.20167539016E+04  0.12699999809E+01 0. -1.
</event>
<event>
 5   0  0.1879500E-08  0.4008652E+04  0.7818609E-02  0.8002803E-01
        1   -1    0    0  501    0  0.00000000000E+00  0.00000000000E+00  0.14521074718E+04  0.14521074718E+04  0.50400001928E-02 0.  1.
       -1   -1    0    0    0  501  0.00000000000E+00  0.00000000000E+00 -0.27665464450E+04  0.27665464450E+04  0.50400001928E-02 0. -1.
    10030    2    1    2    0    0  0.00000000000E+00  0.00000000000E+00 -0.13144389732E+04  0.42186539168E+04  0.40086520248E+04 0.  0.
        3    1    3    3  502    0  0.97582227115E+03  0.61158341662E+03  0.10691636307E+04  0.15714242774E+04  0.10100000352E+00 0.  1.
       -3    1    3    3    0  502 -0.97582227115E+03 -0.61158341662E+03 -0.23836026039E+04  0.26472296394E+04  0.10100000352E+00 0. -1.
</event>
<event>
 5   0  0.5888700E-08  0.4023145E+04  0.7818609E-02  0.7999894E-01
       -2   -1    0    0    0  501  0.00000000000E+00  0.00000000000E+00  0.16920206457E+04  0.16920206457E+04  0.25500000920E-02 0.  1.
        2   -1    0    0  501    0  0.00000000000E+00  0.00000000000E+00 -0.23914741110E+04  0.23914741110E+04  0.25500000920E-02 0. -1.
    10030    2    1    2    0    0  0.00000000000E+00  0.00000000000E+00 -0.69945346530E+03  0.40834947566E+04  0.40231448243E+04 0.  0.
        5    1    3    3  502    0  0.18448295100E+03  0.46411602808E+03 -0.23275367215E+04  0.23805224063E+04  0.46999998093E+01 0. -1.
       -5    1    3    3    0  502 -0.18448295100E+03 -0.46411602808E+03  0.16280832562E+04  0.17029723503E+04  0.46999998093E+01 0.  1.
</event>
<event>
 5   0  0.1879500E-08  0.3990424E+04  0.7818609E-02  0.8006481E-01
       -1   -1    0    0    0  501  0.00000000000E+00  0.00000000000E+00  0.20328863851E+04  0.20328863851E+04  0.50400001928E-02 0. -1.
        1   -1    0    0  501    0  0.00000000000E+00  0.00000000000E+00 -0.19582360268E+04  0.19582360268E+04  0.50400001928E-02 0.  1.
    10030    2    1    2    0    0  0.00000000000E+00  0.00000000000E+00  0.74650358332E+02  0.39911224120E+04  0.39904242170E+04 0.  0.
        5    1    3    3  502    0  0.34393854340E+03  0.65428958479E+03 -0.18162288744E+04  0.19608921430E+04  0.46999998093E+01 0.  1.
       -5    1    3    3    0  502 -0.34393854340E+03 -0.65428958479E+03  0.18908792327E+04  0.20302302690E+04  0.46999998093E+01 0. -1.
</event>
<event>
 5   0  0.1879500E-08  0.3994118E+04  0.7818609E-02  0.8005734E-01
       -1   -1    0    0    0  501  0.00000000000E+00  0.00000000000E+00  0.27633129041E+04  0.27633129041E+04  0.50400001928E-02 0.  1.
        1   -1    0    0  501    0  0.00000000000E+00  0.00000000000E+00 -0.14432835746E+04  0.14432835747E+04  0.50400001928E-02 0. -1.
    10030    2    1    2    0    0  0.00000000000E+00  0.00000000000E+00  0.13200293294E+04  0.42065964788E+04  0.39941177379E+04 0.  0.
        3    1    3    3  502    0  0.15301122709E+04 -0.11624827045E+04  0.12326624165E+04  0.22829950160E+04  0.10100000352E+00 0. -1.
       -3    1    3    3    0  502 -0.15301122709E+04  0.11624827045E+04  0.87366912926E+02  0.19236014627E+04  0.10100000352E+00 0.  1.
</event>
<event>
 5   0  0.5846812E-08  0.3885632E+04  0.7818609E-02  0.8028024E-01
        2   -1    0    0  501    0  0.00000000000E+00  0.00000000000E+00  0.26582653071E+04  0.26582653071E+04  0.25500000920E-02 0. -1.
       -2   -1    0    0    0  501  0.00000000000E+00  0.00000000000E+00 -0.14199236143E+04  0.14199236143E+04  0.25500000920E-02 0.  1.
    10030    2    1    2    0    0  0.00000000000E+00  0.00000000000E+00  0.12383416928E+04  0.40781889214E+04  0.38856318315E+04 0.  0.
        4    1    3    3  502    0 -0.18236239300E+04  0.23631711387E+02  0.13219577542E+04  0.22524956409E+04  0.12699999809E+01 0.  1.
       -4    1    3    3    0  502  0.18236239300E+04 -0.23631711387E+02 -0.83616061342E+02  0.18256932805E+04  0.12699999809E+01 0. -1.
</event>
<event>
 5   0  0.5951623E-08  0.3999252E+04  0.7818609E-02  0.8004698E-01
       -2   -1    0    0    0  501  0.00000000000E+00  0.00000000000E+00  0.15691390246E+04  0.15691390246E+04  0.25500000920E-02 0.  1.
        2   -1    0    0  501    0  0.00000000000E+00  0.00000000000E+00 -0.25482150270E+04  0.25482150270E+04  0.25500000920E-02 0. -1.
    10030    2    1    2    0    0  0.00000000000E+00  0.00000000000E+00 -0.97907600242E+03  0.41173540515E+04  0.39992517509E+04 0.  0.
        2    1    3    3  502    0 -0.16016813437E+04  0.84953846648E+03  0.37881817748E+03  0.18521884203E+04  0.25500000920E-02 0.  1.
       -2    1    3    3    0  502  0.16016813437E+04 -0.84953846648E+03 -0.13578941799E+04  0.22651656312E+04  0.25500000920E-02 0. -1.
</event>
<event>
 5   0  0.1879500E-08  0.4001246E+04  0.7818609E-02  0.8004295E-01
       -1   -1    0    0    0  501  0.00000000000E+00  0.00000000000E+00  0.20621003734E+04  0.20621003734E+04  0.50400001928E-02 0. -1.
        1   -1    0    0  501    0  0.00000000000E+00  0.00000000000E+00 -0.19409787054E+04  0.19409787054E+04  0.50400001928E-02 0.  1.
    10030    2    1    2    0    0  0.00000000000E+00  0.00000000000E+00  0.12112166798E+03  0.40030790788E+04  0.40012462625E+04 0.  0.
        2    1    3    3  502    0 -0.16757859730E+04 -0.52161929293E+03 -0.90016420111E+03  0.19724707610E+04  0.25500000920E-02 0.  1.
       -2    1    3    3    0  502  0.16757859730E+04  0.52161929293E+03  0.10212858691E+04  0.20306083178E+04  0.25500000920E-02 0. -1.
</event>
<event>
 5   0  0.5951623E-08  0.4001712E+04  0.7818609E-02  0.8004201E-01
       -2   -1    0    0    0  501  0.00000000000E+00  0.00000000000E+00  0.14863310762E+04  0.14863310762E+04  0.25500000920E-02 0. -1.
        2   -1    0    0  501    0  0.00000000000E+00  0.00000000000E+00 -0.26934949080E+04  0.26934949080E+04  0.25500000920E-02 0.  1.
    10030    2    1    2    0    0  0.00000000000E+00  0.00000000000E+00 -0.12071638318E+04  0.41798259842E+04  0.40017122263E+04 0.  0.
        2    1    3    3  502    0  0.94724693501E+03  0.16842462606E+04 -0.61378951308E+02  0.19333208730E+04  0.25500000920E-02 0. -1.
       -2    1    3    3    0  502 -0.94724693501E+03 -0.16842462606E+04 -0.11457848805E+04  0.22465051112E+04  0.25500000920E-02 0.  1.
</event>
<event>
 5   0  0.1879500E-08  0.3951465E+04  0.7818609E-02  0.8014410E-01
       -1   -1    0    0    0  501  0.00000000000E+00  0.00000000000E+00  0.27037067013E+04  0.27037067013E+04  0.50400001928E-02 0.  1.
        1   -1    0    0  501    0  0.00000000000E+00  0.00000000000E+00 -0.14437653522E+04  0.14437653522E+04  0.50400001928E-02 0. -1.
    10030    2    1    2    0    0  0.00000000000E+00  0.00000000000E+00  0.12599413491E+04  0.41474720536E+04  0.39514645680E+04 0.  0.
        2    1    3    3  502    0  0.21803144102E+03 -0.96403276216E+03 -0.11656253371E+04  0.15282602208E+04  0.25500000920E-02 0. -1.
       -2    1    3    3    0  502 -0.21803144102E+03  0.96403276216E+03  0.24255666862E+04  0.26192118328E+04  0.25500000920E-02 0.  1.
</event>
<event>
 5   0  0.1879500E-08  0.3924665E+04  0.7818609E-02  0.8019919E-01
        1   -1    0    0  501    0  0.00000000000E+00  0.00000000000E+00  0.26293496372E+04  0.26293496372E+04  0.50400001928E-02 0.  1.
       -1   -1    0    0    0  501  0.00000000000E+00  0.00000000000E+00 -0.14645251182E+04  0.14645251182E+04  0.50400001928E-02 0. -1.
    10030    2    1    2    0    0  0.00000000000E+00  0.00000000000E+00  0.11648245190E+04  0.40938747554E+04  0.39246648714E+04 0.  0.
        3    1    3    3  502    0  0.71674632269E+03 -0.96362358883E+03  0.22012415350E+04  0.25075406313E+04  0.10100000352E+00 0.  1.
       -3    1    3    3    0  502 -0.71674632269E+03  0.96362358883E+03 -0.10364170160E+04  0.15863341241E+04  0.10100000352E+00 0. -1.
</event>
<event>
 5   0  0.5951623E-08  0.3975771E+04  0.7818609E-02  0.8009452E-01
       -2   -1    0    0    0  501  0.00000000000E+00  0.00000000000E+00  0.19020930179E+04  0.19020930179E+04  0.25500000920E-02 0.  1.
        2   -1    0    0  501    0  0.00000000000E+00  0.00000000000E+00 -0.20775476053E+04  0.20775476053E+04  0.25500000920E-02 0. -1.
    10030    2    1    2    0    0  0.00000000000E+00  0.00000000000E+00 -0.17545458743E+03  0.39796406232E+04  0.39757710168E+04 0.  0.
        2    1    3    3  502    0  0.18680217450E+04 -0.65961091803E+03  0.77044561251E+02  0.19825558421E+04  0.25500000920E-02 0.  1.
       -2    1    3    3    0  502 -0.18680217450E+04  0.65961091803E+03 -0.25249914868E+03  0.19970847811E+04  0.25500000920E-02 0. -1.
</event>
<event>
 5   0  0.5846812E-08  0.3988633E+04  0.7818609E-02  0.8006844E-01
        2   -1    0    0  501    0  0.00000000000E+00  0.00000000000E+00  0.19754371718E+04  0.19754371718E+04  0.25500000920E-02 0.  1.
       -2   -1    0    0    0  501  0.00000000000E+00  0.00000000000E+00 -0.20133765641E+04  0.20133765641E+04  0.25500000920E-02 0. -1.
    10030    2    1    2    0    0  0.00000000000E+00  0.00000000000E+00 -0.37939392307E+02  0.39888137360E+04  0.39886333026E+04 0.  0.
        4    1    3    3  502    0 -0.86650308722E+03  0.43223358556E+03 -0.17625059976E+04  0.20109904219E+04  0.12699999809E+01 0. -1.
       -4    1    3    3    0  502  0.86650308722E+03 -0.43223358556E+03  0.17245666053E+04  0.19778233140E+04  0.12699999809E+01 0.  1.
</event>
<event>
 5   0  0.6161563E-08  0.3987102E+04  0.7818609E-02  0.8007153E-01
       -2   -1    0    0    0  501  0.00000000000E+00  0.00000000000E+00  0.19745574183E+04  0.19745574183E+04  0.25500000920E-02 0.  1.
        2   -1    0    0  501    0  0.00000000000E+00  0.00000000000E+00 -0.20127276971E+04  0.20127276971E+04  0.25500000920E-02 0. -1.
    10030    2    1    2    0    0  0.00000000000E+00  0.00000000000E+00 -0.38170278786E+02  0.39872851154E+04  0.39871024091E+04 0.  0.
        1    1    3    3  502    0 -0.80689929122E+03  0.17925989404E+04 -0.35038415310E+03  0.19968140830E+04  0.50400001928E-02 0. -1.
       -1    1    3    3    0  502  0.80689929122E+03 -0.17925989404E+04  0.31221387431E+03  0.19904710324E+04  0.50400001928E-02 0.  1.
</event>
<event>
 5   0  0.6161563E-08  0.3984627E+04  0.7818609E-02  0.8007655E-01
        2   -1    0    0  501    0  0.00000000000E+00  0.00000000000E+00  0.18934630901E+04  0.18934630901E+04  0.25500000920E-02 0. -1.
       -2   -1    0    0    0  501  0.00000000000E+00  0.00000000000E+00 -0.20963247899E+04  0.20963247899E+04  0.25500000920E-02 0.  1.
    10030    2    1    2    0    0  0.00000000000E+00  0.00000000000E+00 -0.20286169975E+03  0.39897878800E+04  0.39846272672E+04 0.  0.
        1    1    3    3  502    0 -0.33741740935E+03  0.18209302088E+04  0.63414721468E+03  0.19574933009E+04  0.50400001928E-02 0. -1.
       -1    1    3    3    0  502  0.33741740935E+03 -0.18209302088E+04 -0.83700891443E+03  0.20322945791E+04  0.50400001928E-02 0.  1.
</event>
<event>
 5   0  0.1879500E-08  0.4001302E+04  0.7818609E-02  0.8004284E-01
        1   -1    0    0  501    0  0.00000000000E+00  0.00000000000E+00  0.27546055197E+04  0.27546055197E+04  0.50400001928E-02 0. -1.
       -1   -1    0    0    0  501  0.00000000000E+00  0.00000000000E+00 -0.14530588397E+04  0.14530588397E+04  0.50400001928E-02 0.  1.
    10030    2    1    2    0    0  0.00000000000E+00  0.00000000000E+00  0.13015466800E+04  0.42076643594E+04  0.40013017383E+04 0.  0.
        2    1    3    3  502    0 -0.82114670111E+03  0.17642672512E+04  0.11391420228E+04  0.22548980879E+04  0.25500000920E-02 0. -1.
       -2    1    3    3    0  502  0.82114670111E+03 -0.17642672512E+04  0.16240465726E+03  0.19527662715E+04  0.25500000920E-02 0.  1.
</event>
<event>
 5   0  0.5888700E-08  0.4011548E+04  0.7818609E-02  0.8002221E-01
        2   -1    0    0  501    0  0.00000000000E+00  0.00000000000E+00  0.29026079700E+04  0.29026079700E+04  0.25500000920E-02 0.  1.
       -2   -1    0    0    0  501  0.00000000000E+00  0.00000000000E+00 -0.13860396707E+04  0.13860396707E+04  0.25500000920E-02 0. -1.
    10030    2    1    2    0    0  0.00000000000E+00  0.00000000000E+00  0.15165682992E+04  0.42886476407E+04  0.40115482273E+04 0.  0.
        5    1    3    3  502    0  0.11511547862E+04 -0.81887364295E+03  0.22805050301E+04  0.26826175029E+04  0.46999998093E+01 0.  1.
       -5    1    3    3    0  502 -0.11511547862E+04  0.81887364295E+03 -0.76393673084E+03  0.16060301378E+04  0.46999998093E+01 0. -1.
</event>
<event>
 5   0  0.6161563E-08  0.4010224E+04  0.7818609E-02  0.8002487E-01
       -2   -1    0    0    0  501  0.00000000000E+00  0.00000000000E+00  0.25266017254E+04  0.25266017254E+04  0.25500000920E-02 0. -1.
        2   -1    0    0  501    0  0.00000000000E+00  0.00000000000E+00 -0.15912577840E+04  0.15912577840E+04  0.25500000920E-02 0.  1.
    10030    2    1    2    0    0  0.00000000000E+00  0.00000000000E+00  0.93534394135E+03  0.41178595094E+04  0.40102242644E+04 0.  0.
        1    1    3    3  502    0  0.76551465163E+03  0.91181377602E+03  0.21243753411E+04  0.24352387222E+04  0.50400001928E-02 0. -1.
       -1    1    3    3    0  502 -0.76551465163E+03 -0.91181377602E+03 -0.11890313998E+04  0.16826207872E+04  0.50400001928E-02 0.  1.
</event>
<event>
 5   0  0.5888700E-08  0.3997957E+04  0.7818609E-02  0.8004959E-01
        2   -1    0    0  501    0  0.00000000000E+00  0.00000000000E+00  0.22843019607E+04  0.22843019607E+04  0.25500000920E-02 0. -1.
       -2   -1    0    0    0  501  0.00000000000E+00  0.00000000000E+00 -0.17492935258E+04  0.17492935258E+04  0.25500000920E-02 0.  1.
    10030    2    1    2    0    0  0.00000000000E+00  0.00000000000E+00  0.53500843487E+03  0.40335954866E+04  0.39979567936E+04 0.  0.
        5    1    3    3  502    0  0.83637818338E+03 -0.50947937621E+03 -0.14906702647E+04  0.17835968234E+04  0.46999998093E+01 0.  1.
       -5    1    3    3    0  502 -0.83637818338E+03  0.50947937621E+03  0.20256786996E+04  0.22499986632E+04  0.46999998093E+01 0. -1.
</event>
<event>
 5   0  0.5846812E-08  0.4000407E+04  0.7818609E-02  0.8004464E-01
        2   -1    0    0  501    0  0.00000000000E+00  0.00000000000E+00  0.31909736519E+04  0.31909736519E+04  0.25500000920E-02 0. -1.
       -2   -1    0    0    0  501  0.00000000000E+00  0.00000000000E+00 -0.12537910424E+04  0.12537910424E+04  0.25500000920E-02 0.  1.
    10030    2    1    2    0    0  0.00000000000E+00  0.00000000000E+00  0.19371826094E+04  0.44447646943E+04  0.40004070699E+04 0.  0.
        4    1    3    3  502    0 -0.96391913153E+03  0.15584630188E+04  0.77741177443E+02  0.18341189647E+04  0.12699999809E+01 0.  1.
       -4    1    3    3    0  502  0.96391913153E+03 -0.15584630188E+04  0.18594414320E+04  0.26106457295E+04  0.12699999809E+01 0. -1.
</event>
<event>
 5   0  0.1879500E-08  0.3979047E+04  0.7818609E-02  0.8008787E-01
        1   -1    0    0  501    0  0.00000000000E+00  0.00000000000E+00  0.32204024545E+04  0.32204024545E+04  0.50400001928E-02 0.  1.
       -1   -1    0    0    0  501  0.00000000000E+00  0.00000000000E+00 -0.12291023012E+04  0.12291023012E+04  0.50400001928E-02 0. -1.
    10030    2    1    2    0    0  0.00000000000E+00  0.00000000000E+00  0.19913001533E+04  0.44495047557E+04  0.39790471561E+04 0.  0.
        1    1    3    3  502    0 -0.15976922338E+04 -0.69544418859E+03  0.20693530302E+04  0.27052698676E+04  0.50400001928E-02 0.  1.
       -1    1    3    3    0  502  0.15976922338E+04  0.69544418859E+03 -0.78052876844E+02  0.17442348881E+04  0.50400001928E-02 0. -1.
</event>
<event>
 5   0  0.5945387E-08  0.4025817E+04  0.7818609E-02  0.7999359E-01
        2   -1    0    0  501    0  0.00000000000E+00  0.00000000000E+00  0.15526034023E+04  0.15526034023E+04  0.25500000920E-02 0. -1.
       -2   -1    0    0    0  501  0.00000000000E+00  0.00000000000E+00 -0.26096813641E+04  0.26096813641E+04  0.25500000920E-02 0.  1.
    10030    2    1    2    0    0  0.00000000000E+00  0.00000000000E+00 -0.10570779618E+04  0.41622847664E+04  0.40258167692E+04 0.  0.
        3    1    3    3  502    0  0.16521697357E+04 -0.10280190691E+04 -0.10610839959E+04  0.22163906016E+04  0.10100000352E+00 0.  1.
       -3    1    3    3    0  502 -0.16521697357E+04  0.10280190691E+04  0.40060341594E+01  0.19458941648E+04  0.10100000352E+00 0. -1.
</event>
<event>
 5   0  0.6161563E-08  0.4010370E+04  0.7818609E-02  0.8002458E-01
        2   -1    0    0  501    0  0.00000000000E+00  0.00000000000E+00  0.19065353365E+04  0.19065353365E+04  0.25500000920E-02 0. -1.
       -2   -1    0    0    0  501  0.00000000000E+00  0.00000000000E+00 -0.21089390428E+04  0.21089390428E+04  0.25500000920E-02 0.  1.
    10030    2    1    2    0    0  0.00000000000E+00  0.00000000000E+00 -0.20240370630E+03  0.40154743793E+04  0.40103699618E+04 0.  0.
        1    1    3    3  502    0 -0.19407101840E+04  0.47090575643E+03  0.79744952542E+02  0.19986163983E+04  0.50400001928E-02 0.  1.
       -1    1    3    3    0  502  0.19407101840E+04 -0.47090575643E+03 -0.28214865884E+03  0.20168579810E+04  0.50400001928E-02 0. -1.
</event>
<event>
 5   0  0.1879500E-08  0.4004681E+04  0.7818609E-02  0.8003603E-01
        1   -1    0    0  501    0  0.00000000000E+00  0.00000000000E+00  0.22160807291E+04  0.22160807291E+04  0.50400001928E-02 0.  1.
       -1   -1    0    0    0  501  0.00000000000E+00  0.00000000000E+00 -0.18092154607E+04  0.18092154607E+04  0.50400001928E-02 0. -1.
    10030    2    1    2    0    0  0.00000000000E+00  0.00000000000E+00  0.40686526838E+03  0.40252961897E+04  0.40046810196E+04 0.  0.
        4    1    3    3  502    0  0.18551813814E+04  0.48111525145E+03  0.78624159878E+03  0.20715567353E+04  0.12699999809E+01 0.  1.
       -4    1    3    3    0  502 -0.18551813814E+04 -0.48111525145E+03 -0.37937633040E+03  0.19537394545E+04  0.12699999809E+01 0. -1.
</event>
<event>
 5   0  0.5945387E-08  0.3999480E+04  0.7818609E-02  0.8004651E-01
        2   -1    0    0  501    0  0.00000000000E+00  0.00000000000E+00  0.13671163160E+04  0.13671163160E+04  0.25500000920E-02 0. -1.
       -2   -1    0    0    0  501  0.00000000000E+00  0.00000000000E+00 -0.29251056805E+04  0.29251056805E+04  0.25500000920E-02 0.  1.
    10030    2    1    2    0    0  0.00000000000E+00  0.00000000000E+00 -0.15579893645E+04  0.42922219965E+04  0.39994798171E+04 0.  0.
        3    1    3    3  502    0 -0.10940043141E+04  0.16372093199E+04 -0.40466662032E+03  0.20102375183E+04  0.10100000352E+00 0.  1.
       -3    1    3    3    0  502  0.10940043141E+04 -0.16372093199E+04 -0.11533227442E+04  0.22819844782E+04  0.10100000352E+00 0. -1.
</event>
<event>
 5   0  0.6161563E-08  0.4000075E+04  0.7818609E-02  0.8004531E-01
       -2   -1    0    0    0  501  0.00000000000E+00  0.00000000000E+00  0.31641287775E+04  0.31641287775E+04  0.25500000920E-02 0.  1.
        2   -1    0    0  501    0  0.00000000000E+00  0.00000000000E+00 -0.12642182346E+04  0.12642182346E+04  0.25500000920E-02 0. -1.
    10030    2    1    2    0    0  0.00000000000E+00  0.00000000000E+00  0.18999105429E+04  0.44283470121E+04  0.40000746478E+04 0.  0.
        1    1    3    3  502    0 -0.36993994560E+03 -0.89156608024E+03 -0.98927684648E+03  0.13821773829E+04  0.50400001928E-02 0. -1.
       -1    1    3    3    0  502  0.36993994560E+03  0.89156608024E+03  0.28891873894E+04  0.30461696292E+04  0.50400001928E-02 0.  1.
</event>
<event>
 5   0  0.1879500E-08  0.4017283E+04  0.7818609E-02  0.8001069E-01
       -1   -1    0    0    0  501  0.00000000000E+00  0.00000000000E+00  0.16409471040E+04  0.16409471040E+04  0.50400001928E-02 0.  1.
        1   -1    0    0  501    0  0.00000000000E+00  0.00000000000E+00 -0.24587269436E+04  0.24587269436E+04  0.50400001928E-02 0. -1.
    10030    2    1    2    0    0  0.00000000000E+00  0.00000000000E+00 -0.81777983953E+03  0.40996740476E+04  0.40172830907E+04 0.  0.
        2    1    3    3  502    0 -0.11180687790E+04  0.16418231188E+04 -0.71330269343E+03  0.21105595657E+04  0.25500000920E-02 0. -1.
       -2    1    3    3    0  502  0.11180687790E+04 -0.16418231188E+04 -0.10447714610E+03  0.19891144819E+04  0.25500000920E-02 0.  1.
</event>
<event>
 5   0  0.5888700E-08  0.4009626E+04  0.7818609E-02  0.8002608E-01
        2   -1    0    0  501    0  0.00000000000E+00  0.00000000000E+00  0.27869523235E+04  0.27869523235E+04  0.25500000920E-02 0.  1.
       -2   -1    0    0    0  501  0.00000000000E+00  0.00000000000E+00 -0.14421756767E+04  0.14421756767E+04  0.25500000920E-02 0. -1.
    10030    2    1    2    0    0  0.00000000000E+00  0.00000000000E+00  0.13447766467E+04  0.42291280002E+04  0.40096258444E+04 0.  0.
        5    1    3    3  502    0  0.17563671592E+04 -0.70214708847E+03 -0.28374941348E+02  0.18917355415E+04  0.46999998093E+01 0. -1.
       -5    1    3    3    0  502 -0.17563671592E+04  0.70214708847E+03  0.13731515881E+04  0.23373924586E+04  0.46999998093E+01 0.  1.
</event>
<event>
 5   0  0.1879500E-08  0.3999332E+04  0.7818609E-02  0.8004681E-01
       -1   -1    0    0    0  501  0.00000000000E+00  0.00000000000E+00  0.20500596486E+04  0.20500596486E+04  0.50400001928E-02 0. -1.
        1   -1    0    0  501    0  0.00000000000E+00  0.00000000000E+00 -0.19505109504E+04  0.19505109504E+04  0.50400001928E-02 0.  1.
    10030    2    1    2    0    0  0.00000000000E+00  0.00000000000E+00  0.99548698169E+02  0.40005705991E+04  0.39993318410E+04 0.  0.
        1    1    3    3  502    0 -0.51790306389E+03 -0.64529063664E+03 -0.17712400693E+04  0.19549718598E+04  0.50400001928E-02 0.  1.
       -1    1    3    3    0  502  0.51790306389E+03  0.64529063664E+03  0.18707887675E+04  0.20455987393E+04  0.50400001928E-02 0. -1.
</event>
<event>
 5   0  0.6161563E-08  0.3988536E+04  0.7818609E-02  0.8006863E-01
       -2   -1    0    0    0  501  0.00000000000E+00  0.00000000000E+00  0.18930609041E+04  0.18930609041E+04  0.25500000920E-02 0.  1.
        2   -1    0    0  501    0  0.00000000000E+00  0.00000000000E+00 -0.21008862728E+04  0.21008862728E+04  0.25500000920E-02 0. -1.
    10030    2    1    2    0    0  0.00000000000E+00  0.00000000000E+00 -0.20782536862E+03  0.39939471769E+04  0.39885364067E+04 0.  0.
        1    1    3    3  502    0  0.10910821356E+04 -0.10627361128E+04 -0.13929963884E+04  0.20640511646E+04  0.50400001928E-02 0. -1.
       -1    1    3    3    0  502 -0.10910821356E+04  0.10627361128E+04  0.11851710198E+04  0.19298960123E+04  0.50400001928E-02 0.  1.
</event>
<event>
 5   0  0.5951623E-08  0.4004317E+04  0.7818609E-02  0.8003676E-01
       -2   -1    0    0    0  501  0.00000000000E+00  0.00000000000E+00  0.17471278305E+04  0.17471278305E+04  0.25500000920E-02 0.  1.
        2   -1    0    0  501    0  0.00000000000E+00  0.00000000000E+00 -0.22944162568E+04  0.22944162568E+04  0.25500000920E-02 0. -1.
    10030    2    1    2    0    0  0.00000000000E+00  0.00000000000E+00 -0.54728842637E+03  0.40415440873E+04  0.40043169190E+04 0.  0.
        2    1    3    3  502    0  0.17701394587E+04  0.70764639195E+03  0.34399376328E+03  0.19371341793E+04  0.25500000920E-02 0.  1.
       -2    1    3    3    0  502 -0.17701394587E+04 -0.70764639195E+03 -0.89128218965E+03  0.21044099080E+04  0.25500000920E-02 0. -1.
</event>
<event>
 5   0  0.1879500E-08  0.4011579E+04  0.7818609E-02  0.8002215E-01
        3   -1    0    0  501    0  0.00000000000E+00  0.00000000000E+00  0.29025142966E+04  0.29025142984E+04  0.10100000352E+00 0. -1.
       -3   -1    0    0    0  501  0.00000000000E+00  0.00000000000E+00 -0.13861057071E+04  0.13861057108E+04  0.10100000352E+00 0.  1.
    10030    2    1    2    0    0  0.00000000000E+00  0.00000000000E+00  0.15164085895E+04  0.42886200092E+04  0.40115790623E+04 0.  0.
        5    1    3    3  502    0 -0.15085539726E+04 -0.13161645842E+04  0.62663926512E+03  0.20977900656E+04  0.46999998093E+01 0. -1.
       -5    1    3    3    0  502  0.15085539726E+04  0.13161645842E+04  0.88976932437E+03  0.21908299435E+04  0.46999998093E+01 0.  1.
</event>
<event>
 5   0  0.1879500E-08  0.3996518E+04  0.7818609E-02  0.8005249E-01
        1   -1    0    0  501    0  0.00000000000E+00  0.00000000000E+00  0.14284190988E+04  0.14284190988E+04  0.50400001928E-02 0.  1.
       -1   -1    0    0    0  501  0.00000000000E+00  0.00000000000E+00 -0.27954251366E+04  0.27954251366E+04  0.50400001928E-02 0. -1.
    10030    2    1    2    0    0  0.00000000000E+00  0.00000000000E+00 -0.13670060378E+04  0.42238442354E+04  0.39965178115E+04 0.  0.
        3    1    3    3  502    0  0.17263585777E+04  0.96183227854E+03 -0.99631728895E+03  0.22131614088E+04  0.10100000352E+00 0. -1.
       -3    1    3    3    0  502 -0.17263585777E+04 -0.96183227854E+03 -0.37068874887E+03  0.20106828267E+04  0.10100000352E+00 0.  1.
</event>
<event>
 5   0  0.5945387E-08  0.4006142E+04  0.7818609E-02  0.8003309E-01
        2   -1    0    0  501    0  0.00000000000E+00  0.00000000000E+00  0.19291821723E+04  0.19291821723E+04  0.25500000920E-02 0.  1.
       -2   -1    0    0    0  501  0.00000000000E+00  0.00000000000E+00 -0.20797898437E+04  0.20797898437E+04  0.25500000920E-02 0. -1.
    10030    2    1    2    0    0  0.00000000000E+00  0.00000000000E+00 -0.15060767135E+03  0.40089720160E+04  0.40061420287E+04 0.  0.
        3    1    3    3  502    0 -0.99666970255E+03  0.13129426610E+04  0.10635354774E+04  0.19617024874E+04  0.10100000352E+00 0.  1.
       -3    1    3    3    0  502  0.99666970255E+03 -0.13129426610E+04 -0.12141431488E+04  0.20472695286E+04  0.10100000352E+00 0. -1.
</event>
<event>
 5   0  0.5888700E-08  0.4004326E+04  0.7818609E-02  0.8003675E-01
       -2   -1    0    0    0  501  0.00000000000E+00  0.00000000000E+00  0.27154575778E+04  0.27154575778E+04  0.25500000920E-02 0. -1.
        2   -1    0    0  501    0  0.00000000000E+00  0.00000000000E+00 -0.14762358597E+04  0.14762358597E+04  0.25500000920E-02 0.  1.
    10030    2    1    2    0    0  0.00000000000E+00  0.00000000000E+00  0.12392217181E+04  0.41916934374E+04  0.40043255870E+04 0.  0.
        5    1    3    3  502    0  0.19172787795E+04  0.36810712002E+00  0.12233796708E+04  0.22743434135E+04  0.46999998093E+01 0. -1.
       -5    1    3    3    0  502 -0.19172787795E+04 -0.36810712002E+00  0.15842047268E+02  0.19173500239E+04  0.46999998093E+01 0.  1.
</event>
<event>
 5   0  0.1879500E-08  0.4015510E+04  0.7818609E-02  0.8001425E-01
        3   -1    0    0  501    0  0.00000000000E+00  0.00000000000E+00  0.35037480453E+04  0.35037480468E+04  0.10100000352E+00 0. -1.
       -3   -1    0    0    0  501  0.00000000000E+00  0.00000000000E+00 -0.11505051610E+04  0.11505051654E+04  0.10100000352E+00 0.  1.
    10030    2    1    2    0    0  0.00000000000E+00  0.00000000000E+00  0.23532428843E+04  0.46542532122E+04  0.40155100412E+04 0.  0.
        5    1    3    3  502    0  0.15404499565E+04  0.12716973963E+04  0.14109076705E+04  0.24455843639E+04  0.46999998093E+01 0. -1.
       -5    1    3    3    0  502 -0.15404499565E+04 -0.12716973963E+04  0.94233521387E+03  0.22086688483E+04  0.46999998093E+01 0.  1.
</event>
<event>
 5   0  0.6161563E-08  0.4014630E+04  0.7818609E-02  0.8001602E-01
        2   -1    0    0  501    0  0.00000000000E+00  0.00000000000E+00  0.13010610746E+04  0.13010610746E+04  0.25500000920E-02 0.  1.
       -2   -1    0    0    0  501  0.00000000000E+00  0.00000000000E+00 -0.30969448352E+04  0.30969448352E+04  0.25500000920E-02 0. -1.
    10030    2    1    2    0    0  0.00000000000E+00  0.00000000000E+00 -0.17958837606E+04  0.43980059098E+04  0.40146304314E+04 0.  0.
        1    1    3    3  502    0  0.19629766181E+04 -0.25690109158E+03 -0.12613407362E+04  0.23473934112E+04  0.50400001928E-02 0. -1.
       -1    1    3    3    0  502 -0.19629766181E+04  0.25690109158E+03 -0.53454302441E+03  0.20506124986E+04  0.50400001928E-02 0.  1.
</event>
<event>
 5   0  0.1879500E-08  0.4002986E+04  0.7818609E-02  0.8003944E-01
       -1   -1    0    0    0  501  0.00000000000E+00  0.00000000000E+00  0.21745451970E+04  0.21745451970E+04  0.50400001928E-02 0.  1.
        1   -1    0    0  501    0  0.00000000000E+00  0.00000000000E+00 -0.18422128174E+04  0.18422128175E+04  0.50400001928E-02 0. -1.
    10030    2    1    2    0    0  0.00000000000E+00  0.00000000000E+00  0.33233237951E+03  0.40167580144E+04  0.40029864022E+04 0.  0.
        1    1    3    3  502    0 -0.14525568177E+04  0.53999495946E+03 -0.11048640663E+04  0.19032184504E+04  0.50400001928E-02 0. -1.
       -1    1    3    3    0  502  0.14525568177E+04 -0.53999495946E+03  0.14371964458E+04  0.21135395640E+04  0.50400001928E-02 0.  1.
</event>
<event>
 5   0  0.5945387E-08  0.4002032E+04  0.7818609E-02  0.8004137E-01
        2   -1    0    0  501    0  0.00000000000E+00  0.00000000000E+00  0.13797422791E+04  0.13797422791E+04  0.25500000920E-02 0. -1.
       -2   -1    0    0    0  501  0.00000000000E+00  0.00000000000E+00 -0.29020389458E+04  0.29020389458E+04  0.25500000920E-02 0.  1.
    10030    2    1    2    0    0  0.00000000000E+00  0.00000000000E+00 -0.15222966667E+04  0.42817812249E+04  0.40020323982E+04 0.  0.
        3    1    3    3  502    0 -0.14674517753E+04 -0.95781463434E+03 -0.17947211182E+04  0.25083555348E+04  0.10100000352E+00 0.  1.
       -3    1    3    3    0  502  0.14674517753E+04  0.95781463434E+03  0.27242445153E+03  0.17734256901E+04  0.10100000352E+00 0. -1.
</event>
<event>
 5   0  0.5846812E-08  0.3997007E+04  0.7818609E-02  0.8005151E-01
       -2   -1    0    0    0  501  0.00000000000E+00  0.00000000000E+00  0.19642451657E+04  0.19642451657E+04  0.25500000920E-02 0.  1.
        2   -1    0    0  501    0  0.00000000000E+00  0.00000000000E+00 -0.20333595969E+04  0.20333595969E+04  0.25500000920E-02 0. -1.
    10030    2    1    2    0    0  0.00000000000E+00  0.00000000000E+00 -0.69114431155E+02  0.39976047626E+04  0.39970072596E+04 0.  0.
        4    1    3    3  502    0 -0.18298251493E+04 -0.77752755410E+03  0.16846566818E+03  0.19952923267E+04  0.12699999809E+01 0. -1.
       -4    1    3    3    0  502  0.18298251493E+04  0.77752755410E+03 -0.23758009933E+03  0.20023124359E+04  0.12699999809E+01 0.  1.
</event>
<event>
 5   0  0.5951623E-08  0.3970309E+04  0.7818609E-02  0.8010563E-01
        2   -1    0    0  501    0  0.00000000000E+00  0.00000000000E+00  0.33518971789E+04  0.33518971789E+04  0.25500000920E-02 0.  1.
       -2   -1    0    0    0  501  0.00000000000E+00  0.00000000000E+00 -0.11757038820E+04  0.11757038820E+04  0.25500000920E-02 0. -1.
    10030    2    1    2    0    0  0.00000000000E+00  0.00000000000E+00  0.21761932969E+04  0.45276010609E+04  0.39703090687E+04 0.  0.
        2    1    3    3  502    0  0.15106613356E+04 -0.14058902075E+03 -0.37182678287E+03  0.15620877376E+04  0.25500000920E-02 0. -1.
       -2    1    3    3    0  502 -0.15106613356E+04  0.14058902075E+03  0.25480200798E+04  0.29655133233E+04  0.25500000920E-02 0.  1.
</event>
<event>
 5   0  0.5951623E-08  0.3999163E+04  0.7818609E-02  0.8004715E-01
       -2   -1    0    0    0  501  0.00000000000E+00  0.00000000000E+00  0.15289728054E+04  0.15289728054E+04  0.25500000920E-02 0. -1.
        2   -1    0    0  501    0  0.00000000000E+00  0.00000000000E+00 -0.26150405142E+04  0.26150405142E+04  0.25500000920E-02 0.  1.
    10030    2    1    2    0    0  0.00000000000E+00  0.00000000000E+00 -0.10860677088E+04  0.41440133196E+04  0.39991628280E+04 0.  0.
        2    1    3    3  502    0 -0.10527718056E+04  0.24151715518E+03  0.12006716225E+04  0.16150143516E+04  0.25500000920E-02 0. -1.
       -2    1    3    3    0  502  0.10527718056E+04 -0.24151715518E+03 -0.22867393312E+04  0.25289989680E+04  0.25500000920E-02 0.  1.
</event>
<event>
 5   0  0.6161563E-08  0.3986793E+04  0.7818609E-02  0.8007216E-01
        2   -1    0    0  501    0  0.00000000000E+00  0.00000000000E+00  0.25185387870E+04  0.25185387870E+04  0.25500000920E-02 0.  1.
       -2   -1    0    0    0  501  0.00000000000E+00  0.00000000000E+00 -0.15777517682E+04  0.15777517682E+04  0.25500000920E-02 0. -1.
    10030    2    1    2    0    0  0.00000000000E+00  0.00000000000E+00  0.94078701885E+03  0.40962905552E+04  0.39867927082E+04 0.  0.
        1    1    3    3  502    0 -0.19199147350E+04 -0.37515030348E+03  0.76700445905E+02  0.19577265638E+04  0.50400001928E-02 0. -1.
       -1    1    3    3    0  502  0.19199147350E+04  0.37515030348E+03  0.86408657294E+03  0.21385639915E+04  0.50400001928E-02 0.  1.
</event>
<event>
 5   0  0.1879500E-08  0.4122177E+04  0.7818609E-02  0.7980343E-01
       -3   -1    0    0    0  501  0.00000000000E+00  0.00000000000E+00  0.14714020989E+04  0.14714021023E+04  0.10100000352E+00 0. -1.
        3   -1    0    0  501    0  0.00000000000E+00  0.00000000000E+00 -0.28871000180E+04  0.28871000198E+04  0.10100000352E+00 0.  1.
    10030    2    1    2    0    0  0.00000000000E+00  0.00000000000E+00 -0.14156979191E+04  0.43585021221E+04  0.41221766277E+04 0.  0.
        5    1    3    3  502    0  0.36335717092E+03 -0.13452956436E+04 -0.23135344427E+04  0.27007984949E+04  0.46999998093E+01 0.  1.
       -5    1    3    3    0  502 -0.36335717092E+03  0.13452956436E+04  0.89783652362E+03  0.16577036272E+04  0.46999998093E+01 0. -1.
</event>
<event>
 5   0  0.1879500E-08  0.4007816E+04  0.7818609E-02  0.8002972E-01
       -1   -1    0    0    0  501  0.00000000000E+00  0.00000000000E+00  0.24058871533E+04  0.24058871533E+04  0.50400001928E-02 0.  1.
        1   -1    0    0  501    0  0.00000000000E+00  0.00000000000E+00 -0.16690919566E+04  0.16690919566E+04  0.50400001928E-02 0. -1.
    10030    2    1    2    0    0  0.00000000000E+00  0.00000000000E+00  0.73679519663E+03  0.40749791099E+04  0.40078158122E+04 0.  0.
        1    1    3    3  502    0 -0.62519267375E+03  0.71263850846E+03  0.21634658828E+04  0.23620550690E+04  0.50400001928E-02 0.  1.
       -1    1    3    3    0  502  0.62519267375E+03 -0.71263850846E+03 -0.14266706862E+04  0.17129240409E+04  0.50400001928E-02 0. -1.
</event>
<event>
 5   0  0.6161563E-08  0.3996862E+04  0.7818609E-02  0.8005180E-01
       -2   -1    0    0    0  501  0.00000000000E+00  0.00000000000E+00  0.14245089814E+04  0.14245089814E+04  0.25500000920E-02 0. -1.
        2   -1    0    0  501    0  0.00000000000E+00  0.00000000000E+00 -0.28035816636E+04  0.28035816636E+04  0.25500000920E-02 0.  1.
    10030    2    1    2    0    0  0.00000000000E+00  0.00000000000E+00 -0.13790726822E+04  0.42280906450E+04  0.39968623994E+04 0.  0.
        1    1    3    3  502    0  0.13947709302E+04 -0.77332838195E+03 -0.19634931186E+04  0.25295707068E+04  0.50400001928E-02 0.  1.
       -1    1    3    3    0  502 -0.13947709302E+04  0.77332838195E+03  0.58442043642E+03  0.16985199382E+04  0.50400001928E-02 0. -1.
</event>
<event>
 5   0  0.1879500E-08  0.4012922E+04  0.7818609E-02  0.8001945E-01
       -1   -1    0    0    0  501  0.00000000000E+00  0.00000000000E+00  0.18088747983E+04  0.18088747983E+04  0.50400001928E-02 0.  1.
        1   -1    0    0  501    0  0.00000000000E+00  0.00000000000E+00 -0.22256301149E+04  0.22256301149E+04  0.50400001928E-02 0. -1.
    10030    2    1    2    0    0  0.00000000000E+00  0.00000000000E+00 -0.41675531668E+03  0.40345049132E+04  0.40129222396E+04 0.  0.
        2    1    3    3  502    0  0.40255952358E+02 -0.35560819009E+03 -0.21932827853E+04  0.22222887083E+04  0.25500000920E-02 0. -1.
       -2    1    3    3    0  502 -0.40255952358E+02  0.35560819009E+03  0.17765274686E+04  0.18122162049E+04  0.25500000920E-02 0.  1.
</event>
<event>
 5   0  0.1879500E-08  0.4018291E+04  0.7818609E-02  0.8000867E-01
       -1   -1    0    0    0  501  0.00000000000E+00  0.00000000000E+00  0.31578228044E+04  0.31578228044E+04  0.50400001928E-02 0.  1.
        1   -1    0    0  501    0  0.00000000000E+00  0.00000000000E+00 -0.12783067376E+04  0.12783067377E+04  0.50400001928E-02 0. -1.
    10030    2    1    2    0    0  0.00000000000E+00  0.00000000000E+00  0.18795160668E+04  0.44361295421E+04  0.40182912623E+04 0.  0.
        5    1    3    3  502    0  0.71442900016E+03  0.35820312246E+03  0.29747830506E+04  0.30802718324E+04  0.46999998093E+01 0.  1.
       -5    1    3    3    0  502 -0.71442900016E+03 -0.35820312246E+03 -0.10952669838E+04  0.13558577097E+04  0.46999998093E+01 0. -1.
</event>
<event>
 5   0  0.1879500E-08  0.4002868E+04  0.7818609E-02  0.8003968E-01
        1   -1    0    0  501    0  0.00000000000E+00  0.00000000000E+00  0.14617207272E+04  0.14617207272E+04  0.50400001928E-02 0.  1.
       -1   -1    0    0    0  501  0.00000000000E+00  0.00000000000E+00 -0.27404263623E+04  0.27404263623E+04  0.50400001928E-02 0. -1.
    10030    2    1    2    0    0  0.00000000000E+00  0.00000000000E+00 -0.12787056351E+04  0.42021470895E+04  0.40028679794E+04 0.  0.
        4    1    3    3  502    0  0.27215773738E+03 -0.66643218003E+03  0.13211129047E+04  0.15045074292E+04  0.12699999809E+01 0.  1.
       -4    1    3    3    0  502 -0.27215773738E+03  0.66643218003E+03 -0.25998185398E+04  0.26976396604E+04  0.12699999809E+01 0. -1.
</event>
<event>
 5   0  0.6161563E-08  0.3947700E+04  0.7818609E-02  0.8015181E-01
        2   -1    0    0  501    0  0.00000000000E+00  0.00000000000E+00  0.19867475990E+04  0.19867475990E+04  0.25500000920E-02 0.  1.
       -2   -1    0    0    0  501  0.00000000000E+00  0.00000000000E+00 -0.19610360840E+04  0.19610360840E+04  0.25500000920E-02 0. -1.
    10030    2    1    2    0    0  0.00000000000E+00  0.00000000000E+00  0.25711515059E+02  0.39477836830E+04  0.39476999539E+04 0.  0.
        1    1    3    3  502    0 -0.59344558938E+02 -0.18497247918E+04 -0.67351158759E+03  0.19694216005E+04  0.50400001928E-02 0. -1.
       -1    1    3    3    0  502  0.59344558938E+02  0.18497247918E+04  0.69922310265E+03  0.19783620825E+04  0.50400001928E-02 0.  1.
</event>
<event>
 5   0  0.1879500E-08  0.3998671E+04  0.7818609E-02  0.8004815E-01
       -1   -1    0    0    0  501  0.00000000000E+00  0.00000000000E+00  0.18272775425E+04  0.18272775425E+04  0.50400001928E-02 0. -1.
        1   -1    0    0  501    0  0.00000000000E+00  0.00000000000E+00 -0.21875940799E+04  0.21875940799E+04  0.50400001928E-02 0.  1.
    10030    2    1    2    0    0  0.00000000000E+00  0.00000000000E+00 -0.36031653735E+03  0.40148716224E+04  0.39986705463E+04 0.  0.
        2    1    3    3  502    0  0.76085329453E+03 -0.13970965153E+04 -0.13960830676E+04  0.21165595528E+04  0.25500000920E-02 0.  1.
       -2    1    3    3    0  502 -0.76085329453E+03  0.13970965153E+04  0.10357665302E+04  0.18983120697E+04  0.25500000920E-02 0. -1.
</event>
<event>
 5   0  0.1879500E-08  0.3984466E+04  0.7818609E-02  0.8007688E-01
        1   -1    0    0  501    0  0.00000000000E+00  0.00000000000E+00  0.17429181808E+04  0.17429181808E+04  0.50400001928E-02 0.  1.
       -1   -1    0    0    0  501  0.00000000000E+00  0.00000000000E+00 -0.22772104964E+04  0.22772104964E+04  0.50400001928E-02 0. -1.
    10030    2    1    2    0    0  0.00000000000E+00  0.00000000000E+00 -0.53429231564E+03  0.40201286773E+04  0.39844656233E+04 0.  0.
        5    1    3    3  502    0 -0.12130970011E+04 -0.18660751372E+03 -0.18504408750E+04  0.22204909863E+04  0.46999998093E+01 0. -1.
       -5    1    3    3    0  502  0.12130970011E+04  0.18660751372E+03  0.13161485594E+04  0.17996376910E+04  0.46999998093E+01 0.  1.
</event>
<event>
 5   0  0.1879500E-08  0.3969358E+04  0.7818609E-02  0.8010757E-01
       -1   -1    0    0    0  501  0.00000000000E+00  0.00000000000E+00  0.17870697172E+04  0.17870697172E+04  0.50400001928E-02 0.  1.
        1   -1    0    0  501    0  0.00000000000E+00  0.00000000000E+00 -0.22041395252E+04  0.22041395252E+04  0.50400001928E-02 0. -1.
    10030    2    1    2    0    0  0.00000000000E+00  0.00000000000E+00 -0.41706980797E+03  0.39912092424E+04  0.39693581335E+04 0.  0.
        5    1    3    3  502    0  0.18366267128E+04 -0.57067156860E+03  0.28412679977E+03  0.19441228998E+04  0.46999998093E+01 0.  1.
       -5    1    3    3    0  502 -0.18366267128E+04  0.57067156860E+03 -0.70119660774E+03  0.20470863426E+04  0.46999998093E+01 0. -1.
</event>
<event>
 5   0  0.6161563E-08  0.3997512E+04  0.7818609E-02  0.8005049E-01
       -2   -1    0    0    0  501  0.00000000000E+00  0.00000000000E+00  0.17037970829E+04  0.17037970829E+04  0.25500000920E-02 0.  1.
        2   -1    0    0  501    0  0.00000000000E+00  0.00000000000E+00 -0.23447783196E+04  0.23447783196E+04  0.25500000920E-02 0. -1.
    10030    2    1    2    0    0  0.00000000000E+00  0.00000000000E+00 -0.64098123675E+03  0.40485754025E+04  0.39975124570E+04 0.  0.
        1    1    3    3  502    0  0.84384137709E+03  0.69039714291E+03  0.13761123656E+04  0.17556769998E+04  0.50400001928E-02 0.  1.
       -1    1    3    3    0  502 -0.84384137709E+03 -0.69039714291E+03 -0.20170936024E+04  0.22928984028E+04  0.50400001928E-02 0. -1.
</event>
<event>
 5   0  0.1879500E-08  0.3962991E+04  0.7818609E-02  0.8012054E-01
       -1   -1    0    0    0  501  0.00000000000E+00  0.00000000000E+00  0.22129227603E+04  0.22129227604E+04  0.50400001928E-02 0. -1.
        1   -1    0    0  501    0  0.00000000000E+00  0.00000000000E+00 -0.17742705505E+04  0.17742705505E+04  0.50400001928E-02 0.  1.
    10030    2    1    2    0    0  0.00000000000E+00  0.00000000000E+00  0.43865220989E+03  0.39871933108E+04  0.39629906304E+04 0.  0.
        5    1    3    3  502    0  0.97069036203E+03  0.13143372327E+04  0.13471446296E+04  0.21176739322E+04  0.46999998093E+01 0.  1.
       -5    1    3    3    0  502 -0.97069036203E+03 -0.13143372327E+04 -0.90849241970E+03  0.18695193786E+04  0.46999998093E+01 0. -1.
</event>
<event>
 5   0  0.5951623E-08  0.4031028E+04  0.7818609E-02  0.7998316E-01
        2   -1    0    0  501    0  0.00000000000E+00  0.00000000000E+00  0.14864761120E+04  0.14864761120E+04  0.25500000920E-02 0. -1.
       -2   -1    0    0    0  501  0.00000000000E+00  0.00000000000E+00 -0.27328374814E+04  0.27328374814E+04  0.25500000920E-02 0.  1.
    10030    2    1    2    0    0  0.00000000000E+00  0.00000000000E+00 -0.12463613693E+04  0.42193135934E+04  0.40310284713E+04 0.  0.
        2    1    3    3  502    0  0.51953295914E+03  0.19473968664E+04 -0.62877672245E+03  0.21113098346E+04  0.25500000920E-02 0. -1.
       -2    1    3    3    0  502 -0.51953295914E+03 -0.19473968664E+04 -0.61758464689E+03  0.21080037588E+04  0.25500000920E-02 0.  1.
</event>
<event>
 5   0  0.1879500E-08  0.3999281E+04  0.7818609E-02  0.8004692E-01
        1   -1    0    0  501    0  0.00000000000E+00  0.00000000000E+00  0.17954517543E+04  0.17954517543E+04  0.50400001928E-02 0.  1.
       -1   -1    0    0    0  501  0.00000000000E+00  0.00000000000E+00 -0.22270504723E+04  0.22270504723E+04  0.50400001928E-02 0. -1.
    10030    2    1    2    0    0  0.00000000000E+00  0.00000000000E+00 -0.43159871793E+03  0.40225022266E+04  0.39992807740E+04 0.  0.
        2    1    3    3  502    0 -0.36453387810E+03  0.76795058940E+03  0.16046626203E+04  0.18159226804E+04  0.25500000920E-02 0.  1.
       -2    1    3    3    0  502  0.36453387810E+03 -0.76795058940E+03 -0.20362613383E+04  0.22065795462E+04  0.25500000920E-02 0. -1.
</event>
<event>
 5   0  0.5888700E-08  0.3978899E+04  0.7818609E-02  0.8008817E-01
        2   -1    0    0  501    0  0.00000000000E+00  0.00000000000E+00  0.27135709460E+04  0.27135709460E+04  0.25500000920E-02 0. -1.
       -2   -1    0    0    0  501  0.00000000000E+00  0.00000000000E+00 -0.14585608680E+04  0.14585608680E+04  0.25500000920E-02 0.  1.
    10030    2    1    2    0    0  0.00000000000E+00  0.00000000000E+00  0.12550100780E+04  0.41721318141E+04  0.39788985383E+04 0.  0.
        5    1    3    3  502    0 -0.11880377419E+04  0.19143214755E+03  0.22886795707E+04  0.25857602771E+04  0.46999998093E+01 0. -1.
       -5    1    3    3    0  502  0.11880377419E+04 -0.19143214755E+03 -0.10336694927E+04  0.15863715370E+04  0.46999998093E+01 0.  1.
</event>
<event>
 5   0  0.5846812E-08  0.3717091E+04  0.7818609E-02  0.8064185E-01
        2   -1    0    0  501    0  0.00000000000E+00  0.00000000000E+00  0.17272708236E+04  0.17272708236E+04  0.25500000920E-02 0.  1.
       -2   -1    0    0    0  501  0.00000000000E+00  0.00000000000E+00 -0.19997968693E+04  0.19997968693E+04  0.25500000920E-02 0. -1.
    10030    2    1    2    0    0  0.00000000000E+00  0.00000000000E+00 -0.27252604565E+03  0.37270676929E+04  0.37170906825E+04 0.  0.
        4    1    3    3  502    0 -0.59665168845E+03  0.10032636448E+04 -0.15864014525E+04  0.19695690796E+04  0.12699999809E+01 0. -1.
       -4    1    3    3    0  502  0.59665168845E+03 -0.10032636448E+04  0.13138754068E+04  0.17574986133E+04  0.12699999809E+01 0.  1.
</event>
<event>
 5   0  0.5846812E-08  0.4027592E+04  0.7818609E-02  0.7999003E-01
        2   -1    0    0  501    0  0.00000000000E+00  0.00000000000E+00  0.23244936577E+04  0.23244936577E+04  0.25500000920E-02 0. -1.
       -2   -1    0    0    0  501  0.00000000000E+00  0.00000000000E+00 -0.17446265698E+04  0.17446265698E+04  0.25500000920E-02 0.  1.
    10030    2    1    2    0    0  0.00000000000E+00  0.00000000000E+00  0.57986708789E+03  0.40691202275E+04  0.40275915367E+04 0.  0.
        4    1    3    3  502    0 -0.12281953404E+04 -0.15800672294E+04  0.51651264024E+03  0.20668486070E+04  0.12699999809E+01 0. -1.
       -4    1    3    3    0  502  0.12281953404E+04  0.15800672294E+04  0.63354447648E+02  0.20022716206E+04  0.12699999809E+01 0.  1.
</event>
<event>
 5   0  0.1879500E-08  0.3996132E+04  0.7818609E-02  0.8005327E-01
       -3   -1    0    0    0  501  0.00000000000E+00  0.00000000000E+00  0.18817112054E+04  0.18817112081E+04  0.10100000352E+00 0.  1.
        3   -1    0    0  501    0  0.00000000000E+00  0.00000000000E+00 -0.21216158612E+04  0.21216158636E+04  0.10100000352E+00 0. -1.
    10030    2    1    2    0    0  0.00000000000E+00  0.00000000000E+00 -0.23990465575E+03  0.40033270717E+04  0.39961323051E+04 0.  0.
        5    1    3    3  502    0 -0.89021699669E+03 -0.15870383447E+04  0.70680271280E+03  0.19521191494E+04  0.46999998093E+01 0.  1.
       -5    1    3    3    0  502  0.89021699669E+03  0.15870383447E+04 -0.94670736855E+03  0.20512079223E+04  0.46999998093E+01 0. -1.
</event>
<event>
 5   0  0.1879500E-08  0.4172644E+04  0.7818609E-02  0.7970596E-01
        3   -1    0    0  501    0  0.00000000000E+00  0.00000000000E+00  0.20368940840E+04  0.20368940865E+04  0.10100000352E+00 0. -1.
       -3   -1    0    0    0  501  0.00000000000E+00  0.00000000000E+00 -0.21369489427E+04  0.21369489451E+04  0.10100000352E+00 0.  1.
    10030    2    1    2    0    0  0.00000000000E+00  0.00000000000E+00 -0.10005485873E+03  0.41738430316E+04  0.41726436078E+04 0.  0.
        4    1    3    3  502    0 -0.14946401636E+04  0.13878016622E+04  0.38918235819E+03  0.20763928321E+04  0.12699999809E+01 0. -1.
       -4    1    3    3    0  502  0.14946401636E+04 -0.13878016622E+04 -0.48923721693E+03  0.20974501995E+04  0.12699999809E+01 0.  1.
</event>
<event>
 5   0  0.5846812E-08  0.3999026E+04  0.7818609E-02  0.8004743E-01
        2   -1    0    0  501    0  0.00000000000E+00  0.00000000000E+00  0.28436057675E+04  0.28436057675E+04  0.25500000920E-02 0. -1.
       -2   -1    0    0    0  501  0.00000000000E+00  0.00000000000E+00 -0.14059794924E+04  0.14059794924E+04  0.25500000920E-02 0.  1.
    10030    2    1    2    0    0  0.00000000000E+00  0.00000000000E+00  0.14376262751E+04  0.42495852599E+04  0.39990255781E+04 0.  0.
        4    1    3    3  502    0  0.47363373142E+03  0.18828279770E+04  0.12269797776E+04  0.22967043976E+04  0.12699999809E+01 0. -1.
       -4    1    3    3    0  502 -0.47363373142E+03 -0.18828279770E+04  0.21064649748E+03  0.19528808623E+04  0.12699999809E+01 0.  1.
</event>
<event>
 5   0  0.5888700E-08  0.3988357E+04  0.7818609E-02  0.8006899E-01
       -2   -1    0    0    0  501  0.00000000000E+00  0.00000000000E+00  0.20934531750E+04  0.20934531750E+04  0.25500000920E-02 0.  1.
        2   -1    0    0  501    0  0.00000000000E+00  0.00000000000E+00 -0.18996113919E+04  0.18996113919E+04  0.25500000920E-02 0. -1.
    10030    2    1    2    0    0  0.00000000000E+00  0.00000000000E+00  0.19384178306E+03  0.39930645669E+04  0.39883568043E+04 0.  0.
        5    1    3    3  502    0 -0.12421890741E+04 -0.11389140771E+04 -0.97043620655E+03  0.19447178438E+04  0.46999998093E+01 0.  1.
       -5    1    3    3    0  502  0.12421890741E+04  0.11389140771E+04  0.11642779896E+04  0.20483467231E+04  0.46999998093E+01 0. -1.
</event>
<event>
 5   0  0.1879500E-08  0.3973493E+04  0.7818609E-02  0.8009915E-01
       -1   -1    0    0    0  501  0.00000000000E+00  0.00000000000E+00  0.32276705412E+04  0.32276705412E+04  0.50400001928E-02 0.  1.
        1   -1    0    0  501    0  0.00000000000E+00  0.00000000000E+00 -0.12229134418E+04  0.12229134418E+04  0.50400001928E-02 0. -1.
    10030    2    1    2    0    0  0.00000000000E+00  0.00000000000E+00  0.20047570994E+04  0.44505839830E+04  0.39734930177E+04 0.  0.
        5    1    3    3  502    0 -0.32753304852E+03 -0.19022854772E+04  0.47562279237E+03  0.19880158614E+04  0.46999998093E+01 0. -1.
       -5    1    3    3    0  502  0.32753304852E+03  0.19022854772E+04  0.15291343070E+04  0.24625681216E+04  0.46999998093E+01 0.  1.
</event>
<event>
 5   0  0.5846812E-08  0.3989310E+04  0.7818609E-02  0.8006707E-01
       -2   -1    0    0    0  501  0.00000000000E+00  0.00000000000E+00  0.19392536760E+04  0.19392536760E+04  0.25500000920E-02 0. -1.
        2   -1    0    0  501    0  0.00000000000E+00  0.00000000000E+00 -0.20516390493E+04  0.20516390493E+04  0.25500000920E-02 0.  1.
    10030    2    1    2    0    0  0.00000000000E+00  0.00000000000E+00 -0.11238537331E+03  0.39908927253E+04  0.39893099996E+04 0.  0.
        4    1    3    3  502    0  0.51744886874E+03  0.18139427674E+04 -0.70491372862E+03  0.20137146454E+04  0.12699999809E+01 0.  1.
       -4    1    3    3    0  502 -0.51744886874E+03 -0.18139427674E+04  0.59252835531E+03  0.19771780800E+04  0.12699999809E+01 0. -1.
</event>
<event>
 5   0  0.6161563E-08  0.3986970E+04  0.7818609E-02  0.8007180E-01
       -2   -1    0    0    0  501  0.00000000000E+00  0.00000000000E+00  0.12328369836E+04  0.12328369836E+04  0.25500000920E-02 0. -1.
        2   -1    0    0  501    0  0.00000000000E+00  0.00000000000E+00 -0.32234456809E+04  0.32234456809E+04  0.25500000920E-02 0.  1.
    10030    2    1    2    0    0  0.00000000000E+00  0.00000000000E+00 -0.19906086973E+04  0.44562826645E+04  0.39869703034E+04 0.  0.
        1    1    3    3  502    0  0.26950057133E+03  0.61688896916E+03  0.11019467850E+04  0.12913052603E+04  0.50400001928E-02 0. -1.
       -1    1    3    3    0  502 -0.26950057133E+03 -0.61688896916E+03 -0.30925554823E+04  0.31649774042E+04  0.50400001928E-02 0.  1.
</event>
<event>
 5   0  0.1879500E-08  0.3971415E+04  0.7818609E-02  0.8010338E-01
        1   -1    0    0  501    0  0.00000000000E+00  0.00000000000E+00  0.16284971870E+04  0.16284971871E+04  0.50400001928E-02 0. -1.
       -1   -1    0    0    0  501  0.00000000000E+00  0.00000000000E+00 -0.24212718391E+04  0.24212718392E+04  0.50400001928E-02 0.  1.
    10030    2    1    2    0    0  0.00000000000E+00  0.00000000000E+00 -0.79277465210E+03  0.40497690262E+04  0.39714150522E+04 0.  0.
        3    1    3    3  502    0  0.14162733667E+03  0.72970193190E+03 -0.22740499690E+04  0.23924519815E+04  0.10100000352E+00 0.  1.
       -3    1    3    3    0  502 -0.14162733667E+03 -0.72970193190E+03  0.14812753169E+04  0.16573170447E+04  0.10100000352E+00 0. -1.
</event>
<event>
 5   0  0.5945387E-08  0.4021925E+04  0.7818609E-02  0.8000138E-01
        2   -1    0    0  501    0  0.00000000000E+00  0.00000000000E+00  0.19876815090E+04  0.19876815090E+04  0.25500000920E-02 0.  1.
       -2   -1    0    0    0  501  0.00000000000E+00  0.00000000000E+00 -0.20345162222E+04  0.20345162222E+04  0.25500000920E-02 0. -1.
    10030    2    1    2    0    0  0.00000000000E+00  0.00000000000E+00 -0.46834713185E+02  0.40221977313E+04  0.40219250489E+04 0.  0.
        3    1    3    3  502    0 -0.16917095183E+04  0.98639801829E+03  0.43389705958E+03  0.20057738690E+04  0.10100000352E+00 0.  1.
       -3    1    3    3    0  502  0.16917095183E+04 -0.98639801829E+03 -0.48073177276E+03  0.20164238623E+04  0.10100000352E+00 0. -1.
</event>
<event>
 5   0  0.1879500E-08  0.3857103E+04  0.7818609E-02  0.8034011E-01
        1   -1    0    0  501    0  0.00000000000E+00  0.00000000000E+00  0.16613585140E+04  0.16613585140E+04  0.50400001928E-02 0.  1.
       -1   -1    0    0    0  501  0.00000000000E+00  0.00000000000E+00 -0.22387162522E+04  0.22387162522E+04  0.50400001928E-02 0. -1.
    10030    2    1    2    0    0  0.00000000000E+00  0.00000000000E+00 -0.57735773818E+03  0.39000747662E+04  0.38571026982E+04 0.  0.
        3    1    3    3  502    0 -0.17836584863E+03  0.66332953472E+03 -0.21108351877E+04  0.22197850453E+04  0.10100000352E+00 0. -1.
       -3    1    3    3    0  502  0.17836584863E+03 -0.66332953472E+03  0.15334774495E+04  0.16802897209E+04  0.10100000352E+00 0.  1.
</event>
<event>
 5   0  0.1879500E-08  0.3988419E+04  0.7818609E-02  0.8006887E-01
       -1   -1    0    0    0  501  0.00000000000E+00  0.00000000000E+00  0.19334926787E+04  0.19334926787E+04  0.50400001928E-02 0. -1.
        1   -1    0    0  501    0  0.00000000000E+00  0.00000000000E+00 -0.20568329489E+04  0.20568329489E+04  0.50400001928E-02 0.  1.
    10030    2    1    2    0    0  0.00000000000E+00  0.00000000000E+00 -0.12334027023E+03  0.39903256277E+04  0.39884189590E+04 0.  0.
        5    1    3    3  502    0 -0.56496205585E+02 -0.63311232232E+03 -0.19527658833E+04  0.20536162541E+04  0.46999998093E+01 0.  1.
       -5    1    3    3    0  502  0.56496205585E+02  0.63311232232E+03  0.18294256131E+04  0.19367093736E+04  0.46999998093E+01 0. -1.
</event>
<event>
 5   0  0.1879500E-08  0.3996612E+04  0.7818609E-02  0.8005230E-01
        1   -1    0    0  501    0  0.00000000000E+00  0.00000000000E+00  0.17649845853E+04  0.17649845853E+04  0.50400001928E-02 0.  1.
       -1   -1    0    0    0  501  0.00000000000E+00  0.00000000000E+00 -0.22624706898E+04  0.22624706898E+04  0.50400001928E-02 0. -1.
    10030    2    1    2    0    0  0.00000000000E+00  0.00000000000E+00 -0.49748610452E+03  0.40274552751E+04  0.39966115109E+04 0.  0.
        1    1    3    3  502    0 -0.48100525635E+03  0.10592678824E+04 -0.18860316618E+04  0.22159715551E+04  0.50400001928E-02 0. -1.
       -1    1    3    3    0  502  0.48100525635E+03 -0.10592678824E+04  0.13885455573E+04  0.18114837201E+04  0.50400001928E-02 0.  1.
</event>
<event>
 5   0  0.1879500E-08  0.3978324E+04  0.7818609E-02  0.8008934E-01
        1   -1    0    0  501    0  0.00000000000E+00  0.00000000000E+00  0.26171481452E+04  0.26171481452E+04  0.50400001928E-02 0.  1.
       -1   -1    0    0    0  501  0.00000000000E+00  0.00000000000E+00 -0.15118617652E+04  0.15118617652E+04  0.50400001928E-02 0. -1.
    10030    2    1    2    0    0  0.00000000000E+00  0.00000000000E+00  0.11052863799E+04  0.41290099104E+04  0.39783243783E+04 0.  0.
        1    1    3    3  502    0 -0.14063759119E+04 -0.93630655323E+03 -0.53698050274E+03  0.17728257747E+04  0.50400001928E-02 0. -1.
       -1    1    3    3    0  502  0.14063759119E+04  0.93630655323E+03  0.16422668827E+04  0.23561841357E+04  0.50400001928E-02 0.  1.
</event>
<event>
 5   0  0.5945387E-08  0.3948077E+04  0.7818609E-02  0.8015104E-01
        2   -1    0    0  501    0  0.00000000000E+00  0.00000000000E+00  0.13868681980E+04  0.13868681980E+04  0.25500000920E-02 0.  1.
       -2   -1    0    0    0  501  0.00000000000E+00  0.00000000000E+00 -0.28098047898E+04  0.28098047898E+04  0.25500000920E-02 0. -1.
    10030    2    1    2    0    0  0.00000000000E+00  0.00000000000E+00 -0.14229365919E+04  0.41966729878E+04  0.39480774590E+04 0.  0.
        3    1    3    3  502    0 -0.17444666818E+04  0.51848937936E+03 -0.15243655251E+04  0.23739598785E+04  0.10100000352E+00 0. -1.
       -3    1    3    3    0  502  0.17444666818E+04 -0.51848937936E+03  0.10142893320E+03  0.18227131094E+04  0.10100000352E+00 0.  1.
</event>
<event>
 5   0  0.1879500E-08  0.4007084E+04  0.7818609E-02  0.8003119E-01
       -1   -1    0    0    0  501  0.00000000000E+00  0.00000000000E+00  0.15511493727E+04  0.15511493727E+04  0.50400001928E-02 0. -1.
        1   -1    0    0  501    0  0.00000000000E+00  0.00000000000E+00 -0.25878748684E+04  0.25878748684E+04  0.50400001928E-02 0.  1.
    10030    2    1    2    0    0  0.00000000000E+00  0.00000000000E+00 -0.10367254957E+04  0.41390242412E+04  0.40070839666E+04 0.  0.
        1    1    3    3  502    0  0.14177457628E+03  0.14461536253E+04  0.90644735075E+03  0.17126316411E+04  0.50400001928E-02 0. -1.
       -1    1    3    3    0  502 -0.14177457628E+03 -0.14461536253E+04 -0.19431728465E+04  0.24263926001E+04  0.50400001928E-02 0.  1.
</event>
<event>
 5   0  0.1879500E-08  0.4003058E+04  0.7818609E-02  0.8003930E-01
        1   -1    0    0  501    0  0.00000000000E+00  0.00000000000E+00  0.20405386661E+04  0.20405386661E+04  0.50400001928E-02 0. -1.
       -1   -1    0    0    0  501  0.00000000000E+00  0.00000000000E+00 -0.19632648593E+04  0.19632648593E+04  0.50400001928E-02 0.  1.
    10030    2    1    2    0    0  0.00000000000E+00  0.00000000000E+00  0.77273806769E+02  0.40038035255E+04  0.40030577599E+04 0.  0.
        2    1    3    3  502    0  0.49867272108E+03 -0.90152653552E+03  0.17549674570E+04  0.20350271133E+04  0.25500000920E-02 0. -1.
       -2    1    3    3    0  502 -0.49867272108E+03  0.90152653552E+03 -0.16776936502E+04  0.19687764121E+04  0.25500000920E-02 0.  1.
</event>
<event>
 5   0  0.1879500E-08  0.3994385E+04  0.7818609E-02  0.8005680E-01
       -1   -1    0    0    0  501  0.00000000000E+00  0.00000000000E+00  0.24444280157E+04  0.24444280157E+04  0.50400001928E-02 0. -1.
        1   -1    0    0  501    0  0.00000000000E+00  0.00000000000E+00 -0.16317836628E+04  0.16317836628E+04  0.50400001928E-02 0.  1.
    10030    2    1    2    0    0  0.00000000000E+00  0.00000000000E+00  0.81264435286E+03  0.40762116786E+04  0.39943849094E+04 0.  0.
        5    1    3    3  502    0 -0.71379427786E+03  0.83551209004E+03  0.21081703390E+04  0.23773907950E+04  0.46999998093E+01 0. -1.
       -5    1    3    3    0  502  0.71379427786E+03 -0.83551209004E+03 -0.12955259861E+04  0.16988208836E+04  0.46999998093E+01 0.  1.
</event>
<event>
 5   0  0.5846812E-08  0.4036611E+04  0.7818609E-02  0.7997201E-01
        2   -1    0    0  501    0  0.00000000000E+00  0.00000000000E+00  0.21591221339E+04  0.21591221339E+04  0.25500000920E-02 0. -1.
       -2   -1    0    0    0  501  0.00000000000E+00  0.00000000000E+00 -0.18866733061E+04  0.18866733061E+04  0.25500000920E-02 0.  1.
    10030    2    1    2    0    0  0.00000000000E+00  0.00000000000E+00  0.27244882779E+03  0.40457954400E+04  0.40366114971E+04 0.  0.
        4    1    3    3  502    0 -0.16212718291E+04 -0.28153461844E+03 -0.10350971354E+04  0.19440194900E+04  0.12699999809E+01 0.  1.
       -4    1    3    3    0  502  0.16212718291E+04  0.28153461844E+03  0.13075459631E+04  0.21017759499E+04  0.12699999809E+01 0. -1.
</event>
<event>
 5   0  0.5945387E-08  0.4003644E+04  0.7818609E-02  0.8003812E-01
        2   -1    0    0  501    0  0.00000000000E+00  0.00000000000E+00  0.16905240949E+04  0.16905240949E+04  0.25500000920E-02 0. -1.
       -2   -1    0    0    0  501  0.00000000000E+00  0.00000000000E+00 -0.23704430829E+04  0.23704430829E+04  0.25500000920E-02 0.  1.
    10030    2    1    2    0    0  0.00000000000E+00  0.00000000000E+00 -0.67991898804E+03  0.40609671778E+04  0.40036439138E+04 0.  0.
        3    1    3    3  502    0  0.64859229752E+03 -0.82028868583E+03 -0.20713692233E+04  0.23203697907E+04  0.10100000352E+00 0.  1.
       -3    1    3    3    0  502 -0.64859229752E+03  0.82028868583E+03  0.13914502352E+04  0.17405973871E+04  0.10100000352E+00 0. -1.
</event>
<event>
 5   0  0.1879500E-08  0.3988596E+04  0.7818609E-02  0.8006851E-01
        1   -1    0    0  501    0  0.00000000000E+00  0.00000000000E+00  0.26523032421E+04  0.26523032421E+04  0.50400001928E-02 0.  1.
       -1   -1    0    0    0  501  0.00000000000E+00  0.00000000000E+00 -0.14995362489E+04  0.14995362489E+04  0.50400001928E-02 0. -1.
    10030    2    1    2    0    0  0.00000000000E+00  0.00000000000E+00  0.11527669932E+04  0.41518394909E+04  0.39885961713E+04 0.  0.
        1    1    3    3  502    0 -0.47730144311E+03 -0.60677727206E+03  0.24904534857E+04  0.26073653158E+04  0.50400001928E-02 0.  1.
       -1    1    3    3    0  502  0.47730144311E+03  0.60677727206E+03 -0.13376864925E+04  0.15444741751E+04  0.50400001928E-02 0. -1.
</event>
<event>
 5   0  0.1879500E-08  0.3984941E+04  0.7818609E-02  0.8007591E-01
        1   -1    0    0  501    0  0.00000000000E+00  0.00000000000E+00  0.19275091559E+04  0.19275091559E+04  0.50400001928E-02 0.  1.
       -1   -1    0    0    0  501  0.00000000000E+00  0.00000000000E+00 -0.20596207598E+04  0.20596207598E+04  0.50400001928E-02 0. -1.
    10030    2    1    2    0    0  0.00000000000E+00  0.00000000000E+00 -0.13211160395E+03  0.39871299157E+04  0.39849405879E+04 0.  0.
        2    1    3    3  502    0  0.15591744267E+04  0.33331946083E+03  0.11295111879E+04  0.19539504291E+04  0.25500000920E-02 0.  1.
       -2    1    3    3    0  502 -0.15591744267E+04 -0.33331946083E+03 -0.12616227918E+04  0.20331794866E+04  0.25500000920E-02 0. -1.
</event>
<event>
 5   0  0.1879500E-08  0.3974708E+04  0.7818609E-02  0.8009668E-01
       -1   -1    0    0    0  501  0.00000000000E+00  0.00000000000E+00  0.22117515629E+04  0.22117515629E+04  0.50400001928E-02 0. -1.
        1   -1    0    0  501    0  0.00000000000E+00  0.00000000000E+00 -0.17857231378E+04  0.17857231378E+04  0.50400001928E-02 0.  1.
    10030    2    1    2    0    0  0.00000000000E+00  0.00000000000E+00  0.42602842510E+03  0.39974747006E+04  0.39747080098E+04 0.  0.
        4    1    3    3  502    0  0.14816397741E+03 -0.25116946449E+03  0.21901165685E+04  0.22094458265E+04  0.12699999809E+01 0. -1.
       -4    1    3    3    0  502 -0.14816397741E+03  0.25116946449E+03 -0.17640881434E+04  0.17880288741E+04  0.12699999809E+01 0.  1.
</event>
<event>
 5   0  0.1879500E-08  0.4024407E+04  0.7818609E-02  0.7999641E-01
        1   -1    0    0  501    0  0.00000000000E+00  0.00000000000E+00  0.18363191596E+04  0.18363191596E+04  0.50400001928E-02 0. -1.
       -1   -1    0    0    0  501  0.00000000000E+00  0.00000000000E+00 -0.22049341588E+04  0.22049341588E+04  0.50400001928E-02 0.  1.
    10030    2    1    2    0    0  0.00000000000E+00  0.00000000000E+00 -0.36861499922E+03  0.40412533184E+04  0.40244069583E+04 0.  0.
        3    1    3    3  502    0  0.16703463973E+04  0.67008760616E+03 -0.10880126500E+04  0.21030563529E+04  0.10100000352E+00 0. -1.
       -3    1    3    3    0  502 -0.16703463973E+04 -0.67008760616E+03  0.71939765080E+03  0.19381969655E+04  0.10100000352E+00 0.  1.
</event>
<event>
 5   0  0.1879500E-08  0.4002237E+04  0.7818609E-02  0.8004095E-01
       -1   -1    0    0    0  501  0.00000000000E+00  0.00000000000E+00  0.16770399589E+04  0.16770399589E+04  0.50400001928E-02 0.  1.
        1   -1    0    0  501    0  0.00000000000E+00  0.00000000000E+00 -0.23878236169E+04  0.23878236169E+04  0.50400001928E-02 0. -1.
    10030    2    1    2    0    0  0.00000000000E+00  0.00000000000E+00 -0.71078365798E+03  0.40648635758E+04  0.40022371845E+04 0.  0.
        1    1    3    3  502    0 -0.14094626272E+03 -0.12863052950E+04  0.11949367916E+04  0.17613407101E+04  0.50400001928E-02 0.  1.
       -1    1    3    3    0  502  0.14094626272E+03  0.12863052950E+04 -0.19057204495E+04  0.23035228657E+04  0.50400001928E-02 0. -1.
</event>
<event>
 5   0  0.5846812E-08  0.3968643E+04  0.7818609E-02  0.8010902E-01
        2   -1    0    0  501    0  0.00000000000E+00  0.00000000000E+00  0.19002095366E+04  0.19002095366E+04  0.25500000920E-02 0.  1.
       -2   -1    0    0    0  501  0.00000000000E+00  0.00000000000E+00 -0.20721564172E+04  0.20721564172E+04  0.25500000920E-02 0. -1.
    10030    2    1    2    0    0  0.00000000000E+00  0.00000000000E+00 -0.17194688066E+03  0.39723659538E+04  0.39686427833E+04 0.  0.
        4    1    3    3  502    0 -0.63708179970E+03  0.71864619453E+03  0.16520899255E+04  0.19109495826E+04  0.12699999809E+01 0.  1.
       -4    1    3    3    0  502  0.63708179970E+03 -0.71864619453E+03 -0.18240368062E+04  0.20614163712E+04  0.12699999809E+01 0. -1.
</event>
<event>
 5   0  0.5846812E-08  0.4002898E+04  0.7818609E-02  0.8003962E-01
        2   -1    0    0  501    0  0.00000000000E+00  0.00000000000E+00  0.25471551970E+04  0.25471551970E+04  0.25500000920E-02 0.  1.
       -2   -1    0    0    0  501  0.00000000000E+00  0.00000000000E+00 -0.15726555004E+04  0.15726555004E+04  0.25500000920E-02 0. -1.
    10030    2    1    2    0    0  0.00000000000E+00  0.00000000000E+00  0.97449969662E+03  0.41198106974E+04  0.40028977658E+04 0.  0.
        4    1    3    3  502    0 -0.68208374368E+03 -0.12118841184E+04  0.19686984862E+04  0.24103270924E+04  0.12699999809E+01 0.  1.
       -4    1    3    3    0  502  0.68208374368E+03  0.12118841184E+04 -0.99419878954E+03  0.17094836050E+04  0.12699999809E+01 0. -1.
</event>
<event>
 5   0  0.1879500E-08  0.4004060E+04  0.7818609E-02  0.8003728E-01
       -1   -1    0    0    0  501  0.00000000000E+00  0.00000000000E+00  0.18587548427E+04  0.18587548428E+04  0.50400001928E-02 0. -1.
        1   -1    0    0  501    0  0.00000000000E+00  0.00000000000E+00 -0.21563491210E+04  0.21563491210E+04  0.50400001928E-02 0.  1.
    10030    2    1    2    0    0  0.00000000000E+00  0.00000000000E+00 -0.29759427825E+03  0.40151039638E+04  0.40040601251E+04 0.  0.
        3    1    3    3  502    0  0.71446341826E+03 -0.98805322567E+03  0.14434796378E+04  0.18895345003E+04  0.10100000352E+00 0. -1.
       -3    1    3    3    0  502 -0.71446341826E+03  0.98805322567E+03 -0.17410739160E+04  0.21255694635E+04  0.10100000352E+00 0.  1.
</event>
<event>
 5   0  0.1879500E-08  0.3974424E+04  0.7818609E-02  0.8009726E-01
       -1   -1    0    0    0  501  0.00000000000E+00  0.00000000000E+00  0.26952653879E+04  0.26952653879E+04  0.50400001928E-02 0.  1.
        1   -1    0    0  501    0  0.00000000000E+00  0.00000000000E+00 -0.14651660407E+04  0.14651660407E+04  0.50400001928E-02 0. -1.
    10030    2    1    2    0    0  0.00000000000E+00  0.00000000000E+00  0.12300993472E+04  0.41604314286E+04  0.39744238913E+04 0.  0.
        4    1    3    3  502    0  0.17467991843E+04 -0.27339456148E+03  0.15646764404E+04  0.23609883423E+04  0.12699999809E+01 0.  1.
       -4    1    3    3    0  502 -0.17467991843E+04  0.27339456148E+03 -0.33457709318E+03  0.17994430863E+04  0.12699999809E+01 0. -1.
</event>
<event>
 5   0  0.5846812E-08  0.4016956E+04  0.7818609E-02  0.8001135E-01
        2   -1    0    0  501    0  0.00000000000E+00  0.00000000000E+00  0.25218677641E+04  0.25218677641E+04  0.25500000920E-02 0. -1.
       -2   -1    0    0    0  501  0.00000000000E+00  0.00000000000E+00 -0.15996014714E+04  0.15996014714E+04  0.25500000920E-02 0.  1.
    10030    2    1    2    0    0  0.00000000000E+00  0.00000000000E+00  0.92226629272E+03  0.41214692355E+04  0.40169557559E+04 0.  0.
        4    1    3    3  502    0  0.85519413645E+02  0.18154284568E+04 -0.41602994021E+03  0.18644507438E+04  0.12699999809E+01 0.  1.
       -4    1    3    3    0  502 -0.85519413645E+02 -0.18154284568E+04  0.13382962329E+04  0.22570184917E+04  0.12699999809E+01 0. -1.
</event>
<event>
 5   0  0.5846812E-08  0.3997665E+04  0.7818609E-02  0.8005018E-01
        2   -1    0    0  501    0  0.00000000000E+00  0.00000000000E+00  0.18646186072E+04  0.18646186072E+04  0.25500000920E-02 0.  1.
       -2   -1    0    0    0  501  0.00000000000E+00  0.00000000000E+00 -0.21427067607E+04  0.21427067607E+04  0.25500000920E-02 0. -1.
    10030    2    1    2    0    0  0.00000000000E+00  0.00000000000E+00 -0.27808815358E+03  0.40073253679E+04  0.39976647662E+04 0.  0.
        4    1    3    3  502    0  0.88686536799E+03  0.34165300645E+02  0.16562702254E+04  0.18790769332E+04  0.12699999809E+01 0.  1.
       -4    1    3    3    0  502 -0.88686536799E+03 -0.34165300645E+02 -0.19343583789E+04  0.21282484347E+04  0.12699999809E+01 0. -1.
</event>
<event>
 5   0  0.5888700E-08  0.4002712E+04  0.7818609E-02  0.8004000E-01
       -2   -1    0    0    0  501  0.00000000000E+00  0.00000000000E+00  0.16374025885E+04  0.16374025885E+04  0.25500000920E-02 0. -1.
        2   -1    0    0  501    0  0.00000000000E+00  0.00000000000E+00 -0.24462065740E+04  0.24462065740E+04  0.25500000920E-02 0.  1.
    10030    2    1    2    0    0  0.00000000000E+00  0.00000000000E+00 -0.80880398550E+03  0.40836091624E+04  0.40027115690E+04 0.  0.
        5    1    3    3  502    0 -0.55579507730E+03 -0.30128832843E+02 -0.23656458069E+04  0.24302506225E+04  0.46999998093E+01 0.  1.
       -5    1    3    3    0  502  0.55579507730E+03  0.30128832843E+02  0.15568418214E+04  0.16533585399E+04  0.46999998093E+01 0. -1.
</event>
<event>
 5   0  0.6161563E-08  0.4001069E+04  0.7818609E-02  0.8004331E-01
        2   -1    0    0  501    0  0.00000000000E+00  0.00000000000E+00  0.19158819018E+04  0.19158819018E+04  0.25500000920E-02 0. -1.
       -2   -1    0    0    0  501  0.00000000000E+00  0.00000000000E+00 -0.20889278780E+04  0.20889278780E+04  0.25500000920E-02 0.  1.
    10030    2    1    2    0    0  0.00000000000E+00  0.00000000000E+00 -0.17304597621E+03  0.40048097799E+04  0.40010694149E+04 0.  0.
        1    1    3    3  502    0  0.41246740596E+03  0.19572895664E+04 -0.11860459739E+03  0.20037911214E+04  0.50400001928E-02 0. -1.
       -1    1    3    3    0  502 -0.41246740596E+03 -0.19572895664E+04 -0.54441378818E+02  0.20010186585E+04  0.50400001928E-02 0.  1.
</event>
<event>
 5   0  0.1879500E-08  0.4003889E+04  0.7818609E-02  0.8003762E-01
       -3   -1    0    0    0  501  0.00000000000E+00  0.00000000000E+00  0.25620124957E+04  0.25620124977E+04  0.10100000352E+00 0.  1.
        3   -1    0    0  501    0  0.00000000000E+00  0.00000000000E+00 -0.15643100790E+04  0.15643100822E+04  0.10100000352E+00 0. -1.
    10030    2    1    2    0    0  0.00000000000E+00  0.00000000000E+00  0.99770241671E+03  0.41263225799E+04  0.40038890995E+04 0.  0.
        5    1    3    3  502    0 -0.39916708050E+03 -0.18559606787E+04  0.11537638579E+04  0.22215124417E+04  0.46999998093E+01 0. -1.
       -5    1    3    3    0  502  0.39916708050E+03  0.18559606787E+04 -0.15606144114E+03  0.19048101382E+04  0.46999998093E+01 0.  1.
</event>
<event>
 5   0  0.5888700E-08  0.4001784E+04  0.7818609E-02  0.8004187E-01
       -2   -1    0    0    0  501  0.00000000000E+00  0.00000000000E+00  0.18196711326E+04  0.18196711326E+04  0.25500000920E-02 0. -1.
        2   -1    0    0  501    0  0.00000000000E+00  0.00000000000E+00 -0.22001605849E+04  0.22001605849E+04  0.25500000920E-02 0.  1.
    10030    2    1    2    0    0  0.00000000000E+00  0.00000000000E+00 -0.38048945230E+03  0.40198317174E+04  0.40017839538E+04 0.  0.
        5    1    3    3  502    0 -0.88643870234E+03 -0.53425641048E+03  0.15298866909E+04  0.18471001224E+04  0.46999998093E+01 0. -1.
       -5    1    3    3    0  502  0.88643870234E+03  0.53425641048E+03 -0.19103761432E+04  0.21727315950E+04  0.46999998093E+01 0.  1.
</event>
<event>
 5   0  0.1879500E-08  0.4010462E+04  0.7818609E-02  0.8002439E-01
        1   -1    0    0  501    0  0.00000000000E+00  0.00000000000E+00  0.23001691551E+04  0.23001691551E+04  0.50400001928E-02 0. -1.
       -1   -1    0    0    0  501  0.00000000000E+00  0.00000000000E+00 -0.17481115261E+04  0.17481115261E+04  0.50400001928E-02 0.  1.
    10030    2    1    2    0    0  0.00000000000E+00  0.00000000000E+00  0.55205762899E+03  0.40482806812E+04  0.40104624232E+04 0.  0.
        2    1    3    3  502    0 -0.19718915853E+04 -0.35624504975E+03  0.19991718236E+03  0.20137611178E+04  0.25500000920E-02 0. -1.
       -2    1    3    3    0  502  0.19718915853E+04  0.35624504975E+03  0.35214044664E+03  0.20345195634E+04  0.25500000920E-02 0.  1.
</event>
<event>
 5   0  0.5888700E-08  0.3958421E+04  0.7818609E-02  0.8012987E-01
        2   -1    0    0  501    0  0.00000000000E+00  0.00000000000E+00  0.31801694176E+04  0.31801694176E+04  0.25500000920E-02 0. -1.
       -2   -1    0    0    0  501  0.00000000000E+00  0.00000000000E+00 -0.12317816353E+04  0.12317816353E+04  0.25500000920E-02 0.  1.
    10030    2    1    2    0    0  0.00000000000E+00  0.00000000000E+00  0.19483877823E+04  0.44119510529E+04  0.39584210417E+04 0.  0.
        5    1    3    3  502    0 -0.19460038872E+04  0.35296729773E+03  0.88978635610E+03  0.21686998160E+04  0.46999998093E+01 0. -1.
       -5    1    3    3    0  502  0.19460038872E+04 -0.35296729773E+03  0.10586014262E+04  0.22432512369E+04  0.46999998093E+01 0.  1.
</event>
<event>
 5   0  0.1879500E-08  0.3960356E+04  0.7818609E-02  0.8012592E-01
        1   -1    0    0  501    0  0.00000000000E+00  0.00000000000E+00  0.19929353245E+04  0.19929353245E+04  0.50400001928E-02 0. -1.
       -1   -1    0    0    0  501  0.00000000000E+00  0.00000000000E+00 -0.19675021818E+04  0.19675021818E+04  0.50400001928E-02 0.  1.
    10030    2    1    2    0    0  0.00000000000E+00  0.00000000000E+00  0.25433142706E+02  0.39604375063E+04  0.39603558422E+04 0.  0.
        3    1    3    3  502    0  0.40820482320E+03 -0.23021834115E+03 -0.19112443378E+04  0.19678634585E+04  0.10100000352E+00 0.  1.
       -3    1    3    3    0  502 -0.40820482320E+03  0.23021834115E+03  0.19366774805E+04  0.19925740478E+04  0.10100000352E+00 0. -1.
</event>
<event>
 5   0  0.1879500E-08  0.3992717E+04  0.7818609E-02  0.8006017E-01
        1   -1    0    0  501    0  0.00000000000E+00  0.00000000000E+00  0.26472103604E+04  0.26472103604E+04  0.50400001928E-02 0. -1.
       -1   -1    0    0    0  501  0.00000000000E+00  0.00000000000E+00 -0.15055273475E+04  0.15055273475E+04  0.50400001928E-02 0.  1.
    10030    2    1    2    0    0  0.00000000000E+00  0.00000000000E+00  0.11416830129E+04  0.41527377079E+04  0.39927171661E+04 0.  0.
        4    1    3    3  502    0  0.18629994953E+04 -0.78775823445E+01 -0.17527721223E+03  0.18712436747E+04  0.12699999809E+01 0. -1.
       -4    1    3    3    0  502 -0.18629994953E+04  0.78775823445E+01  0.13169602252E+04  0.22814940332E+04  0.12699999809E+01 0.  1.
</event>
<event>
 5   0  0.1879500E-08  0.4001569E+04  0.7818609E-02  0.8004230E-01
        1   -1    0    0  501    0  0.00000000000E+00  0.00000000000E+00  0.13044941891E+04  0.13044941891E+04  0.50400001928E-02 0.  1.
       -1   -1    0    0    0  501  0.00000000000E+00  0.00000000000E+00 -0.30687279574E+04  0.30687279574E+04  0.50400001928E-02 0. -1.
    10030    2    1    2    0    0  0.00000000000E+00  0.00000000000E+00 -0.17642337683E+04  0.43732221465E+04  0.40015685866E+04 0.  0.
        5    1    3    3  502    0  0.74272440620E+03  0.14645759541E+04 -0.21312964995E+04  0.26905518259E+04  0.46999998093E+01 0. -1.
       -5    1    3    3    0  502 -0.74272440620E+03 -0.14645759541E+04  0.36706273125E+03  0.16826703206E+04  0.46999998093E+01 0.  1.
</event>
<event>
 5   0  0.1879500E-08  0.3999737E+04  0.7818609E-02  0.8004600E-01
       -1   -1    0    0    0  501  0.00000000000E+00  0.00000000000E+00  0.17024923573E+04  0.17024923573E+04  0.50400001928E-02 0.  1.
        1   -1    0    0  501    0  0.00000000000E+00  0.00000000000E+00 -0.23491870744E+04  0.23491870744E+04  0.50400001928E-02 0. -1.
    10030    2    1    2    0    0  0.00000000000E+00  0.00000000000E+00 -0.64669471710E+03  0.40516794317E+04  0.39997365113E+04 0.  0.
        3    1    3    3  502    0  0.85442735750E+03  0.15460320510E+04  0.62649263693E+03  0.18742343093E+04  0.10100000352E+00 0.  1.
       -3    1    3    3    0  502 -0.85442735750E+03 -0.15460320510E+04 -0.12731873540E+04  0.21774451223E+04  0.10100000352E+00 0. -1.
</event>
<event>
 5   0  0.5951623E-08  0.3993107E+04  0.7818609E-02  0.8005938E-01
        2   -1    0    0  501    0  0.00000000000E+00  0.00000000000E+00  0.28061826597E+04  0.28061826597E+04  0.25500000920E-02 0. -1.
       -2   -1    0    0    0  501  0.00000000000E+00  0.00000000000E+00 -0.14205157557E+04  0.14205157557E+04  0.25500000920E-02 0.  1.
    10030    2    1    2    0    0  0.00000000000E+00  0.00000000000E+00  0.13856669040E+04  0.42266984154E+04  0.39931074022E+04 0.  0.
        2    1    3    3  502    0  0.17694939556E+04 -0.51231153664E+03 -0.12204182250E+03  0.18462031784E+04  0.25500000920E-02 0.  1.
       -2    1    3    3    0  502 -0.17694939556E+04  0.51231153664E+03  0.15077087265E+04  0.23804952370E+04  0.25500000920E-02 0. -1.
</event>
<event>
 5   0  0.1879500E-08  0.4004759E+04  0.7818609E-02  0.8003587E-01
        1   -1    0    0  501    0  0.00000000000E+00  0.00000000000E+00  0.18860284368E+04  0.18860284368E+04  0.50400001928E-02 0. -1.
       -1   -1    0    0    0  501  0.00000000000E+00  0.00000000000E+00 -0.21259088299E+04  0.21259088299E+04  0.50400001928E-02 0.  1.
    10030    2    1    2    0    0  0.00000000000E+00  0.00000000000E+00 -0.23988039307E+03  0.40119372667E+04  0.40047594221E+04 0.  0.
        5    1    3    3  502    0 -0.16668769998E+04  0.30035245762E+03 -0.11899425190E+04  0.20699458495E+04  0.46999998093E+01 0. -1.
       -5    1    3    3    0  502  0.16668769998E+04 -0.30035245762E+03  0.95006212595E+03  0.19419914172E+04  0.46999998093E+01 0.  1.
</event>
<event>
 5   0  0.1879500E-08  0.3999011E+04  0.7818609E-02  0.8004746E-01
        1   -1    0    0  501    0  0.00000000000E+00  0.00000000000E+00  0.22370600447E+04  0.22370600447E+04  0.50400001928E-02 0.  1.
       -1   -1    0    0    0  501  0.00000000000E+00  0.00000000000E+00 -0.17871768103E+04  0.17871768103E+04  0.50400001928E-02 0. -1.
    10030    2    1    2    0    0  0.00000000000E+00  0.00000000000E+00  0.44988323440E+03  0.40242368551E+04  0.39990107953E+04 0.  0.
        2    1    3    3  502    0  0.19898448181E+04 -0.59860805270E+02  0.36796668744E+02  0.19910850587E+04  0.25500000920E-02 0. -1.
       -2    1    3    3    0  502 -0.19898448181E+04  0.59860805270E+02  0.41308656566E+03  0.20331517964E+04  0.25500000920E-02 0.  1.
</event>
<event>
 5   0  0.1879500E-08  0.3924342E+04  0.7818609E-02  0.8019985E-01
       -1   -1    0    0    0  501  0.00000000000E+00  0.00000000000E+00  0.18739308666E+04  0.18739308666E+04  0.50400001928E-02 0. -1.
        1   -1    0    0  501    0  0.00000000000E+00  0.00000000000E+00 -0.20545664743E+04  0.20545664743E+04  0.50400001928E-02 0.  1.
    10030    2    1    2    0    0  0.00000000000E+00  0.00000000000E+00 -0.18063560774E+03  0.39284973409E+04  0.39243422551E+04 0.  0.
        3    1    3    3  502    0 -0.18686170042E+04  0.18119465158E+03 -0.66149577189E+03  0.19905119132E+04  0.10100000352E+00 0.  1.
       -3    1    3    3    0  502  0.18686170042E+04 -0.18119465158E+03  0.48086016415E+03  0.19379854277E+04  0.10100000352E+00 0. -1.
</event>
<event>
 5   0  0.6161563E-08  0.3996695E+04  0.7818609E-02  0.8005214E-01
       -2   -1    0    0    0  501  0.00000000000E+00  0.00000000000E+00  0.27461323467E+04  0.27461323467E+04  0.25500000920E-02 0. -1.
        2   -1    0    0  501    0  0.00000000000E+00  0.00000000000E+00 -0.14541881048E+04  0.14541881048E+04  0.25500000920E-02 0.  1.
    10030    2    1    2    0    0  0.00000000000E+00  0.00000000000E+00  0.12919442419E+04  0.42003204515E+04  0.39966951311E+04 0.  0.
        1    1    3    3  502    0  0.33280303085E+03  0.11455936060E+04  0.23308526960E+04  0.26183996750E+04  0.50400001928E-02 0. -1.
       -1    1    3    3    0  502 -0.33280303085E+03 -0.11455936060E+04 -0.10389084541E+04  0.15819207766E+04  0.50400001928E-02 0.  1.
</event>
<event>
 5   0  0.5951623E-08  0.4035220E+04  0.7818609E-02  0.7997479E-01
        2   -1    0    0  501    0  0.00000000000E+00  0.00000000000E+00  0.19857433287E+04  0.19857433287E+04  0.25500000920E-02 0. -1.
       -2   -1    0    0    0  501  0.00000000000E+00  0.00000000000E+00 -0.20499883074E+04  0.20499883074E+04  0.25500000920E-02 0.  1.
    10030    2    1    2    0    0  0.00000000000E+00  0.00000000000E+00 -0.64244978667E+02  0.40357316362E+04  0.40352202445E+04 0.  0.
        2    1    3    3  502    0 -0.80250460188E+03 -0.93837488525E+01  0.18192330956E+04  0.19883940120E+04  0.25500000920E-02 0. -1.
       -2    1    3    3    0  502  0.80250460188E+03  0.93837488525E+01 -0.18834780743E+04  0.20473376241E+04  0.25500000920E-02 0.  1.
</event>
<event>
 5   0  0.1879500E-08  0.3989115E+04  0.7818609E-02  0.8006746E-01
       -1   -1    0    0    0  501  0.00000000000E+00  0.00000000000E+00  0.31548075849E+04  0.31548075849E+04  0.50400001928E-02 0. -1.
        1   -1    0    0  501    0  0.00000000000E+00  0.00000000000E+00 -0.12610149925E+04  0.12610149925E+04  0.50400001928E-02 0.  1.
    10030    2    1    2    0    0  0.00000000000E+00  0.00000000000E+00  0.18937925924E+04  0.44158225774E+04  0.39891150211E+04 0.  0.
        3    1    3    3  502    0  0.60674106489E+03  0.16512577955E+04 -0.93578598102E+02  0.17616878245E+04  0.10100000352E+00 0.  1.
       -3    1    3    3    0  502 -0.60674106489E+03 -0.16512577955E+04  0.19873711905E+04  0.26541347528E+04  0.10100000352E+00 0. -1.
</event>
<event>
 5   0  0.6161563E-08  0.3969963E+04  0.7818609E-02  0.8010633E-01
       -2   -1    0    0    0  501  0.00000000000E+00  0.00000000000E+00  0.13867533148E+04  0.13867533148E+04  0.25500000920E-02 0.  1.
        2   -1    0    0  501    0  0.00000000000E+00  0.00000000000E+00 -0.28412781312E+04  0.28412781312E+04  0.25500000920E-02 0. -1.
    10030    2    1    2    0    0  0.00000000000E+00  0.00000000000E+00 -0.14545248164E+04  0.42280314460E+04  0.39699631569E+04 0.  0.
        1    1    3    3  502    0  0.98954197749E+03 -0.16705601001E+04 -0.11666173884E+04  0.22651623571E+04  0.50400001928E-02 0. -1.
       -1    1    3    3    0  502 -0.98954197749E+03  0.16705601001E+04 -0.28790742799E+03  0.19628690889E+04  0.50400001928E-02 0.  1.
</event>
<event>
 5   0  0.1879500E-08  0.4002817E+04  0.7818609E-02  0.8003979E-01
       -1   -1    0    0    0  501  0.00000000000E+00  0.00000000000E+00  0.17585892785E+04  0.17585892785E+04  0.50400001928E-02 0. -1.
        1   -1    0    0  501    0  0.00000000000E+00  0.00000000000E+00 -0.22777547833E+04  0.22777547833E+04  0.50400001928E-02 0.  1.
    10030    2    1    2    0    0  0.00000000000E+00  0.00000000000E+00 -0.51916550482E+03  0.40363440618E+04  0.40028165788E+04 0.  0.
        1    1    3    3  502    0  0.11597852460E+04  0.15783985937E+04  0.15519110810E+03  0.19648226936E+04  0.50400001928E-02 0. -1.
       -1    1    3    3    0  502 -0.11597852460E+04 -0.15783985937E+04 -0.67435661292E+03  0.20715213682E+04  0.50400001928E-02 0.  1.
</event>
<event>
 5   0  0.1879500E-08  0.4012591E+04  0.7818609E-02  0.8002011E-01
        1   -1    0    0  501    0  0.00000000000E+00  0.00000000000E+00  0.22815619283E+04  0.22815619283E+04  0.50400001928E-02 0. -1.
       -1   -1    0    0    0  501  0.00000000000E+00  0.00000000000E+00 -0.17642397212E+04  0.17642397212E+04  0.50400001928E-02 0.  1.
    10030    2    1    2    0    0  0.00000000000E+00  0.00000000000E+00  0.51732220713E+03  0.40458016496E+04  0.40125912727E+04 0.  0.
        3    1    3    3  502    0  0.11558433199E+04  0.15918564472E+04 -0.13860681617E+03  0.19721035948E+04  0.10100000352E+00 0.  1.
       -3    1    3    3    0  502 -0.11558433199E+04 -0.15918564472E+04  0.65592902330E+03  0.20736980548E+04  0.10100000352E+00 0. -1.
</event>
<event>
 5   0  0.5846812E-08  0.4049982E+04  0.7818609E-02  0.7994539E-01
        2   -1    0    0  501    0  0.00000000000E+00  0.00000000000E+00  0.15521570243E+04  0.15521570243E+04  0.25500000920E-02 0. -1.
       -2   -1    0    0    0  501  0.00000000000E+00  0.00000000000E+00 -0.26418645426E+04  0.26418645426E+04  0.25500000920E-02 0.  1.
    10030    2    1    2    0    0  0.00000000000E+00  0.00000000000E+00 -0.10897075183E+04  0.41940215669E+04  0.40499820281E+04 0.  0.
        4    1    3    3  502    0 -0.12894499405E+03  0.48496080835E+03  0.14867486685E+04  0.15691516858E+04  0.12699999809E+01 0. -1.
       -4    1    3    3    0  502  0.12894499405E+03 -0.48496080835E+03 -0.25764561868E+04  0.26248698810E+04  0.12699999809E+01 0.  1.
</event>
<event>
 5   0  0.5888700E-08  0.4065504E+04  0.7818609E-02  0.7991461E-01
       -2   -1    0    0    0  501  0.00000000000E+00  0.00000000000E+00  0.14740883047E+04  0.14740883047E+04  0.25500000920E-02 0. -1.
        2   -1    0    0  501    0  0.00000000000E+00  0.00000000000E+00 -0.28031434402E+04  0.28031434402E+04  0.25500000920E-02 0.  1.
    10030    2    1    2    0    0  0.00000000000E+00  0.00000000000E+00 -0.13290551355E+04  0.42772317449E+04  0.40655041319E+04 0.  0.
        5    1    3    3  502    0 -0.63942303326E+03  0.89902759415E+03  0.11317095413E+04  0.15804749307E+04  0.46999998093E+01 0. -1.
       -5    1    3    3    0  502  0.63942303326E+03 -0.89902759415E+03 -0.24607646768E+04  0.26967568142E+04  0.46999998093E+01 0.  1.
</event>
<event>
 5   0  0.6161563E-08  0.4006551E+04  0.7818609E-02  0.8003226E-01
       -2   -1    0    0    0  501  0.00000000000E+00  0.00000000000E+00  0.21153862301E+04  0.21153862301E+04  0.25500000920E-02 0. -1.
        2   -1    0    0  501    0  0.00000000000E+00  0.00000000000E+00 -0.18971059618E+04  0.18971059618E+04  0.25500000920E-02 0.  1.
    10030    2    1    2    0    0  0.00000000000E+00  0.00000000000E+00  0.21828026833E+03  0.40124921919E+04  0.40065505506E+04 0.  0.
        1    1    3    3  502    0  0.19987903757E+04  0.12970396325E+03  0.14274200650E+03  0.20080740436E+04  0.50400001928E-02 0. -1.
       -1    1    3    3    0  502 -0.19987903757E+04 -0.12970396325E+03  0.75538261834E+02  0.20044181483E+04  0.50400001928E-02 0.  1.
</event>
<event>
 5   0  0.5888700E-08  0.3867308E+04  0.7818609E-02  0.8031863E-01
       -2   -1    0    0    0  501  0.00000000000E+00  0.00000000000E+00  0.16215359892E+04  0.16215359892E+04  0.25500000920E-02 0.  1.
        2   -1    0    0  501    0  0.00000000000E+00  0.00000000000E+00 -0.23058489066E+04  0.23058489066E+04  0.25500000920E-02 0. -1.
    10030    2    1    2    0    0  0.00000000000E+00  0.00000000000E+00 -0.68431291748E+03  0.39273848958E+04  0.38673075842E+04 0.  0.
        5    1    3    3  502    0 -0.11162533381E+04  0.60535796788E+03 -0.18230675561E+04  0.22217284236E+04  0.46999998093E+01 0. -1.
       -5    1    3    3    0  502  0.11162533381E+04 -0.60535796788E+03  0.11387546386E+04  0.17056564722E+04  0.46999998093E+01 0.  1.
</event>
<event>
 5   0  0.5846812E-08  0.4007569E+04  0.7818609E-02  0.8003021E-01
        2   -1    0    0  501    0  0.00000000000E+00  0.00000000000E+00  0.22075380144E+04  0.22075380144E+04  0.25500000920E-02 0.  1.
       -2   -1    0    0    0  501  0.00000000000E+00  0.00000000000E+00 -0.18188373464E+04  0.18188373464E+04  0.25500000920E-02 0. -1.
    10030    2    1    2    0    0  0.00000000000E+00  0.00000000000E+00  0.38870066803E+03  0.40263753608E+04  0.40075691306E+04 0.  0.
        4    1    3    3  502    0 -0.15026148831E+04  0.27106023143E+03  0.14980628095E+04  0.21390462665E+04  0.12699999809E+01 0.  1.
       -4    1    3    3    0  502  0.15026148831E+04 -0.27106023143E+03 -0.11093621415E+04  0.18873290942E+04  0.12699999809E+01 0. -1.
</event>
<event>
 5   0  0.1879500E-08  0.3983675E+04  0.7818609E-02  0.8007848E-01
       -1   -1    0    0    0  501  0.00000000000E+00  0.00000000000E+00  0.19601180111E+04  0.19601180111E+04  0.50400001928E-02 0. -1.
        1   -1    0    0  501    0  0.00000000000E+00  0.00000000000E+00 -0.20240697986E+04  0.20240697986E+04  0.50400001928E-02 0.  1.
    10030    2    1    2    0    0  0.00000000000E+00  0.00000000000E+00 -0.63951787479E+02  0.39841878098E+04  0.39836745189E+04 0.  0.
        3    1    3    3  502    0 -0.50181008704E+02 -0.34000131279E+03 -0.19941911338E+04  0.20235902043E+04  0.10100000352E+00 0.  1.
       -3    1    3    3    0  502  0.50181008704E+02  0.34000131279E+03  0.19302393463E+04  0.19605976055E+04  0.10100000352E+00 0. -1.
</event>
<event>
 5   0  0.1879500E-08  0.4005871E+04  0.7818609E-02  0.8003363E-01
       -1   -1    0    0    0  501  0.00000000000E+00  0.00000000000E+00  0.21066930045E+04  0.21066930045E+04  0.50400001928E-02 0. -1.
        1   -1    0    0  501    0  0.00000000000E+00  0.00000000000E+00 -0.19042885953E+04  0.19042885953E+04  0.50400001928E-02 0.  1.
    10030    2    1    2    0    0  0.00000000000E+00  0.00000000000E+00  0.20240440920E+03  0.40109815998E+04  0.40058714219E+04 0.  0.
        3    1    3    3  502    0  0.92848470003E+03 -0.83458634400E+03 -0.14670439581E+04  0.19263530801E+04  0.10100000352E+00 0.  1.
       -3    1    3    3    0  502 -0.92848470003E+03  0.83458634400E+03  0.16694483673E+04  0.20846285197E+04  0.10100000352E+00 0. -1.
</event>
<event>
 5   0  0.5945387E-08  0.4010150E+04  0.7818609E-02  0.8002502E-01
       -2   -1    0    0    0  501  0.00000000000E+00  0.00000000000E+00  0.17005172411E+04  0.17005172411E+04  0.25500000920E-02 0. -1.
        2   -1    0    0  501    0  0.00000000000E+00  0.00000000000E+00 -0.23641776459E+04  0.23641776459E+04  0.25500000920E-02 0.  1.
    10030    2    1    2    0    0  0.00000000000E+00  0.00000000000E+00 -0.66366040480E+03  0.40646948871E+04  0.40101495473E+04 0.  0.
        3    1    3    3  502    0 -0.19474995624E+04 -0.30473405159E+03  0.40187143741E+02  0.19716065541E+04  0.10100000352E+00 0. -1.
       -3    1    3    3    0  502  0.19474995624E+04  0.30473405159E+03 -0.70384754854E+03  0.20930883329E+04  0.10100000352E+00 0.  1.
</event>
<event>
 5   0  0.5846812E-08  0.4016076E+04  0.7818609E-02  0.8001311E-01
       -2   -1    0    0    0  501  0.00000000000E+00  0.00000000000E+00  0.20892613685E+04  0.20892613685E+04  0.25500000920E-02 0. -1.
        2   -1    0    0  501    0  0.00000000000E+00  0.00000000000E+00 -0.19299724459E+04  0.19299724459E+04  0.25500000920E-02 0.  1.
    10030    2    1    2    0    0  0.00000000000E+00  0.00000000000E+00  0.15928892253E+03  0.40192338144E+04  0.40160761315E+04 0.  0.
        4    1    3    3  502    0  0.73960444785E+03 -0.33633081874E+03 -0.17581223514E+04  0.19367831511E+04  0.12699999809E+01 0.  1.
       -4    1    3    3    0  502 -0.73960444785E+03  0.33633081874E+03  0.19174112739E+04  0.20824506633E+04  0.12699999809E+01 0. -1.
</event>
<event>
 5   0  0.1879500E-08  0.3968793E+04  0.7818609E-02  0.8010872E-01
       -1   -1    0    0    0  501  0.00000000000E+00  0.00000000000E+00  0.19181845406E+04  0.19181845406E+04  0.50400001928E-02 0. -1.
        1   -1    0    0  501    0  0.00000000000E+00  0.00000000000E+00 -0.20528937563E+04  0.20528937563E+04  0.50400001928E-02 0.  1.
    10030    2    1    2    0    0  0.00000000000E+00  0.00000000000E+00 -0.13470921569E+03  0.39710782969E+04  0.39687927972E+04 0.  0.
        2    1    3    3  502    0  0.10084470062E+03 -0.19789032916E+04 -0.17512538709E+03  0.19891950112E+04  0.25500000920E-02 0. -1.
       -2    1    3    3    0  502 -0.10084470062E+03  0.19789032916E+04  0.40416171403E+02  0.19818832857E+04  0.25500000920E-02 0.  1.
</event>
<event>
 5   0  0.1879500E-08  0.4022025E+04  0.7818609E-02  0.8000118E-01
        1   -1    0    0  501    0  0.00000000000E+00  0.00000000000E+00  0.20050421489E+04  0.20050421489E+04  0.50400001928E-02 0. -1.
       -1   -1    0    0    0  501  0.00000000000E+00  0.00000000000E+00 -0.20170003802E+04  0.20170003802E+04  0.50400001928E-02 0.  1.
    10030    2    1    2    0    0  0.00000000000E+00  0.00000000000E+00 -0.11958231229E+02  0.40220425291E+04  0.40220247521E+04 0.  0.
        1    1    3    3  502    0  0.62242526017E+03  0.45551265473E+03 -0.18632072342E+04  0.20165431264E+04  0.50400001928E-02 0.  1.
       -1    1    3    3    0  502 -0.62242526017E+03 -0.45551265473E+03  0.18512490030E+04  0.20054994027E+04  0.50400001928E-02 0. -1.
</event>
<event>
 5   0  0.1879500E-08  0.3958794E+04  0.7818609E-02  0.8012911E-01
        1   -1    0    0  501    0  0.00000000000E+00  0.00000000000E+00  0.24804414371E+04  0.24804414371E+04  0.50400001928E-02 0. -1.
       -1   -1    0    0    0  501  0.00000000000E+00  0.00000000000E+00 -0.15795628221E+04  0.15795628221E+04  0.50400001928E-02 0.  1.
    10030    2    1    2    0    0  0.00000000000E+00  0.00000000000E+00  0.90087861506E+03  0.40600042592E+04  0.39587942995E+04 0.  0.
        2    1    3    3  502    0  0.15428618137E+04 -0.12291288976E+04  0.61843392380E+03  0.20672786317E+04  0.25500000920E-02 0. -1.
       -2    1    3    3    0  502 -0.15428618137E+04  0.12291288976E+04  0.28244469125E+03  0.19927256275E+04  0.25500000920E-02 0.  1.
</event>
<event>
 5   0  0.5846812E-08  0.3989838E+04  0.7818609E-02  0.8006600E-01
       -2   -1    0    0    0  501  0.00000000000E+00  0.00000000000E+00  0.32100042021E+04  0.32100042021E+04  0.25500000920E-02 0. -1.
        2   -1    0    0  501    0  0.00000000000E+00  0.00000000000E+00 -0.12397807079E+04  0.12397807079E+04  0.25500000920E-02 0.  1.
    10030    2    1    2    0    0  0.00000000000E+00  0.00000000000E+00  0.19702234942E+04  0.44497849101E+04  0.39898377321E+04 0.  0.
        4    1    3    3  502    0  0.14316689105E+04 -0.13600440697E+04  0.66906437659E+03  0.20849567127E+04  0.12699999809E+01 0. -1.
       -4    1    3    3    0  502 -0.14316689105E+04  0.13600440697E+04  0.13011591176E+04  0.23648281974E+04  0.12699999809E+01 0.  1.
</event>
<event>
 5   0  0.5846812E-08  0.3980645E+04  0.7818609E-02  0.8008462E-01
       -2   -1    0    0    0  501  0.00000000000E+00  0.00000000000E+00  0.15788873552E+04  0.15788873552E+04  0.25500000920E-02 0.  1.
        2   -1    0    0  501    0  0.00000000000E+00  0.00000000000E+00 -0.25089720207E+04  0.25089720207E+04  0.25500000920E-02 0. -1.
    10030    2    1    2    0    0  0.00000000000E+00  0.00000000000E+00 -0.93008466551E+03  0.40878593759E+04  0.39806452733E+04 0.  0.
        4    1    3    3  502    0  0.16221414229E+04 -0.11204335495E+04 -0.18442723141E+03  0.19800831172E+04  0.12699999809E+01 0.  1.
       -4    1    3    3    0  502 -0.16221414229E+04  0.11204335495E+04 -0.74565743410E+03  0.21077762586E+04  0.12699999809E+01 0. -1.
</event>
<event>
 5   0  0.5888700E-08  0.3925274E+04  0.7818609E-02  0.8019793E-01
       -2   -1    0    0    0  501  0.00000000000E+00  0.00000000000E+00  0.19741958682E+04  0.19741958682E+04  0.25500000920E-02 0.  1.
        2   -1    0    0  501    0  0.00000000000E+00  0.00000000000E+00 -0.19511459302E+04  0.19511459302E+04  0.25500000920E-02 0. -1.
    10030    2    1    2    0    0  0.00000000000E+00  0.00000000000E+00  0.23049938019E+02  0.39253417985E+04  0.39252741223E+04 0.  0.
        5    1    3    3  502    0  0.11146639048E+03  0.40016750781E+03 -0.19066747670E+04  0.19514070686E+04  0.46999998093E+01 0. -1.
       -5    1    3    3    0  502 -0.11146639048E+03 -0.40016750781E+03  0.19297247050E+04  0.19739347298E+04  0.46999998093E+01 0.  1.
</event>
<event>
 5   0  0.1879500E-08  0.3936411E+04  0.7818609E-02  0.8017499E-01
        1   -1    0    0  501    0  0.00000000000E+00  0.00000000000E+00  0.16079260926E+04  0.16079260926E+04  0.50400001928E-02 0.  1.
       -1   -1    0    0    0  501  0.00000000000E+00  0.00000000000E+00 -0.24092107069E+04  0.24092107069E+04  0.50400001928E-02 0. -1.
    10030    2    1    2    0    0  0.00000000000E+00  0.00000000000E+00 -0.80128461435E+03  0.40171367995E+04  0.39364109329E+04 0.  0.
        5    1    3    3  502    0 -0.64868233995E+03  0.11270136327E+04 -0.19083923466E+04  0.23093141720E+04  0.46999998093E+01 0. -1.
       -5    1    3    3    0  502  0.64868233995E+03 -0.11270136327E+04  0.11071077322E+04  0.17078226276E+04  0.46999998093E+01 0.  1.
</event>
<event>
 5   0  0.1879500E-08  0.3985464E+04  0.7818609E-02  0.8007485E-01
       -1   -1    0    0    0  501  0.00000000000E+00  0.00000000000E+00  0.20088420174E+04  0.20088420174E+04  0.50400001928E-02 0. -1.
        1   -1    0    0  501    0  0.00000000000E+00  0.00000000000E+00 -0.19767513217E+04  0.19767513217E+04  0.50400001928E-02 0.  1.
    10030    2    1    2    0    0  0.00000000000E+00  0.00000000000E+00  0.32090695758E+02  0.39855933391E+04  0.39854641451E+04 0.  0.
        2    1    3    3  502    0  0.16649424080E+02 -0.11533161554E+04  0.16410797945E+04  0.20058809161E+04  0.25500000920E-02 0. -1.
       -2    1    3    3    0  502 -0.16649424080E+02  0.11533161554E+04 -0.16089890988E+04  0.19797124230E+04  0.25500000920E-02 0.  1.
</event>
<event>
 5   0  0.6161563E-08  0.4002752E+04  0.7818609E-02  0.8003992E-01
        2   -1    0    0  501    0  0.00000000000E+00  0.00000000000E+00  0.31302354935E+04  0.31302354935E+04  0.25500000920E-02 0.  1.
       -2   -1    0    0    0  501  0.00000000000E+00  0.00000000000E+00 -0.12796183124E+04  0.12796183124E+04  0.25500000920E-02 0. -1.
    10030    2    1    2    0    0  0.00000000000E+00  0.00000000000E+00  0.18506171811E+04  0.44098538058E+04  0.40027523828E+04 0.  0.
        1    1    3    3  502    0 -0.13961351666E+04  0.14140260826E+04  0.11879757933E+04  0.23151565068E+04  0.50400001928E-02 0.  1.
       -1    1    3    3    0  502  0.13961351666E+04 -0.14140260826E+04  0.66264138782E+03  0.20946972990E+04  0.50400001928E-02 0. -1.
</event>
<event>
 5   0  0.1879500E-08  0.4004041E+04  0.7818609E-02  0.8003732E-01
        1   -1    0    0  501    0  0.00000000000E+00  0.00000000000E+00  0.26358230361E+04  0.26358230361E+04  0.50400001928E-02 0.  1.
       -1   -1    0    0    0  501  0.00000000000E+00  0.00000000000E+00 -0.15206205079E+04  0.15206205079E+04  0.50400001928E-02 0. -1.
    10030    2    1    2    0    0  0.00000000000E+00  0.00000000000E+00  0.11152025282E+04  0.41564435440E+04  0.40040412405E+04 0.  0.
        4    1    3    3  502    0  0.17924264861E+04  0.88945010859E+03  0.62464068896E+03  0.20962089130E+04  0.12699999809E+01 0.  1.
       -4    1    3    3    0  502 -0.17924264861E+04 -0.88945010859E+03  0.49056183922E+03  0.20602346310E+04  0.12699999809E+01 0. -1.
</event>
<event>
 5   0  0.5846812E-08  0.4004376E+04  0.7818609E-02  0.8003664E-01
        2   -1    0    0  501    0  0.00000000000E+00  0.00000000000E+00  0.14361045726E+04  0.14361045726E+04  0.25500000920E-02 0.  1.
       -2   -1    0    0    0  501  0.00000000000E+00  0.00000000000E+00 -0.27914096497E+04  0.27914096497E+04  0.25500000920E-02 0. -1.
    10030    2    1    2    0    0  0.00000000000E+00  0.00000000000E+00 -0.13553050771E+04  0.42275142223E+04  0.40043756876E+04 0.  0.
        4    1    3    3  502    0 -0.17898799679E+04 -0.69592405597E+03 -0.12755818075E+04  0.23054481455E+04  0.12699999809E+01 0. -1.
       -4    1    3    3    0  502  0.17898799679E+04  0.69592405597E+03 -0.79723269602E+02  0.19220660768E+04  0.12699999809E+01 0.  1.
</event>
<event>
 5   0  0.5951623E-08  0.3851106E+04  0.7818609E-02  0.8035276E-01
       -2   -1    0    0    0  501  0.00000000000E+00  0.00000000000E+00  0.23554788394E+04  0.23554788394E+04  0.25500000920E-02 0. -1.
        2   -1    0    0  501    0  0.00000000000E+00  0.00000000000E+00 -0.15740982366E+04  0.15740982366E+04  0.25500000920E-02 0.  1.
    10030    2    1    2    0    0  0.00000000000E+00  0.00000000000E+00  0.78138060281E+03  0.39295770760E+04  0.38511063800E+04 0.  0.
        2    1    3    3  502    0 -0.87562260232E+03  0.13057147765E+04  0.15251673628E+04  0.21903747405E+04  0.25500000920E-02 0. -1.
       -2    1    3    3    0  502  0.87562260232E+03 -0.13057147765E+04 -0.74378676001E+03  0.17392023355E+04  0.25500000920E-02 0.  1.
</event>
<event>
 5   0  0.1879500E-08  0.4007135E+04  0.7818609E-02  0.8003109E-01
        1   -1    0    0  501    0  0.00000000000E+00  0.00000000000E+00  0.16715667304E+04  0.16715667304E+04  0.50400001928E-02 0. -1.
       -1   -1    0    0    0  501  0.00000000000E+00  0.00000000000E+00 -0.24015085527E+04  0.24015085527E+04  0.50400001928E-02 0.  1.
    10030    2    1    2    0    0  0.00000000000E+00  0.00000000000E+00 -0.72994182234E+03  0.40730752832E+04  0.40071345371E+04 0.  0.
        1    1    3    3  502    0  0.18412701218E+04 -0.67484424663E+03 -0.78232646530E+03  0.21113325453E+04  0.50400001928E-02 0.  1.
       -1    1    3    3    0  502 -0.18412701218E+04  0.67484424663E+03  0.52384642957E+02  0.19617427378E+04  0.50400001928E-02 0. -1.
</event>
<event>
 5   0  0.5846812E-08  0.3873982E+04  0.7818609E-02  0.8030462E-01
        2   -1    0    0  501    0  0.00000000000E+00  0.00000000000E+00  0.24278373032E+04  0.24278373032E+04  0.25500000920E-02 0. -1.
       -2   -1    0    0    0  501  0.00000000000E+00  0.00000000000E+00 -0.15453814203E+04  0.15453814203E+04  0.25500000920E-02 0.  1.
    10030    2    1    2    0    0  0.00000000000E+00  0.00000000000E+00  0.88245588296E+03  0.39732187235E+04  0.38739822715E+04 0.  0.
        4    1    3    3  502    0  0.49194121684E+03 -0.11866870424E+04  0.19280886466E+04  0.23168426229E+04  0.12699999809E+01 0. -1.
       -4    1    3    3    0  502 -0.49194121684E+03  0.11866870424E+04 -0.10456327637E+04  0.16563761006E+04  0.12699999809E+01 0.  1.
</event>
<event>
 5   0  0.1879500E-08  0.4000547E+04  0.7818609E-02  0.8004436E-01
        1   -1    0    0  501    0  0.00000000000E+00  0.00000000000E+00  0.16419582357E+04  0.16419582357E+04  0.50400001928E-02 0. -1.
       -1   -1    0    0    0  501  0.00000000000E+00  0.00000000000E+00 -0.24367824247E+04  0.24367824247E+04  0.50400001928E-02 0.  1.
    10030    2    1    2    0    0  0.00000000000E+00  0.00000000000E+00 -0.79482418899E+03  0.40787406604E+04  0.40005474480E+04 0.  0.
        5    1    3    3  502    0  0.10864266137E+04 -0.15162123244E+04  0.33909956701E+03  0.18958463034E+04  0.46999998093E+01 0. -1.
       -5    1    3    3    0  502 -0.10864266137E+04  0.15162123244E+04 -0.11339237560E+04  0.21828943571E+04  0.46999998093E+01 0.  1.
</event>
<event>
 5   0  0.5888700E-08  0.3999940E+04  0.7818609E-02  0.8004559E-01
        2   -1    0    0  501    0  0.00000000000E+00  0.00000000000E+00  0.28543202849E+04  0.28543202849E+04  0.25500000920E-02 0. -1.
       -2   -1    0    0    0  501  0.00000000000E+00  0.00000000000E+00 -0.14013422298E+04  0.14013422298E+04  0.25500000920E-02 0.  1.
    10030    2    1    2    0    0  0.00000000000E+00  0.00000000000E+00  0.14529780551E+04  0.42556625147E+04  0.39999397759E+04 0.  0.
        5    1    3    3  502    0 -0.14722094149E+04 -0.11903979204E+04  0.40760779736E+02  0.18937083465E+04  0.46999998093E+01 0.  1.
       -5    1    3    3    0  502  0.14722094149E+04  0.11903979204E+04  0.14122172753E+04  0.23619541683E+04  0.46999998093E+01 0. -1.
</event>
<event>
 5   0  0.5888700E-08  0.4023927E+04  0.7818609E-02  0.7999737E-01
        2   -1    0    0  501    0  0.00000000000E+00  0.00000000000E+00  0.18922046962E+04  0.18922046962E+04  0.25500000920E-02 0.  1.
       -2   -1    0    0    0  501  0.00000000000E+00  0.00000000000E+00 -0.21393021744E+04  0.21393021744E+04  0.25500000920E-02 0. -1.
    10030    2    1    2    0    0  0.00000000000E+00  0.00000000000E+00 -0.24709747822E+03  0.40315068706E+04  0.40239272463E+04 0.  0.
        5    1    3    3  502    0 -0.21527222892E+02  0.18144152093E+04  0.74723141413E+03  0.19623819326E+04  0.46999998093E+01 0. -1.
       -5    1    3    3    0  502  0.21527222892E+02 -0.18144152093E+04 -0.99432889235E+03  0.20691249380E+04  0.46999998093E+01 0.  1.
</event>
<event>
 5   0  0.6161563E-08  0.3995830E+04  0.7818609E-02  0.8005388E-01
       -2   -1    0    0    0  501  0.00000000000E+00  0.00000000000E+00  0.23102456082E+04  0.23102456082E+04  0.25500000920E-02 0. -1.
        2   -1    0    0  501    0  0.00000000000E+00  0.00000000000E+00 -0.17278093764E+04  0.17278093764E+04  0.25500000920E-02 0.  1.
    10030    2    1    2    0    0  0.00000000000E+00  0.00000000000E+00  0.58243623177E+03  0.40380549846E+04  0.39958298381E+04 0.  0.
        1    1    3    3  502    0  0.33341368256E+03 -0.10910938481E+04  0.19486759048E+04  0.22580939420E+04  0.50400001928E-02 0. -1.
       -1    1    3    3    0  502 -0.33341368256E+03  0.10910938481E+04 -0.13662396730E+04  0.17799610426E+04  0.50400001928E-02 0.  1.
</event>
<event>
 5   0  0.1879500E-08  0.4013732E+04  0.7818609E-02  0.8001782E-01
        1   -1    0    0  501    0  0.00000000000E+00  0.00000000000E+00  0.20405872273E+04  0.20405872273E+04  0.50400001928E-02 0.  1.
       -1   -1    0    0    0  501  0.00000000000E+00  0.00000000000E+00 -0.19737019963E+04  0.19737019963E+04  0.50400001928E-02 0. -1.
    10030    2    1    2    0    0  0.00000000000E+00  0.00000000000E+00  0.66885231061E+02  0.40142892236E+04  0.40137319712E+04 0.  0.
        4    1    3    3  502    0 -0.42970858811E+03  0.29421645883E+03  0.19718284828E+04  0.20394415838E+04  0.12699999809E+01 0.  1.
       -4    1    3    3    0  502  0.42970858811E+03 -0.29421645883E+03 -0.19049432517E+04  0.19748476398E+04  0.12699999809E+01 0. -1.
</event>
<event>
 5   0  0.1879500E-08  0.3989023E+04  0.7818609E-02  0.8006765E-01
       -1   -1    0    0    0  501  0.00000000000E+00  0.00000000000E+00  0.11948114727E+04  0.11948114727E+04  0.50400001928E-02 0. -1.
        1   -1    0    0  501    0  0.00000000000E+00  0.00000000000E+00 -0.33294598043E+04  0.33294598043E+04  0.50400001928E-02 0.  1.
    10030    2    1    2    0    0  0.00000000000E+00  0.00000000000E+00 -0.21346483316E+04  0.45242712771E+04  0.39890233252E+04 0.  0.
        3    1    3    3  502    0 -0.95568912535E+03 -0.79757704519E+03 -0.28348289008E+04  0.30960823235E+04  0.10100000352E+00 0. -1.
       -3    1    3    3    0  502  0.95568912535E+03  0.79757704519E+03  0.70018056914E+03  0.14281889535E+04  0.10100000352E+00 0.  1.
</event>
<event>
 5   0  0.1879500E-08  0.3972519E+04  0.7818609E-02  0.8010113E-01
        1   -1    0    0  501    0  0.00000000000E+00  0.00000000000E+00  0.25915002808E+04  0.25915002808E+04  0.50400001928E-02 0. -1.
       -1   -1    0    0    0  501  0.00000000000E+00  0.00000000000E+00 -0.15223720408E+04  0.15223720408E+04  0.50400001928E-02 0.  1.
    10030    2    1    2    0    0  0.00000000000E+00  0.00000000000E+00  0.10691282400E+04  0.41138723217E+04  0.39725193877E+04 0.  0.
        3    1    3    3  502    0 -0.77223972346E+03  0.10137064555E+02 -0.13605155959E+04  0.15644358879E+04  0.10100000352E+00 0.  1.
       -3    1    3    3    0  502  0.77223972346E+03 -0.10137064555E+02  0.24296438359E+04  0.25494364338E+04  0.10100000352E+00 0. -1.
</event>
<event>
 5   0  0.5846812E-08  0.4008208E+04  0.7818609E-02  0.8002893E-01
        2   -1    0    0  501    0  0.00000000000E+00  0.00000000000E+00  0.25035204860E+04  0.25035204860E+04  0.25500000920E-02 0.  1.
       -2   -1    0    0    0  501  0.00000000000E+00  0.00000000000E+00 -0.16043142706E+04  0.16043142706E+04  0.25500000920E-02 0. -1.
    10030    2    1    2    0    0  0.00000000000E+00  0.00000000000E+00  0.89920621542E+03  0.41078347565E+04  0.40082083989E+04 0.  0.
        4    1    3    3  502    0  0.37115452522E+03  0.49147267575E+03 -0.15049259913E+04  0.16260703936E+04  0.12699999809E+01 0. -1.
       -4    1    3    3    0  502 -0.37115452522E+03 -0.49147267575E+03  0.24041322068E+04  0.24817643629E+04  0.12699999809E+01 0.  1.
</event>
<event>
 5   0  0.1879500E-08  0.4007862E+04  0.7818609E-02  0.8002962E-01
        3   -1    0    0  501    0  0.00000000000E+00  0.00000000000E+00  0.16261949688E+04  0.16261949720E+04  0.10100000352E+00 0. -1.
       -3   -1    0    0    0  501  0.00000000000E+00  0.00000000000E+00 -0.24694084009E+04  0.24694084030E+04  0.10100000352E+00 0.  1.
    10030    2    1    2    0    0  0.00000000000E+00  0.00000000000E+00 -0.84321343207E+03  0.40956033749E+04  0.40078620376E+04 0.  0.
        4    1    3    3  502    0  0.84475477939E+03 -0.11068925433E+04 -0.18943078226E+04  0.23510052062E+04  0.12699999809E+01 0.  1.
       -4    1    3    3    0  502 -0.84475477939E+03  0.11068925433E+04  0.10510943906E+04  0.17445981688E+04  0.12699999809E+01 0. -1.
</event>
<event>
 5   0  0.1879500E-08  0.3979232E+04  0.7818609E-02  0.8008749E-01
       -1   -1    0    0    0  501  0.00000000000E+00  0.00000000000E+00  0.16373792083E+04  0.16373792084E+04  0.50400001928E-02 0. -1.
        1   -1    0    0  501    0  0.00000000000E+00  0.00000000000E+00 -0.24176267866E+04  0.24176267866E+04  0.50400001928E-02 0.  1.
    10030    2    1    2    0    0  0.00000000000E+00  0.00000000000E+00 -0.78024757823E+03  0.40550059949E+04  0.39792320032E+04 0.  0.
        1    1    3    3  502    0 -0.19015190212E+04 -0.29590056362E+03 -0.90495716617E+03  0.21265651187E+04  0.50400001928E-02 0.  1.
       -1    1    3    3    0  502  0.19015190212E+04  0.29590056362E+03  0.12470958793E+03  0.19284408762E+04  0.50400001928E-02 0. -1.
</event>
<event>
 5   0  0.1879500E-08  0.3985664E+04  0.7818609E-02  0.8007445E-01
        1   -1    0    0  501    0  0.00000000000E+00  0.00000000000E+00  0.19359396521E+04  0.19359396521E+04  0.50400001928E-02 0. -1.
       -1   -1    0    0    0  501  0.00000000000E+00  0.00000000000E+00 -0.20513964319E+04  0.20513964319E+04  0.50400001928E-02 0.  1.
    10030    2    1    2    0    0  0.00000000000E+00  0.00000000000E+00 -0.11545677982E+03  0.39873360839E+04  0.39856641577E+04 0.  0.
        2    1    3    3  502    0  0.67597097345E+02 -0.19422225473E+04 -0.49902781944E+03  0.20064462503E+04  0.25500000920E-02 0.  1.
       -2    1    3    3    0  502 -0.67597097345E+02  0.19422225473E+04  0.38357103962E+03  0.19808898337E+04  0.25500000920E-02 0. -1.
</event>
<event>
 5   0  0.5945387E-08  0.3994543E+04  0.7818609E-02  0.8005648E-01
       -2   -1    0    0    0  501  0.00000000000E+00  0.00000000000E+00  0.20172830671E+04  0.20172830671E+04  0.25500000920E-02 0. -1.
        2   -1    0    0  501    0  0.00000000000E+00  0.00000000000E+00 -0.19774587316E+04  0.19774587316E+04  0.25500000920E-02 0.  1.
    10030    2    1    2    0    0  0.00000000000E+00  0.00000000000E+00  0.39824335508E+02  0.39947417987E+04  0.39945432856E+04 0.  0.
        3    1    3    3  502    0 -0.21811517184E+03 -0.19322206144E+04  0.47605244511E+03  0.20019182479E+04  0.10100000352E+00 0. -1.
       -3    1    3    3    0  502  0.21811517184E+03  0.19322206144E+04 -0.43622810960E+03  0.19928235508E+04  0.10100000352E+00 0.  1.
</event>
<event>
 5   0  0.5846812E-08  0.3974575E+04  0.7818609E-02  0.8009695E-01
        2   -1    0    0  501    0  0.00000000000E+00  0.00000000000E+00  0.17565068084E+04  0.17565068084E+04  0.25500000920E-02 0.  1.
       -2   -1    0    0    0  501  0.00000000000E+00  0.00000000000E+00 -0.22483895326E+04  0.22483895326E+04  0.25500000920E-02 0. -1.
    10030    2    1    2    0    0  0.00000000000E+00  0.00000000000E+00 -0.49188272418E+03  0.40048963410E+04  0.39745749569E+04 0.  0.
        4    1    3    3  502    0  0.10499701240E+04 -0.81170132263E+03 -0.17364194562E+04  0.21855091945E+04  0.12699999809E+01 0. -1.
       -4    1    3    3    0  502 -0.10499701240E+04  0.81170132263E+03  0.12445367320E+04  0.18193871465E+04  0.12699999809E+01 0.  1.
</event>
<event>
 5   0  0.6161563E-08  0.3997995E+04  0.7818609E-02  0.8004951E-01
        2   -1    0    0  501    0  0.00000000000E+00  0.00000000000E+00  0.22210148792E+04  0.22210148792E+04  0.25500000920E-02 0.  1.
       -2   -1    0    0    0  501  0.00000000000E+00  0.00000000000E+00 -0.17991730869E+04  0.17991730869E+04  0.25500000920E-02 0. -1.
    10030    2    1    2    0    0  0.00000000000E+00  0.00000000000E+00  0.42184179227E+03  0.40201879661E+04  0.39979945954E+04 0.  0.
        1    1    3    3  502    0 -0.32782777566E+03 -0.14778838962E+04  0.15236864093E+04  0.21478436011E+04  0.50400001928E-02 0.  1.
       -1    1    3    3    0  502  0.32782777566E+03  0.14778838962E+04 -0.11018446170E+04  0.18723443650E+04  0.50400001928E-02 0. -1.
</event>
<event>
 5   0  0.5945387E-08  0.4001952E+04  0.7818609E-02  0.8004153E-01
       -2   -1    0    0    0  501  0.00000000000E+00  0.00000000000E+00  0.16144437842E+04  0.16144437842E+04  0.25500000920E-02 0.  1.
        2   -1    0    0  501    0  0.00000000000E+00  0.00000000000E+00 -0.24800522864E+04  0.24800522864E+04  0.25500000920E-02 0. -1.
    10030    2    1    2    0    0  0.00000000000E+00  0.00000000000E+00 -0.86560850217E+03  0.40944960706E+04  0.40019520229E+04 0.  0.
        3    1    3    3  502    0  0.84445800403E+03 -0.72807561368E+03 -0.21327627217E+04  0.24066325554E+04  0.10100000352E+00 0. -1.
       -3    1    3    3    0  502 -0.84445800403E+03  0.72807561368E+03  0.12671542195E+04  0.16878635152E+04  0.10100000352E+00 0.  1.
</event>
<event>
 5   0  0.1879500E-08  0.3957607E+04  0.7818609E-02  0.8013154E-01
        1   -1    0    0  501    0  0.00000000000E+00  0.00000000000E+00  0.23333192267E+04  0.23333192267E+04  0.50400001928E-02 0.  1.
       -1   -1    0    0    0  501  0.00000000000E+00  0.00000000000E+00 -0.16781513031E+04  0.16781513031E+04  0.50400001928E-02 0. -1.
    10030    2    1    2    0    0  0.00000000000E+00  0.00000000000E+00  0.65516792362E+03  0.40114705299E+04  0.39576067015E+04 0.  0.
        5    1    3    3  502    0 -0.15152195894E+03  0.14681457298E+04  0.16635628997E+04  0.22239321930E+04  0.46999998093E+01 0.  1.
       -5    1    3    3    0  502  0.15152195894E+03 -0.14681457298E+04 -0.10083949761E+04  0.17875383368E+04  0.46999998093E+01 0. -1.
</event>
<event>
 5   0  0.1879500E-08  0.4026114E+04  0.7818609E-02  0.7999299E-01
       -1   -1    0    0    0  501  0.00000000000E+00  0.00000000000E+00  0.20673399829E+04  0.20673399829E+04  0.50400001928E-02 0. -1.
        1   -1    0    0  501    0  0.00000000000E+00  0.00000000000E+00 -0.19601990285E+04  0.19601990286E+04  0.50400001928E-02 0.  1.
    10030    2    1    2    0    0  0.00000000000E+00  0.00000000000E+00  0.10714095436E+03  0.40275390115E+04  0.40261136726E+04 0.  0.
        4    1    3    3  502    0 -0.10062096992E+04  0.17434352596E+04  0.34282822863E+02  0.20132564138E+04  0.12699999809E+01 0.  1.
       -4    1    3    3    0  502  0.10062096992E+04 -0.17434352596E+04  0.72858131495E+02  0.20142825976E+04  0.12699999809E+01 0. -1.
</event>
<event>
 5   0  0.1879500E-08  0.4002369E+04  0.7818609E-02  0.8004069E-01
        1   -1    0    0  501    0  0.00000000000E+00  0.00000000000E+00  0.14452545740E+04  0.14452545740E+04  0.50400001928E-02 0. -1.
       -1   -1    0    0    0  501  0.00000000000E+00  0.00000000000E+00 -0.27709576772E+04  0.27709576772E+04  0.50400001928E-02 0.  1.
    10030    2    1    2    0    0  0.00000000000E+00  0.00000000000E+00 -0.13257031031E+04  0.42162122512E+04  0.40023689272E+04 0.  0.
        5    1    3    3  502    0  0.19968774888E+03 -0.17664882112E+04  0.30513545023E+03  0.18037420909E+04  0.46999998093E+01 0. -1.
       -5    1    3    3    0  502 -0.19968774888E+03  0.17664882112E+04 -0.16308385534E+04  0.24124701604E+04  0.46999998093E+01 0.  1.
</event>
<event>
 5   0  0.1879500E-08  0.3986025E+04  0.7818609E-02  0.8007372E-01
        1   -1    0    0  501    0  0.00000000000E+00  0.00000000000E+00  0.13686061440E+04  0.13686061440E+04  0.50400001928E-02 0.  1.
       -1   -1    0    0    0  501  0.00000000000E+00  0.00000000000E+00 -0.29022946092E+04  0.29022946092E+04  0.50400001928E-02 0. -1.
    10030    2    1    2    0    0  0.00000000000E+00  0.00000000000E+00 -0.15336884651E+04  0.42709007532E+04  0.39860247033E+04 0.  0.
        3    1    3    3  502    0  0.77813879128E+03  0.13956476707E+03 -0.27271107856E+04  0.28393857698E+04  0.10100000352E+00 0. -1.
       -3    1    3    3    0  502 -0.77813879128E+03 -0.13956476707E+03  0.11934223204E+04  0.14315149834E+04  0.10100000352E+00 0.  1.
</event>
<event>
 5   0  0.5846812E-08  0.4004587E+04  0.7818609E-02  0.8003622E-01
       -2   -1    0    0    0  501  0.00000000000E+00  0.00000000000E+00  0.11260419717E+04  0.11260419717E+04  0.25500000920E-02 0. -1.
        2   -1    0    0  501    0  0.00000000000E+00  0.00000000000E+00 -0.35604175589E+04  0.35604175589E+04  0.25500000920E-02 0.  1.
    10030    2    1    2    0    0  0.00000000000E+00  0.00000000000E+00 -0.24343755872E+04  0.46864595305E+04  0.40045871737E+04 0.  0.
        4    1    3    3  502    0 -0.16925669381E+04 -0.51795498283E+03 -0.23125767770E+04  0.29122282133E+04  0.12699999809E+01 0.  1.
       -4    1    3    3    0  502  0.16925669381E+04  0.51795498283E+03 -0.12179881022E+03  0.17742313172E+04  0.12699999809E+01 0. -1.
</event>
<event>
 5   0  0.6161563E-08  0.3995203E+04  0.7818609E-02  0.8005515E-01
        2   -1    0    0  501    0  0.00000000000E+00  0.00000000000E+00  0.18458549006E+04  0.18458549006E+04  0.25500000920E-02 0. -1.
       -2   -1    0    0    0  501  0.00000000000E+00  0.00000000000E+00 -0.21618235667E+04  0.21618235667E+04  0.25500000920E-02 0.  1.
    10030    2    1    2    0    0  0.00000000000E+00  0.00000000000E+00 -0.31596866617E+03  0.40076784673E+04  0.39952034365E+04 0.  0.
        1    1    3    3  502    0 -0.87791934305E+03 -0.90550723367E+03  0.13959579449E+04  0.18813251465E+04  0.50400001928E-02 0. -1.
       -1    1    3    3    0  502  0.87791934305E+03  0.90550723367E+03 -0.17119266110E+04  0.21263533208E+04  0.50400001928E-02 0.  1.
</event>
<event>
 5   0  0.5951623E-08  0.4008643E+04  0.7818609E-02  0.8002805E-01
       -2   -1    0    0    0  501  0.00000000000E+00  0.00000000000E+00  0.27856576706E+04  0.27856576706E+04  0.25500000920E-02 0. -1.
        2   -1    0    0  501    0  0.00000000000E+00  0.00000000000E+00 -0.14421384049E+04  0.14421384049E+04  0.25500000920E-02 0.  1.
    10030    2    1    2    0    0  0.00000000000E+00  0.00000000000E+00  0.13435192657E+04  0.42277960754E+04  0.40086426179E+04 0.  0.
        2    1    3    3  502    0 -0.18424009615E+04 -0.17002149484E+03 -0.14105885302E+03  0.18555986127E+04  0.25500000920E-02 0.  1.
       -2    1    3    3    0  502  0.18424009615E+04  0.17002149484E+03  0.14845781187E+04  0.23721974627E+04  0.25500000920E-02 0. -1.
</event>
<event>
 5   0  0.1879500E-08  0.4007104E+04  0.7818609E-02  0.8003115E-01
        1   -1    0    0  501    0  0.00000000000E+00  0.00000000000E+00  0.20355920827E+04  0.20355920827E+04  0.50400001928E-02 0.  1.
       -1   -1    0    0    0  501  0.00000000000E+00  0.00000000000E+00 -0.19720157711E+04  0.19720157711E+04  0.50400001928E-02 0. -1.
    10030    2    1    2    0    0  0.00000000000E+00  0.00000000000E+00  0.63576311624E+02  0.40076078538E+04  0.40071035378E+04 0.  0.
        3    1    3    3  502    0  0.17550678633E+04 -0.26552478688E+02  0.99795913757E+03  0.20191311719E+04  0.10100000352E+00 0.  1.
       -3    1    3    3    0  502 -0.17550678633E+04  0.26552478688E+02 -0.93438282595E+03  0.19884766819E+04  0.10100000352E+00 0. -1.
</event>
<event>
 5   0  0.5945387E-08  0.4001929E+04  0.7818609E-02  0.8004158E-01
        2   -1    0    0  501    0  0.00000000000E+00  0.00000000000E+00  0.27511744451E+04  0.27511744451E+04  0.25500000920E-02 0. -1.
       -2   -1    0    0    0  501  0.00000000000E+00  0.00000000000E+00 -0.14553270961E+04  0.14553270961E+04  0.25500000920E-02 0.  1.
    10030    2    1    2    0    0  0.00000000000E+00  0.00000000000E+00  0.12958473490E+04  0.42065015411E+04  0.40019288929E+04 0.  0.
        3    1    3    3  502    0  0.18731860572E+04 -0.11553416434E+03 -0.81589343747E+02  0.18785182936E+04  0.10100000352E+00 0.  1.
       -3    1    3    3    0  502 -0.18731860572E+04  0.11553416434E+03  0.13774366928E+04  0.23279832476E+04  0.10100000352E+00 0. -1.
</event>
<event>
 5   0  0.5888700E-08  0.3996325E+04  0.7818609E-02  0.8005288E-01
        2   -1    0    0  501    0  0.00000000000E+00  0.00000000000E+00  0.24225600452E+04  0.24225600452E+04  0.25500000920E-02 0. -1.
       -2   -1    0    0    0  501  0.00000000000E+00  0.00000000000E+00 -0.16481129106E+04  0.16481129106E+04  0.25500000920E-02 0.  1.
    10030    2    1    2    0    0  0.00000000000E+00  0.00000000000E+00  0.77444713460E+03  0.40706729558E+04  0.39963245550E+04 0.  0.
        5    1    3    3  502    0 -0.16716965997E+04  0.32570730401E+03  0.14516408881E+04  0.22378422928E+04  0.46999998093E+01 0. -1.
       -5    1    3    3    0  502  0.16716965997E+04 -0.32570730401E+03 -0.67719375349E+03  0.18328306630E+04  0.46999998093E+01 0.  1.
</event>
<event>
 5   0  0.6161563E-08  0.3995280E+04  0.7818609E-02  0.8005499E-01
       -2   -1    0    0    0  501  0.00000000000E+00  0.00000000000E+00  0.13441824178E+04  0.13441824178E+04  0.25500000920E-02 0. -1.
        2   -1    0    0  501    0  0.00000000000E+00  0.00000000000E+00 -0.29687671716E+04  0.29687671716E+04  0.25500000920E-02 0.  1.
    10030    2    1    2    0    0  0.00000000000E+00  0.00000000000E+00 -0.16245847538E+04  0.43129495894E+04  0.39952795320E+04 0.  0.
        1    1    3    3  502    0 -0.16138518767E+04  0.93739567680E+03 -0.43383110862E+02  0.18668451005E+04  0.50400001928E-02 0.  1.
       -1    1    3    3    0  502  0.16138518767E+04 -0.93739567680E+03 -0.15812016430E+04  0.24461044889E+04  0.50400001928E-02 0. -1.
</event>
<event>
 5   0  0.1879500E-08  0.3982011E+04  0.7818609E-02  0.8008185E-01
       -1   -1    0    0    0  501  0.00000000000E+00  0.00000000000E+00  0.20551090393E+04  0.20551090393E+04  0.50400001928E-02 0.  1.
        1   -1    0    0  501    0  0.00000000000E+00  0.00000000000E+00 -0.19289018565E+04  0.19289018565E+04  0.50400001928E-02 0. -1.
    10030    2    1    2    0    0  0.00000000000E+00  0.00000000000E+00  0.12620718274E+03  0.39840108958E+04  0.39820113718E+04 0.  0.
        3    1    3    3  502    0 -0.52483175580E+03  0.13729102689E+04  0.14068240226E+04  0.20345723922E+04  0.10100000352E+00 0.  1.
       -3    1    3    3    0  502  0.52483175580E+03 -0.13729102689E+04 -0.12806168399E+04  0.19494385036E+04  0.10100000352E+00 0. -1.
</event>
<event>
 5   0  0.1879500E-08  0.3995547E+04  0.7818609E-02  0.8005446E-01
        1   -1    0    0  501    0  0.00000000000E+00  0.00000000000E+00  0.26735480734E+04  0.26735480734E+04  0.50400001928E-02 0. -1.
       -1   -1    0    0    0  501  0.00000000000E+00  0.00000000000E+00 -0.14928095252E+04  0.14928095252E+04  0.50400001928E-02 0.  1.
    10030    2    1    2    0    0  0.00000000000E+00  0.00000000000E+00  0.11807385482E+04  0.41663575986E+04  0.39955465358E+04 0.  0.
        4    1    3    3  502    0 -0.11834105920E+04 -0.11392065449E+04 -0.59527238718E+03  0.17471700001E+04  0.12699999809E+01 0.  1.
       -4    1    3    3    0  502  0.11834105920E+04  0.11392065449E+04  0.17760109354E+04  0.24191875985E+04  0.12699999809E+01 0. -1.
</event>
<event>
 5   0  0.1879500E-08  0.4000557E+04  0.7818609E-02  0.8004434E-01
        1   -1    0    0  501    0  0.00000000000E+00  0.00000000000E+00  0.23437774098E+04  0.23437774098E+04  0.50400001928E-02 0.  1.
       -1   -1    0    0    0  501  0.00000000000E+00  0.00000000000E+00 -0.17071220102E+04  0.17071220102E+04  0.50400001928E-02 0. -1.
    10030    2    1    2    0    0  0.00000000000E+00  0.00000000000E+00  0.63665539960E+03  0.40508994201E+04  0.40005569630E+04 0.  0.
        5    1    3    3  502    0  0.59595012238E+03 -0.30767826587E+03  0.22265229666E+04  0.23253492371E+04  0.46999998093E+01 0.  1.
       -5    1    3    3    0  502 -0.59595012238E+03  0.30767826587E+03 -0.15898675670E+04  0.17255501830E+04  0.46999998093E+01 0. -1.
</event>
<event>
 5   0  0.5846812E-08  0.3996388E+04  0.7818609E-02  0.8005276E-01
        2   -1    0    0  501    0  0.00000000000E+00  0.00000000000E+00  0.26747928845E+04  0.26747928845E+04  0.25500000920E-02 0. -1.
       -2   -1    0    0    0  501  0.00000000000E+00  0.00000000000E+00 -0.14927430486E+04  0.14927430486E+04  0.25500000920E-02 0.  1.
    10030    2    1    2    0    0  0.00000000000E+00  0.00000000000E+00  0.11820498359E+04  0.41675359331E+04  0.39963876112E+04 0.  0.
        4    1    3    3  502    0  0.84468981986E+03 -0.54044599837E+02 -0.12965632047E+04  0.15483860847E+04  0.12699999809E+01 0.  1.
       -4    1    3    3    0  502 -0.84468981986E+03  0.54044599837E+02  0.24786130406E+04  0.26191498484E+04  0.12699999809E+01 0. -1.
</event>
<event>
 5   0  0.5888700E-08  0.4004658E+04  0.7818609E-02  0.8003607E-01
       -2   -1    0    0    0  501  0.00000000000E+00  0.00000000000E+00  0.16540839910E+04  0.16540839910E+04  0.25500000920E-02 0. -1.
        2   -1    0    0  501    0  0.00000000000E+00  0.00000000000E+00 -0.24238927813E+04  0.24238927813E+04  0.25500000920E-02 0.  1.
    10030    2    1    2    0    0  0.00000000000E+00  0.00000000000E+00 -0.76980879025E+03  0.40779767723E+04  0.40046584102E+04 0.  0.
        5    1    3    3  502    0 -0.10529053504E+04  0.61040941635E+02  0.13483042858E+04  0.17118067095E+04  0.46999998093E+01 0. -1.
       -5    1    3    3    0  502  0.10529053504E+04 -0.61040941635E+02 -0.21181130760E+04  0.23661700629E+04  0.46999998093E+01 0.  1.
</event>
<event>
 5   0  0.5951623E-08  0.3928930E+04  0.7818609E-02  0.8019039E-01
        2   -1    0    0  501    0  0.00000000000E+00  0.00000000000E+00  0.14912394232E+04  0.14912394232E+04  0.25500000920E-02 0. -1.
       -2   -1    0    0    0  501  0.00000000000E+00  0.00000000000E+00 -0.25878630468E+04  0.25878630468E+04  0.25500000920E-02 0.  1.
    10030    2    1    2    0    0  0.00000000000E+00  0.00000000000E+00 -0.10966236236E+04  0.40791024700E+04  0.39289303365E+04 0.  0.
        2    1    3    3  502    0 -0.15708704167E+04  0.76832333217E+03 -0.14776040242E+04  0.22893816329E+04  0.25500000920E-02 0.  1.
       -2    1    3    3    0  502  0.15708704167E+04 -0.76832333217E+03  0.38098040059E+03  0.17897208371E+04  0.25500000920E-02 0. -1.
</event>
<event>
 5   0  0.5945387E-08  0.3996959E+04  0.7818609E-02  0.8005160E-01
       -2   -1    0    0    0  501  0.00000000000E+00  0.00000000000E+00  0.21672634950E+04  0.21672634950E+04  0.25500000920E-02 0. -1.
        2   -1    0    0  501    0  0.00000000000E+00  0.00000000000E+00 -0.18428399978E+04  0.18428399978E+04  0.25500000920E-02 0.  1.
    10030    2    1    2    0    0  0.00000000000E+00  0.00000000000E+00  0.32442349711E+03  0.40101034928E+04  0.39969587711E+04 0.  0.
        3    1    3    3  502    0  0.17738349814E+04 -0.79088267658E+03 -0.31043614853E+03  0.19668138097E+04  0.10100000352E+00 0. -1.
       -3    1    3    3    0  502 -0.17738349814E+04  0.79088267658E+03  0.63485964565E+03  0.20432896831E+04  0.10100000352E+00 0.  1.
</event>
<event>
 5   0  0.5951623E-08  0.3991626E+04  0.7818609E-02  0.8006238E-01
        2   -1    0    0  501    0  0.00000000000E+00  0.00000000000E+00  0.17745599508E+04  0.17745599508E+04  0.25500000920E-02 0.  1.
       -2   -1    0    0    0  501  0.00000000000E+00  0.00000000000E+00 -0.22446517457E+04  0.22446517457E+04  0.25500000920E-02 0. -1.
    10030    2    1    2    0    0  0.00000000000E+00  0.00000000000E+00 -0.47009179491E+03  0.40192116965E+04  0.39916257797E+04 0.  0.
        2    1    3    3  502    0 -0.80903634601E+03  0.14412362130E+04 -0.13615121735E+04  0.21413586878E+04  0.25500000920E-02 0. -1.
       -2    1    3    3    0  502  0.80903634601E+03 -0.14412362130E+04  0.89142037864E+03  0.18778530087E+04  0.25500000920E-02 0.  1.
</event>
<event>
 5   0  0.5945387E-08  0.4001118E+04  0.7818609E-02  0.8004321E-01
       -2   -1    0    0    0  501  0.00000000000E+00  0.00000000000E+00  0.17367929879E+04  0.17367929879E+04  0.25500000920E-02 0. -1.
        2   -1    0    0  501    0  0.00000000000E+00  0.00000000000E+00 -0.23043831387E+04  0.23043831387E+04  0.25500000920E-02 0.  1.
    10030    2    1    2    0    0  0.00000000000E+00  0.00000000000E+00 -0.56759015075E+03  0.40411761266E+04  0.40011180821E+04 0.  0.
        3    1    3    3  502    0  0.13172235673E+04 -0.91219596394E+03 -0.14937271658E+04  0.21905251104E+04  0.10100000352E+00 0.  1.
       -3    1    3    3    0  502 -0.13172235673E+04  0.91219596394E+03  0.92613701509E+03  0.18506510162E+04  0.10100000352E+00 0. -1.
</event>
<event>
 5   0  0.5945387E-08  0.3993877E+04  0.7818609E-02  0.8005783E-01
       -2   -1    0    0    0  501  0.00000000000E+00  0.00000000000E+00  0.20769931377E+04  0.20769931377E+04  0.25500000920E-02 0.  1.
        2   -1    0    0  501    0  0.00000000000E+00  0.00000000000E+00 -0.19199698676E+04  0.19199698676E+04  0.25500000920E-02 0. -1.
    10030    2    1    2    0    0  0.00000000000E+00  0.00000000000E+00  0.15702327011E+03  0.39969630053E+04  0.39938774341E+04 0.  0.
        3    1    3    3  502    0  0.44385614589E+03 -0.19077754544E+04  0.46759055350E+03  0.20137667190E+04  0.10100000352E+00 0.  1.
       -3    1    3    3    0  502 -0.44385614589E+03  0.19077754544E+04 -0.31056728339E+03  0.19831962863E+04  0.10100000352E+00 0. -1.
</event>
<event>
 5   0  0.5846812E-08  0.4000542E+04  0.7818609E-02  0.8004437E-01
       -2   -1    0    0    0  501  0.00000000000E+00  0.00000000000E+00  0.21732704570E+04  0.21732704570E+04  0.25500000920E-02 0. -1.
        2   -1    0    0  501    0  0.00000000000E+00  0.00000000000E+00 -0.18410431421E+04  0.18410431421E+04  0.25500000920E-02 0.  1.
    10030    2    1    2    0    0  0.00000000000E+00  0.00000000000E+00  0.33222731492E+03  0.40143135992E+04  0.40005422987E+04 0.  0.
        4    1    3    3  502    0  0.10615560272E+04  0.14616806649E+04 -0.69572095176E+03  0.19358307831E+04  0.12699999809E+01 0.  1.
       -4    1    3    3    0  502 -0.10615560272E+04 -0.14616806649E+04  0.10279482667E+04  0.20784828161E+04  0.12699999809E+01 0. -1.
</event>
<event>
 5   0  0.1879500E-08  0.4019415E+04  0.7818609E-02  0.8000641E-01
       -1   -1    0    0    0  501  0.00000000000E+00  0.00000000000E+00  0.22527950111E+04  0.22527950111E+04  0.50400001928E-02 0.  1.
        1   -1    0    0  501    0  0.00000000000E+00  0.00000000000E+00 -0.17928504281E+04  0.17928504281E+04  0.50400001928E-02 0. -1.
    10030    2    1    2    0    0  0.00000000000E+00  0.00000000000E+00  0.45994458303E+03  0.40456454392E+04  0.40194151316E+04 0.  0.
        5    1    3    3  502    0 -0.60151827317E+03  0.19000266410E+04  0.49046022333E+03  0.20524372805E+04  0.46999998093E+01 0. -1.
       -5    1    3    3    0  502  0.60151827317E+03 -0.19000266410E+04 -0.30515640299E+02  0.19932081587E+04  0.46999998093E+01 0.  1.
</event>
<event>
 5   0  0.1879500E-08  0.4004620E+04  0.7818609E-02  0.8003615E-01
        1   -1    0    0  501    0  0.00000000000E+00  0.00000000000E+00  0.23551581020E+04  0.23551581020E+04  0.50400001928E-02 0.  1.
       -1   -1    0    0    0  501  0.00000000000E+00  0.00000000000E+00 -0.17023256069E+04  0.17023256069E+04  0.50400001928E-02 0. -1.
    10030    2    1    2    0    0  0.00000000000E+00  0.00000000000E+00  0.65283249506E+03  0.40574837089E+04  0.40046203043E+04 0.  0.
        2    1    3    3  502    0 -0.15569778447E+04  0.80481273626E+03 -0.65452855416E+03  0.18709118573E+04  0.25500000920E-02 0. -1.
       -2    1    3    3    0  502  0.15569778447E+04 -0.80481273626E+03  0.13073610492E+04  0.21865718517E+04  0.25500000920E-02 0.  1.
</event>
<event>
 5   0  0.1879500E-08  0.4007267E+04  0.7818609E-02  0.8003082E-01
       -1   -1    0    0    0  501  0.00000000000E+00  0.00000000000E+00  0.31413182251E+04  0.31413182251E+04  0.50400001928E-02 0.  1.
        1   -1    0    0  501    0  0.00000000000E+00  0.00000000000E+00 -0.12779815197E+04  0.12779815197E+04  0.50400001928E-02 0. -1.
    10030    2    1    2    0    0  0.00000000000E+00  0.00000000000E+00  0.18633367054E+04  0.44192997448E+04  0.40072667190E+04 0.  0.
        2    1    3    3  502    0  0.15929838337E+03 -0.24439712497E+03  0.31177711488E+04  0.31313899256E+04  0.25500000920E-02 0.  1.
       -2    1    3    3    0  502 -0.15929838337E+03  0.24439712497E+03 -0.12544344434E+04  0.12879098193E+04  0.25500000920E-02 0. -1.
</event>
<event>
 5   0  0.1879500E-08  0.4019232E+04  0.7818609E-02  0.8000678E-01
        1   -1    0    0  501    0  0.00000000000E+00  0.00000000000E+00  0.27948751696E+04  0.27948751696E+04  0.50400001928E-02 0. -1.
       -1   -1    0    0    0  501  0.00000000000E+00  0.00000000000E+00 -0.14449866035E+04  0.14449866036E+04  0.50400001928E-02 0.  1.
    10030    2    1    2    0    0  0.00000000000E+00  0.00000000000E+00  0.13498885661E+04  0.42398617732E+04  0.40192323539E+04 0.  0.
        3    1    3    3  502    0 -0.49847952858E+03 -0.45636928866E+03 -0.13215101207E+04  0.14842990862E+04  0.10100000352E+00 0.  1.
       -3    1    3    3    0  502  0.49847952858E+03  0.45636928866E+03  0.26713986867E+04  0.27555626870E+04  0.10100000352E+00 0. -1.
</event>
<event>
 5   0  0.6161563E-08  0.4013004E+04  0.7818609E-02  0.8001928E-01
        2   -1    0    0  501    0  0.00000000000E+00  0.00000000000E+00  0.24129023024E+04  0.24129023024E+04  0.25500000920E-02 0. -1.
       -2   -1    0    0    0  501  0.00000000000E+00  0.00000000000E+00 -0.16685510540E+04  0.16685510541E+04  0.25500000920E-02 0.  1.
    10030    2    1    2    0    0  0.00000000000E+00  0.00000000000E+00  0.74435124833E+03  0.40814533564E+04  0.40130042013E+04 0.  0.
        1    1    3    3  502    0  0.36715711933E+03 -0.68343019224E+03 -0.15098383798E+04  0.16974961299E+04  0.50400001928E-02 0.  1.
       -1    1    3    3    0  502 -0.36715711933E+03  0.68343019224E+03  0.22541896282E+04  0.23839572265E+04  0.50400001928E-02 0. -1.
</event>
<event>
 5   0  0.1879500E-08  0.3931525E+04  0.7818609E-02  0.8018504E-01
       -1   -1    0    0    0  501  0.00000000000E+00  0.00000000000E+00  0.21321302435E+04  0.21321302435E+04  0.50400001928E-02 0. -1.
        1   -1    0    0  501    0  0.00000000000E+00  0.00000000000E+00 -0.18123765554E+04  0.18123765554E+04  0.50400001928E-02 0.  1.
    10030    2    1    2    0    0  0.00000000000E+00  0.00000000000E+00  0.31975368807E+03  0.39445067990E+04  0.39315253358E+04 0.  0.
        3    1    3    3  502    0 -0.15175601692E+04 -0.11685628394E+04 -0.28395796638E+03  0.19362748032E+04  0.10100000352E+00 0.  1.
       -3    1    3    3    0  502  0.15175601692E+04  0.11685628394E+04  0.60371165445E+03  0.20082319957E+04  0.10100000352E+00 0. -1.
</event>
<event>
 5   0  0.5945387E-08  0.4002411E+04  0.7818609E-02  0.8004060E-01
       -2   -1    0    0    0  501  0.00000000000E+00  0.00000000000E+00  0.26919644756E+04  0.26919644756E+04  0.25500000920E-02 0. -1.
        2   -1    0    0  501    0  0.00000000000E+00  0.00000000000E+00 -0.14876955244E+04  0.14876955244E+04  0.25500000920E-02 0.  1.
    10030    2    1    2    0    0  0.00000000000E+00  0.00000000000E+00  0.12042689511E+04  0.41796600000E+04  0.40024110245E+04 0.  0.
        3    1    3    3  502    0  0.39446109117E+03 -0.19436673834E+04  0.32313029433E+03  0.20094416257E+04  0.10100000352E+00 0. -1.
       -3    1    3    3    0  502 -0.39446109117E+03  0.19436673834E+04  0.88113865681E+03  0.21702183744E+04  0.10100000352E+00 0.  1.
</event>
<event>
 5   0  0.1879500E-08  0.4010064E+04  0.7818609E-02  0.8002519E-01
       -1   -1    0    0    0  501  0.00000000000E+00  0.00000000000E+00  0.17452630399E+04  0.17452630399E+04  0.50400001928E-02 0.  1.
        1   -1    0    0  501    0  0.00000000000E+00  0.00000000000E+00 -0.23034658744E+04  0.23034658744E+04  0.50400001928E-02 0. -1.
    10030    2    1    2    0    0  0.00000000000E+00  0.00000000000E+00 -0.55820283452E+03  0.40487289143E+04  0.40100642660E+04 0.  0.
        1    1    3    3  502    0  0.89146186952E+03 -0.82417913830E+02 -0.20904611426E+04  0.22740986711E+04  0.50400001928E-02 0. -1.
       -1    1    3    3    0  502 -0.89146186952E+03  0.82417913830E+02  0.15322583081E+04  0.17746302432E+04  0.50400001928E-02 0.  1.
</event>
<event>
 5   0  0.5846812E-08  0.4042730E+04  0.7818609E-02  0.7995982E-01
        2   -1    0    0  501    0  0.00000000000E+00  0.00000000000E+00  0.29291752528E+04  0.29291752528E+04  0.25500000920E-02 0.  1.
       -2   -1    0    0    0  501  0.00000000000E+00  0.00000000000E+00 -0.13949035359E+04  0.13949035359E+04  0.25500000920E-02 0. -1.
    10030    2    1    2    0    0  0.00000000000E+00  0.00000000000E+00  0.15342717168E+04  0.43240787887E+04  0.40427302247E+04 0.  0.
        4    1    3    3  502    0 -0.68960972238E+03 -0.10728415352E+04 -0.91023970377E+03  0.15668721901E+04  0.12699999809E+01 0. -1.
       -4    1    3    3    0  502  0.68960972238E+03  0.10728415352E+04  0.24445114206E+04  0.27572065986E+04  0.12699999809E+01 0.  1.
</event>
<event>
 5   0  0.5846812E-08  0.4019361E+04  0.7818609E-02  0.8000652E-01
       -2   -1    0    0    0  501  0.00000000000E+00  0.00000000000E+00  0.13614987099E+04  0.13614987099E+04  0.25500000920E-02 0. -1.
        2   -1    0    0  501    0  0.00000000000E+00  0.00000000000E+00 -0.29664481554E+04  0.29664481555E+04  0.25500000920E-02 0.  1.
    10030    2    1    2    0    0  0.00000000000E+00  0.00000000000E+00 -0.16049494455E+04  0.43279468654E+04  0.40193608132E+04 0.  0.
        4    1    3    3  502    0  0.60170228876E+03  0.39635308987E+03  0.12176400372E+04  0.14148463836E+04  0.12699999809E+01 0. -1.
       -4    1    3    3    0  502 -0.60170228876E+03 -0.39635308987E+03 -0.28225894827E+04  0.29131004818E+04  0.12699999809E+01 0.  1.
</event>
<event>
 5   0  0.1879500E-08  0.4022922E+04  0.7818609E-02  0.7999938E-01
       -1   -1    0    0    0  501  0.00000000000E+00  0.00000000000E+00  0.23464074700E+04  0.23464074700E+04  0.50400001928E-02 0. -1.
        1   -1    0    0  501    0  0.00000000000E+00  0.00000000000E+00 -0.17243275337E+04  0.17243275337E+04  0.50400001928E-02 0.  1.
    10030    2    1    2    0    0  0.00000000000E+00  0.00000000000E+00  0.62207993635E+03  0.40707350037E+04  0.40229218267E+04 0.  0.
        5    1    3    3  502    0 -0.55378630837E+02 -0.11117378304E+04  0.20063403184E+04  0.22944392255E+04  0.46999998093E+01 0. -1.
       -5    1    3    3    0  502  0.55378630837E+02  0.11117378304E+04 -0.13842603821E+04  0.17762957782E+04  0.46999998093E+01 0.  1.
</event>
<event>
 5   0  0.1879500E-08  0.3999754E+04  0.7818609E-02  0.8004596E-01
       -1   -1    0    0    0  501  0.00000000000E+00  0.00000000000E+00  0.21915026198E+04  0.21915026198E+04  0.50400001928E-02 0. -1.
        1   -1    0    0  501    0  0.00000000000E+00  0.00000000000E+00 -0.18250075098E+04  0.18250075098E+04  0.50400001928E-02 0.  1.
    10030    2    1    2    0    0  0.00000000000E+00  0.00000000000E+00  0.36649510996E+03  0.40165101296E+04  0.39997543619E+04 0.  0.
        3    1    3    3  502    0  0.16266774644E+04  0.63313673722E+03  0.11633315974E+04  0.20976849423E+04  0.10100000352E+00 0.  1.
       -3    1    3    3    0  502 -0.16266774644E+04 -0.63313673722E+03 -0.79683648749E+03  0.19188251873E+04  0.10100000352E+00 0. -1.
</event>
<event>
 5   0  0.1879500E-08  0.4019163E+04  0.7818609E-02  0.8000692E-01
        1   -1    0    0  501    0  0.00000000000E+00  0.00000000000E+00  0.14026420637E+04  0.14026420637E+04  0.50400001928E-02 0. -1.
       -1   -1    0    0    0  501  0.00000000000E+00  0.00000000000E+00 -0.28791508144E+04  0.28791508144E+04  0.50400001928E-02 0.  1.
    10030    2    1    2    0    0  0.00000000000E+00  0.00000000000E+00 -0.14765087506E+04  0.42817928781E+04  0.40191631169E+04 0.  0.
        2    1    3    3  502    0  0.52404282580E+03  0.99963592535E+03  0.10330789673E+04  0.15300800695E+04  0.25500000920E-02 0. -1.
       -2    1    3    3    0  502 -0.52404282580E+03 -0.99963592535E+03 -0.25095877180E+04  0.27517128085E+04  0.25500000920E-02 0.  1.
</event>
<event>
 5   0  0.5846812E-08  0.4040495E+04  0.7818609E-02  0.7996427E-01
       -2   -1    0    0    0  501  0.00000000000E+00  0.00000000000E+00  0.24813065620E+04  0.24813065620E+04  0.25500000920E-02 0. -1.
        2   -1    0    0  501    0  0.00000000000E+00  0.00000000000E+00 -0.16448595252E+04  0.16448595252E+04  0.25500000920E-02 0.  1.
    10030    2    1    2    0    0  0.00000000000E+00  0.00000000000E+00  0.83644703682E+03  0.41261660872E+04  0.40404953823E+04 0.  0.
        4    1    3    3  502    0 -0.13947001475E+04 -0.13167206585E+04  0.10660698584E+04  0.21944129852E+04  0.12699999809E+01 0. -1.
       -4    1    3    3    0  502  0.13947001475E+04  0.13167206585E+04 -0.22962282156E+03  0.19317531020E+04  0.12699999809E+01 0.  1.
</event>
<event>
 5   0  0.1879500E-08  0.4006691E+04  0.7818609E-02  0.8003198E-01
       -1   -1    0    0    0  501  0.00000000000E+00  0.00000000000E+00  0.24232859424E+04  0.24232859424E+04  0.50400001928E-02 0. -1.
        1   -1    0    0  501    0  0.00000000000E+00  0.00000000000E+00 -0.16561785069E+04  0.16561785069E+04  0.50400001928E-02 0.  1.
    10030    2    1    2    0    0  0.00000000000E+00  0.00000000000E+00  0.76710743557E+03  0.40794644493E+04  0.40066914500E+04 0.  0.
        3    1    3    3  502    0  0.93039828290E+03  0.17719174990E+04  0.47497031728E+03  0.20569223127E+04  0.10100000352E+00 0. -1.
       -3    1    3    3    0  502 -0.93039828290E+03 -0.17719174990E+04  0.29213711829E+03  0.20225421366E+04  0.10100000352E+00 0.  1.
</event>
<event>
 5   0  0.5951623E-08  0.3995230E+04  0.7818609E-02  0.8005509E-01
       -2   -1    0    0    0  501  0.00000000000E+00  0.00000000000E+00  0.17482295027E+04  0.17482295027E+04  0.25500000920E-02 0.  1.
        2   -1    0    0  501    0  0.00000000000E+00  0.00000000000E+00 -0.22825757275E+04  0.22825757275E+04  0.25500000920E-02 0. -1.
    10030    2    1    2    0    0  0.00000000000E+00  0.00000000000E+00 -0.53434622484E+03  0.40308052302E+04  0.39952302707E+04 0.  0.
        2    1    3    3  502    0 -0.67289650119E+03 -0.34233583977E+03 -0.21330960222E+04  0.22627598566E+04  0.25500000920E-02 0. -1.
       -2    1    3    3    0  502  0.67289650119E+03  0.34233583977E+03  0.15987497974E+04  0.17680453736E+04  0.25500000920E-02 0.  1.
</event>
<event>
 5   0  0.5846812E-08  0.3988233E+04  0.7818609E-02  0.8006925E-01
       -2   -1    0    0    0  501  0.00000000000E+00  0.00000000000E+00  0.24715383539E+04  0.24715383539E+04  0.25500000920E-02 0. -1.
        2   -1    0    0  501    0  0.00000000000E+00  0.00000000000E+00 -0.16089170347E+04  0.16089170347E+04  0.25500000920E-02 0.  1.
    10030    2    1    2    0    0  0.00000000000E+00  0.00000000000E+00  0.86262131919E+03  0.40804553886E+04  0.39882327713E+04 0.  0.
        4    1    3    3  502    0  0.13102410396E+04  0.92587505152E+03 -0.78035564938E+03  0.17840775614E+04  0.12699999809E+01 0.  1.
       -4    1    3    3    0  502 -0.13102410396E+04 -0.92587505152E+03  0.16429769686E+04  0.22963778271E+04  0.12699999809E+01 0. -1.
</event>
<event>
 5   0  0.1879500E-08  0.3984196E+04  0.7818609E-02  0.8007742E-01
        1   -1    0    0  501    0  0.00000000000E+00  0.00000000000E+00  0.15829051135E+04  0.15829051135E+04  0.50400001928E-02 0. -1.
       -1   -1    0    0    0  501  0.00000000000E+00  0.00000000000E+00 -0.25070703917E+04  0.25070703918E+04  0.50400001928E-02 0.  1.
    10030    2    1    2    0    0  0.00000000000E+00  0.00000000000E+00 -0.92416527827E+03  0.40899755052E+04  0.39841960509E+04 0.  0.
        5    1    3    3  502    0 -0.13699320762E+04 -0.64615283186E+03  0.86618115173E+03  0.17448550808E+04  0.46999998093E+01 0. -1.
       -5    1    3    3    0  502  0.13699320762E+04  0.64615283186E+03 -0.17903464300E+04  0.23451204244E+04  0.46999998093E+01 0.  1.
</event>
<event>
 5   0  0.1879500E-08  0.3945660E+04  0.7818609E-02  0.8015599E-01
       -1   -1    0    0    0  501  0.00000000000E+00  0.00000000000E+00  0.14183708962E+04  0.14183708962E+04  0.50400001928E-02 0.  1.
        1   -1    0    0  501    0  0.00000000000E+00  0.00000000000E+00 -0.27440348377E+04  0.27440348377E+04  0.50400001928E-02 0. -1.
    10030    2    1    2    0    0  0.00000000000E+00  0.00000000000E+00 -0.13256639415E+04  0.41624057339E+04  0.39456604780E+04 0.  0.
        2    1    3    3  502    0 -0.64345016308E+03 -0.80089062879E+03  0.11139091342E+04  0.15153374115E+04  0.25500000920E-02 0.  1.
       -2    1    3    3    0  502  0.64345016308E+03  0.80089062879E+03 -0.24395730757E+04  0.26470683224E+04  0.25500000920E-02 0. -1.
</event>
<event>
 5   0  0.5951623E-08  0.3991631E+04  0.7818609E-02  0.8006237E-01
       -2   -1    0    0    0  501  0.00000000000E+00  0.00000000000E+00  0.17484505743E+04  0.17484505743E+04  0.25500000920E-02 0.  1.
        2   -1    0    0  501    0  0.00000000000E+00  0.00000000000E+00 -0.22781768953E+04  0.22781768953E+04  0.25500000920E-02 0. -1.
    10030    2    1    2    0    0  0.00000000000E+00  0.00000000000E+00 -0.52972632094E+03  0.40266274696E+04  0.39916310956E+04 0.  0.
        2    1    3    3  502    0 -0.15427440816E+04  0.92638844807E+03 -0.11355789741E+04  0.21278614768E+04  0.25500000920E-02 0.  1.
       -2    1    3    3    0  502  0.15427440816E+04 -0.92638844807E+03  0.60585265311E+03  0.18987659928E+04  0.25500000920E-02 0. -1.
</event>
<event>
 5   0  0.5945387E-08  0.3983470E+04  0.7818609E-02  0.8007889E-01
       -2   -1    0    0    0  501  0.00000000000E+00  0.00000000000E+00  0.20922169321E+04  0.20922169321E+04  0.25500000920E-02 0.  1.
        2   -1    0    0  501    0  0.00000000000E+00  0.00000000000E+00 -0.18960790004E+04  0.18960790004E+04  0.25500000920E-02 0. -1.
    10030    2    1    2    0    0  0.00000000000E+00  0.00000000000E+00  0.19613793164E+03  0.39882959325E+04  0.39834701401E+04 0.  0.
        3    1    3    3  502    0  0.75518752527E+03 -0.11393433367E+04  0.15484775052E+04  0.20654767081E+04  0.10100000352E+00 0.  1.
       -3    1    3    3    0  502 -0.75518752527E+03  0.11393433367E+04 -0.13523395736E+04  0.19228192244E+04  0.10100000352E+00 0. -1.
</event>
<event>
 5   0  0.5888700E-08  0.4014257E+04  0.7818609E-02  0.8001677E-01
        2   -1    0    0  501    0  0.00000000000E+00  0.00000000000E+00  0.28003802356E+04  0.28003802356E+04  0.25500000920E-02 0. -1.
       -2   -1    0    0    0  501  0.00000000000E+00  0.00000000000E+00 -0.14385775576E+04  0.14385775576E+04  0.25500000920E-02 0.  1.
    10030    2    1    2    0    0  0.00000000000E+00  0.00000000000E+00  0.13618026780E+04  0.42389577932E+04  0.40142566732E+04 0.  0.
        5    1    3    3  502    0 -0.62721873251E+03 -0.12453764924E+04 -0.84357666498E+03  0.16297268562E+04  0.46999998093E+01 0.  1.
       -5    1    3    3    0  502  0.62721873251E+03  0.12453764924E+04  0.22053793430E+04  0.26092309370E+04  0.46999998093E+01 0. -1.
</event>
<event>
 5   0  0.1879500E-08  0.3995153E+04  0.7818609E-02  0.8005525E-01
        1   -1    0    0  501    0  0.00000000000E+00  0.00000000000E+00  0.27810089020E+04  0.27810089020E+04  0.50400001928E-02 0.  1.
       -1   -1    0    0    0  501  0.00000000000E+00  0.00000000000E+00 -0.14348434926E+04  0.14348434926E+04  0.50400001928E-02 0. -1.
    10030    2    1    2    0    0  0.00000000000E+00  0.00000000000E+00  0.13461654093E+04  0.42158523946E+04  0.39951533267E+04 0.  0.
        2    1    3    3  502    0  0.10163439366E+04  0.10102686000E+04 -0.79545394895E+03  0.16390072076E+04  0.25500000920E-02 0. -1.
       -2    1    3    3    0  502 -0.10163439366E+04 -0.10102686000E+04  0.21416193583E+04  0.25768451870E+04  0.25500000920E-02 0.  1.
</event>
<event>
 5   0  0.5951623E-08  0.3993778E+04  0.7818609E-02  0.8005803E-01
        2   -1    0    0  501    0  0.00000000000E+00  0.00000000000E+00  0.17259430726E+04  0.17259430726E+04  0.25500000920E-02 0.  1.
       -2   -1    0    0    0  501  0.00000000000E+00  0.00000000000E+00 -0.23103694354E+04  0.23103694354E+04  0.25500000920E-02 0. -1.
    10030    2    1    2    0    0  0.00000000000E+00  0.00000000000E+00 -0.58442636283E+03  0.40363125080E+04  0.39937782222E+04 0.  0.
        2    1    3    3  502    0 -0.86491748214E+03 -0.17506841094E+04  0.13007536573E+03  0.19570121877E+04  0.25500000920E-02 0.  1.
       -2    1    3    3    0  502  0.86491748214E+03  0.17506841094E+04 -0.71450172856E+03  0.20793003203E+04  0.25500000920E-02 0. -1.
</event>
<event>
 5   0  0.1879500E-08  0.3982228E+04  0.7818609E-02  0.8008141E-01
        1   -1    0    0  501    0  0.00000000000E+00  0.00000000000E+00  0.15420602732E+04  0.15420602732E+04  0.50400001928E-02 0.  1.
       -1   -1    0    0    0  501  0.00000000000E+00  0.00000000000E+00 -0.25709344755E+04  0.25709344755E+04  0.50400001928E-02 0. -1.
    10030    2    1    2    0    0  0.00000000000E+00  0.00000000000E+00 -0.10288742023E+04  0.41129947487E+04  0.39822284815E+04 0.  0.
        2    1    3    3  502    0  0.89197548793E+03 -0.24325625767E+03 -0.23357902603E+04  0.25121126604E+04  0.25500000920E-02 0. -1.
       -2    1    3    3    0  502 -0.89197548793E+03  0.24325625767E+03  0.13069160581E+04  0.16008820884E+04  0.25500000920E-02 0.  1.
</event>
<event>
 5   0  0.5888700E-08  0.3980055E+04  0.7818609E-02  0.8008582E-01
        2   -1    0    0  501    0  0.00000000000E+00  0.00000000000E+00  0.20085865108E+04  0.20085865108E+04  0.25500000920E-02 0. -1.
       -2   -1    0    0    0  501  0.00000000000E+00  0.00000000000E+00 -0.19716394999E+04  0.19716394999E+04  0.25500000920E-02 0.  1.
    10030    2    1    2    0    0  0.00000000000E+00  0.00000000000E+00  0.36947010964E+02  0.39802260107E+04  0.39800545241E+04 0.  0.
        5    1    3    3  502    0  0.38390287417E+03 -0.16260663378E+04  0.10995905092E+04  0.20001486269E+04  0.46999998093E+01 0. -1.
       -5    1    3    3    0  502 -0.38390287417E+03  0.16260663378E+04 -0.10626434982E+04  0.19800773838E+04  0.46999998093E+01 0.  1.
</event>
<event>
 5   0  0.1879500E-08  0.3997283E+04  0.7818609E-02  0.8005095E-01
        1   -1    0    0  501    0  0.00000000000E+00  0.00000000000E+00  0.23148715258E+04  0.23148715258E+04  0.50400001928E-02 0. -1.
       -1   -1    0    0    0  501  0.00000000000E+00  0.00000000000E+00 -0.17256111970E+04  0.17256111970E+04  0.50400001928E-02 0.  1.
    10030    2    1    2    0    0  0.00000000000E+00  0.00000000000E+00  0.58926032888E+03  0.40404827228E+04  0.39972831896E+04 0.  0.
        1    1    3    3  502    0  0.56473768012E+03 -0.17910105889E+04  0.98607007155E+03  0.21210803292E+04  0.50400001928E-02 0. -1.
       -1    1    3    3    0  502 -0.56473768012E+03  0.17910105889E+04 -0.39680974267E+03  0.19194023936E+04  0.50400001928E-02 0.  1.
</event>
<event>
 5   0  0.1879500E-08  0.3962721E+04  0.7818609E-02  0.8012109E-01
       -1   -1    0    0    0  501  0.00000000000E+00  0.00000000000E+00  0.30213309861E+04  0.30213309861E+04  0.50400001928E-02 0. -1.
        1   -1    0    0  501    0  0.00000000000E+00  0.00000000000E+00 -0.12993575058E+04  0.12993575058E+04  0.50400001928E-02 0.  1.
    10030    2    1    2    0    0  0.00000000000E+00  0.00000000000E+00  0.17219734803E+04  0.43206884919E+04  0.39627208300E+04 0.  0.
        4    1    3    3  502    0 -0.15463625129E+03 -0.13626662884E+04 -0.69823471244E+03  0.15389298588E+04  0.12699999809E+01 0.  1.
       -4    1    3    3    0  502  0.15463625129E+03  0.13626662884E+04  0.24202081928E+04  0.27817586331E+04  0.12699999809E+01 0. -1.
</event>
<event>
 5   0  0.1879500E-08  0.3989817E+04  0.7818609E-02  0.8006604E-01
        1   -1    0    0  501    0  0.00000000000E+00  0.00000000000E+00  0.19141122998E+04  0.19141122998E+04  0.50400001928E-02 0. -1.
       -1   -1    0    0    0  501  0.00000000000E+00  0.00000000000E+00 -0.20791147786E+04  0.20791147786E+04  0.50400001928E-02 0.  1.
    10030    2    1    2    0    0  0.00000000000E+00  0.00000000000E+00 -0.16500247884E+03  0.39932270784E+04  0.39898166226E+04 0.  0.
        1    1    3    3  502    0 -0.24740625698E+02  0.16676545984E+04  0.10129548858E+04  0.19513486513E+04  0.50400001928E-02 0. -1.
       -1    1    3    3    0  502  0.24740625698E+02 -0.16676545984E+04 -0.11779573647E+04  0.20418784271E+04  0.50400001928E-02 0.  1.
</event>
<event>
 5   0  0.5888700E-08  0.3983421E+04  0.7818609E-02  0.8007900E-01
       -2   -1    0    0    0  501  0.00000000000E+00  0.00000000000E+00  0.16077441906E+04  0.16077441906E+04  0.25500000920E-02 0.  1.
        2   -1    0    0  501    0  0.00000000000E+00  0.00000000000E+00 -0.24673762838E+04  0.24673762838E+04  0.25500000920E-02 0. -1.
    10030    2    1    2    0    0  0.00000000000E+00  0.00000000000E+00 -0.85963209322E+03  0.40751204744E+04  0.39834205836E+04 0.  0.
        5    1    3    3  502    0 -0.19404682847E+04  0.18676429655E+03 -0.12266129644E+02  0.19494795752E+04  0.46999998093E+01 0. -1.
       -5    1    3    3    0  502  0.19404682847E+04 -0.18676429655E+03 -0.84736596358E+03  0.21256408992E+04  0.46999998093E+01 0.  1.
</event>
<event>
 5   0  0.1879500E-08  0.4022270E+04  0.7818609E-02  0.8000069E-01
        1   -1    0    0  501    0  0.00000000000E+00  0.00000000000E+00  0.23051896445E+04  0.23051896446E+04  0.50400001928E-02 0.  1.
       -1   -1    0    0    0  501  0.00000000000E+00  0.00000000000E+00 -0.17545904546E+04  0.17545904547E+04  0.50400001928E-02 0. -1.
    10030    2    1    2    0    0  0.00000000000E+00  0.00000000000E+00  0.55059918990E+03  0.40597800992E+04  0.40222698798E+04 0.  0.
        5    1    3    3  502    0 -0.38493590913E+03 -0.13077892394E+04  0.17676527590E+04  0.22322873280E+04  0.46999998093E+01 0.  1.
       -5    1    3    3    0  502  0.38493590913E+03  0.13077892394E+04 -0.12170535690E+04  0.18274927712E+04  0.46999998093E+01 0. -1.
</event>
<event>
 5   0  0.1879500E-08  0.4004031E+04  0.7818609E-02  0.8003734E-01
       -1   -1    0    0    0  501  0.00000000000E+00  0.00000000000E+00  0.25537568598E+04  0.25537568598E+04  0.50400001928E-02 0. -1.
        1   -1    0    0  501    0  0.00000000000E+00  0.00000000000E+00 -0.15694785282E+04  0.15694785282E+04  0.50400001928E-02 0.  1.
    10030    2    1    2    0    0  0.00000000000E+00  0.00000000000E+00  0.98427833163E+03  0.41232353879E+04  0.40040312474E+04 0.  0.
        3    1    3    3  502    0 -0.15204856170E+04  0.99343538011E+03 -0.37511892153E+03  0.18545901384E+04  0.10100000352E+00 0.  1.
       -3    1    3    3    0  502  0.15204856170E+04 -0.99343538011E+03  0.13593972532E+04  0.22686452495E+04  0.10100000352E+00 0. -1.
</event>
<event>
 5   0  0.6161563E-08  0.4022794E+04  0.7818609E-02  0.7999964E-01
       -2   -1    0    0    0  501  0.00000000000E+00  0.00000000000E+00  0.12458623508E+04  0.12458623508E+04  0.25500000920E-02 0. -1.
        2   -1    0    0  501    0  0.00000000000E+00  0.00000000000E+00 -0.32473225363E+04  0.32473225363E+04  0.25500000920E-02 0.  1.
    10030    2    1    2    0    0  0.00000000000E+00  0.00000000000E+00 -0.20014601855E+04  0.44931848871E+04  0.40227935015E+04 0.  0.
        1    1    3    3  502    0 -0.15465255714E+03 -0.16131110018E+04 -0.23315540636E+04  0.28393993853E+04  0.50400001928E-02 0.  1.
       -1    1    3    3    0  502  0.15465255714E+03  0.16131110018E+04  0.33009387813E+03  0.16537855018E+04  0.50400001928E-02 0. -1.
</event>
<event>
 5   0  0.1879500E-08  0.4011442E+04  0.7818609E-02  0.8002242E-01
       -1   -1    0    0    0  501  0.00000000000E+00  0.00000000000E+00  0.24882595871E+04  0.24882595871E+04  0.50400001928E-02 0. -1.
        1   -1    0    0  501    0  0.00000000000E+00  0.00000000000E+00 -0.16167588863E+04  0.16167588863E+04  0.50400001928E-02 0.  1.
    10030    2    1    2    0    0  0.00000000000E+00  0.00000000000E+00  0.87150070078E+03  0.41050184734E+04  0.40114415358E+04 0.  0.
        3    1    3    3  502    0 -0.18371021266E+04 -0.34079201443E+03 -0.31053004280E+03  0.18940729495E+04  0.10100000352E+00 0.  1.
       -3    1    3    3    0  502  0.18371021266E+04  0.34079201443E+03  0.11820307436E+04  0.22109455239E+04  0.10100000352E+00 0. -1.
</event>
<event>
 5   0  0.5945387E-08  0.4000816E+04  0.7818609E-02  0.8004382E-01
       -2   -1    0    0    0  501  0.00000000000E+00  0.00000000000E+00  0.21985395588E+04  0.21985395588E+04  0.25500000920E-02 0. -1.
        2   -1    0    0  501    0  0.00000000000E+00  0.00000000000E+00 -0.18201323607E+04  0.18201323607E+04  0.25500000920E-02 0.  1.
    10030    2    1    2    0    0  0.00000000000E+00  0.00000000000E+00  0.37840719809E+03  0.40186719195E+04  0.40008164153E+04 0.  0.
        3    1    3    3  502    0  0.19110447502E+03 -0.42844469933E+03  0.21425024379E+04  0.21932629773E+04  0.10100000352E+00 0. -1.
       -3    1    3    3    0  502 -0.19110447502E+03  0.42844469933E+03 -0.17640952399E+04  0.18254089422E+04  0.10100000352E+00 0.  1.
</event>
<event>
 5   0  0.1879500E-08  0.3985935E+04  0.7818609E-02  0.8007390E-01
       -1   -1    0    0    0  501  0.00000000000E+00  0.00000000000E+00  0.22766572026E+04  0.22766572026E+04  0.50400001928E-02 0. -1.
        1   -1    0    0  501    0  0.00000000000E+00  0.00000000000E+00 -0.17446280387E+04  0.17446280387E+04  0.50400001928E-02 0.  1.
    10030    2    1    2    0    0  0.00000000000E+00  0.00000000000E+00  0.53202916391E+03  0.40212852413E+04  0.39859352680E+04 0.  0.
        3    1    3    3  502    0 -0.13876461071E+04 -0.17879442430E+03 -0.11658650282E+04  0.18212002742E+04  0.10100000352E+00 0.  1.
       -3    1    3    3    0  502  0.13876461071E+04  0.17879442430E+03  0.16978941921E+04  0.22000849671E+04  0.10100000352E+00 0. -1.
</event>
<event>
 5   0  0.1879500E-08  0.4015954E+04  0.7818609E-02  0.8001336E-01
        1   -1    0    0  501    0  0.00000000000E+00  0.00000000000E+00  0.22413523658E+04  0.22413523658E+04  0.50400001928E-02 0. -1.
       -1   -1    0    0    0  501  0.00000000000E+00  0.00000000000E+00 -0.17989010948E+04  0.17989010948E+04  0.50400001928E-02 0.  1.
    10030    2    1    2    0    0  0.00000000000E+00  0.00000000000E+00  0.44245127103E+03  0.40402534606E+04  0.40159537969E+04 0.  0.
        1    1    3    3  502    0  0.59778119946E+03  0.15183448168E+04 -0.95600763558E+03  0.18912070073E+04  0.50400001928E-02 0.  1.
       -1    1    3    3    0  502 -0.59778119946E+03 -0.15183448168E+04  0.13984589066E+04  0.21490464533E+04  0.50400001928E-02 0. -1.
</event>
<event>
 5   0  0.6161563E-08  0.4022863E+04  0.7818609E-02  0.7999950E-01
        2   -1    0    0  501    0  0.00000000000E+00  0.00000000000E+00  0.15726134797E+04  0.15726134797E+04  0.25500000920E-02 0.  1.
       -2   -1    0    0    0  501  0.00000000000E+00  0.00000000000E+00 -0.25726965908E+04  0.25726965908E+04  0.25500000920E-02 0. -1.
    10030    2    1    2    0    0  0.00000000000E+00  0.00000000000E+00 -0.10000831111E+04  0.41453100705E+04  0.40228633275E+04 0.  0.
        1    1    3    3  502    0 -0.80642982404E+03 -0.54107097249E+03 -0.23151248879E+04  0.25105557363E+04  0.50400001928E-02 0. -1.
       -1    1    3    3    0  502  0.80642982404E+03  0.54107097249E+03  0.13150417768E+04  0.16347543342E+04  0.50400001928E-02 0.  1.
</event>
<event>
 5   0  0.1879500E-08  0.3988923E+04  0.7818609E-02  0.8006785E-01
        1   -1    0    0  501    0  0.00000000000E+00  0.00000000000E+00  0.24821437371E+04  0.24821437371E+04  0.50400001928E-02 0. -1.
       -1   -1    0    0    0  501  0.00000000000E+00  0.00000000000E+00 -0.16025973003E+04  0.16025973003E+04  0.50400001928E-02 0.  1.
    10030    2    1    2    0    0  0.00000000000E+00  0.00000000000E+00  0.87954643681E+03  0.40847410374E+04  0.39889230888E+04 0.  0.
        3    1    3    3  502    0  0.59137385009E+03 -0.31077369979E+02 -0.15104930053E+04  0.16224296480E+04  0.10100000352E+00 0.  1.
       -3    1    3    3    0  502 -0.59137385009E+03  0.31077369979E+02  0.23900394421E+04  0.24623113894E+04  0.10100000352E+00 0. -1.
</event>
<event>
 5   0  0.1879500E-08  0.3970044E+04  0.7818609E-02  0.8010617E-01
       -1   -1    0    0    0  501  0.00000000000E+00  0.00000000000E+00  0.15124270893E+04  0.15124270893E+04  0.50400001928E-02 0. -1.
        1   -1    0    0  501    0  0.00000000000E+00  0.00000000000E+00 -0.26052911016E+04  0.26052911017E+04  0.50400001928E-02 0.  1.
    10030    2    1    2    0    0  0.00000000000E+00  0.00000000000E+00 -0.10928640124E+04  0.41177181910E+04  0.39700442505E+04 0.  0.
        3    1    3    3  502    0 -0.96706287832E+03  0.15949790964E+04 -0.12507673907E+04  0.22457934020E+04  0.10100000352E+00 0.  1.
       -3    1    3    3    0  502  0.96706287832E+03 -0.15949790964E+04  0.15790337830E+03  0.18719247890E+04  0.10100000352E+00 0. -1.
</event>
<event>
 5   0  0.5945387E-08  0.4019463E+04  0.7818609E-02  0.8000632E-01
        2   -1    0    0  501    0  0.00000000000E+00  0.00000000000E+00  0.19123188318E+04  0.19123188318E+04  0.25500000920E-02 0. -1.
       -2   -1    0    0    0  501  0.00000000000E+00  0.00000000000E+00 -0.21121066256E+04  0.21121066256E+04  0.25500000920E-02 0.  1.
    10030    2    1    2    0    0  0.00000000000E+00  0.00000000000E+00 -0.19978779378E+03  0.40244254575E+04  0.40194632851E+04 0.  0.
        3    1    3    3  502    0  0.19543772021E+04 -0.13715850600E+03 -0.54835148495E+03  0.20344758699E+04  0.10100000352E+00 0.  1.
       -3    1    3    3    0  502 -0.19543772021E+04  0.13715850600E+03  0.34856369116E+03  0.19899495876E+04  0.10100000352E+00 0. -1.
</event>
<event>
 5   0  0.5888700E-08  0.4004421E+04  0.7818609E-02  0.8003655E-01
        2   -1    0    0  501    0  0.00000000000E+00  0.00000000000E+00  0.19310162585E+04  0.19310162585E+04  0.25500000920E-02 0. -1.
       -2   -1    0    0    0  501  0.00000000000E+00  0.00000000000E+00 -0.20760298802E+04  0.20760298802E+04  0.25500000920E-02 0.  1.
    10030    2    1    2    0    0  0.00000000000E+00  0.00000000000E+00 -0.14501362166E+03  0.40070461387E+04  0.40044212825E+04 0.  0.
        5    1    3    3  502    0  0.18370174480E+03 -0.52096162713E+03 -0.19982625195E+04  0.20732155062E+04  0.46999998093E+01 0.  1.
       -5    1    3    3    0  502 -0.18370174480E+03  0.52096162713E+03  0.18532488979E+04  0.19338306326E+04  0.46999998093E+01 0. -1.
</event>
<event>
 5   0  0.5951623E-08  0.4006249E+04  0.7818609E-02  0.8003287E-01
        2   -1    0    0  501    0  0.00000000000E+00  0.00000000000E+00  0.25047418812E+04  0.25047418812E+04  0.25500000920E-02 0.  1.
       -2   -1    0    0    0  501  0.00000000000E+00  0.00000000000E+00 -0.16019644929E+04  0.16019644929E+04  0.25500000920E-02 0. -1.
    10030    2    1    2    0    0  0.00000000000E+00  0.00000000000E+00  0.90277738829E+03  0.41067063741E+04  0.40062488977E+04 0.  0.
        2    1    3    3  502    0  0.75782469510E+03 -0.18474499303E+04  0.28886321065E+03  0.20176252050E+04  0.25500000920E-02 0.  1.
       -2    1    3    3    0  502 -0.75782469510E+03  0.18474499303E+04  0.61391417764E+03  0.20890811691E+04  0.25500000920E-02 0. -1.
</event>
<event>
 5   0  0.5951623E-08  0.3998737E+04  0.7818609E-02  0.8004801E-01
       -2   -1    0    0    0  501  0.00000000000E+00  0.00000000000E+00  0.21890313858E+04  0.21890313858E+04  0.25500000920E-02 0. -1.
        2   -1    0    0  501    0  0.00000000000E+00  0.00000000000E+00 -0.18261385369E+04  0.18261385369E+04  0.25500000920E-02 0.  1.
    10030    2    1    2    0    0  0.00000000000E+00  0.00000000000E+00  0.36289284891E+03  0.40151699227E+04  0.39987370866E+04 0.  0.
        2    1    3    3  502    0  0.15160248140E+04 -0.66884207601E+03  0.13048801167E+04  0.21091213996E+04  0.25500000920E-02 0. -1.
       -2    1    3    3    0  502 -0.15160248140E+04  0.66884207601E+03 -0.94198726781E+03  0.19060485230E+04  0.25500000920E-02 0.  1.
</event>
<event>
 5   0  0.5945387E-08  0.3990986E+04  0.7818609E-02  0.8006367E-01
        2   -1    0    0  501    0  0.00000000000E+00  0.00000000000E+00  0.14462038650E+04  0.14462038650E+04  0.25500000920E-02 0.  1.
       -2   -1    0    0    0  501  0.00000000000E+00  0.00000000000E+00 -0.27534097078E+04  0.27534097078E+04  0.25500000920E-02 0. -1.
    10030    2    1    2    0    0  0.00000000000E+00  0.00000000000E+00 -0.13072058428E+04  0.41996135728E+04  0.39909857235E+04 0.  0.
        3    1    3    3  502    0  0.13951622056E+04 -0.94831302240E+03  0.46805316722E+03  0.17506709987E+04  0.10100000352E+00 0. -1.
       -3    1    3    3    0  502 -0.13951622056E+04  0.94831302240E+03 -0.17752590100E+04  0.24489425741E+04  0.10100000352E+00 0.  1.
</event>
<event>
 5   0  0.1879500E-08  0.3953390E+04  0.7818609E-02  0.8014016E-01
       -1   -1    0    0    0  501  0.00000000000E+00  0.00000000000E+00  0.25187859924E+04  0.25187859924E+04  0.50400001928E-02 0. -1.
        1   -1    0    0  501    0  0.00000000000E+00  0.00000000000E+00 -0.15512719975E+04  0.15512719975E+04  0.50400001928E-02 0.  1.
    10030    2    1    2    0    0  0.00000000000E+00  0.00000000000E+00  0.96751399490E+03  0.40700579899E+04  0.39533895218E+04 0.  0.
        2    1    3    3  502    0  0.34031245335E+03  0.15605295856E+04  0.16827095329E+04  0.23200380440E+04  0.25500000920E-02 0. -1.
       -2    1    3    3    0  502 -0.34031245335E+03 -0.15605295856E+04 -0.71519553804E+03  0.17500199459E+04  0.25500000920E-02 0.  1.
</event>
<event>
 5   0  0.6161563E-08  0.4006225E+04  0.7818609E-02  0.8003292E-01
        2   -1    0    0  501    0  0.00000000000E+00  0.00000000000E+00  0.24673302700E+04  0.24673302700E+04  0.25500000920E-02 0.  1.
       -2   -1    0    0    0  501  0.00000000000E+00  0.00000000000E+00 -0.16262349442E+04  0.16262349442E+04  0.25500000920E-02 0. -1.
    10030    2    1    2    0    0  0.00000000000E+00  0.00000000000E+00  0.84109532583E+03  0.40935652142E+04  0.40062245089E+04 0.  0.
        1    1    3    3  502    0  0.16796244061E+04 -0.52694250376E+03 -0.55614263071E+03  0.18461043235E+04  0.50400001928E-02 0.  1.
       -1    1    3    3    0  502 -0.16796244061E+04  0.52694250376E+03  0.13972379565E+04  0.22474608906E+04  0.50400001928E-02 0. -1.
</event>
<event>
 5   0  0.1879500E-08  0.4024069E+04  0.7818609E-02  0.7999709E-01
        1   -1    0    0  501    0  0.00000000000E+00  0.00000000000E+00  0.28042536594E+04  0.28042536594E+04  0.50400001928E-02 0. -1.
       -1   -1    0    0    0  501  0.00000000000E+00  0.00000000000E+00 -0.14436218734E+04  0.14436218734E+04  0.50400001928E-02 0.  1.
    10030    2    1    2    0    0  0.00000000000E+00  0.00000000000E+00  0.13606317860E+04  0.42478755327E+04  0.40240685487E+04 0.  0.
        3    1    3    3  502    0  0.42066627815E+03 -0.22455634063E+03 -0.13831107557E+04  0.14630041150E+04  0.10100000352E+00 0.  1.
       -3    1    3    3    0  502 -0.42066627815E+03  0.22455634063E+03  0.27437425418E+04  0.27848714177E+04  0.10100000352E+00 0. -1.
</event>
<event>
 5   0  0.1879500E-08  0.3937742E+04  0.7818609E-02  0.8017225E-01
       -1   -1    0    0    0  501  0.00000000000E+00  0.00000000000E+00  0.20515950939E+04  0.20515950939E+04  0.50400001928E-02 0.  1.
        1   -1    0    0  501    0  0.00000000000E+00  0.00000000000E+00 -0.18894826493E+04  0.18894826493E+04  0.50400001928E-02 0. -1.
    10030    2    1    2    0    0  0.00000000000E+00  0.00000000000E+00  0.16211244457E+03  0.39410777432E+04  0.39377421619E+04 0.  0.
        3    1    3    3  502    0 -0.67994217915E+03 -0.17047820616E+04  0.79429588878E+03  0.19998772997E+04  0.10100000352E+00 0. -1.
       -3    1    3    3    0  502  0.67994217915E+03  0.17047820616E+04 -0.63218344421E+03  0.19412004435E+04  0.10100000352E+00 0.  1.
</event>
<event>
 5   0  0.1879500E-08  0.3994757E+04  0.7818609E-02  0.8005605E-01
       -1   -1    0    0    0  501  0.00000000000E+00  0.00000000000E+00  0.15347779695E+04  0.15347779695E+04  0.50400001928E-02 0. -1.
        1   -1    0    0  501    0  0.00000000000E+00  0.00000000000E+00 -0.25994121076E+04  0.25994121076E+04  0.50400001928E-02 0.  1.
    10030    2    1    2    0    0  0.00000000000E+00  0.00000000000E+00 -0.10646341382E+04  0.41341900771E+04  0.39947567818E+04 0.  0.
        4    1    3    3  502    0 -0.34095631114E+03 -0.26043651794E+03 -0.25511601415E+04  0.25869862904E+04  0.12699999809E+01 0.  1.
       -4    1    3    3    0  502  0.34095631114E+03  0.26043651794E+03  0.14865260034E+04  0.15472037867E+04  0.12699999809E+01 0. -1.
</event>
<event>
 5   0  0.5846812E-08  0.3999967E+04  0.7818609E-02  0.8004553E-01
       -2   -1    0    0    0  501  0.00000000000E+00  0.00000000000E+00  0.19416915209E+04  0.19416915209E+04  0.25500000920E-02 0.  1.
        2   -1    0    0  501    0  0.00000000000E+00  0.00000000000E+00 -0.20600255790E+04  0.20600255790E+04  0.25500000920E-02 0. -1.
    10030    2    1    2    0    0  0.00000000000E+00  0.00000000000E+00 -0.11833405813E+03  0.40017170999E+04  0.39999670997E+04 0.  0.
        4    1    3    3  502    0  0.10038488207E+04  0.15766149363E+04 -0.77117037686E+03  0.20219130732E+04  0.12699999809E+01 0. -1.
       -4    1    3    3    0  502 -0.10038488207E+04 -0.15766149363E+04  0.65283631873E+03  0.19798040267E+04  0.12699999809E+01 0.  1.
</event>
<event>
 5   0  0.1879500E-08  0.4043550E+04  0.7818609E-02  0.7995818E-01
        1   -1    0    0  501    0  0.00000000000E+00  0.00000000000E+00  0.24681041828E+04  0.24681041828E+04  0.50400001928E-02 0. -1.
       -1   -1    0    0    0  501  0.00000000000E+00  0.00000000000E+00 -0.16561597293E+04  0.16561597293E+04  0.50400001928E-02 0.  1.
    10030    2    1    2    0    0  0.00000000000E+00  0.00000000000E+00  0.81194445349E+03  0.41242639121E+04  0.40435502991E+04 0.  0.
        3    1    3    3  502    0  0.41585376846E+03 -0.17190781273E+04  0.14050191700E+04  0.22588144773E+04  0.10100000352E+00 0. -1.
       -3    1    3    3    0  502 -0.41585376846E+03  0.17190781273E+04 -0.59307471647E+03  0.18654494349E+04  0.10100000352E+00 0.  1.
</event>
<event>
 5   0  0.5888700E-08  0.3978969E+04  0.7818609E-02  0.8008803E-01
       -2   -1    0    0    0  501  0.00000000000E+00  0.00000000000E+00  0.17406789104E+04  0.17406789104E+04  0.25500000920E-02 0.  1.
        2   -1    0    0  501    0  0.00000000000E+00  0.00000000000E+00 -0.22738529147E+04  0.22738529147E+04  0.25500000920E-02 0. -1.
    10030    2    1    2    0    0  0.00000000000E+00  0.00000000000E+00 -0.53317400432E+03  0.40145318252E+04  0.39789686172E+04 0.  0.
        5    1    3    3  502    0 -0.16105955928E+04 -0.70381962505E+03 -0.12069286628E+04  0.21321536331E+04  0.46999998093E+01 0. -1.
       -5    1    3    3    0  502  0.16105955928E+04  0.70381962505E+03  0.67375465849E+03  0.18823781921E+04  0.46999998093E+01 0.  1.
</event>
<event>
 5   0  0.1879500E-08  0.3958578E+04  0.7818609E-02  0.8012955E-01
        1   -1    0    0  501    0  0.00000000000E+00  0.00000000000E+00  0.32703643477E+04  0.32703643477E+04  0.50400001928E-02 0.  1.
       -1   -1    0    0    0  501  0.00000000000E+00  0.00000000000E+00 -0.11979048875E+04  0.11979048875E+04  0.50400001928E-02 0. -1.
    10030    2    1    2    0    0  0.00000000000E+00  0.00000000000E+00  0.20724594602E+04  0.44682692353E+04  0.39585782479E+04 0.  0.
        3    1    3    3  502    0 -0.72178115463E+03 -0.51664689869E+03 -0.96064579866E+03  0.13079496985E+04  0.10100000352E+00 0. -1.
       -3    1    3    3    0  502  0.72178115463E+03  0.51664689869E+03  0.30331052589E+04  0.31603195368E+04  0.10100000352E+00 0.  1.
</event>
<event>
 5   0  0.6161563E-08  0.3992433E+04  0.7818609E-02  0.8006075E-01
       -2   -1    0    0    0  501  0.00000000000E+00  0.00000000000E+00  0.24656868560E+04  0.24656868560E+04  0.25500000920E-02 0. -1.
        2   -1    0    0  501    0  0.00000000000E+00  0.00000000000E+00 -0.16161337039E+04  0.16161337039E+04  0.25500000920E-02 0.  1.
    10030    2    1    2    0    0  0.00000000000E+00  0.00000000000E+00  0.84955315204E+03  0.40818205599E+04  0.39924326575E+04 0.  0.
        1    1    3    3  502    0 -0.82312763396E+03 -0.18182709303E+04  0.38890027206E+03  0.20334433111E+04  0.50400001928E-02 0. -1.
       -1    1    3    3    0  502  0.82312763396E+03  0.18182709303E+04  0.46065287999E+03  0.20483772488E+04  0.50400001928E-02 0.  1.
</event>
<event>
 5   0  0.1879500E-08  0.4004763E+04  0.7818609E-02  0.8003586E-01
       -1   -1    0    0    0  501  0.00000000000E+00  0.00000000000E+00  0.16492131071E+04  0.16492131071E+04  0.50400001928E-02 0.  1.
        1   -1    0    0  501    0  0.00000000000E+00  0.00000000000E+00 -0.24311788107E+04  0.24311788107E+04  0.50400001928E-02 0. -1.
    10030    2    1    2    0    0  0.00000000000E+00  0.00000000000E+00 -0.78196570356E+03  0.40803919178E+04  0.40047631442E+04 0.  0.
        3    1    3    3  502    0  0.10453212582E+04  0.58317263069E+03  0.12445556516E+04  0.17267616020E+04  0.10100000352E+00 0. -1.
       -3    1    3    3    0  502 -0.10453212582E+04 -0.58317263069E+03 -0.20265213552E+04  0.23536303158E+04  0.10100000352E+00 0.  1.
</event>
<event>
 5   0  0.5888700E-08  0.3720408E+04  0.7818609E-02  0.8063454E-01
        2   -1    0    0  501    0  0.00000000000E+00  0.00000000000E+00  0.15142757472E+04  0.15142757472E+04  0.25500000920E-02 0.  1.
       -2   -1    0    0    0  501  0.00000000000E+00  0.00000000000E+00 -0.22851572290E+04  0.22851572290E+04  0.25500000920E-02 0. -1.
    10030    2    1    2    0    0  0.00000000000E+00  0.00000000000E+00 -0.77088148189E+03  0.37994329762E+04  0.37204075962E+04 0.  0.
        5    1    3    3  502    0  0.98559314452E+03 -0.51350712467E+03 -0.19088546989E+04  0.22088077701E+04  0.46999998093E+01 0. -1.
       -5    1    3    3    0  502 -0.98559314452E+03  0.51350712467E+03  0.11379732170E+04  0.15906252061E+04  0.46999998093E+01 0.  1.
</event>
<event>
 5   0  0.5945387E-08  0.3978718E+04  0.7818609E-02  0.8008854E-01
        2   -1    0    0  501    0  0.00000000000E+00  0.00000000000E+00  0.18444027745E+04  0.18444027745E+04  0.25500000920E-02 0.  1.
       -2   -1    0    0    0  501  0.00000000000E+00  0.00000000000E+00 -0.21457075098E+04  0.21457075098E+04  0.25500000920E-02 0. -1.
    10030    2    1    2    0    0  0.00000000000E+00  0.00000000000E+00 -0.30130473523E+03  0.39901102843E+04  0.39787178258E+04 0.  0.
        3    1    3    3  502    0  0.58078076974E+03 -0.10974592706E+04 -0.17093955258E+04  0.21127603335E+04  0.10100000352E+00 0. -1.
       -3    1    3    3    0  502 -0.58078076974E+03  0.10974592706E+04  0.14080907905E+04  0.18773499508E+04  0.10100000352E+00 0.  1.
</event>
<event>
 5   0  0.5945387E-08  0.4028294E+04  0.7818609E-02  0.7998863E-01
       -2   -1    0    0    0  501  0.00000000000E+00  0.00000000000E+00  0.17374479015E+04  0.17374479015E+04  0.25500000920E-02 0.  1.
        2   -1    0    0  501    0  0.00000000000E+00  0.00000000000E+00 -0.23349124707E+04  0.23349124707E+04  0.25500000920E-02 0. -1.
    10030    2    1    2    0    0  0.00000000000E+00  0.00000000000E+00 -0.59746456915E+03  0.40723603722E+04  0.40282943151E+04 0.  0.
        3    1    3    3  502    0 -0.17661751872E+04 -0.40000221858E+03 -0.11900872413E+04  0.21669527495E+04  0.10100000352E+00 0. -1.
       -3    1    3    3    0  502  0.17661751872E+04  0.40000221858E+03  0.59262267216E+03  0.19054076226E+04  0.10100000352E+00 0.  1.
</event>
<event>
 5   0  0.1879500E-08  0.3948982E+04  0.7818609E-02  0.8014918E-01
       -1   -1    0    0    0  501  0.00000000000E+00  0.00000000000E+00  0.18568496539E+04  0.18568496539E+04  0.50400001928E-02 0. -1.
        1   -1    0    0  501    0  0.00000000000E+00  0.00000000000E+00 -0.20995857127E+04  0.20995857127E+04  0.50400001928E-02 0.  1.
    10030    2    1    2    0    0  0.00000000000E+00  0.00000000000E+00 -0.24273605880E+03  0.39564353666E+04  0.39489821494E+04 0.  0.
        1    1    3    3  502    0 -0.20043800859E+02  0.10317792493E+04 -0.18078884816E+04  0.20816894425E+04  0.50400001928E-02 0.  1.
       -1    1    3    3    0  502  0.20043800859E+02 -0.10317792493E+04  0.15651524228E+04  0.18747459241E+04  0.50400001928E-02 0. -1.
</event>
<event>
 5   0  0.1879500E-08  0.3974988E+04  0.7818609E-02  0.8009611E-01
       -1   -1    0    0    0  501  0.00000000000E+00  0.00000000000E+00  0.16656570115E+04  0.16656570115E+04  0.50400001928E-02 0.  1.
        1   -1    0    0  501    0  0.00000000000E+00  0.00000000000E+00 -0.23715156106E+04  0.23715156106E+04  0.50400001928E-02 0. -1.
    10030    2    1    2    0    0  0.00000000000E+00  0.00000000000E+00 -0.70585859912E+03  0.40371726221E+04  0.39749875998E+04 0.  0.
        4    1    3    3  502    0  0.78079750912E+02  0.46177376052E+03  0.16088151848E+04  0.16755952271E+04  0.12699999809E+01 0.  1.
       -4    1    3    3    0  502 -0.78079750912E+02 -0.46177376052E+03 -0.23146737839E+04  0.23615773950E+04  0.12699999809E+01 0. -1.
</event>
<event>
 5   0  0.1879500E-08  0.3991483E+04  0.7818609E-02  0.8006267E-01
       -1   -1    0    0    0  501  0.00000000000E+00  0.00000000000E+00  0.13061686873E+04  0.13061686873E+04  0.50400001928E-02 0. -1.
        1   -1    0    0  501    0  0.00000000000E+00  0.00000000000E+00 -0.30493648927E+04  0.30493648927E+04  0.50400001928E-02 0.  1.
    10030    2    1    2    0    0  0.00000000000E+00  0.00000000000E+00 -0.17431962054E+04  0.43555335800E+04  0.39914834029E+04 0.  0.
        1    1    3    3  502    0  0.16490543479E+04  0.15258844752E+03 -0.20868719948E+04  0.26641505587E+04  0.50400001928E-02 0.  1.
       -1    1    3    3    0  502 -0.16490543479E+04 -0.15258844752E+03  0.34367578937E+03  0.16913830213E+04  0.50400001928E-02 0. -1.
</event>
<event>
 5   0  0.1879500E-08  0.4042841E+04  0.7818609E-02  0.7995960E-01
       -1   -1    0    0    0  501  0.00000000000E+00  0.00000000000E+00  0.13877998805E+04  0.13877998805E+04  0.50400001928E-02 0.  1.
        1   -1    0    0  501    0  0.00000000000E+00  0.00000000000E+00 -0.29443293490E+04  0.29443293490E+04  0.50400001928E-02 0. -1.
    10030    2    1    2    0    0  0.00000000000E+00  0.00000000000E+00 -0.15565294684E+04  0.43321292295E+04  0.40428405453E+04 0.  0.
        5    1    3    3  502    0  0.18374429241E+04  0.87714672859E+02  0.11968845371E+03  0.18434309803E+04  0.46999998093E+01 0.  1.
       -5    1    3    3    0  502 -0.18374429241E+04 -0.87714672859E+02 -0.16762179221E+04  0.24886982492E+04  0.46999998093E+01 0. -1.
</event>
<event>
 5   0  0.1879500E-08  0.3970218E+04  0.7818609E-02  0.8010582E-01
       -1   -1    0    0    0  501  0.00000000000E+00  0.00000000000E+00  0.20526604630E+04  0.20526604630E+04  0.50400001928E-02 0. -1.
        1   -1    0    0  501    0  0.00000000000E+00  0.00000000000E+00 -0.19197809759E+04  0.19197809759E+04  0.50400001928E-02 0.  1.
    10030    2    1    2    0    0  0.00000000000E+00  0.00000000000E+00  0.13287948715E+03  0.39724414389E+04  0.39702183854E+04 0.  0.
        4    1    3    3  502    0 -0.93928090657E+03 -0.15458309467E+04  0.88470873878E+03  0.20135920895E+04  0.12699999809E+01 0. -1.
       -4    1    3    3    0  502  0.93928090657E+03  0.15458309467E+04 -0.75182925163E+03  0.19588493495E+04  0.12699999809E+01 0.  1.
</event>
<event>
 5   0  0.1879500E-08  0.4024297E+04  0.7818609E-02  0.7999663E-01
       -1   -1    0    0    0  501  0.00000000000E+00  0.00000000000E+00  0.20543149985E+04  0.20543149985E+04  0.50400001928E-02 0.  1.
        1   -1    0    0  501    0  0.00000000000E+00  0.00000000000E+00 -0.19708478761E+04  0.19708478761E+04  0.50400001928E-02 0. -1.
    10030    2    1    2    0    0  0.00000000000E+00  0.00000000000E+00  0.83467122430E+02  0.40251628746E+04  0.40242973805E+04 0.  0.
        2    1    3    3  502    0 -0.18035923016E+04  0.39340582050E+03  0.84254863344E+03  0.20291874063E+04  0.25500000920E-02 0.  1.
       -2    1    3    3    0  502  0.18035923016E+04 -0.39340582050E+03 -0.75908151101E+03  0.19959754684E+04  0.25500000920E-02 0. -1.
</event>
<event>
 5   0  0.5951623E-08  0.3812367E+04  0.7818609E-02  0.8043506E-01
       -2   -1    0    0    0  501  0.00000000000E+00  0.00000000000E+00  0.15695383620E+04  0.15695383620E+04  0.25500000920E-02 0.  1.
        2   -1    0    0  501    0  0.00000000000E+00  0.00000000000E+00 -0.23150341048E+04  0.23150341048E+04  0.25500000920E-02 0. -1.
    10030    2    1    2    0    0  0.00000000000E+00  0.00000000000E+00 -0.74549574279E+03  0.38845724668E+04  0.38123666333E+04 0.  0.
        2    1    3    3  502    0  0.88114287988E+03  0.13662286473E+04 -0.13868574194E+04  0.21369059392E+04  0.25500000920E-02 0. -1.
       -2    1    3    3    0  502 -0.88114287988E+03 -0.13662286473E+04  0.64136167657E+03  0.17476665276E+04  0.25500000920E-02 0.  1.
</event>
<event>
 5   0  0.1879500E-08  0.3997428E+04  0.7818609E-02  0.8005066E-01
        1   -1    0    0  501    0  0.00000000000E+00  0.00000000000E+00  0.23169721763E+04  0.23169721764E+04  0.50400001928E-02 0. -1.
       -1   -1    0    0    0  501  0.00000000000E+00  0.00000000000E+00 -0.17241715357E+04  0.17241715357E+04  0.50400001928E-02 0.  1.
    10030    2    1    2    0    0  0.00000000000E+00  0.00000000000E+00  0.59280064061E+03  0.40411437121E+04  0.39974279108E+04 0.  0.
        5    1    3    3  502    0  0.94760503608E+03 -0.92171902032E+03 -0.12190983017E+04  0.17982613870E+04  0.46999998093E+01 0.  1.
       -5    1    3    3    0  502 -0.94760503608E+03  0.92171902032E+03  0.18118989423E+04  0.22428823251E+04  0.46999998093E+01 0. -1.
</event>
<event>
 5   0  0.1879500E-08  0.4010919E+04  0.7818609E-02  0.8002348E-01
        1   -1    0    0  501    0  0.00000000000E+00  0.00000000000E+00  0.30103109231E+04  0.30103109231E+04  0.50400001928E-02 0.  1.
       -1   -1    0    0    0  501  0.00000000000E+00  0.00000000000E+00 -0.13360304104E+04  0.13360304104E+04  0.50400001928E-02 0. -1.
    10030    2    1    2    0    0  0.00000000000E+00  0.00000000000E+00  0.16742805127E+04  0.43463413335E+04  0.40109185671E+04 0.  0.
        3    1    3    3  502    0  0.15514077800E+04 -0.12142036058E+04  0.12436239544E+04  0.23297547181E+04  0.10100000352E+00 0.  1.
       -3    1    3    3    0  502 -0.15514077800E+04  0.12142036058E+04  0.43065655829E+03  0.20165866154E+04  0.10100000352E+00 0. -1.
</event>
<event>
 5   0  0.5951623E-08  0.4004789E+04  0.7818609E-02  0.8003581E-01
        2   -1    0    0  501    0  0.00000000000E+00  0.00000000000E+00  0.23406880074E+04  0.23406880074E+04  0.25500000920E-02 0. -1.
       -2   -1    0    0    0  501  0.00000000000E+00  0.00000000000E+00 -0.17129934464E+04  0.17129934464E+04  0.25500000920E-02 0.  1.
    10030    2    1    2    0    0  0.00000000000E+00  0.00000000000E+00  0.62769456100E+03  0.40536814538E+04  0.40047887418E+04 0.  0.
        2    1    3    3  502    0 -0.58938128335E+03 -0.17850837444E+04  0.10119696207E+04  0.21349418692E+04  0.25500000920E-02 0. -1.
       -2    1    3    3    0  502  0.58938128335E+03  0.17850837444E+04 -0.38427505968E+03  0.19187395845E+04  0.25500000920E-02 0.  1.
</event>
<event>
 5   0  0.1879500E-08  0.3990980E+04  0.7818609E-02  0.8006369E-01
       -1   -1    0    0    0  501  0.00000000000E+00  0.00000000000E+00  0.27851239882E+04  0.27851239882E+04  0.50400001928E-02 0.  1.
        1   -1    0    0  501    0  0.00000000000E+00  0.00000000000E+00 -0.14297316083E+04  0.14297316083E+04  0.50400001928E-02 0. -1.
    10030    2    1    2    0    0  0.00000000000E+00  0.00000000000E+00  0.13553923799E+04  0.42148555965E+04  0.39909797288E+04 0.  0.
        2    1    3    3  502    0 -0.67977927880E+03  0.19688888689E+03  0.26481322401E+04  0.27410708606E+04  0.25500000920E-02 0.  1.
       -2    1    3    3    0  502  0.67977927880E+03 -0.19688888689E+03 -0.12927398602E+04  0.14737847359E+04  0.25500000920E-02 0. -1.
</event>
<event>
 5   0  0.1879500E-08  0.4003436E+04  0.7818609E-02  0.8003854E-01
       -1   -1    0    0    0  501  0.00000000000E+00  0.00000000000E+00  0.11866304589E+04  0.11866304589E+04  0.50400001928E-02 0. -1.
        1   -1    0    0  501    0  0.00000000000E+00  0.00000000000E+00 -0.33766834199E+04  0.33766834199E+04  0.50400001928E-02 0.  1.
    10030    2    1    2    0    0  0.00000000000E+00  0.00000000000E+00 -0.21900529610E+04  0.45633138788E+04  0.40034362221E+04 0.  0.
        5    1    3    3  502    0  0.14236799702E+04  0.68210432328E+02  0.50699345247E+03  0.15128059266E+04  0.46999998093E+01 0. -1.
       -5    1    3    3    0  502 -0.14236799702E+04 -0.68210432328E+02 -0.26970464134E+04  0.30505079522E+04  0.46999998093E+01 0.  1.
</event>
<event>
 5   0  0.6161563E-08  0.3996876E+04  0.7818609E-02  0.8005177E-01
       -2   -1    0    0    0  501  0.00000000000E+00  0.00000000000E+00  0.22097160997E+04  0.22097160997E+04  0.25500000920E-02 0. -1.
        2   -1    0    0  501    0  0.00000000000E+00  0.00000000000E+00 -0.18073610693E+04  0.18073610693E+04  0.25500000920E-02 0.  1.
    10030    2    1    2    0    0  0.00000000000E+00  0.00000000000E+00  0.40235503047E+03  0.40170771690E+04  0.39968762066E+04 0.  0.
        1    1    3    3  502    0  0.44592787813E+03 -0.13739614988E+04  0.15891471522E+04  0.21475592062E+04  0.50400001928E-02 0. -1.
       -1    1    3    3    0  502 -0.44592787813E+03  0.13739614988E+04 -0.11867921218E+04  0.18695179628E+04  0.50400001928E-02 0.  1.
</event>
<event>
 5   0  0.5951623E-08  0.3989916E+04  0.7818609E-02  0.8006584E-01
       -2   -1    0    0    0  501  0.00000000000E+00  0.00000000000E+00  0.24896868942E+04  0.24896868942E+04  0.25500000920E-02 0.  1.
        2   -1    0    0  501    0  0.00000000000E+00  0.00000000000E+00 -0.15985375156E+04  0.15985375156E+04  0.25500000920E-02 0. -1.
    10030    2    1    2    0    0  0.00000000000E+00  0.00000000000E+00  0.89114937863E+03  0.40882244098E+04  0.39899162410E+04 0.  0.
        2    1    3    3  502    0  0.60663892409E+03  0.48156264046E+03  0.23293354032E+04  0.24547335460E+04  0.25500000920E-02 0.  1.
       -2    1    3    3    0  502 -0.60663892409E+03 -0.48156264046E+03 -0.14381860246E+04  0.16334908638E+04  0.25500000920E-02 0. -1.
</event>
<event>
 5   0  0.5846812E-08  0.3993264E+04  0.7818609E-02  0.8005907E-01
        2   -1    0    0  501    0  0.00000000000E+00  0.00000000000E+00  0.25985825734E+04  0.25985825734E+04  0.25500000920E-02 0.  1.
       -2   -1    0    0    0  501  0.00000000000E+00  0.00000000000E+00 -0.15341209033E+04  0.15341209033E+04  0.25500000920E-02 0. -1.
    10030    2    1    2    0    0  0.00000000000E+00  0.00000000000E+00  0.10644616702E+04  0.41327034767E+04  0.39932642511E+04 0.  0.
        4    1    3    3  502    0  0.13679213104E+04 -0.72537835036E+03 -0.77240537992E+03  0.17303161984E+04  0.12699999809E+01 0. -1.
       -4    1    3    3    0  502 -0.13679213104E+04  0.72537835036E+03  0.18368670501E+04  0.24023872783E+04  0.12699999809E+01 0.  1.
</event>
<event>
 5   0  0.5888700E-08  0.4011988E+04  0.7818609E-02  0.8002133E-01
       -2   -1    0    0    0  501  0.00000000000E+00  0.00000000000E+00  0.20074876402E+04  0.20074876402E+04  0.25500000920E-02 0.  1.
        2   -1    0    0  501    0  0.00000000000E+00  0.00000000000E+00 -0.20045011593E+04  0.20045011593E+04  0.25500000920E-02 0. -1.
    10030    2    1    2    0    0  0.00000000000E+00  0.00000000000E+00  0.29864809098E+01  0.40119887995E+04  0.40119876879E+04 0.  0.
        5    1    3    3  502    0  0.60732128974E+03 -0.12053518833E+04 -0.14825142126E+04  0.20048897207E+04  0.46999998093E+01 0. -1.
       -5    1    3    3    0  502 -0.60732128974E+03  0.12053518833E+04  0.14855006935E+04  0.20070990788E+04  0.46999998093E+01 0.  1.
</event>
<event>
 5   0  0.5846812E-08  0.3993579E+04  0.7818609E-02  0.8005843E-01
        2   -1    0    0  501    0  0.00000000000E+00  0.00000000000E+00  0.16130913089E+04  0.16130913089E+04  0.25500000920E-02 0.  1.
       -2   -1    0    0    0  501  0.00000000000E+00  0.00000000000E+00 -0.24717561530E+04  0.24717561530E+04  0.25500000920E-02 0. -1.
    10030    2    1    2    0    0  0.00000000000E+00  0.00000000000E+00 -0.85866484410E+03  0.40848474618E+04  0.39935790304E+04 0.  0.
        4    1    3    3  502    0  0.99317033700E+03 -0.41539338806E+03  0.12908351308E+04  0.16808319169E+04  0.12699999809E+01 0.  1.
       -4    1    3    3    0  502 -0.99317033700E+03  0.41539338806E+03 -0.21494999749E+04  0.24040155449E+04  0.12699999809E+01 0. -1.
</event>
<event>
 5   0  0.6161563E-08  0.3999431E+04  0.7818609E-02  0.8004661E-01
       -2   -1    0    0    0  501  0.00000000000E+00  0.00000000000E+00  0.22773309070E+04  0.22773309070E+04  0.25500000920E-02 0. -1.
        2   -1    0    0  501    0  0.00000000000E+00  0.00000000000E+00 -0.17559428290E+04  0.17559428290E+04  0.25500000920E-02 0.  1.
    10030    2    1    2    0    0  0.00000000000E+00  0.00000000000E+00  0.52138807796E+03  0.40332737360E+04  0.39994313973E+04 0.  0.
        1    1    3    3  502    0 -0.10555740214E+04  0.30486684715E+03  0.19456651679E+04  0.22344559192E+04  0.50400001928E-02 0. -1.
       -1    1    3    3    0  502  0.10555740214E+04 -0.30486684715E+03 -0.14242770899E+04  0.17988178168E+04  0.50400001928E-02 0.  1.
</event>
<event>
 5   0  0.1879500E-08  0.4006599E+04  0.7818609E-02  0.8003217E-01
       -1   -1    0    0    0  501  0.00000000000E+00  0.00000000000E+00  0.32628016700E+04  0.32628016700E+04  0.50400001928E-02 0.  1.
        1   -1    0    0  501    0  0.00000000000E+00  0.00000000000E+00 -0.12299885482E+04  0.12299885482E+04  0.50400001928E-02 0. -1.
    10030    2    1    2    0    0  0.00000000000E+00  0.00000000000E+00  0.20328131218E+04  0.44927902182E+04  0.40065989014E+04 0.  0.
        4    1    3    3  502    0 -0.96311609599E+03 -0.14035890953E+02 -0.95328053207E+03  0.13551881811E+04  0.12699999809E+01 0. -1.
       -4    1    3    3    0  502  0.96311609599E+03  0.14035890953E+02  0.29860936538E+04  0.31376020371E+04  0.12699999809E+01 0.  1.
</event>
<event>
 5   0  0.5951623E-08  0.3999170E+04  0.7818609E-02  0.8004714E-01
        2   -1    0    0  501    0  0.00000000000E+00  0.00000000000E+00  0.25920340729E+04  0.25920340729E+04  0.25500000920E-02 0.  1.
       -2   -1    0    0    0  501  0.00000000000E+00  0.00000000000E+00 -0.15425489907E+04  0.15425489907E+04  0.25500000920E-02 0. -1.
    10030    2    1    2    0    0  0.00000000000E+00  0.00000000000E+00  0.10494850822E+04  0.41345830636E+04  0.39991696853E+04 0.  0.
        2    1    3    3  502    0  0.83920479877E+03  0.10800606368E+04  0.20327418815E+04  0.24500684134E+04  0.25500000920E-02 0.  1.
       -2    1    3    3    0  502 -0.83920479877E+03 -0.10800606368E+04 -0.98325679930E+03  0.16845146502E+04  0.25500000920E-02 0. -1.
</event>
<event>
 5   0  0.5945387E-08  0.3992622E+04  0.7818609E-02  0.8006037E-01
        2   -1    0    0  501    0  0.00000000000E+00  0.00000000000E+00  0.30900485023E+04  0.30900485023E+04  0.25500000920E-02 0. -1.
       -2   -1    0    0    0  501  0.00000000000E+00  0.00000000000E+00 -0.12897071496E+04  0.12897071496E+04  0.25500000920E-02 0.  1.
    10030    2    1    2    0    0  0.00000000000E+00  0.00000000000E+00  0.18003413528E+04  0.43797556519E+04  0.39926220187E+04 0.  0.
        3    1    3    3  502    0  0.48659463392E+03  0.18471143651E+04  0.15366468751E+04  0.24515075861E+04  0.10100000352E+00 0. -1.
       -3    1    3    3    0  502 -0.48659463392E+03 -0.18471143651E+04  0.26369447766E+03  0.19282480658E+04  0.10100000352E+00 0.  1.
</event>
<event>
 5   0  0.5888700E-08  0.3985930E+04  0.7818609E-02  0.8007391E-01
        2   -1    0    0  501    0  0.00000000000E+00  0.00000000000E+00  0.25772639384E+04  0.25772639384E+04  0.25500000920E-02 0. -1.
       -2   -1    0    0    0  501  0.00000000000E+00  0.00000000000E+00 -0.15411340647E+04  0.15411340647E+04  0.25500000920E-02 0.  1.
    10030    2    1    2    0    0  0.00000000000E+00  0.00000000000E+00  0.10361298737E+04  0.41183980030E+04  0.39859298785E+04 0.  0.
        5    1    3    3  502    0 -0.86448117835E+03  0.76264043750E+03 -0.11616757095E+04  0.16366003448E+04  0.46999998093E+01 0.  1.
       -5    1    3    3    0  502  0.86448117835E+03 -0.76264043750E+03  0.21978055832E+04  0.24817976582E+04  0.46999998093E+01 0. -1.
</event>
<event>
 5   0  0.6161563E-08  0.4027318E+04  0.7818609E-02  0.7999058E-01
       -2   -1    0    0    0  501  0.00000000000E+00  0.00000000000E+00  0.21118190983E+04  0.21118190983E+04  0.25500000920E-02 0.  1.
        2   -1    0    0  501    0  0.00000000000E+00  0.00000000000E+00 -0.19200613504E+04  0.19200613504E+04  0.25500000920E-02 0. -1.
    10030    2    1    2    0    0  0.00000000000E+00  0.00000000000E+00  0.19175774797E+03  0.40318804487E+04  0.40273178319E+04 0.  0.
        1    1    3    3  502    0  0.11339955486E+04  0.13651403874E+04 -0.85665479844E+03  0.19706373653E+04  0.50400001928E-02 0. -1.
       -1    1    3    3    0  502 -0.11339955486E+04 -0.13651403874E+04  0.10484125464E+04  0.20612430835E+04  0.50400001928E-02 0.  1.
</event>
<event>
 5   0  0.1879500E-08  0.3982627E+04  0.7818609E-02  0.8008061E-01
       -1   -1    0    0    0  501  0.00000000000E+00  0.00000000000E+00  0.13134270142E+04  0.13134270142E+04  0.50400001928E-02 0. -1.
        1   -1    0    0  501    0  0.00000000000E+00  0.00000000000E+00 -0.30190702982E+04  0.30190702982E+04  0.50400001928E-02 0.  1.
    10030    2    1    2    0    0  0.00000000000E+00  0.00000000000E+00 -0.17056432840E+04  0.43324973124E+04  0.39826265140E+04 0.  0.
        1    1    3    3  502    0  0.15533150520E+04 -0.55169161189E+03  0.36254369060E+03  0.16877764109E+04  0.50400001928E-02 0.  1.
       -1    1    3    3    0  502 -0.15533150520E+04  0.55169161189E+03 -0.20681869746E+04  0.26447209016E+04  0.50400001928E-02 0. -1.
</event>
<event>
 5   0  0.5951623E-08  0.3976711E+04  0.7818609E-02  0.8009261E-01
        2   -1    0    0  501    0  0.00000000000E+00  0.00000000000E+00  0.27800500912E+04  0.27800500912E+04  0.25500000920E-02 0. -1.
       -2   -1    0    0    0  501  0.00000000000E+00  0.00000000000E+00 -0.14221174990E+04  0.14221174990E+04  0.25500000920E-02 0.  1.
    10030    2    1    2    0    0  0.00000000000E+00  0.00000000000E+00  0.13579325922E+04  0.42021675902E+04  0.39767111450E+04 0.  0.
        2    1    3    3  502    0 -0.18490128210E+04  0.16276308282E+03 -0.74344504166E+02  0.18576510272E+04  0.25500000920E-02 0.  1.
       -2    1    3    3    0  502  0.18490128210E+04 -0.16276308282E+03  0.14322770963E+04  0.23445165630E+04  0.25500000920E-02 0. -1.
</event>
<event>
 5   0  0.1879500E-08  0.3997509E+04  0.7818609E-02  0.8005049E-01
        1   -1    0    0  501    0  0.00000000000E+00  0.00000000000E+00  0.25685904516E+04  0.25685904516E+04  0.50400001928E-02 0.  1.
       -1   -1    0    0    0  501  0.00000000000E+00  0.00000000000E+00 -0.15553350331E+04  0.15553350331E+04  0.50400001928E-02 0. -1.
    10030    2    1    2    0    0  0.00000000000E+00  0.00000000000E+00  0.10132554185E+04  0.41239254847E+04  0.39975085817E+04 0.  0.
        5    1    3    3  502    0 -0.12207951427E+03 -0.12799340690E+04 -0.10720811792E+04  0.16740713167E+04  0.46999998093E+01 0. -1.
       -5    1    3    3    0  502  0.12207951427E+03  0.12799340690E+04  0.20853365977E+04  0.24498541680E+04  0.46999998093E+01 0.  1.
</event>
<event>
 5   0  0.5888700E-08  0.3999483E+04  0.7818609E-02  0.8004651E-01
       -2   -1    0    0    0  501  0.00000000000E+00  0.00000000000E+00  0.29549896999E+04  0.29549896999E+04  0.25500000920E-02 0. -1.
        2   -1    0    0  501    0  0.00000000000E+00  0.00000000000E+00 -0.13532928098E+04  0.13532928098E+04  0.25500000920E-02 0.  1.
    10030    2    1    2    0    0  0.00000000000E+00  0.00000000000E+00  0.16016968901E+04  0.43082825096E+04  0.39994831235E+04 0.  0.
        5    1    3    3  502    0  0.64490746487E+03 -0.11353602951E+04  0.24323841943E+04  0.27606998381E+04  0.46999998093E+01 0. -1.
       -5    1    3    3    0  502 -0.64490746487E+03  0.11353602951E+04 -0.83068730416E+03  0.15475826715E+04  0.46999998093E+01 0.  1.
</event>
<event>
 5   0  0.1879500E-08  0.3997963E+04  0.7818609E-02  0.8004958E-01
       -1   -1    0    0    0  501  0.00000000000E+00  0.00000000000E+00  0.27865805541E+04  0.27865805541E+04  0.50400001928E-02 0.  1.
        1   -1    0    0  501    0  0.00000000000E+00  0.00000000000E+00 -0.14339890760E+04  0.14339890760E+04  0.50400001928E-02 0. -1.
    10030    2    1    2    0    0  0.00000000000E+00  0.00000000000E+00  0.13525914782E+04  0.42205696301E+04  0.39979625181E+04 0.  0.
        4    1    3    3  502    0  0.79945330360E+03 -0.15038500412E+04 -0.42850968097E+03  0.17562211395E+04  0.12699999809E+01 0. -1.
       -4    1    3    3    0  502 -0.79945330360E+03  0.15038500412E+04  0.17811011591E+04  0.24643484906E+04  0.12699999809E+01 0.  1.
</event>
<event>
 5   0  0.5846812E-08  0.3991752E+04  0.7818609E-02  0.8006212E-01
       -2   -1    0    0    0  501  0.00000000000E+00  0.00000000000E+00  0.16484255425E+04  0.16484255425E+04  0.25500000920E-02 0. -1.
        2   -1    0    0  501    0  0.00000000000E+00  0.00000000000E+00 -0.24165614376E+04  0.24165614376E+04  0.25500000920E-02 0.  1.
    10030    2    1    2    0    0  0.00000000000E+00  0.00000000000E+00 -0.76813589512E+03  0.40649869802E+04  0.39917522964E+04 0.  0.
        4    1    3    3  502    0 -0.17844499182E+04  0.83347104289E+03 -0.54739513310E+02  0.19702622965E+04  0.12699999809E+01 0. -1.
       -4    1    3    3    0  502  0.17844499182E+04 -0.83347104289E+03 -0.71339638181E+03  0.20947246837E+04  0.12699999809E+01 0.  1.
</event>
<event>
 5   0  0.1879500E-08  0.4038355E+04  0.7818609E-02  0.7996854E-01
        1   -1    0    0  501    0  0.00000000000E+00  0.00000000000E+00  0.23095346184E+04  0.23095346184E+04  0.50400001928E-02 0. -1.
       -1   -1    0    0    0  501  0.00000000000E+00  0.00000000000E+00 -0.17653242827E+04  0.17653242827E+04  0.50400001928E-02 0.  1.
    10030    2    1    2    0    0  0.00000000000E+00  0.00000000000E+00  0.54421033575E+03  0.40748589011E+04  0.40383548846E+04 0.  0.
        1    1    3    3  502    0 -0.18133728266E+04  0.48309845996E+02  0.11669260541E+04  0.21569356192E+04  0.50400001928E-02 0. -1.
       -1    1    3    3    0  502  0.18133728266E+04 -0.48309845996E+02 -0.62271571839E+03  0.19179232819E+04  0.50400001928E-02 0.  1.
</event>
<event>
 5   0  0.6161563E-08  0.3983371E+04  0.7818609E-02  0.8007910E-01
       -2   -1    0    0    0  501  0.00000000000E+00  0.00000000000E+00  0.16834586363E+04  0.16834586363E+04  0.25500000920E-02 0. -1.
        2   -1    0    0  501    0  0.00000000000E+00  0.00000000000E+00 -0.23563461155E+04  0.23563461155E+04  0.25500000920E-02 0.  1.
    10030    2    1    2    0    0  0.00000000000E+00  0.00000000000E+00 -0.67288747922E+03  0.40398047518E+04  0.39833710439E+04 0.  0.
        1    1    3    3  502    0  0.11846018534E+04  0.11102121052E+04  0.83357255816E+03  0.18250193641E+04  0.50400001928E-02 0. -1.
       -1    1    3    3    0  502 -0.11846018534E+04 -0.11102121052E+04 -0.15064600374E+04  0.22147853878E+04  0.50400001928E-02 0.  1.
</event>
<event>
 5   0  0.1879500E-08  0.3997335E+04  0.7818609E-02  0.8005084E-01
        1   -1    0    0  501    0  0.00000000000E+00  0.00000000000E+00  0.19735406268E+04  0.19735406268E+04  0.50400001928E-02 0. -1.
       -1   -1    0    0    0  501  0.00000000000E+00  0.00000000000E+00 -0.20241147497E+04  0.20241147497E+04  0.50400001928E-02 0.  1.
    10030    2    1    2    0    0  0.00000000000E+00  0.00000000000E+00 -0.50574122917E+02  0.39976553764E+04  0.39973354584E+04 0.  0.
        4    1    3    3  502    0  0.17280622128E+04 -0.85836382636E+03 -0.54656155542E+03  0.20054223038E+04  0.12699999809E+01 0.  1.
       -4    1    3    3    0  502 -0.17280622128E+04  0.85836382636E+03  0.49598743250E+03  0.19922330727E+04  0.12699999809E+01 0. -1.
</event>
<event>
 5   0  0.5945387E-08  0.4005700E+04  0.7818609E-02  0.8003398E-01
        2   -1    0    0  501    0  0.00000000000E+00  0.00000000000E+00  0.15311405680E+04  0.15311405680E+04  0.25500000920E-02 0. -1.
       -2   -1    0    0    0  501  0.00000000000E+00  0.00000000000E+00 -0.26198828756E+04  0.26198828756E+04  0.25500000920E-02 0.  1.
    10030    2    1    2    0    0  0.00000000000E+00  0.00000000000E+00 -0.10887423076E+04  0.41510234436E+04  0.40057004153E+04 0.  0.
        3    1    3    3  502    0  0.86310803609E+03  0.43771573842E+03  0.12727725797E+04  0.15989060634E+04  0.10100000352E+00 0. -1.
       -3    1    3    3    0  502 -0.86310803609E+03 -0.43771573842E+03 -0.23615148873E+04  0.25521173803E+04  0.10100000352E+00 0.  1.
</event>
<event>
 5   0  0.1879500E-08  0.3918071E+04  0.7818609E-02  0.8021281E-01
        1   -1    0    0  501    0  0.00000000000E+00  0.00000000000E+00  0.29948473718E+04  0.29948473718E+04  0.50400001928E-02 0.  1.
       -1   -1    0    0    0  501  0.00000000000E+00  0.00000000000E+00 -0.12814743166E+04  0.12814743166E+04  0.50400001928E-02 0. -1.
    10030    2    1    2    0    0  0.00000000000E+00  0.00000000000E+00  0.17133730552E+04  0.42763216884E+04  0.39180709484E+04 0.  0.
        3    1    3    3  502    0  0.70576358328E+03  0.16130220274E+04 -0.80854451514E+02  0.17625208506E+04  0.10100000352E+00 0. -1.
       -3    1    3    3    0  502 -0.70576358328E+03 -0.16130220274E+04  0.17942275067E+04  0.25138008379E+04  0.10100000352E+00 0.  1.
</event>
<event>
 5   0  0.6161563E-08  0.3980239E+04  0.7818609E-02  0.8008545E-01
       -2   -1    0    0    0  501  0.00000000000E+00  0.00000000000E+00  0.16226811651E+04  0.16226811651E+04  0.25500000920E-02 0.  1.
        2   -1    0    0  501    0  0.00000000000E+00  0.00000000000E+00 -0.24407607757E+04  0.24407607757E+04  0.25500000920E-02 0. -1.
    10030    2    1    2    0    0  0.00000000000E+00  0.00000000000E+00 -0.81807961062E+03  0.40634419407E+04  0.39802394597E+04 0.  0.
        1    1    3    3  502    0 -0.14425535647E+04  0.11717846162E+04 -0.11356312143E+04  0.21780032664E+04  0.50400001928E-02 0.  1.
       -1    1    3    3    0  502  0.14425535647E+04 -0.11717846162E+04  0.31755160368E+03  0.18854386743E+04  0.50400001928E-02 0. -1.
</event>
<event>
 5   0  0.1879500E-08  0.4008136E+04  0.7818609E-02  0.8002907E-01
        1   -1    0    0  501    0  0.00000000000E+00  0.00000000000E+00  0.13408366629E+04  0.13408366629E+04  0.50400001928E-02 0. -1.
       -1   -1    0    0    0  501  0.00000000000E+00  0.00000000000E+00 -0.29953603142E+04  0.29953603142E+04  0.50400001928E-02 0.  1.
    10030    2    1    2    0    0  0.00000000000E+00  0.00000000000E+00 -0.16545236513E+04  0.43361969771E+04  0.40081361892E+04 0.  0.
        4    1    3    3  502    0 -0.29228999296E+03 -0.17505682486E+04 -0.18342326844E+04  0.25523192956E+04  0.12699999809E+01 0.  1.
       -4    1    3    3    0  502  0.29228999296E+03  0.17505682486E+04  0.17970903309E+03  0.17838776815E+04  0.12699999809E+01 0. -1.
</event>
<event>
 5   0  0.5945387E-08  0.3878858E+04  0.7818609E-02  0.8029441E-01
       -2   -1    0    0    0  501  0.00000000000E+00  0.00000000000E+00  0.25653815973E+04  0.25653815973E+04  0.25500000920E-02 0. -1.
        2   -1    0    0  501    0  0.00000000000E+00  0.00000000000E+00 -0.14662083870E+04  0.14662083870E+04  0.25500000920E-02 0.  1.
    10030    2    1    2    0    0  0.00000000000E+00  0.00000000000E+00  0.10991732103E+04  0.40315899844E+04  0.38788575710E+04 0.  0.
        3    1    3    3  502    0  0.15731674832E+04 -0.71491390938E+03  0.14648429607E+04  0.22653306023E+04  0.10100000352E+00 0. -1.
       -3    1    3    3    0  502 -0.15731674832E+04  0.71491390938E+03 -0.36566975042E+03  0.17662593820E+04  0.10100000352E+00 0.  1.
</event>
<event>
 5   0  0.1879500E-08  0.3998315E+04  0.7818609E-02  0.8004887E-01
       -1   -1    0    0    0  501  0.00000000000E+00  0.00000000000E+00  0.16221268422E+04  0.16221268422E+04  0.50400001928E-02 0. -1.
        1   -1    0    0  501    0  0.00000000000E+00  0.00000000000E+00 -0.24638212689E+04  0.24638212689E+04  0.50400001928E-02 0.  1.
    10030    2    1    2    0    0  0.00000000000E+00  0.00000000000E+00 -0.84169442667E+03  0.40859481110E+04  0.39983149524E+04 0.  0.
        4    1    3    3  502    0  0.47361265052E+03 -0.18837810523E+03 -0.23963049115E+04  0.24499130791E+04  0.12699999809E+01 0.  1.
       -4    1    3    3    0  502 -0.47361265052E+03  0.18837810523E+03  0.15546104848E+04  0.16360350319E+04  0.12699999809E+01 0. -1.
</event>
<event>
 5   0  0.1879500E-08  0.3998947E+04  0.7818609E-02  0.8004759E-01
        1   -1    0    0  501    0  0.00000000000E+00  0.00000000000E+00  0.24062536360E+04  0.24062536360E+04  0.50400001928E-02 0.  1.
       -1   -1    0    0    0  501  0.00000000000E+00  0.00000000000E+00 -0.16614602308E+04  0.16614602308E+04  0.50400001928E-02 0. -1.
    10030    2    1    2    0    0  0.00000000000E+00  0.00000000000E+00  0.74479340517E+03  0.40677138668E+04  0.39989472222E+04 0.  0.
        4    1    3    3  502    0  0.15137108595E+04 -0.12891377596E+04  0.15734598514E+03  0.19944814116E+04  0.12699999809E+01 0. -1.
       -4    1    3    3    0  502 -0.15137108595E+04  0.12891377596E+04  0.58744742003E+03  0.20732324552E+04  0.12699999809E+01 0.  1.
</event>
<event>
 5   0  0.1879500E-08  0.3871657E+04  0.7818609E-02  0.8030950E-01
       -1   -1    0    0    0  501  0.00000000000E+00  0.00000000000E+00  0.36862996929E+04  0.36862996929E+04  0.50400001928E-02 0.  1.
        1   -1    0    0  501    0  0.00000000000E+00  0.00000000000E+00 -0.10165834027E+04  0.10165834027E+04  0.50400001928E-02 0. -1.
    10030    2    1    2    0    0  0.00000000000E+00  0.00000000000E+00  0.26697162902E+04  0.47028830957E+04  0.38716565371E+04 0.  0.
        5    1    3    3  502    0 -0.14586261818E+04 -0.11642854600E+04  0.71043146326E+03  0.19969691847E+04  0.46999998093E+01 0. -1.
       -5    1    3    3    0  502  0.14586261818E+04  0.11642854600E+04  0.19592848269E+04  0.27059139110E+04  0.46999998093E+01 0.  1.
</event>
<event>
 5   0  0.5951623E-08  0.3969002E+04  0.7818609E-02  0.8010829E-01
       -2   -1    0    0    0  501  0.00000000000E+00  0.00000000000E+00  0.22889606698E+04  0.22889606698E+04  0.25500000920E-02 0. -1.
        2   -1    0    0  501    0  0.00000000000E+00  0.00000000000E+00 -0.17205380966E+04  0.17205380966E+04  0.25500000920E-02 0.  1.
    10030    2    1    2    0    0  0.00000000000E+00  0.00000000000E+00  0.56842257319E+03  0.40094987664E+04  0.39690019068E+04 0.  0.
        2    1    3    3  502    0  0.85761316480E+03  0.14527798456E+04 -0.77152336353E+03  0.18550789527E+04  0.25500000920E-02 0. -1.
       -2    1    3    3    0  502 -0.85761316480E+03 -0.14527798456E+04  0.13399459367E+04  0.21544198137E+04  0.25500000920E-02 0.  1.
</event>
<event>
 5   0  0.5846812E-08  0.4104949E+04  0.7818609E-02  0.7983703E-01
       -2   -1    0    0    0  501  0.00000000000E+00  0.00000000000E+00  0.21504951464E+04  0.21504951464E+04  0.25500000920E-02 0. -1.
        2   -1    0    0  501    0  0.00000000000E+00  0.00000000000E+00 -0.19589213012E+04  0.19589213012E+04  0.25500000920E-02 0.  1.
    10030    2    1    2    0    0  0.00000000000E+00  0.00000000000E+00  0.19157384528E+03  0.41094164476E+04  0.41049485992E+04 0.  0.
        4    1    3    3  502    0  0.86844219248E+03  0.14409612229E+04 -0.10811150408E+04  0.19998431018E+04  0.12699999809E+01 0.  1.
       -4    1    3    3    0  502 -0.86844219248E+03 -0.14409612229E+04  0.12726888861E+04  0.21095733458E+04  0.12699999809E+01 0. -1.
</event>
<event>
 5   0  0.5888700E-08  0.3998721E+04  0.7818609E-02  0.8004805E-01
       -2   -1    0    0    0  501  0.00000000000E+00  0.00000000000E+00  0.16523088673E+04  0.16523088673E+04  0.25500000920E-02 0. -1.
        2   -1    0    0  501    0  0.00000000000E+00  0.00000000000E+00 -0.24193070743E+04  0.24193070743E+04  0.25500000920E-02 0.  1.
    10030    2    1    2    0    0  0.00000000000E+00  0.00000000000E+00 -0.76699820700E+03  0.40716159417E+04  0.39987210614E+04 0.  0.
        5    1    3    3  502    0 -0.16952041584E+04  0.10300104090E+04 -0.12836836447E+03  0.19877472445E+04  0.46999998093E+01 0. -1.
       -5    1    3    3    0  502  0.16952041584E+04 -0.10300104090E+04 -0.63862984254E+03  0.20838686971E+04  0.46999998093E+01 0.  1.
</event>
<event>
 5   0  0.5888700E-08  0.4024902E+04  0.7818609E-02  0.7999542E-01
       -2   -1    0    0    0  501  0.00000000000E+00  0.00000000000E+00  0.21985629715E+04  0.21985629715E+04  0.25500000920E-02 0. -1.
        2   -1    0    0  501    0  0.00000000000E+00  0.00000000000E+00 -0.18420933970E+04  0.18420933970E+04  0.25500000920E-02 0.  1.
    10030    2    1    2    0    0  0.00000000000E+00  0.00000000000E+00  0.35646957454E+03  0.40406563685E+04  0.40249016548E+04 0.  0.
        5    1    3    3  502    0  0.14383814643E+03  0.18871489572E+04 -0.50848636925E+03  0.19597451561E+04  0.46999998093E+01 0. -1.
       -5    1    3    3    0  502 -0.14383814643E+03 -0.18871489572E+04  0.86495594379E+03  0.20809112124E+04  0.46999998093E+01 0.  1.
</event>
<event>
 5   0  0.1879500E-08  0.4023448E+04  0.7818609E-02  0.7999833E-01
       -1   -1    0    0    0  501  0.00000000000E+00  0.00000000000E+00  0.18191889521E+04  0.18191889521E+04  0.50400001928E-02 0.  1.
        1   -1    0    0  501    0  0.00000000000E+00  0.00000000000E+00 -0.22246357152E+04  0.22246357152E+04  0.50400001928E-02 0. -1.
    10030    2    1    2    0    0  0.00000000000E+00  0.00000000000E+00 -0.40544676313E+03  0.40438246673E+04  0.40234476338E+04 0.  0.
        4    1    3    3  502    0 -0.16069561778E+03  0.10590395681E+04 -0.19141813809E+04  0.21935085731E+04  0.12699999809E+01 0. -1.
       -4    1    3    3    0  502  0.16069561778E+03 -0.10590395681E+04  0.15087346178E+04  0.18503160941E+04  0.12699999809E+01 0.  1.
</event>
<event>
 5   0  0.1879500E-08  0.3998186E+04  0.7818609E-02  0.8004913E-01
        1   -1    0    0  501    0  0.00000000000E+00  0.00000000000E+00  0.24726665648E+04  0.24726665648E+04  0.50400001928E-02 0.  1.
       -1   -1    0    0    0  501  0.00000000000E+00  0.00000000000E+00 -0.16162200234E+04  0.16162200234E+04  0.50400001928E-02 0. -1.
    10030    2    1    2    0    0  0.00000000000E+00  0.00000000000E+00  0.85644654144E+03  0.40888865882E+04  0.39981861954E+04 0.  0.
        1    1    3    3  502    0  0.47824680841E+03  0.24369735141E+03 -0.15411471884E+04  0.16319445656E+04  0.50400001928E-02 0. -1.
       -1    1    3    3    0  502 -0.47824680841E+03 -0.24369735141E+03  0.23975937299E+04  0.24569420226E+04  0.50400001928E-02 0.  1.
</event>
<event>
 5   0  0.5945387E-08  0.3955473E+04  0.7818609E-02  0.8013590E-01
       -2   -1    0    0    0  501  0.00000000000E+00  0.00000000000E+00  0.28368719548E+04  0.28368719548E+04  0.25500000920E-02 0.  1.
        2   -1    0    0  501    0  0.00000000000E+00  0.00000000000E+00 -0.13787871208E+04  0.13787871208E+04  0.25500000920E-02 0. -1.
    10030    2    1    2    0    0  0.00000000000E+00  0.00000000000E+00  0.14580848340E+04  0.42156590755E+04  0.39554734303E+04 0.  0.
        3    1    3    3  502    0 -0.12396351217E+04  0.15379784348E+04  0.83220628429E+03  0.21435111874E+04  0.10100000352E+00 0. -1.
       -3    1    3    3    0  502  0.12396351217E+04 -0.15379784348E+04  0.62587854969E+03  0.20721478881E+04  0.10100000352E+00 0.  1.
</event>
<event>
 5   0  0.6161563E-08  0.3998270E+04  0.7818609E-02  0.8004896E-01
        2   -1    0    0  501    0  0.00000000000E+00  0.00000000000E+00  0.17005188002E+04  0.17005188002E+04  0.25500000920E-02 0.  1.
       -2   -1    0    0    0  501  0.00000000000E+00  0.00000000000E+00 -0.23501887960E+04  0.23501887960E+04  0.25500000920E-02 0. -1.
    10030    2    1    2    0    0  0.00000000000E+00  0.00000000000E+00 -0.64966999582E+03  0.40507075962E+04  0.39982697415E+04 0.  0.
        1    1    3    3  502    0 -0.41380277748E+03 -0.60273182896E+03  0.15602186105E+04  0.17230207511E+04  0.50400001928E-02 0.  1.
       -1    1    3    3    0  502  0.41380277748E+03  0.60273182896E+03 -0.22098886063E+04  0.23276868450E+04  0.50400001928E-02 0. -1.
</event>
<event>
 5   0  0.5888700E-08  0.4002308E+04  0.7818609E-02  0.8004081E-01
       -2   -1    0    0    0  501  0.00000000000E+00  0.00000000000E+00  0.22236306541E+04  0.22236306541E+04  0.25500000920E-02 0.  1.
        2   -1    0    0  501    0  0.00000000000E+00  0.00000000000E+00 -0.18009364738E+04  0.18009364738E+04  0.25500000920E-02 0. -1.
    10030    2    1    2    0    0  0.00000000000E+00  0.00000000000E+00  0.42269418023E+03  0.40245671279E+04  0.40023081087E+04 0.  0.
        5    1    3    3  502    0 -0.15846471405E+03  0.13058983769E+04 -0.13050563320E+04  0.18530180129E+04  0.46999998093E+01 0. -1.
       -5    1    3    3    0  502  0.15846471405E+03 -0.13058983769E+04  0.17277505123E+04  0.21715491150E+04  0.46999998093E+01 0.  1.
</event>
<event>
 5   0  0.1879500E-08  0.3982749E+04  0.7818609E-02  0.8008036E-01
       -1   -1    0    0    0  501  0.00000000000E+00  0.00000000000E+00  0.14369820823E+04  0.14369820823E+04  0.50400001928E-02 0.  1.
        1   -1    0    0  501    0  0.00000000000E+00  0.00000000000E+00 -0.27596527272E+04  0.27596527272E+04  0.50400001928E-02 0. -1.
    10030    2    1    2    0    0  0.00000000000E+00  0.00000000000E+00 -0.13226706449E+04  0.41966348095E+04  0.39827485597E+04 0.  0.
        5    1    3    3  502    0  0.40756463316E+03  0.16221912356E+04  0.47741320935E+03  0.17394133487E+04  0.46999998093E+01 0.  1.
       -5    1    3    3    0  502 -0.40756463316E+03 -0.16221912356E+04 -0.18000838542E+04  0.24572214608E+04  0.46999998093E+01 0. -1.
</event>
<event>
 5   0  0.5951623E-08  0.4001354E+04  0.7818609E-02  0.8004273E-01
        2   -1    0    0  501    0  0.00000000000E+00  0.00000000000E+00  0.15169346796E+04  0.15169346796E+04  0.25500000920E-02 0.  1.
       -2   -1    0    0    0  501  0.00000000000E+00  0.00000000000E+00 -0.26386822978E+04  0.26386822978E+04  0.25500000920E-02 0. -1.
    10030    2    1    2    0    0  0.00000000000E+00  0.00000000000E+00 -0.11217476182E+04  0.41556169774E+04  0.40013541138E+04 0.  0.
        2    1    3    3  502    0 -0.15177082433E+03  0.19925944198E+04 -0.66071422136E+03  0.21047589380E+04  0.25500000920E-02 0.  1.
       -2    1    3    3    0  502  0.15177082433E+03 -0.19925944198E+04 -0.46103339682E+03  0.20508580394E+04  0.25500000920E-02 0. -1.
</event>
<event>
 5   0  0.1879500E-08  0.3989566E+04  0.7818609E-02  0.8006655E-01
        1   -1    0    0  501    0  0.00000000000E+00  0.00000000000E+00  0.12963046867E+04  0.12963046867E+04  0.50400001928E-02 0. -1.
       -1   -1    0    0    0  501  0.00000000000E+00  0.00000000000E+00 -0.30696169241E+04  0.30696169241E+04  0.50400001928E-02 0.  1.
    10030    2    1    2    0    0  0.00000000000E+00  0.00000000000E+00 -0.17733122375E+04  0.43659216108E+04  0.39895657935E+04 0.  0.
        1    1    3    3  502    0 -0.32649922634E+03  0.14316562042E+04  0.59086541127E+03  0.15828339035E+04  0.50400001928E-02 0. -1.
       -1    1    3    3    0  502  0.32649922634E+03 -0.14316562042E+04 -0.23641776487E+04  0.27830877073E+04  0.50400001928E-02 0.  1.
</event>
<event>
 5   0  0.5945387E-08  0.3992804E+04  0.7818609E-02  0.8006000E-01
        2   -1    0    0  501    0  0.00000000000E+00  0.00000000000E+00  0.26443829553E+04  0.26443829553E+04  0.25500000920E-02 0.  1.
       -2   -1    0    0    0  501  0.00000000000E+00  0.00000000000E+00 -0.15072028094E+04  0.15072028094E+04  0.25500000920E-02 0. -1.
    10030    2    1    2    0    0  0.00000000000E+00  0.00000000000E+00  0.11371801458E+04  0.41515857647E+04  0.39928042373E+04 0.  0.
        3    1    3    3  502    0 -0.10242332774E+03 -0.59467598686E+03 -0.14101088711E+04  0.15337982612E+04  0.10100000352E+00 0. -1.
       -3    1    3    3    0  502  0.10242332774E+03  0.59467598686E+03  0.25472890169E+04  0.26177875035E+04  0.10100000352E+00 0.  1.
</event>
<event>
 5   0  0.5951623E-08  0.4002262E+04  0.7818609E-02  0.8004090E-01
       -2   -1    0    0    0  501  0.00000000000E+00  0.00000000000E+00  0.14437644703E+04  0.14437644703E+04  0.25500000920E-02 0.  1.
        2   -1    0    0  501    0  0.00000000000E+00  0.00000000000E+00 -0.27736688988E+04  0.27736688988E+04  0.25500000920E-02 0. -1.
    10030    2    1    2    0    0  0.00000000000E+00  0.00000000000E+00 -0.13299044285E+04  0.42174333691E+04  0.40022616649E+04 0.  0.
        2    1    3    3  502    0  0.72205969922E+03 -0.15681255822E+04 -0.17313560177E+04  0.24449911474E+04  0.25500000920E-02 0. -1.
       -2    1    3    3    0  502 -0.72205969922E+03  0.15681255822E+04  0.40145158929E+03  0.17724422217E+04  0.25500000920E-02 0.  1.
</event>
<event>
 5   0  0.1879500E-08  0.4010756E+04  0.7818609E-02  0.8002380E-01
       -1   -1    0    0    0  501  0.00000000000E+00  0.00000000000E+00  0.22878771750E+04  0.22878771750E+04  0.50400001928E-02 0. -1.
        1   -1    0    0  501    0  0.00000000000E+00  0.00000000000E+00 -0.17577608902E+04  0.17577608902E+04  0.50400001928E-02 0.  1.
    10030    2    1    2    0    0  0.00000000000E+00  0.00000000000E+00  0.53011628483E+03  0.40456380652E+04  0.40107560483E+04 0.  0.
        3    1    3    3  502    0 -0.86201860573E+03 -0.18332256044E+03  0.20820735610E+04  0.22609098968E+04  0.10100000352E+00 0. -1.
       -3    1    3    3    0  502  0.86201860573E+03  0.18332256044E+03 -0.15519572762E+04  0.17847281684E+04  0.10100000352E+00 0.  1.
</event>
<event>
 5   0  0.5888700E-08  0.4116912E+04  0.7818609E-02  0.7981368E-01
       -2   -1    0    0    0  501  0.00000000000E+00  0.00000000000E+00  0.16146849747E+04  0.16146849747E+04  0.25500000920E-02 0. -1.
        2   -1    0    0  501    0  0.00000000000E+00  0.00000000000E+00 -0.26241904090E+04  0.26241904090E+04  0.25500000920E-02 0.  1.
    10030    2    1    2    0    0  0.00000000000E+00  0.00000000000E+00 -0.10095054343E+04  0.42388753837E+04  0.41169118641E+04 0.  0.
        5    1    3    3  502    0 -0.11733331882E+04  0.43253657925E+03 -0.21882510154E+04  0.25203696672E+04  0.46999998093E+01 0.  1.
       -5    1    3    3    0  502  0.11733331882E+04 -0.43253657925E+03  0.11787455811E+04  0.17185057166E+04  0.46999998093E+01 0. -1.
</event>
<event>
 5   0  0.5951623E-08  0.3950952E+04  0.7818609E-02  0.8014515E-01
        2   -1    0    0  501    0  0.00000000000E+00  0.00000000000E+00  0.31923768176E+04  0.31923768176E+04  0.25500000920E-02 0. -1.
       -2   -1    0    0    0  501  0.00000000000E+00  0.00000000000E+00 -0.12224452944E+04  0.12224452944E+04  0.25500000920E-02 0.  1.
    10030    2    1    2    0    0  0.00000000000E+00  0.00000000000E+00  0.19699315232E+04  0.44148221120E+04  0.39509522997E+04 0.  0.
        2    1    3    3  502    0 -0.44077434115E+03 -0.48811845240E+03 -0.10965223305E+04  0.12786332018E+04  0.25500000920E-02 0.  1.
       -2    1    3    3    0  502  0.44077434115E+03  0.48811845240E+03  0.30664538537E+04  0.31361889102E+04  0.25500000920E-02 0. -1.
</event>
<event>
 5   0  0.5888700E-08  0.4084822E+04  0.7818609E-02  0.7987650E-01
       -2   -1    0    0    0  501  0.00000000000E+00  0.00000000000E+00  0.15074293966E+04  0.15074293966E+04  0.25500000920E-02 0. -1.
        2   -1    0    0  501    0  0.00000000000E+00  0.00000000000E+00 -0.27672563888E+04  0.27672563888E+04  0.25500000920E-02 0.  1.
    10030    2    1    2    0    0  0.00000000000E+00  0.00000000000E+00 -0.12598269921E+04  0.42746857854E+04  0.40848224581E+04 0.  0.
        5    1    3    3  502    0  0.71139407758E+03 -0.12883111964E+04 -0.21119283329E+04  0.25741193923E+04  0.46999998093E+01 0.  1.
       -5    1    3    3    0  502 -0.71139407758E+03  0.12883111964E+04  0.85210134078E+03  0.17005663931E+04  0.46999998093E+01 0. -1.
</event>
<event>
 5   0  0.1879500E-08  0.4033988E+04  0.7818609E-02  0.7997725E-01
       -1   -1    0    0    0  501  0.00000000000E+00  0.00000000000E+00  0.21439839115E+04  0.21439839115E+04  0.50400001928E-02 0.  1.
        1   -1    0    0  501    0  0.00000000000E+00  0.00000000000E+00 -0.18975261881E+04  0.18975261881E+04  0.50400001928E-02 0. -1.
    10030    2    1    2    0    0  0.00000000000E+00  0.00000000000E+00  0.24645772336E+03  0.40415100996E+04  0.40339884080E+04 0.  0.
        1    1    3    3  502    0 -0.16574250102E+04 -0.74967226264E+03  0.99617403069E+03  0.20739886367E+04  0.50400001928E-02 0.  1.
       -1    1    3    3    0  502  0.16574250102E+04  0.74967226264E+03 -0.74971630733E+03  0.19675214629E+04  0.50400001928E-02 0. -1.
</event>
<event>
 5   0  0.5846812E-08  0.3996126E+04  0.7818609E-02  0.8005329E-01
        2   -1    0    0  501    0  0.00000000000E+00  0.00000000000E+00  0.25869852429E+04  0.25869852429E+04  0.25500000920E-02 0. -1.
       -2   -1    0    0    0  501  0.00000000000E+00  0.00000000000E+00 -0.15432075677E+04  0.15432075677E+04  0.25500000920E-02 0.  1.
    10030    2    1    2    0    0  0.00000000000E+00  0.00000000000E+00  0.10437776752E+04  0.41301928107E+04  0.39961257260E+04 0.  0.
        4    1    3    3  502    0  0.77357570997E+02  0.19897274178E+04  0.69251589785E+03  0.21082170838E+04  0.12699999809E+01 0. -1.
       -4    1    3    3    0  502 -0.77357570997E+02 -0.19897274178E+04  0.35126177733E+03  0.20219757268E+04  0.12699999809E+01 0.  1.
</event>
<event>
 5   0  0.5945387E-08  0.4005033E+04  0.7818609E-02  0.8003532E-01
       -2   -1    0    0    0  501  0.00000000000E+00  0.00000000000E+00  0.18130236573E+04  0.18130236573E+04  0.25500000920E-02 0.  1.
        2   -1    0    0  501    0  0.00000000000E+00  0.00000000000E+00 -0.22118150035E+04  0.22118150035E+04  0.25500000920E-02 0. -1.
    10030    2    1    2    0    0  0.00000000000E+00  0.00000000000E+00 -0.39879134623E+03  0.40248386608E+04  0.40050332967E+04 0.  0.
        3    1    3    3  502    0  0.10604529850E+04  0.24863123865E+03  0.14892993713E+04  0.18450990905E+04  0.10100000352E+00 0.  1.
       -3    1    3    3    0  502 -0.10604529850E+04 -0.24863123865E+03 -0.18880907176E+04  0.21797395703E+04  0.10100000352E+00 0. -1.
</event>
<event>
 5   0  0.5888700E-08  0.4000770E+04  0.7818609E-02  0.8004391E-01
        2   -1    0    0  501    0  0.00000000000E+00  0.00000000000E+00  0.18865232867E+04  0.18865232867E+04  0.25500000920E-02 0.  1.
       -2   -1    0    0    0  501  0.00000000000E+00  0.00000000000E+00 -0.21211186083E+04  0.21211186083E+04  0.25500000920E-02 0. -1.
    10030    2    1    2    0    0  0.00000000000E+00  0.00000000000E+00 -0.23459532164E+03  0.40076418950E+04  0.40007697502E+04 0.  0.
        5    1    3    3  502    0  0.62842088720E+03 -0.56150018262E+03 -0.19346141024E+04  0.21102011946E+04  0.46999998093E+01 0. -1.
       -5    1    3    3    0  502 -0.62842088720E+03  0.56150018262E+03  0.17000187808E+04  0.18974407004E+04  0.46999998093E+01 0.  1.
</event>
<event>
 5   0  0.5945387E-08  0.3997159E+04  0.7818609E-02  0.8005120E-01
       -2   -1    0    0    0  501  0.00000000000E+00  0.00000000000E+00  0.30166501977E+04  0.30166501977E+04  0.25500000920E-02 0. -1.
        2   -1    0    0  501    0  0.00000000000E+00  0.00000000000E+00 -0.13240909636E+04  0.13240909636E+04  0.25500000920E-02 0.  1.
    10030    2    1    2    0    0  0.00000000000E+00  0.00000000000E+00  0.16925592341E+04  0.43407411612E+04  0.39971586243E+04 0.  0.
        3    1    3    3  502    0  0.11415381014E+04 -0.75351356832E+03 -0.73617479266E+03  0.15533335991E+04  0.10100000352E+00 0.  1.
       -3    1    3    3    0  502 -0.11415381014E+04  0.75351356832E+03  0.24287340267E+04  0.27874075621E+04  0.10100000352E+00 0. -1.
</event>
<event>
 5   0  0.1879500E-08  0.4004780E+04  0.7818609E-02  0.8003583E-01
       -1   -1    0    0    0  501  0.00000000000E+00  0.00000000000E+00  0.16029083907E+04  0.16029083907E+04  0.50400001928E-02 0.  1.
        1   -1    0    0  501    0  0.00000000000E+00  0.00000000000E+00 -0.25014315084E+04  0.25014315084E+04  0.50400001928E-02 0. -1.
    10030    2    1    2    0    0  0.00000000000E+00  0.00000000000E+00 -0.89852311762E+03  0.41043398991E+04  0.40047799209E+04 0.  0.
        3    1    3    3  502    0 -0.19375536408E+04 -0.47852823058E+03 -0.61597758530E+03  0.20886674638E+04  0.10100000352E+00 0.  1.
       -3    1    3    3    0  502  0.19375536408E+04  0.47852823058E+03 -0.28254553232E+03  0.20156724353E+04  0.10100000352E+00 0. -1.
</event>
<event>
 5   0  0.1879500E-08  0.4023552E+04  0.7818609E-02  0.7999812E-01
        1   -1    0    0  501    0  0.00000000000E+00  0.00000000000E+00  0.32073531015E+04  0.32073531015E+04  0.50400001928E-02 0.  1.
       -1   -1    0    0    0  501  0.00000000000E+00  0.00000000000E+00 -0.12618635818E+04  0.12618635818E+04  0.50400001928E-02 0. -1.
    10030    2    1    2    0    0  0.00000000000E+00  0.00000000000E+00  0.19454895196E+04  0.44692166833E+04  0.40235517011E+04 0.  0.
        5    1    3    3  502    0  0.30280647686E+03  0.15120024920E+04 -0.46241086309E+03  0.16098724156E+04  0.46999998093E+01 0. -1.
       -5    1    3    3    0  502 -0.30280647686E+03 -0.15120024920E+04  0.24079003827E+04  0.28593442677E+04  0.46999998093E+01 0.  1.
</event>
<event>
 5   0  0.5846812E-08  0.4001735E+04  0.7818609E-02  0.8004197E-01
        2   -1    0    0  501    0  0.00000000000E+00  0.00000000000E+00  0.29402426780E+04  0.29402426780E+04  0.25500000920E-02 0.  1.
       -2   -1    0    0    0  501  0.00000000000E+00  0.00000000000E+00 -0.13616125633E+04  0.13616125633E+04  0.25500000920E-02 0. -1.
    10030    2    1    2    0    0  0.00000000000E+00  0.00000000000E+00  0.15786301147E+04  0.43018552413E+04  0.40017353083E+04 0.  0.
        4    1    3    3  502    0 -0.55089692828E+03  0.13526542561E+04 -0.68084321159E+03  0.16114310577E+04  0.12699999809E+01 0. -1.
       -4    1    3    3    0  502  0.55089692828E+03 -0.13526542561E+04  0.22594733263E+04  0.26904241835E+04  0.12699999809E+01 0.  1.
</event>
<event>
 5   0  0.1879500E-08  0.3990458E+04  0.7818609E-02  0.8006474E-01
       -1   -1    0    0    0  501  0.00000000000E+00  0.00000000000E+00  0.24257062690E+04  0.24257062690E+04  0.50400001928E-02 0.  1.
        1   -1    0    0  501    0  0.00000000000E+00  0.00000000000E+00 -0.16411466327E+04  0.16411466327E+04  0.50400001928E-02 0. -1.
    10030    2    1    2    0    0  0.00000000000E+00  0.00000000000E+00  0.78455963635E+03  0.40668529017E+04  0.39904584575E+04 0.  0.
        5    1    3    3  502    0 -0.40252255707E+03 -0.17167462006E+04 -0.55922968391E+03  0.18498653615E+04  0.46999998093E+01 0. -1.
       -5    1    3    3    0  502  0.40252255707E+03  0.17167462006E+04  0.13437893203E+04  0.22169875402E+04  0.46999998093E+01 0.  1.
</event>
<event>
 5   0  0.1879500E-08  0.4010311E+04  0.7818609E-02  0.8002470E-01
        1   -1    0    0  501    0  0.00000000000E+00  0.00000000000E+00  0.23298181397E+04  0.23298181397E+04  0.50400001928E-02 0. -1.
       -1   -1    0    0    0  501  0.00000000000E+00  0.00000000000E+00 -0.17257348880E+04  0.17257348880E+04  0.50400001928E-02 0.  1.
    10030    2    1    2    0    0  0.00000000000E+00  0.00000000000E+00  0.60408325174E+03  0.40555530278E+04  0.40103109338E+04 0.  0.
        5    1    3    3  502    0  0.28595749303E+03  0.16920380226E+04 -0.74689758895E+03  0.18715347862E+04  0.46999998093E+01 0.  1.
       -5    1    3    3    0  502 -0.28595749303E+03 -0.16920380226E+04  0.13509808407E+04  0.21840182416E+04  0.46999998093E+01 0. -1.
</event>
<event>
 5   0  0.1879500E-08  0.3997745E+04  0.7818609E-02  0.8005002E-01
        1   -1    0    0  501    0  0.00000000000E+00  0.00000000000E+00  0.15017175455E+04  0.15017175455E+04  0.50400001928E-02 0.  1.
       -1   -1    0    0    0  501  0.00000000000E+00  0.00000000000E+00 -0.26606147629E+04  0.26606147629E+04  0.50400001928E-02 0. -1.
    10030    2    1    2    0    0  0.00000000000E+00  0.00000000000E+00 -0.11588972173E+04  0.41623323084E+04  0.39977453002E+04 0.  0.
        3    1    3    3  502    0 -0.12248548901E+03  0.17964565512E+04  0.32417237092E+03  0.18295755167E+04  0.10100000352E+00 0.  1.
       -3    1    3    3    0  502  0.12248548901E+03 -0.17964565512E+04 -0.14830695883E+04  0.23327567917E+04  0.10100000352E+00 0. -1.
</event>
<event>
 5   0  0.6161563E-08  0.3978101E+04  0.7818609E-02  0.8008979E-01
       -2   -1    0    0    0  501  0.00000000000E+00  0.00000000000E+00  0.30545224630E+04  0.30545224630E+04  0.25500000920E-02 0.  1.
        2   -1    0    0  501    0  0.00000000000E+00  0.00000000000E+00 -0.12952343720E+04  0.12952343720E+04  0.25500000920E-02 0. -1.
    10030    2    1    2    0    0  0.00000000000E+00  0.00000000000E+00  0.17592880910E+04  0.43497568350E+04  0.39781012979E+04 0.  0.
        1    1    3    3  502    0 -0.44538208545E+02 -0.72112763712E+03 -0.11466810665E+04  0.13553177448E+04  0.50400001928E-02 0. -1.
       -1    1    3    3    0  502  0.44538208545E+02  0.72112763712E+03  0.29059691575E+04  0.29944390903E+04  0.50400001928E-02 0.  1.
</event>
<event>
 5   0  0.1879500E-08  0.3990231E+04  0.7818609E-02  0.8006520E-01
        1   -1    0    0  501    0  0.00000000000E+00  0.00000000000E+00  0.20673504339E+04  0.20673504339E+04  0.50400001928E-02 0. -1.
       -1   -1    0    0    0  501  0.00000000000E+00  0.00000000000E+00 -0.19254042073E+04  0.19254042073E+04  0.50400001928E-02 0.  1.
    10030    2    1    2    0    0  0.00000000000E+00  0.00000000000E+00  0.14194622659E+03  0.39927546412E+04  0.39902306818E+04 0.  0.
        2    1    3    3  502    0 -0.28404576015E+03 -0.76549818152E+03 -0.17505672504E+04  0.19316198275E+04  0.25500000920E-02 0.  1.
       -2    1    3    3    0  502  0.28404576015E+03  0.76549818152E+03  0.18925134770E+04  0.20611348137E+04  0.25500000920E-02 0. -1.
</event>
<event>
 5   0  0.1879500E-08  0.4005814E+04  0.7818609E-02  0.8003375E-01
        1   -1    0    0  501    0  0.00000000000E+00  0.00000000000E+00  0.15466853154E+04  0.15466853154E+04  0.50400001928E-02 0. -1.
       -1   -1    0    0    0  501  0.00000000000E+00  0.00000000000E+00 -0.25936995162E+04  0.25936995163E+04  0.50400001928E-02 0.  1.
    10030    2    1    2    0    0  0.00000000000E+00  0.00000000000E+00 -0.10470142009E+04  0.41403848316E+04  0.40058142514E+04 0.  0.
        3    1    3    3  502    0 -0.13152777621E+04  0.44520282786E+03  0.96840807388E+03  0.16929191821E+04  0.10100000352E+00 0. -1.
       -3    1    3    3    0  502  0.13152777621E+04 -0.44520282786E+03 -0.20154222748E+04  0.24474656495E+04  0.10100000352E+00 0.  1.
</event>
<event>
 5   0  0.1879500E-08  0.3930899E+04  0.7818609E-02  0.8018633E-01
       -1   -1    0    0    0  501  0.00000000000E+00  0.00000000000E+00  0.34328149766E+04  0.34328149766E+04  0.50400001928E-02 0.  1.
        1   -1    0    0  501    0  0.00000000000E+00  0.00000000000E+00 -0.11253129138E+04  0.11253129138E+04  0.50400001928E-02 0. -1.
    10030    2    1    2    0    0  0.00000000000E+00  0.00000000000E+00  0.23075020628E+04  0.45581278904E+04  0.39308986371E+04 0.  0.
        2    1    3    3  502    0 -0.15496610239E+04  0.11438680043E+04  0.70002550757E+03  0.20493703940E+04  0.25500000920E-02 0. -1.
       -2    1    3    3    0  502  0.15496610239E+04 -0.11438680043E+04  0.16074765553E+04  0.25087574965E+04  0.25500000920E-02 0.  1.
</event>
<event>
 5   0  0.1879500E-08  0.3975902E+04  0.7818609E-02  0.8009426E-01
       -1   -1    0    0    0  501  0.00000000000E+00  0.00000000000E+00  0.22404066287E+04  0.22404066287E+04  0.50400001928E-02 0. -1.
        1   -1    0    0  501    0  0.00000000000E+00  0.00000000000E+00 -0.17639426988E+04  0.17639426988E+04  0.50400001928E-02 0.  1.
    10030    2    1    2    0    0  0.00000000000E+00  0.00000000000E+00  0.47646392994E+03  0.40043493275E+04  0.39759018675E+04 0.  0.
        3    1    3    3  502    0 -0.53523345812E+03  0.77341478910E+03  0.20021349026E+04  0.22120554851E+04  0.10100000352E+00 0. -1.
       -3    1    3    3    0  502  0.53523345812E+03 -0.77341478910E+03 -0.15256709726E+04  0.17922938424E+04  0.10100000352E+00 0.  1.
</event>
<event>
 5   0  0.5888700E-08  0.4018972E+04  0.7818609E-02  0.8000730E-01
        2   -1    0    0  501    0  0.00000000000E+00  0.00000000000E+00  0.19697682429E+04  0.19697682429E+04  0.25500000920E-02 0. -1.
       -2   -1    0    0    0  501  0.00000000000E+00  0.00000000000E+00 -0.20500047653E+04  0.20500047653E+04  0.25500000920E-02 0.  1.
    10030    2    1    2    0    0  0.00000000000E+00  0.00000000000E+00 -0.80236522313E+02  0.40197730082E+04  0.40189721494E+04 0.  0.
        5    1    3    3  502    0  0.20032573865E+04 -0.89743455459E+02 -0.17021396894E+03  0.20124832744E+04  0.46999998093E+01 0.  1.
       -5    1    3    3    0  502 -0.20032573865E+04  0.89743455459E+02  0.89977446631E+02  0.20072897338E+04  0.46999998093E+01 0. -1.
</event>
<event>
 5   0  0.6161563E-08  0.4034863E+04  0.7818609E-02  0.7997550E-01
       -2   -1    0    0    0  501  0.00000000000E+00  0.00000000000E+00  0.24417205937E+04  0.24417205937E+04  0.25500000920E-02 0. -1.
        2   -1    0    0  501    0  0.00000000000E+00  0.00000000000E+00 -0.16668696227E+04  0.16668696227E+04  0.25500000920E-02 0.  1.
    10030    2    1    2    0    0  0.00000000000E+00  0.00000000000E+00  0.77485097099E+03  0.41085902164E+04  0.40348630136E+04 0.  0.
        1    1    3    3  502    0 -0.33014983909E+03 -0.16027108911E+04  0.15889649794E+04  0.22808969338E+04  0.50400001928E-02 0. -1.
       -1    1    3    3    0  502  0.33014983909E+03  0.16027108911E+04 -0.81411400842E+03  0.18276932826E+04  0.50400001928E-02 0.  1.
</event>
<event>
 5   0  0.1879500E-08  0.3996448E+04  0.7818609E-02  0.8005263E-01
        1   -1    0    0  501    0  0.00000000000E+00  0.00000000000E+00  0.19673288118E+04  0.19673288118E+04  0.50400001928E-02 0. -1.
       -1   -1    0    0    0  501  0.00000000000E+00  0.00000000000E+00 -0.20296047397E+04  0.20296047397E+04  0.50400001928E-02 0.  1.
    10030    2    1    2    0    0  0.00000000000E+00  0.00000000000E+00 -0.62275927884E+02  0.39969335515E+04  0.39964483637E+04 0.  0.
        1    1    3    3  502    0  0.16470591620E+04 -0.47188263237E+03  0.99729752113E+03  0.19824427980E+04  0.50400001928E-02 0. -1.
       -1    1    3    3    0  502 -0.16470591620E+04  0.47188263237E+03 -0.10595734490E+04  0.20144907534E+04  0.50400001928E-02 0.  1.
</event>
<event>
 5   0  0.5951623E-08  0.4000157E+04  0.7818609E-02  0.8004515E-01
        2   -1    0    0  501    0  0.00000000000E+00  0.00000000000E+00  0.16217993648E+04  0.16217993648E+04  0.25500000920E-02 0. -1.
       -2   -1    0    0    0  501  0.00000000000E+00  0.00000000000E+00 -0.24665899034E+04  0.24665899034E+04  0.25500000920E-02 0.  1.
    10030    2    1    2    0    0  0.00000000000E+00  0.00000000000E+00 -0.84479053866E+03  0.40883892682E+04  0.40001569662E+04 0.  0.
        2    1    3    3  502    0 -0.22163034047E+03  0.18208181185E+04  0.39257299435E+03  0.18757964133E+04  0.25500000920E-02 0. -1.
       -2    1    3    3    0  502  0.22163034047E+03 -0.18208181185E+04 -0.12373635330E+04  0.22125928548E+04  0.25500000920E-02 0.  1.
</event>
<event>
 5   0  0.5888700E-08  0.3994838E+04  0.7818609E-02  0.8005589E-01
       -2   -1    0    0    0  501  0.00000000000E+00  0.00000000000E+00  0.13150429232E+04  0.13150429232E+04  0.25500000920E-02 0. -1.
        2   -1    0    0  501    0  0.00000000000E+00  0.00000000000E+00 -0.30338799461E+04  0.30338799461E+04  0.25500000920E-02 0.  1.
    10030    2    1    2    0    0  0.00000000000E+00  0.00000000000E+00 -0.17188370229E+04  0.43489228692E+04  0.39948378454E+04 0.  0.
        5    1    3    3  502    0  0.28913831353E+03  0.91692138528E+03  0.10465690737E+04  0.14211525982E+04  0.46999998093E+01 0. -1.
       -5    1    3    3    0  502 -0.28913831353E+03 -0.91692138528E+03 -0.27654060966E+04  0.29277702711E+04  0.46999998093E+01 0.  1.
</event>
<event>
 5   0  0.1879500E-08  0.4019023E+04  0.7818609E-02  0.8000720E-01
       -1   -1    0    0    0  501  0.00000000000E+00  0.00000000000E+00  0.13893646219E+04  0.13893646219E+04  0.50400001928E-02 0.  1.
        1   -1    0    0  501    0  0.00000000000E+00  0.00000000000E+00 -0.29064627273E+04  0.29064627273E+04  0.50400001928E-02 0. -1.
    10030    2    1    2    0    0  0.00000000000E+00  0.00000000000E+00 -0.15170981053E+04  0.42958273492E+04  0.40190230097E+04 0.  0.
        2    1    3    3  502    0  0.15166449388E+04 -0.12364507864E+04 -0.12473341475E+04  0.23205311662E+04  0.25500000920E-02 0.  1.
       -2    1    3    3    0  502 -0.15166449388E+04  0.12364507864E+04 -0.26976395780E+03  0.19752961830E+04  0.25500000920E-02 0. -1.
</event>
<event>
 5   0  0.5951623E-08  0.4011807E+04  0.7818609E-02  0.8002169E-01
        2   -1    0    0  501    0  0.00000000000E+00  0.00000000000E+00  0.22484867648E+04  0.22484867648E+04  0.25500000920E-02 0.  1.
       -2   -1    0    0    0  501  0.00000000000E+00  0.00000000000E+00 -0.17894918432E+04  0.17894918432E+04  0.25500000920E-02 0. -1.
    10030    2    1    2    0    0  0.00000000000E+00  0.00000000000E+00  0.45899492166E+03  0.40379786080E+04  0.40118069371E+04 0.  0.
        2    1    3    3  502    0 -0.48991558023E+03 -0.10523474169E+04  0.18760779953E+04  0.22061552543E+04  0.25500000920E-02 0.  1.
       -2    1    3    3    0  502  0.48991558023E+03  0.10523474169E+04 -0.14170830737E+04  0.18318233537E+04  0.25500000920E-02 0. -1.
</event>
<event>
 5   0  0.5945387E-08  0.3995876E+04  0.7818609E-02  0.8005379E-01
        2   -1    0    0  501    0  0.00000000000E+00  0.00000000000E+00  0.26659850772E+04  0.26659850772E+04  0.25500000920E-02 0.  1.
       -2   -1    0    0    0  501  0.00000000000E+00  0.00000000000E+00 -0.14972916503E+04  0.14972916503E+04  0.25500000920E-02 0. -1.
    10030    2    1    2    0    0  0.00000000000E+00  0.00000000000E+00  0.11686934269E+04  0.41632767276E+04  0.39958764726E+04 0.  0.
        3    1    3    3  502    0  0.69335428842E+01  0.19967517435E+04  0.51298206938E+03  0.20616052514E+04  0.10100000352E+00 0.  1.
       -3    1    3    3    0  502 -0.69335428842E+01 -0.19967517435E+04  0.65571135753E+03  0.21016714761E+04  0.10100000352E+00 0. -1.
</event>
<event>
 5   0  0.1879500E-08  0.4004161E+04  0.7818609E-02  0.8003708E-01
       -1   -1    0    0    0  501  0.00000000000E+00  0.00000000000E+00  0.18668654183E+04  0.18668654183E+04  0.50400001928E-02 0. -1.
        1   -1    0    0  501    0  0.00000000000E+00  0.00000000000E+00 -0.21470895453E+04  0.21470895453E+04  0.50400001928E-02 0.  1.
    10030    2    1    2    0    0  0.00000000000E+00  0.00000000000E+00 -0.28022412701E+03  0.40139549637E+04  0.40041614464E+04 0.  0.
        5    1    3    3  502    0  0.13735325357E+04 -0.12192095352E+04  0.65885777751E+03  0.19511994205E+04  0.46999998093E+01 0.  1.
       -5    1    3    3    0  502 -0.13735325357E+04  0.12192095352E+04 -0.93908190452E+03  0.20627555432E+04  0.46999998093E+01 0. -1.
</event>
<event>
 5   0  0.6161563E-08  0.4001204E+04  0.7818609E-02  0.8004304E-01
        2   -1    0    0  501    0  0.00000000000E+00  0.00000000000E+00  0.24126516099E+04  0.24126516099E+04  0.25500000920E-02 0. -1.
       -2   -1    0    0    0  501  0.00000000000E+00  0.00000000000E+00 -0.16589250406E+04  0.16589250406E+04  0.25500000920E-02 0.  1.
    10030    2    1    2    0    0  0.00000000000E+00  0.00000000000E+00  0.75372656930E+03  0.40715766504E+04  0.40012039037E+04 0.  0.
        1    1    3    3  502    0 -0.13177408638E+04 -0.17792195723E+03  0.18979141569E+04  0.23173638804E+04  0.50400001928E-02 0. -1.
       -1    1    3    3    0  502  0.13177408638E+04  0.17792195723E+03 -0.11441875876E+04  0.17542127701E+04  0.50400001928E-02 0.  1.
</event>
<event>
 5   0  0.1879500E-08  0.3990162E+04  0.7818609E-02  0.8006534E-01
        1   -1    0    0  501    0  0.00000000000E+00  0.00000000000E+00  0.19942141197E+04  0.19942141197E+04  0.50400001928E-02 0. -1.
       -1   -1    0    0    0  501  0.00000000000E+00  0.00000000000E+00 -0.19959477704E+04  0.19959477704E+04  0.50400001928E-02 0.  1.
    10030    2    1    2    0    0  0.00000000000E+00  0.00000000000E+00 -0.17336507550E+01  0.39901618901E+04  0.39901615135E+04 0.  0.
        4    1    3    3  502    0 -0.16082548625E+04 -0.10756807725E+04  0.48572625990E+03  0.19948695294E+04  0.12699999809E+01 0. -1.
       -4    1    3    3    0  502  0.16082548625E+04  0.10756807725E+04 -0.48745991066E+03  0.19952923606E+04  0.12699999809E+01 0.  1.
</event>
<event>
 5   0  0.1879500E-08  0.3883293E+04  0.7818609E-02  0.8028513E-01
        1   -1    0    0  501    0  0.00000000000E+00  0.00000000000E+00  0.14226111491E+04  0.14226111491E+04  0.50400001928E-02 0. -1.
       -1   -1    0    0    0  501  0.00000000000E+00  0.00000000000E+00 -0.26500501397E+04  0.26500501397E+04  0.50400001928E-02 0.  1.
    10030    2    1    2    0    0  0.00000000000E+00  0.00000000000E+00 -0.12274389906E+04  0.40726612888E+04  0.38832928678E+04 0.  0.
        2    1    3    3  502    0 -0.19744792483E+03 -0.15949244812E+04 -0.17564503372E+04  0.23807325702E+04  0.25500000920E-02 0.  1.
       -2    1    3    3    0  502  0.19744792483E+03  0.15949244812E+04  0.52901134663E+03  0.16919287185E+04  0.25500000920E-02 0. -1.
</event>
<event>
 5   0  0.5846812E-08  0.4013281E+04  0.7818609E-02  0.8001873E-01
       -2   -1    0    0    0  501  0.00000000000E+00  0.00000000000E+00  0.12086669041E+04  0.12086669041E+04  0.25500000920E-02 0. -1.
        2   -1    0    0  501    0  0.00000000000E+00  0.00000000000E+00 -0.33314433746E+04  0.33314433746E+04  0.25500000920E-02 0.  1.
    10030    2    1    2    0    0  0.00000000000E+00  0.00000000000E+00 -0.21227764706E+04  0.45401102787E+04  0.40132806279E+04 0.  0.
        4    1    3    3  502    0  0.10617369941E+04 -0.68753769761E+03 -0.28236356542E+04  0.30940125163E+04  0.12699999809E+01 0.  1.
       -4    1    3    3    0  502 -0.10617369941E+04  0.68753769761E+03  0.70085918365E+03  0.14460977624E+04  0.12699999809E+01 0. -1.
</event>
<event>
 5   0  0.5951623E-08  0.4000966E+04  0.7818609E-02  0.8004352E-01
        2   -1    0    0  501    0  0.00000000000E+00  0.00000000000E+00  0.14839699535E+04  0.14839699535E+04  0.25500000920E-02 0. -1.
       -2   -1    0    0    0  501  0.00000000000E+00  0.00000000000E+00 -0.26967745849E+04  0.26967745849E+04  0.25500000920E-02 0.  1.
    10030    2    1    2    0    0  0.00000000000E+00  0.00000000000E+00 -0.12128046314E+04  0.41807445384E+04  0.40009661110E+04 0.  0.
        2    1    3    3  502    0  0.82881251596E+03 -0.12215470262E+04  0.80438407668E+03  0.16811130440E+04  0.25500000920E-02 0.  1.
       -2    1    3    3    0  502 -0.82881251596E+03  0.12215470262E+04 -0.20171887080E+04  0.24996314944E+04  0.25500000920E-02 0. -1.
</event>
<event>
 5   0  0.5945387E-08  0.3992768E+04  0.7818609E-02  0.8006007E-01
        2   -1    0    0  501    0  0.00000000000E+00  0.00000000000E+00  0.21540462984E+04  0.21540462984E+04  0.25500000920E-02 0. -1.
       -2   -1    0    0    0  501  0.00000000000E+00  0.00000000000E+00 -0.18502612974E+04  0.18502612974E+04  0.25500000920E-02 0.  1.
    10030    2    1    2    0    0  0.00000000000E+00  0.00000000000E+00  0.30378500093E+03  0.40043075958E+04  0.39927677111E+04 0.  0.
        3    1    3    3  502    0 -0.12869534174E+04  0.55506984525E+03  0.15776894895E+04  0.21103212474E+04  0.10100000352E+00 0. -1.
       -3    1    3    3    0  502  0.12869534174E+04 -0.55506984525E+03 -0.12739044886E+04  0.18939863484E+04  0.10100000352E+00 0.  1.
</event>
<event>
 5   0  0.1879500E-08  0.4004805E+04  0.7818609E-02  0.8003578E-01
       -1   -1    0    0    0  501  0.00000000000E+00  0.00000000000E+00  0.25904048154E+04  0.25904048154E+04  0.50400001928E-02 0. -1.
        1   -1    0    0  501    0  0.00000000000E+00  0.00000000000E+00 -0.15478726330E+04  0.15478726330E+04  0.50400001928E-02 0.  1.
    10030    2    1    2    0    0  0.00000000000E+00  0.00000000000E+00  0.10425321825E+04  0.41382774484E+04  0.40048054745E+04 0.  0.
        2    1    3    3  502    0  0.83962856045E+03 -0.82017838683E+03 -0.11551307430E+04  0.16468138144E+04  0.25500000920E-02 0.  1.
       -2    1    3    3    0  502 -0.83962856045E+03  0.82017838683E+03  0.21976629255E+04  0.24914636340E+04  0.25500000920E-02 0. -1.
</event>
<event>
 5   0  0.5846812E-08  0.3994420E+04  0.7818609E-02  0.8005673E-01
        2   -1    0    0  501    0  0.00000000000E+00  0.00000000000E+00  0.18978675465E+04  0.18978675466E+04  0.25500000920E-02 0.  1.
       -2   -1    0    0    0  501  0.00000000000E+00  0.00000000000E+00 -0.21017526040E+04  0.21017526040E+04  0.25500000920E-02 0. -1.
    10030    2    1    2    0    0  0.00000000000E+00  0.00000000000E+00 -0.20388505746E+03  0.39996201506E+04  0.39944201372E+04 0.  0.
        4    1    3    3  502    0  0.54842316960E+03 -0.92410788624E+03 -0.17876135732E+04  0.20857390197E+04  0.12699999809E+01 0. -1.
       -4    1    3    3    0  502 -0.54842316960E+03  0.92410788624E+03  0.15837285158E+04  0.19138811308E+04  0.12699999809E+01 0.  1.
</event>
<event>
 5   0  0.5945387E-08  0.4003649E+04  0.7818609E-02  0.8003811E-01
       -2   -1    0    0    0  501  0.00000000000E+00  0.00000000000E+00  0.20317304326E+04  0.20317304326E+04  0.25500000920E-02 0.  1.
        2   -1    0    0  501    0  0.00000000000E+00  0.00000000000E+00 -0.19723584693E+04  0.19723584693E+04  0.25500000920E-02 0. -1.
    10030    2    1    2    0    0  0.00000000000E+00  0.00000000000E+00  0.59371963232E+02  0.40040889019E+04  0.40036486989E+04 0.  0.
        3    1    3    3  502    0  0.14829697948E+04 -0.22750820566E+03  0.13551019775E+04  0.20216974985E+04  0.10100000352E+00 0.  1.
       -3    1    3    3    0  502 -0.14829697948E+04  0.22750820566E+03 -0.12957300142E+04  0.19823914033E+04  0.10100000352E+00 0. -1.
</event>
<event>
 5   0  0.1879500E-08  0.4009042E+04  0.7818609E-02  0.8002725E-01
       -1   -1    0    0    0  501  0.00000000000E+00  0.00000000000E+00  0.16355016970E+04  0.16355016970E+04  0.50400001928E-02 0.  1.
        1   -1    0    0  501    0  0.00000000000E+00  0.00000000000E+00 -0.24568021731E+04  0.24568021731E+04  0.50400001928E-02 0. -1.
    10030    2    1    2    0    0  0.00000000000E+00  0.00000000000E+00 -0.82130047610E+03  0.40923038701E+04  0.40090418423E+04 0.  0.
        5    1    3    3  502    0 -0.74750994652E+03  0.74292339126E+03 -0.21511656253E+04  0.23954627784E+04  0.46999998093E+01 0. -1.
       -5    1    3    3    0  502  0.74750994652E+03 -0.74292339126E+03  0.13298651492E+04  0.16968410917E+04  0.46999998093E+01 0.  1.
</event>
<event>
 5   0  0.5945387E-08  0.4001810E+04  0.7818609E-02  0.8004181E-01
       -2   -1    0    0    0  501  0.00000000000E+00  0.00000000000E+00  0.23802730805E+04  0.23802730805E+04  0.25500000920E-02 0. -1.
        2   -1    0    0  501    0  0.00000000000E+00  0.00000000000E+00 -0.16820008474E+04  0.16820008474E+04  0.25500000920E-02 0.  1.
    10030    2    1    2    0    0  0.00000000000E+00  0.00000000000E+00  0.69827223313E+03  0.40622739279E+04  0.40018102596E+04 0.  0.
        3    1    3    3  502    0  0.12462826282E+04  0.34928904433E+03  0.18981001387E+04  0.22973914278E+04  0.10100000352E+00 0.  1.
       -3    1    3    3    0  502 -0.12462826282E+04 -0.34928904433E+03 -0.11998279056E+04  0.17648825001E+04  0.10100000352E+00 0. -1.
</event>
<event>
 5   0  0.1879500E-08  0.3983733E+04  0.7818609E-02  0.8007836E-01
       -1   -1    0    0    0  501  0.00000000000E+00  0.00000000000E+00  0.31607647417E+04  0.31607647417E+04  0.50400001928E-02 0.  1.
        1   -1    0    0  501    0  0.00000000000E+00  0.00000000000E+00 -0.12552446235E+04  0.12552446235E+04  0.50400001928E-02 0. -1.
    10030    2    1    2    0    0  0.00000000000E+00  0.00000000000E+00  0.19055201182E+04  0.44160093652E+04  0.39837333988E+04 0.  0.
        2    1    3    3  502    0 -0.14979894230E+04  0.11466734486E+04  0.16614273327E+04  0.25137965493E+04  0.25500000920E-02 0.  1.
       -2    1    3    3    0  502  0.14979894230E+04 -0.11466734486E+04  0.24409278542E+03  0.19022128159E+04  0.25500000920E-02 0. -1.
</event>
<event>
 5   0  0.1879500E-08  0.3915420E+04  0.7818609E-02  0.8021830E-01
       -1   -1    0    0    0  501  0.00000000000E+00  0.00000000000E+00  0.21071416945E+04  0.21071416945E+04  0.50400001928E-02 0. -1.
        1   -1    0    0  501    0  0.00000000000E+00  0.00000000000E+00 -0.18188754593E+04  0.18188754593E+04  0.50400001928E-02 0.  1.
    10030    2    1    2    0    0  0.00000000000E+00  0.00000000000E+00  0.28826623529E+03  0.39260171538E+04  0.39154199353E+04 0.  0.
        1    1    3    3  502    0  0.17124232326E+04 -0.44221697073E+03  0.98585681301E+03  0.20248118017E+04  0.50400001928E-02 0. -1.
       -1    1    3    3    0  502 -0.17124232326E+04  0.44221697073E+03 -0.69759057772E+03  0.19012053521E+04  0.50400001928E-02 0.  1.
</event>
<event>
 5   0  0.5846812E-08  0.3984376E+04  0.7818609E-02  0.8007706E-01
       -2   -1    0    0    0  501  0.00000000000E+00  0.00000000000E+00  0.17333138153E+04  0.17333138153E+04  0.25500000920E-02 0.  1.
        2   -1    0    0  501    0  0.00000000000E+00  0.00000000000E+00 -0.22897254727E+04  0.22897254727E+04  0.25500000920E-02 0. -1.
    10030    2    1    2    0    0  0.00000000000E+00  0.00000000000E+00 -0.55641165736E+03  0.40230392880E+04  0.39843758834E+04 0.  0.
        4    1    3    3  502    0  0.56955580158E+03 -0.11988168735E+04  0.12218943833E+04  0.18040463420E+04  0.12699999809E+01 0.  1.
       -4    1    3    3    0  502 -0.56955580158E+03  0.11988168735E+04 -0.17783060406E+04  0.22189929460E+04  0.12699999809E+01 0. -1.
</event>
<event>
 5   0  0.5846812E-08  0.4032051E+04  0.7818609E-02  0.7998112E-01
        2   -1    0    0  501    0  0.00000000000E+00  0.00000000000E+00  0.18157495795E+04  0.18157495795E+04  0.25500000920E-02 0. -1.
       -2   -1    0    0    0  501  0.00000000000E+00  0.00000000000E+00 -0.22383913098E+04  0.22383913098E+04  0.25500000920E-02 0.  1.
    10030    2    1    2    0    0  0.00000000000E+00  0.00000000000E+00 -0.42264173036E+03  0.40541408893E+04  0.40320506343E+04 0.  0.
        4    1    3    3  502    0  0.12641323517E+04  0.40885680084E+03 -0.17359269351E+04  0.21860097033E+04  0.12699999809E+01 0.  1.
       -4    1    3    3    0  502 -0.12641323517E+04 -0.40885680084E+03  0.13132852047E+04  0.18681311860E+04  0.12699999809E+01 0. -1.
</event>
<event>
 5   0  0.5846812E-08  0.4027381E+04  0.7818609E-02  0.7999046E-01
       -2   -1    0    0    0  501  0.00000000000E+00  0.00000000000E+00  0.19564388776E+04  0.19564388776E+04  0.25500000920E-02 0.  1.
        2   -1    0    0  501    0  0.00000000000E+00  0.00000000000E+00 -0.20726179877E+04  0.20726179877E+04  0.25500000920E-02 0. -1.
    10030    2    1    2    0    0  0.00000000000E+00  0.00000000000E+00 -0.11617911013E+03  0.40290568653E+04  0.40273814865E+04 0.  0.
        4    1    3    3  502    0  0.16811747584E+04 -0.11429181749E+03 -0.11610624193E+04  0.20463329989E+04  0.12699999809E+01 0. -1.
       -4    1    3    3    0  502 -0.16811747584E+04  0.11429181749E+03  0.10448833092E+04  0.19827238664E+04  0.12699999809E+01 0.  1.
</event>
<event>
 5   0  0.1879500E-08  0.3991936E+04  0.7818609E-02  0.8006175E-01
        1   -1    0    0  501    0  0.00000000000E+00  0.00000000000E+00  0.25267905845E+04  0.25267905845E+04  0.50400001928E-02 0. -1.
       -1   -1    0    0    0  501  0.00000000000E+00  0.00000000000E+00 -0.15766594421E+04  0.15766594421E+04  0.50400001928E-02 0.  1.
    10030    2    1    2    0    0  0.00000000000E+00  0.00000000000E+00  0.95013114240E+03  0.41034500266E+04  0.39919359881E+04 0.  0.
        3    1    3    3  502    0  0.17291572284E+03 -0.61593303457E+03 -0.14684150258E+04  0.16017228376E+04  0.10100000352E+00 0.  1.
       -3    1    3    3    0  502 -0.17291572284E+03  0.61593303457E+03  0.24185461682E+04  0.25017271890E+04  0.10100000352E+00 0. -1.
</event>
<event>
 5   0  0.5945387E-08  0.4064903E+04  0.7818609E-02  0.7991580E-01
       -2   -1    0    0    0  501  0.00000000000E+00  0.00000000000E+00  0.19773859645E+04  0.19773859645E+04  0.25500000920E-02 0.  1.
        2   -1    0    0  501    0  0.00000000000E+00  0.00000000000E+00 -0.20890508111E+04  0.20890508111E+04  0.25500000920E-02 0. -1.
    10030    2    1    2    0    0  0.00000000000E+00  0.00000000000E+00 -0.11166484654E+03  0.40664367756E+04  0.40649033213E+04 0.  0.
        3    1    3    3  502    0  0.11355822270E+04 -0.15515755360E+04  0.60314675480E+03  0.20151227397E+04  0.10100000352E+00 0.  1.
       -3    1    3    3    0  502 -0.11355822270E+04  0.15515755360E+04 -0.71481160134E+03  0.20513140359E+04  0.10100000352E+00 0. -1.
</event>
<event>
 5   0  0.6161563E-08  0.3935743E+04  0.7818609E-02  0.8017636E-01
       -2   -1    0    0    0  501  0.00000000000E+00  0.00000000000E+00  0.22737366194E+04  0.22737366194E+04  0.25500000920E-02 0.  1.
        2   -1    0    0  501    0  0.00000000000E+00  0.00000000000E+00 -0.17031520179E+04  0.17031520179E+04  0.25500000920E-02 0. -1.
    10030    2    1    2    0    0  0.00000000000E+00  0.00000000000E+00  0.57058460154E+03  0.39768886373E+04  0.39357434426E+04 0.  0.
        1    1    3    3  502    0 -0.13136527361E+04  0.25943008639E+03 -0.11718414398E+04  0.17793818705E+04  0.50400001928E-02 0. -1.
       -1    1    3    3    0  502  0.13136527361E+04 -0.25943008639E+03  0.17424260414E+04  0.21975067669E+04  0.50400001928E-02 0.  1.
</event>
<event>
 5   0  0.1879500E-08  0.3999490E+04  0.7818609E-02  0.8004650E-01
       -1   -1    0    0    0  501  0.00000000000E+00  0.00000000000E+00  0.16317331410E+04  0.16317331410E+04  0.50400001928E-02 0.  1.
        1   -1    0    0  501    0  0.00000000000E+00  0.00000000000E+00 -0.24507557989E+04  0.24507557989E+04  0.50400001928E-02 0. -1.
    10030    2    1    2    0    0  0.00000000000E+00  0.00000000000E+00 -0.81902265793E+03  0.40824889400E+04  0.39994896963E+04 0.  0.
        2    1    3    3  502    0  0.56316206295E+03 -0.18775734723E+04 -0.56417410048E+01  0.19602207738E+04  0.25500000920E-02 0.  1.
       -2    1    3    3    0  502 -0.56316206295E+03  0.18775734723E+04 -0.81338091692E+03  0.21222681661E+04  0.25500000920E-02 0. -1.
</event>
<event>
 5   0  0.1879500E-08  0.3994338E+04  0.7818609E-02  0.8005690E-01
        1   -1    0    0  501    0  0.00000000000E+00  0.00000000000E+00  0.27006870158E+04  0.27006870158E+04  0.50400001928E-02 0. -1.
       -1   -1    0    0    0  501  0.00000000000E+00  0.00000000000E+00 -0.14769143680E+04  0.14769143680E+04  0.50400001928E-02 0.  1.
    10030    2    1    2    0    0  0.00000000000E+00  0.00000000000E+00  0.12237726478E+04  0.41776013837E+04  0.39943377208E+04 0.  0.
        1    1    3    3  502    0  0.19887639773E+03  0.81507351911E+03 -0.12836661427E+04  0.15335238600E+04  0.50400001928E-02 0.  1.
       -1    1    3    3    0  502 -0.19887639773E+03 -0.81507351911E+03  0.25074387905E+04  0.26440775237E+04  0.50400001928E-02 0. -1.
</event>
<event>
 5   0  0.1879500E-08  0.4000197E+04  0.7818609E-02  0.8004507E-01
        1   -1    0    0  501    0  0.00000000000E+00  0.00000000000E+00  0.20762148370E+04  0.20762148370E+04  0.50400001928E-02 0.  1.
       -1   -1    0    0    0  501  0.00000000000E+00  0.00000000000E+00 -0.19267726210E+04  0.19267726210E+04  0.50400001928E-02 0. -1.
    10030    2    1    2    0    0  0.00000000000E+00  0.00000000000E+00  0.14944221596E+03  0.40029874580E+04  0.40001969468E+04 0.  0.
        2    1    3    3  502    0  0.45526272677E+03 -0.15971256967E+04 -0.10406501907E+04  0.19598539387E+04  0.25500000920E-02 0. -1.
       -2    1    3    3    0  502 -0.45526272677E+03  0.15971256967E+04  0.11900924067E+04  0.20431335194E+04  0.25500000920E-02 0.  1.
</event>
<event>
 5   0  0.5945387E-08  0.4009346E+04  0.7818609E-02  0.8002664E-01
       -2   -1    0    0    0  501  0.00000000000E+00  0.00000000000E+00  0.24138638940E+04  0.24138638940E+04  0.25500000920E-02 0.  1.
        2   -1    0    0  501    0  0.00000000000E+00  0.00000000000E+00 -0.16648470413E+04  0.16648470413E+04  0.25500000920E-02 0. -1.
    10030    2    1    2    0    0  0.00000000000E+00  0.00000000000E+00  0.74901685268E+03  0.40787109353E+04  0.40093461621E+04 0.  0.
        3    1    3    3  502    0 -0.17033291365E+03  0.53441063526E+02  0.24057615371E+04  0.24123759724E+04  0.10100000352E+00 0.  1.
       -3    1    3    3    0  502  0.17033291365E+03 -0.53441063526E+02 -0.16567446844E+04  0.16663349628E+04  0.10100000352E+00 0. -1.
</event>
<event>
 5   0  0.1879500E-08  0.4001881E+04  0.7818609E-02  0.8004167E-01
        1   -1    0    0  501    0  0.00000000000E+00  0.00000000000E+00  0.22159490575E+04  0.22159490575E+04  0.50400001928E-02 0.  1.
       -1   -1    0    0    0  501  0.00000000000E+00  0.00000000000E+00 -0.18067934717E+04  0.18067934717E+04  0.50400001928E-02 0. -1.
    10030    2    1    2    0    0  0.00000000000E+00  0.00000000000E+00  0.40915558576E+03  0.40227425293E+04  0.40018807033E+04 0.  0.
        2    1    3    3  502    0 -0.13577420031E+03 -0.19955363015E+04  0.14804828345E+03  0.20056216139E+04  0.25500000920E-02 0.  1.
       -2    1    3    3    0  502  0.13577420031E+03  0.19955363015E+04  0.26110730231E+03  0.20171209154E+04  0.25500000920E-02 0. -1.
</event>
<event>
 5   0  0.5951623E-08  0.3933450E+04  0.7818609E-02  0.8018108E-01
        2   -1    0    0  501    0  0.00000000000E+00  0.00000000000E+00  0.18481636127E+04  0.18481636127E+04  0.25500000920E-02 0. -1.
       -2   -1    0    0    0  501  0.00000000000E+00  0.00000000000E+00 -0.20928919724E+04  0.20928919724E+04  0.25500000920E-02 0.  1.
    10030    2    1    2    0    0  0.00000000000E+00  0.00000000000E+00 -0.24472835971E+03  0.39410555851E+04  0.39334497779E+04 0.  0.
        2    1    3    3  502    0  0.10376924236E+04  0.92271976750E+03 -0.15178205022E+04  0.20571816673E+04  0.25500000920E-02 0.  1.
       -2    1    3    3    0  502 -0.10376924236E+04 -0.92271976750E+03  0.12730921424E+04  0.18838739179E+04  0.25500000920E-02 0. -1.
</event>
<event>
 5   0  0.1879500E-08  0.3980875E+04  0.7818609E-02  0.8008416E-01
        1   -1    0    0  501    0  0.00000000000E+00  0.00000000000E+00  0.13043322128E+04  0.13043322128E+04  0.50400001928E-02 0.  1.
       -1   -1    0    0    0  501  0.00000000000E+00  0.00000000000E+00 -0.30374474754E+04  0.30374474754E+04  0.50400001928E-02 0. -1.
    10030    2    1    2    0    0  0.00000000000E+00  0.00000000000E+00 -0.17331152626E+04  0.43417796883E+04  0.39808745707E+04 0.  0.
        3    1    3    3  502    0 -0.98129695034E+03  0.13014533244E+04  0.37943038347E+03  0.16735267809E+04  0.10100000352E+00 0.  1.
       -3    1    3    3    0  502  0.98129695034E+03 -0.13014533244E+04 -0.21125456461E+04  0.26682529073E+04  0.10100000352E+00 0. -1.
</event>
<event>
 5   0  0.1879500E-08  0.4018560E+04  0.7818609E-02  0.8000813E-01
       -1   -1    0    0    0  501  0.00000000000E+00  0.00000000000E+00  0.17423202210E+04  0.17423202210E+04  0.50400001928E-02 0. -1.
        1   -1    0    0  501    0  0.00000000000E+00  0.00000000000E+00 -0.23171439677E+04  0.23171439677E+04  0.50400001928E-02 0.  1.
    10030    2    1    2    0    0  0.00000000000E+00  0.00000000000E+00 -0.57482374670E+03  0.40594641886E+04  0.40185603341E+04 0.  0.
        1    1    3    3  502    0 -0.45320958522E+03 -0.91973259255E+03  0.14581523723E+04  0.17825586416E+04  0.50400001928E-02 0. -1.
       -1    1    3    3    0  502  0.45320958522E+03  0.91973259255E+03 -0.20329761190E+04  0.22769055471E+04  0.50400001928E-02 0.  1.
</event>
<event>
 5   0  0.5846812E-08  0.3924013E+04  0.7818609E-02  0.8020053E-01
        2   -1    0    0  501    0  0.00000000000E+00  0.00000000000E+00  0.19257630953E+04  0.19257630953E+04  0.25500000920E-02 0. -1.
       -2   -1    0    0    0  501  0.00000000000E+00  0.00000000000E+00 -0.19989325135E+04  0.19989325135E+04  0.25500000920E-02 0.  1.
    10030    2    1    2    0    0  0.00000000000E+00  0.00000000000E+00 -0.73169418265E+02  0.39246956088E+04  0.39240134885E+04 0.  0.
        4    1    3    3  502    0 -0.18935435247E+04  0.50339910738E+03 -0.13932116323E+03  0.19642631546E+04  0.12699999809E+01 0.  1.
       -4    1    3    3    0  502  0.18935435247E+04 -0.50339910738E+03  0.66151744967E+02  0.19604324542E+04  0.12699999809E+01 0. -1.
</event>
<event>
 5   0  0.5888700E-08  0.4056432E+04  0.7818609E-02  0.7993258E-01
        2   -1    0    0  501    0  0.00000000000E+00  0.00000000000E+00  0.17351636240E+04  0.17351636240E+04  0.25500000920E-02 0.  1.
       -2   -1    0    0    0  501  0.00000000000E+00  0.00000000000E+00 -0.23707622699E+04  0.23707622699E+04  0.25500000920E-02 0. -1.
    10030    2    1    2    0    0  0.00000000000E+00  0.00000000000E+00 -0.63559864587E+03  0.41059258939E+04  0.40564321525E+04 0.  0.
        5    1    3    3  502    0 -0.73049891692E+03 -0.18654456762E+04 -0.63808086925E+03  0.21025426331E+04  0.46999998093E+01 0.  1.
       -5    1    3    3    0  502  0.73049891692E+03  0.18654456762E+04  0.24822233740E+01  0.20033832608E+04  0.46999998093E+01 0. -1.
</event>
<event>
 5   0  0.1879500E-08  0.4003667E+04  0.7818609E-02  0.8003807E-01
       -1   -1    0    0    0  501  0.00000000000E+00  0.00000000000E+00  0.23485677025E+04  0.23485677025E+04  0.50400001928E-02 0.  1.
        1   -1    0    0  501    0  0.00000000000E+00  0.00000000000E+00 -0.17062899858E+04  0.17062899858E+04  0.50400001928E-02 0. -1.
    10030    2    1    2    0    0  0.00000000000E+00  0.00000000000E+00  0.64227771675E+03  0.40548576883E+04  0.40036670949E+04 0.  0.
        2    1    3    3  502    0 -0.80060413082E+02 -0.15874290032E+04  0.15536610666E+04  0.22226567931E+04  0.25500000920E-02 0.  1.
       -2    1    3    3    0  502  0.80060413082E+02  0.15874290032E+04 -0.91138334989E+03  0.18322008952E+04  0.25500000920E-02 0. -1.
</event>
<event>
 5   0  0.1879500E-08  0.3992690E+04  0.7818609E-02  0.8006023E-01
        1   -1    0    0  501    0  0.00000000000E+00  0.00000000000E+00  0.22369336010E+04  0.22369336010E+04  0.50400001928E-02 0. -1.
       -1   -1    0    0    0  501  0.00000000000E+00  0.00000000000E+00 -0.17816319951E+04  0.17816319951E+04  0.50400001928E-02 0.  1.
    10030    2    1    2    0    0  0.00000000000E+00  0.00000000000E+00  0.45530160585E+03  0.40185655961E+04  0.39926895569E+04 0.  0.
        4    1    3    3  502    0  0.17283946129E+03 -0.14678032582E+04  0.15783882245E+04  0.21623207173E+04  0.12699999809E+01 0. -1.
       -4    1    3    3    0  502 -0.17283946129E+03  0.14678032582E+04 -0.11230866187E+04  0.18562448788E+04  0.12699999809E+01 0.  1.
</event>
<event>
 5   0  0.1879500E-08  0.4040999E+04  0.7818609E-02  0.7996326E-01
        1   -1    0    0  501    0  0.00000000000E+00  0.00000000000E+00  0.13882009949E+04  0.13882009949E+04  0.50400001928E-02 0. -1.
       -1   -1    0    0    0  501  0.00000000000E+00  0.00000000000E+00 -0.29407983098E+04  0.29407983098E+04  0.50400001928E-02 0.  1.
    10030    2    1    2    0    0  0.00000000000E+00  0.00000000000E+00 -0.15525973149E+04  0.43289993047E+04  0.40409994504E+04 0.  0.
        1    1    3    3  502    0 -0.14915015454E+04 -0.33920866128E+03  0.63793112515E+03  0.16572855808E+04  0.50400001928E-02 0. -1.
       -1    1    3    3    0  502  0.14915015454E+04  0.33920866128E+03 -0.21905284401E+04  0.26717137239E+04  0.50400001928E-02 0.  1.
</event>
<event>
 5   0  0.1879500E-08  0.4013418E+04  0.7818609E-02  0.8001845E-01
       -1   -1    0    0    0  501  0.00000000000E+00  0.00000000000E+00  0.14979190677E+04  0.14979190678E+04  0.50400001928E-02 0. -1.
        1   -1    0    0  501    0  0.00000000000E+00  0.00000000000E+00 -0.26883164269E+04  0.26883164269E+04  0.50400001928E-02 0.  1.
    10030    2    1    2    0    0  0.00000000000E+00  0.00000000000E+00 -0.11903973591E+04  0.41862354946E+04  0.40134177136E+04 0.  0.
        5    1    3    3  502    0 -0.57478456015E+03  0.75733152333E+03 -0.24384748929E+04  0.26172715221E+04  0.46999998093E+01 0.  1.
       -5    1    3    3    0  502  0.57478456015E+03 -0.75733152333E+03  0.12480775338E+04  0.15689639726E+04  0.46999998093E+01 0. -1.
</event>
<event>
 5   0  0.1879500E-08  0.4014708E+04  0.7818609E-02  0.8001586E-01
       -1   -1    0    0    0  501  0.00000000000E+00  0.00000000000E+00  0.24030616400E+04  0.24030616400E+04  0.50400001928E-02 0. -1.
        1   -1    0    0  501    0  0.00000000000E+00  0.00000000000E+00 -0.16768067249E+04  0.16768067249E+04  0.50400001928E-02 0.  1.
    10030    2    1    2    0    0  0.00000000000E+00  0.00000000000E+00  0.72625491512E+03  0.40798683650E+04  0.40147079188E+04 0.  0.
        3    1    3    3  502    0  0.15111256082E+04 -0.70619743382E+02 -0.97775082357E+03  0.18012452457E+04  0.10100000352E+00 0.  1.
       -3    1    3    3    0  502 -0.15111256082E+04  0.70619743382E+02  0.17040057387E+04  0.22786231193E+04  0.10100000352E+00 0. -1.
</event>
<event>
 5   0  0.6161563E-08  0.4007083E+04  0.7818609E-02  0.8003119E-01
       -2   -1    0    0    0  501  0.00000000000E+00  0.00000000000E+00  0.17816600647E+04  0.17816600647E+04  0.25500000920E-02 0. -1.
        2   -1    0    0  501    0  0.00000000000E+00  0.00000000000E+00 -0.22530557741E+04  0.22530557741E+04  0.25500000920E-02 0.  1.
    10030    2    1    2    0    0  0.00000000000E+00  0.00000000000E+00 -0.47139570941E+03  0.40347158388E+04  0.40070834762E+04 0.  0.
        1    1    3    3  502    0  0.17176510080E+04 -0.97882614088E+03  0.91742915518E+02  0.19791014026E+04  0.50400001928E-02 0. -1.
       -1    1    3    3    0  502 -0.17176510080E+04  0.97882614088E+03 -0.56313862492E+03  0.20556144362E+04  0.50400001928E-02 0.  1.
</event>
<event>
 5   0  0.1879500E-08  0.4020909E+04  0.7818609E-02  0.8000342E-01
        1   -1    0    0  501    0  0.00000000000E+00  0.00000000000E+00  0.28194138103E+04  0.28194138103E+04  0.50400001928E-02 0. -1.
       -1   -1    0    0    0  501  0.00000000000E+00  0.00000000000E+00 -0.14336054825E+04  0.14336054825E+04  0.50400001928E-02 0.  1.
    10030    2    1    2    0    0  0.00000000000E+00  0.00000000000E+00  0.13858083277E+04  0.42530192928E+04  0.40209089002E+04 0.  0.
        5    1    3    3  502    0 -0.89855671726E+03 -0.13036250988E+04  0.20034014955E+04  0.25535234901E+04  0.46999998093E+01 0. -1.
       -5    1    3    3    0  502  0.89855671726E+03  0.13036250988E+04 -0.61759316782E+03  0.16994958027E+04  0.46999998093E+01 0.  1.
</event>
<event>
 5   0  0.1879500E-08  0.3995284E+04  0.7818609E-02  0.8005499E-01
        1   -1    0    0  501    0  0.00000000000E+00  0.00000000000E+00  0.31204961977E+04  0.31204961977E+04  0.50400001928E-02 0.  1.
       -1   -1    0    0    0  501  0.00000000000E+00  0.00000000000E+00 -0.12788263896E+04  0.12788263896E+04  0.50400001928E-02 0. -1.
    10030    2    1    2    0    0  0.00000000000E+00  0.00000000000E+00  0.18416698080E+04  0.43993225873E+04  0.39952836627E+04 0.  0.
        1    1    3    3  502    0  0.15585641808E+03  0.11829252300E+04  0.26850378735E+04  0.29382021212E+04  0.50400001928E-02 0.  1.
       -1    1    3    3    0  502 -0.15585641808E+03 -0.11829252300E+04 -0.84336806542E+03  0.14611204662E+04  0.50400001928E-02 0. -1.
</event>
<event>
 5   0  0.1879500E-08  0.3992270E+04  0.7818609E-02  0.8006108E-01
        1   -1    0    0  501    0  0.00000000000E+00  0.00000000000E+00  0.17927168203E+04  0.17927168203E+04  0.50400001928E-02 0. -1.
       -1   -1    0    0    0  501  0.00000000000E+00  0.00000000000E+00 -0.22226346132E+04  0.22226346132E+04  0.50400001928E-02 0.  1.
    10030    2    1    2    0    0  0.00000000000E+00  0.00000000000E+00 -0.42991779290E+03  0.40153514335E+04  0.39922697586E+04 0.  0.
        3    1    3    3  502    0  0.73944685099E+03 -0.83763159298E+03 -0.18786524189E+04  0.21858049438E+04  0.10100000352E+00 0.  1.
       -3    1    3    3    0  502 -0.73944685099E+03  0.83763159298E+03  0.14487346260E+04  0.18295464897E+04  0.10100000352E+00 0. -1.
</event>
<event>
 5   0  0.1879500E-08  0.3975089E+04  0.7818609E-02  0.8009591E-01
       -1   -1    0    0    0  501  0.00000000000E+00  0.00000000000E+00  0.17141253697E+04  0.17141253697E+04  0.50400001928E-02 0.  1.
        1   -1    0    0  501    0  0.00000000000E+00  0.00000000000E+00 -0.23045760230E+04  0.23045760230E+04  0.50400001928E-02 0. -1.
    10030    2    1    2    0    0  0.00000000000E+00  0.00000000000E+00 -0.59045065333E+03  0.40187013927E+04  0.39750885411E+04 0.  0.
        4    1    3    3  502    0 -0.19601275371E+03  0.13466573055E+04 -0.17597123365E+04  0.22245215257E+04  0.12699999809E+01 0. -1.
       -4    1    3    3    0  502  0.19601275371E+03 -0.13466573055E+04  0.11692616832E+04  0.17941798669E+04  0.12699999809E+01 0.  1.
</event>
<event>
 5   0  0.1879500E-08  0.4005001E+04  0.7818609E-02  0.8003538E-01
        1   -1    0    0  501    0  0.00000000000E+00  0.00000000000E+00  0.14170422234E+04  0.14170422234E+04  0.50400001928E-02 0.  1.
       -1   -1    0    0    0  501  0.00000000000E+00  0.00000000000E+00 -0.28298444517E+04  0.28298444517E+04  0.50400001928E-02 0. -1.
    10030    2    1    2    0    0  0.00000000000E+00  0.00000000000E+00 -0.14128022283E+04  0.42468866751E+04  0.40050014101E+04 0.  0.
        5    1    3    3  502    0  0.15111156943E+04 -0.11093707159E+03 -0.20947541795E+04  0.25853036259E+04  0.46999998093E+01 0. -1.
       -5    1    3    3    0  502 -0.15111156943E+04  0.11093707159E+03  0.68195195121E+03  0.16615830492E+04  0.46999998093E+01 0.  1.
</event>
<event>
 5   0  0.6161563E-08  0.4008142E+04  0.7818609E-02  0.8002906E-01
       -2   -1    0    0    0  501  0.00000000000E+00  0.00000000000E+00  0.18036084256E+04  0.18036084256E+04  0.25500000920E-02 0.  1.
        2   -1    0    0  501    0  0.00000000000E+00  0.00000000000E+00 -0.22268142135E+04  0.22268142135E+04  0.25500000920E-02 0. -1.
    10030    2    1    2    0    0  0.00000000000E+00  0.00000000000E+00 -0.42320578794E+03  0.40304226391E+04  0.40081421520E+04 0.  0.
        1    1    3    3  502    0 -0.12727354297E+04  0.13862340623E+04  0.48128515488E+03  0.19424561127E+04  0.50400001928E-02 0.  1.
       -1    1    3    3    0  502  0.12727354297E+04 -0.13862340623E+04 -0.90449094282E+03  0.20879665263E+04  0.50400001928E-02 0. -1.
</event>
<event>
 5   0  0.5945387E-08  0.4016016E+04  0.7818609E-02  0.8001323E-01
       -2   -1    0    0    0  501  0.00000000000E+00  0.00000000000E+00  0.24302500786E+04  0.24302500786E+04  0.25500000920E-02 0.  1.
        2   -1    0    0  501    0  0.00000000000E+00  0.00000000000E+00 -0.16591278911E+04  0.16591278911E+04  0.25500000920E-02 0. -1.
    10030    2    1    2    0    0  0.00000000000E+00  0.00000000000E+00  0.77112218751E+03  0.40893779696E+04  0.40160157806E+04 0.  0.
        3    1    3    3  502    0  0.44862184862E+03 -0.13640045324E+04 -0.10437634751E+04  0.17751653809E+04  0.10100000352E+00 0. -1.
       -3    1    3    3    0  502 -0.44862184862E+03  0.13640045324E+04  0.18148856626E+04  0.23142125887E+04  0.10100000352E+00 0.  1.
</event>
<event>
 5   0  0.1879500E-08  0.3921455E+04  0.7818609E-02  0.8020582E-01
       -1   -1    0    0    0  501  0.00000000000E+00  0.00000000000E+00  0.18440513647E+04  0.18440513647E+04  0.50400001928E-02 0. -1.
        1   -1    0    0  501    0  0.00000000000E+00  0.00000000000E+00 -0.20847863381E+04  0.20847863381E+04  0.50400001928E-02 0.  1.
    10030    2    1    2    0    0  0.00000000000E+00  0.00000000000E+00 -0.24073497346E+03  0.39288377028E+04  0.39214553889E+04 0.  0.
        3    1    3    3  502    0  0.91829559784E+03  0.15852064366E+04  0.57973756196E+03  0.19215207265E+04  0.10100000352E+00 0. -1.
       -3    1    3    3    0  502 -0.91829559784E+03 -0.15852064366E+04 -0.82047253543E+03  0.20073169763E+04  0.10100000352E+00 0.  1.
</event>
<event>
 5   0  0.5888700E-08  0.3973563E+04  0.7818609E-02  0.8009901E-01
       -2   -1    0    0    0  501  0.00000000000E+00  0.00000000000E+00  0.12823379392E+04  0.12823379392E+04  0.25500000920E-02 0. -1.
        2   -1    0    0  501    0  0.00000000000E+00  0.00000000000E+00 -0.30782070361E+04  0.30782070361E+04  0.25500000920E-02 0.  1.
    10030    2    1    2    0    0  0.00000000000E+00  0.00000000000E+00 -0.17958690969E+04  0.43605449754E+04  0.39735634724E+04 0.  0.
        5    1    3    3  502    0  0.27644199343E+03 -0.17811730423E+04  0.19079602454E+02  0.18026046997E+04  0.46999998093E+01 0. -1.
       -5    1    3    3    0  502 -0.27644199343E+03  0.17811730423E+04 -0.18149486994E+04  0.25579402756E+04  0.46999998093E+01 0.  1.
</event>
<event>
 5   0  0.1879500E-08  0.3935305E+04  0.7818609E-02  0.8017726E-01
        1   -1    0    0  501    0  0.00000000000E+00  0.00000000000E+00  0.18392182340E+04  0.18392182340E+04  0.50400001928E-02 0.  1.
       -1   -1    0    0    0  501  0.00000000000E+00  0.00000000000E+00 -0.21050552044E+04  0.21050552044E+04  0.50400001928E-02 0. -1.
    10030    2    1    2    0    0  0.00000000000E+00  0.00000000000E+00 -0.26583697040E+03  0.39442734385E+04  0.39353047738E+04 0.  0.
        4    1    3    3  502    0 -0.87008213164E+03 -0.17173329800E+04 -0.54051324372E+03  0.19996078765E+04  0.12699999809E+01 0. -1.
       -4    1    3    3    0  502  0.87008213164E+03  0.17173329800E+04  0.27467627332E+03  0.19446655620E+04  0.12699999809E+01 0.  1.
</event>
<event>
 5   0  0.1879500E-08  0.4005509E+04  0.7818609E-02  0.8003436E-01
       -1   -1    0    0    0  501  0.00000000000E+00  0.00000000000E+00  0.14718093451E+04  0.14718093452E+04  0.50400001928E-02 0.  1.
        1   -1    0    0  501    0  0.00000000000E+00  0.00000000000E+00 -0.27252338246E+04  0.27252338246E+04  0.50400001928E-02 0. -1.
    10030    2    1    2    0    0  0.00000000000E+00  0.00000000000E+00 -0.12534244795E+04  0.41970431698E+04  0.40055085125E+04 0.  0.
        2    1    3    3  502    0  0.98556047323E+03  0.44469651525E+03 -0.23931292689E+04  0.26260525765E+04  0.25500000920E-02 0. -1.
       -2    1    3    3    0  502 -0.98556047323E+03 -0.44469651525E+03  0.11397047894E+04  0.15709905933E+04  0.25500000920E-02 0.  1.
</event>
<event>
 5   0  0.1879500E-08  0.3995273E+04  0.7818609E-02  0.8005501E-01
        1   -1    0    0  501    0  0.00000000000E+00  0.00000000000E+00  0.15302283183E+04  0.15302283184E+04  0.50400001928E-02 0. -1.
       -1   -1    0    0    0  501  0.00000000000E+00  0.00000000000E+00 -0.26078144165E+04  0.26078144165E+04  0.50400001928E-02 0.  1.
    10030    2    1    2    0    0  0.00000000000E+00  0.00000000000E+00 -0.10775860981E+04  0.41380427348E+04  0.39952729414E+04 0.  0.
        1    1    3    3  502    0  0.71210341005E+03 -0.85868956634E+03  0.11775641444E+04  0.16220654586E+04  0.50400001928E-02 0. -1.
       -1    1    3    3    0  502 -0.71210341005E+03  0.85868956634E+03 -0.22551502425E+04  0.25159772762E+04  0.50400001928E-02 0.  1.
</event>
<event>
 5   0  0.1879500E-08  0.3966757E+04  0.7818609E-02  0.8011286E-01
       -1   -1    0    0    0  501  0.00000000000E+00  0.00000000000E+00  0.33427722136E+04  0.33427722136E+04  0.50400001928E-02 0. -1.
        1   -1    0    0  501    0  0.00000000000E+00  0.00000000000E+00 -0.11768048438E+04  0.11768048438E+04  0.50400001928E-02 0.  1.
    10030    2    1    2    0    0  0.00000000000E+00  0.00000000000E+00  0.21659673698E+04  0.45195770574E+04  0.39667571303E+04 0.  0.
        5    1    3    3  502    0  0.17233968747E+04 -0.44357683847E+03  0.20807635522E+04  0.27379657137E+04  0.46999998093E+01 0. -1.
       -5    1    3    3    0  502 -0.17233968747E+04  0.44357683847E+03  0.85203817620E+02  0.17816113437E+04  0.46999998093E+01 0.  1.
</event>
<event>
 5   0  0.5888700E-08  0.3991364E+04  0.7818609E-02  0.8006291E-01
        2   -1    0    0  501    0  0.00000000000E+00  0.00000000000E+00  0.20285850540E+04  0.20285850540E+04  0.25500000920E-02 0.  1.
       -2   -1    0    0    0  501  0.00000000000E+00  0.00000000000E+00 -0.19633127018E+04  0.19633127018E+04  0.25500000920E-02 0. -1.
    10030    2    1    2    0    0  0.00000000000E+00  0.00000000000E+00  0.65272352131E+02  0.39918977558E+04  0.39913640792E+04 0.  0.
        5    1    3    3  502    0  0.19647620980E+04  0.34385179104E+03 -0.32184196558E+02  0.19948889865E+04  0.46999998093E+01 0. -1.
       -5    1    3    3    0  502 -0.19647620980E+04 -0.34385179104E+03  0.97456548689E+02  0.19970087693E+04  0.46999998093E+01 0.  1.
</event>
<event>
 5   0  0.5846812E-08  0.4016800E+04  0.7818609E-02  0.8001166E-01
       -2   -1    0    0    0  501  0.00000000000E+00  0.00000000000E+00  0.21778911511E+04  0.21778911511E+04  0.25500000920E-02 0.  1.
        2   -1    0    0  501    0  0.00000000000E+00  0.00000000000E+00 -0.18520990050E+04  0.18520990050E+04  0.25500000920E-02 0. -1.
    10030    2    1    2    0    0  0.00000000000E+00  0.00000000000E+00  0.32579214615E+03  0.40299901561E+04  0.40167997381E+04 0.  0.
        4    1    3    3  502    0 -0.17325968774E+02 -0.75475736955E+03 -0.17043198337E+04  0.18640457571E+04  0.12699999809E+01 0. -1.
       -4    1    3    3    0  502  0.17325968774E+02  0.75475736955E+03  0.20301119798E+04  0.21659443990E+04  0.12699999809E+01 0.  1.
</event>
<event>
 5   0  0.1879500E-08  0.4005558E+04  0.7818609E-02  0.8003426E-01
       -1   -1    0    0    0  501  0.00000000000E+00  0.00000000000E+00  0.17084606999E+04  0.17084606999E+04  0.50400001928E-02 0.  1.
        1   -1    0    0  501    0  0.00000000000E+00  0.00000000000E+00 -0.23477994737E+04  0.23477994737E+04  0.50400001928E-02 0. -1.
    10030    2    1    2    0    0  0.00000000000E+00  0.00000000000E+00 -0.63933877381E+03  0.40562601735E+04  0.40055577050E+04 0.  0.
        5    1    3    3  502    0  0.15025797216E+04 -0.12874608263E+04 -0.62360334169E+01  0.19787274135E+04  0.46999998093E+01 0.  1.
       -5    1    3    3    0  502 -0.15025797216E+04  0.12874608263E+04 -0.63310274039E+03  0.20775327600E+04  0.46999998093E+01 0. -1.
</event>
<event>
 5   0  0.6161563E-08  0.4015723E+04  0.7818609E-02  0.8001382E-01
       -2   -1    0    0    0  501  0.00000000000E+00  0.00000000000E+00  0.27418508855E+04  0.27418508855E+04  0.25500000920E-02 0. -1.
        2   -1    0    0  501    0  0.00000000000E+00  0.00000000000E+00 -0.14703601116E+04  0.14703601116E+04  0.25500000920E-02 0.  1.
    10030    2    1    2    0    0  0.00000000000E+00  0.00000000000E+00  0.12714907739E+04  0.42122109971E+04  0.40157231846E+04 0.  0.
        1    1    3    3  502    0  0.94197922033E+03 -0.16108104599E+04  0.14132796253E+04  0.23408106477E+04  0.50400001928E-02 0.  1.
       -1    1    3    3    0  502 -0.94197922033E+03  0.16108104599E+04 -0.14178885139E+03  0.18714003493E+04  0.50400001928E-02 0. -1.
</event>
<event>
 5   0  0.5846812E-08  0.3921462E+04  0.7818609E-02  0.8020580E-01
        2   -1    0    0  501    0  0.00000000000E+00  0.00000000000E+00  0.21261920173E+04  0.21261920173E+04  0.25500000920E-02 0. -1.
       -2   -1    0    0    0  501  0.00000000000E+00  0.00000000000E+00 -0.18081466222E+04  0.18081466222E+04  0.25500000920E-02 0.  1.
    10030    2    1    2    0    0  0.00000000000E+00  0.00000000000E+00  0.31804539504E+03  0.39343386395E+04  0.39214624385E+04 0.  0.
        4    1    3    3  502    0 -0.10993528082E+04 -0.15692295994E+04 -0.25876649589E+03  0.19333959359E+04  0.12699999809E+01 0. -1.
       -4    1    3    3    0  502  0.10993528082E+04  0.15692295994E+04  0.57681189093E+03  0.20009427036E+04  0.12699999809E+01 0.  1.
</event>
<event>
 5   0  0.5846812E-08  0.3976233E+04  0.7818609E-02  0.8009358E-01
       -2   -1    0    0    0  501  0.00000000000E+00  0.00000000000E+00  0.19047300177E+04  0.19047300177E+04  0.25500000920E-02 0.  1.
        2   -1    0    0  501    0  0.00000000000E+00  0.00000000000E+00 -0.20751530847E+04  0.20751530847E+04  0.25500000920E-02 0. -1.
    10030    2    1    2    0    0  0.00000000000E+00  0.00000000000E+00 -0.17042306697E+03  0.39798831024E+04  0.39762325746E+04 0.  0.
        4    1    3    3  502    0  0.13668407686E+04  0.86080314990E+03  0.10748905315E+04  0.19402646771E+04  0.12699999809E+01 0.  1.
       -4    1    3    3    0  502 -0.13668407686E+04 -0.86080314990E+03 -0.12453135985E+04  0.20396184253E+04  0.12699999809E+01 0. -1.
</event>
<event>
 5   0  0.1879500E-08  0.3976600E+04  0.7818609E-02  0.8009284E-01
        1   -1    0    0  501    0  0.00000000000E+00  0.00000000000E+00  0.18315737856E+04  0.18315737856E+04  0.50400001928E-02 0. -1.
       -1   -1    0    0    0  501  0.00000000000E+00  0.00000000000E+00 -0.21584367939E+04  0.21584367939E+04  0.50400001928E-02 0.  1.
    10030    2    1    2    0    0  0.00000000000E+00  0.00000000000E+00 -0.32686300835E+03  0.39900105795E+04  0.39765996779E+04 0.  0.
        1    1    3    3  502    0 -0.31494895727E+03  0.16928361267E+04 -0.11609922765E+04  0.20767258037E+04  0.50400001928E-02 0.  1.
       -1    1    3    3    0  502  0.31494895727E+03 -0.16928361267E+04  0.83412926812E+03  0.19132847758E+04  0.50400001928E-02 0. -1.
</event>
<event>
 5   0  0.1879500E-08  0.4018572E+04  0.7818609E-02  0.8000810E-01
        1   -1    0    0  501    0  0.00000000000E+00  0.00000000000E+00  0.25926718189E+04  0.25926718189E+04  0.50400001928E-02 0.  1.
       -1   -1    0    0    0  501  0.00000000000E+00  0.00000000000E+00 -0.15571699989E+04  0.15571699990E+04  0.50400001928E-02 0. -1.
    10030    2    1    2    0    0  0.00000000000E+00  0.00000000000E+00  0.10355018199E+04  0.41498418178E+04  0.40185722706E+04 0.  0.
        5    1    3    3  502    0  0.19469870196E+04 -0.45991495825E+03  0.32475438950E+03  0.20267628689E+04  0.46999998093E+01 0. -1.
       -5    1    3    3    0  502 -0.19469870196E+04  0.45991495825E+03  0.71074743042E+03  0.21230789489E+04  0.46999998093E+01 0.  1.
</event>
<event>
 5   0  0.1879500E-08  0.3997935E+04  0.7818609E-02  0.8004963E-01
       -1   -1    0    0    0  501  0.00000000000E+00  0.00000000000E+00  0.28218638265E+04  0.28218638265E+04  0.50400001928E-02 0.  1.
        1   -1    0    0  501    0  0.00000000000E+00  0.00000000000E+00 -0.14160395795E+04  0.14160395795E+04  0.50400001928E-02 0. -1.
    10030    2    1    2    0    0  0.00000000000E+00  0.00000000000E+00  0.14058242470E+04  0.42379034061E+04  0.39979349001E+04 0.  0.
        3    1    3    3  502    0  0.41779951548E+02 -0.15687441877E+04  0.20154446122E+04  0.25543533205E+04  0.10100000352E+00 0.  1.
       -3    1    3    3    0  502 -0.41779951548E+02  0.15687441877E+04 -0.60962036516E+03  0.16835500856E+04  0.10100000352E+00 0. -1.
</event>
<event>
 5   0  0.5846812E-08  0.4003953E+04  0.7818609E-02  0.8003750E-01
       -2   -1    0    0    0  501  0.00000000000E+00  0.00000000000E+00  0.16499203044E+04  0.16499203044E+04  0.25500000920E-02 0. -1.
        2   -1    0    0  501    0  0.00000000000E+00  0.00000000000E+00 -0.24291538983E+04  0.24291538983E+04  0.25500000920E-02 0.  1.
    10030    2    1    2    0    0  0.00000000000E+00  0.00000000000E+00 -0.77923359390E+03  0.40790742027E+04  0.40039532162E+04 0.  0.
        4    1    3    3  502    0  0.49953981558E+03  0.38744291009E+02  0.15850124037E+04  0.16623197888E+04  0.12699999809E+01 0. -1.
       -4    1    3    3    0  502 -0.49953981558E+03 -0.38744291009E+02 -0.23642459976E+04  0.24167544140E+04  0.12699999809E+01 0.  1.
</event>
<event>
 5   0  0.1879500E-08  0.4004009E+04  0.7818609E-02  0.8003738E-01
        1   -1    0    0  501    0  0.00000000000E+00  0.00000000000E+00  0.19594707955E+04  0.19594707955E+04  0.50400001928E-02 0. -1.
       -1   -1    0    0    0  501  0.00000000000E+00  0.00000000000E+00 -0.20454618391E+04  0.20454618391E+04  0.50400001928E-02 0.  1.
    10030    2    1    2    0    0  0.00000000000E+00  0.00000000000E+00 -0.85991043634E+02  0.40049326347E+04  0.40040093592E+04 0.  0.
        4    1    3    3  502    0  0.10534682080E+04  0.16345725480E+04 -0.51891869398E+03  0.20126849986E+04  0.12699999809E+01 0.  1.
       -4    1    3    3    0  502 -0.10534682080E+04 -0.16345725480E+04  0.43292765034E+03  0.19922476360E+04  0.12699999809E+01 0. -1.
</event>
<event>
 5   0  0.6161563E-08  0.4007815E+04  0.7818609E-02  0.8002972E-01
        2   -1    0    0  501    0  0.00000000000E+00  0.00000000000E+00  0.14853660472E+04  0.14853660472E+04  0.25500000920E-02 0.  1.
       -2   -1    0    0    0  501  0.00000000000E+00  0.00000000000E+00 -0.27034714769E+04  0.27034714769E+04  0.25500000920E-02 0. -1.
    10030    2    1    2    0    0  0.00000000000E+00  0.00000000000E+00 -0.12181054297E+04  0.41888375241E+04  0.40078147369E+04 0.  0.
        1    1    3    3  502    0  0.16716340031E+04  0.43928553669E+03  0.45080723451E+03  0.17862136451E+04  0.50400001928E-02 0.  1.
       -1    1    3    3    0  502 -0.16716340031E+04 -0.43928553669E+03 -0.16689126642E+04  0.24026238790E+04  0.50400001928E-02 0. -1.
</event>
<event>
 5   0  0.1879500E-08  0.3993035E+04  0.7818609E-02  0.8005953E-01
        1   -1    0    0  501    0  0.00000000000E+00  0.00000000000E+00  0.21049168622E+04  0.21049168622E+04  0.50400001928E-02 0. -1.
       -1   -1    0    0    0  501  0.00000000000E+00  0.00000000000E+00 -0.18937001484E+04  0.18937001485E+04  0.50400001928E-02 0.  1.
    10030    2    1    2    0    0  0.00000000000E+00  0.00000000000E+00  0.21121671372E+03  0.39986170106E+04  0.39930346226E+04 0.  0.
        5    1    3    3  502    0  0.24534566048E+03 -0.17210957700E+04  0.10886600212E+04  0.20512356945E+04  0.46999998093E+01 0. -1.
       -5    1    3    3    0  502 -0.24534566048E+03  0.17210957700E+04 -0.87744330747E+03  0.19473813161E+04  0.46999998093E+01 0.  1.
</event>
<event>
 5   0  0.5945387E-08  0.3978753E+04  0.7818609E-02  0.8008847E-01
        2   -1    0    0  501    0  0.00000000000E+00  0.00000000000E+00  0.18301169611E+04  0.18301169611E+04  0.25500000920E-02 0.  1.
       -2   -1    0    0    0  501  0.00000000000E+00  0.00000000000E+00 -0.21624949961E+04  0.21624949961E+04  0.25500000920E-02 0. -1.
    10030    2    1    2    0    0  0.00000000000E+00  0.00000000000E+00 -0.33237803499E+03  0.39926119571E+04  0.39787529557E+04 0.  0.
        3    1    3    3  502    0  0.11181410849E+04 -0.32225347151E+03 -0.17853558040E+04  0.21310988111E+04  0.10100000352E+00 0. -1.
       -3    1    3    3    0  502 -0.11181410849E+04  0.32225347151E+03  0.14529777690E+04  0.18615131461E+04  0.10100000352E+00 0.  1.
</event>
<event>
 5   0  0.6161563E-08  0.3923628E+04  0.7818609E-02  0.8020133E-01
        2   -1    0    0  501    0  0.00000000000E+00  0.00000000000E+00  0.13528106983E+04  0.13528106984E+04  0.25500000920E-02 0. -1.
       -2   -1    0    0    0  501  0.00000000000E+00  0.00000000000E+00 -0.28449758529E+04  0.28449758529E+04  0.25500000920E-02 0.  1.
    10030    2    1    2    0    0  0.00000000000E+00  0.00000000000E+00 -0.14921651546E+04  0.41977865513E+04  0.39236277960E+04 0.  0.
        1    1    3    3  502    0  0.41241300713E+03  0.13234489550E+04  0.73912119484E+03  0.15709556854E+04  0.50400001928E-02 0. -1.
       -1    1    3    3    0  502 -0.41241300713E+03 -0.13234489550E+04 -0.22312863494E+04  0.26268308659E+04  0.50400001928E-02 0.  1.
</event>
<event>
 5   0  0.1879500E-08  0.3993075E+04  0.7818609E-02  0.8005945E-01
        1   -1    0    0  501    0  0.00000000000E+00  0.00000000000E+00  0.11559573347E+04  0.11559573347E+04  0.50400001928E-02 0.  1.
       -1   -1    0    0    0  501  0.00000000000E+00  0.00000000000E+00 -0.34483643997E+04  0.34483643997E+04  0.50400001928E-02 0. -1.
    10030    2    1    2    0    0  0.00000000000E+00  0.00000000000E+00 -0.22924070650E+04  0.46043217344E+04  0.39930750659E+04 0.  0.
        5    1    3    3  502    0 -0.11759714907E+04  0.99073575458E+03 -0.26145885062E+04  0.30332427251E+04  0.46999998093E+01 0. -1.
       -5    1    3    3    0  502  0.11759714907E+04 -0.99073575458E+03  0.32218144125E+03  0.15710790093E+04  0.46999998093E+01 0.  1.
</event>
<event>
 5   0  0.1879500E-08  0.3965026E+04  0.7818609E-02  0.8011639E-01
        1   -1    0    0  501    0  0.00000000000E+00  0.00000000000E+00  0.24269458767E+04  0.24269458768E+04  0.50400001928E-02 0.  1.
       -1   -1    0    0    0  501  0.00000000000E+00  0.00000000000E+00 -0.16194668726E+04  0.16194668726E+04  0.50400001928E-02 0. -1.
    10030    2    1    2    0    0  0.00000000000E+00  0.00000000000E+00  0.80747900415E+03  0.40464127494E+04  0.39650263298E+04 0.  0.
        2    1    3    3  502    0 -0.11365239547E+04  0.87857200069E+03 -0.99060799723E+03  0.17449583560E+04  0.25500000920E-02 0. -1.
       -2    1    3    3    0  502  0.11365239547E+04 -0.87857200069E+03  0.17980870014E+04  0.23014543933E+04  0.25500000920E-02 0.  1.
</event>
<event>
 5   0  0.5951623E-08  0.3994533E+04  0.7818609E-02  0.8005650E-01
       -2   -1    0    0    0  501  0.00000000000E+00  0.00000000000E+00  0.14290268823E+04  0.14290268823E+04  0.25500000920E-02 0.  1.
        2   -1    0    0  501    0  0.00000000000E+00  0.00000000000E+00 -0.27914616280E+04  0.27914616280E+04  0.25500000920E-02 0. -1.
    10030    2    1    2    0    0  0.00000000000E+00  0.00000000000E+00 -0.13624347457E+04  0.42204885103E+04  0.39945331178E+04 0.  0.
        2    1    3    3  502    0 -0.81729099017E+03 -0.41057139581E+03  0.11947575034E+04  0.15046524268E+04  0.25500000920E-02 0.  1.
       -2    1    3    3    0  502  0.81729099017E+03  0.41057139581E+03 -0.25571922491E+04  0.27158360835E+04  0.25500000920E-02 0. -1.
</event>
<event>
 5   0  0.5951623E-08  0.3973426E+04  0.7818609E-02  0.8009929E-01
       -2   -1    0    0    0  501  0.00000000000E+00  0.00000000000E+00  0.17393199536E+04  0.17393199536E+04  0.25500000920E-02 0. -1.
        2   -1    0    0  501    0  0.00000000000E+00  0.00000000000E+00 -0.22692945079E+04  0.22692945079E+04  0.25500000920E-02 0.  1.
    10030    2    1    2    0    0  0.00000000000E+00  0.00000000000E+00 -0.52997455433E+03  0.40086144616E+04  0.39734263392E+04 0.  0.
        2    1    3    3  502    0 -0.16301712411E+04 -0.41835503913E+03 -0.13300591152E+04  0.21451192191E+04  0.25500000920E-02 0. -1.
       -2    1    3    3    0  502  0.16301712411E+04  0.41835503913E+03  0.80008456085E+03  0.18634952425E+04  0.25500000920E-02 0.  1.
</event>
<event>
 5   0  0.1879500E-08  0.4021352E+04  0.7818609E-02  0.8000253E-01
        1   -1    0    0  501    0  0.00000000000E+00  0.00000000000E+00  0.13313387105E+04  0.13313387105E+04  0.50400001928E-02 0. -1.
       -1   -1    0    0    0  501  0.00000000000E+00  0.00000000000E+00 -0.30366560515E+04  0.30366560515E+04  0.50400001928E-02 0.  1.
    10030    2    1    2    0    0  0.00000000000E+00  0.00000000000E+00 -0.17053173410E+04  0.43679947620E+04  0.40213518880E+04 0.  0.
        3    1    3    3  502    0  0.93213270959E+03 -0.10048216375E+04  0.74530439592E+03  0.15601335085E+04  0.10100000352E+00 0. -1.
       -3    1    3    3    0  502 -0.93213270959E+03  0.10048216375E+04 -0.24506217369E+04  0.28078612536E+04  0.10100000352E+00 0.  1.
</event>
<event>
 5   0  0.1879500E-08  0.3954072E+04  0.7818609E-02  0.8013876E-01
        1   -1    0    0  501    0  0.00000000000E+00  0.00000000000E+00  0.15350411474E+04  0.15350411474E+04  0.50400001928E-02 0.  1.
       -1   -1    0    0    0  501  0.00000000000E+00  0.00000000000E+00 -0.25462973306E+04  0.25462973306E+04  0.50400001928E-02 0. -1.
    10030    2    1    2    0    0  0.00000000000E+00  0.00000000000E+00 -0.10112561832E+04  0.40813384780E+04  0.39540719144E+04 0.  0.
        2    1    3    3  502    0  0.22536719656E+03 -0.54259492822E+03  0.14428462789E+04  0.15578847884E+04  0.25500000920E-02 0.  1.
       -2    1    3    3    0  502 -0.22536719656E+03  0.54259492822E+03 -0.24541024621E+04  0.25234536897E+04  0.25500000920E-02 0. -1.
</event>
<event>
 5   0  0.6161563E-08  0.3995841E+04  0.7818609E-02  0.8005386E-01
       -2   -1    0    0    0  501  0.00000000000E+00  0.00000000000E+00  0.18821012660E+04  0.18821012660E+04  0.25500000920E-02 0. -1.
        2   -1    0    0  501    0  0.00000000000E+00  0.00000000000E+00 -0.21208672614E+04  0.21208672614E+04  0.25500000920E-02 0.  1.
    10030    2    1    2    0    0  0.00000000000E+00  0.00000000000E+00 -0.23876599538E+03  0.40029685274E+04  0.39958413170E+04 0.  0.
        1    1    3    3  502    0  0.14047335572E+04  0.11457704871E+04  0.72212754693E+03  0.19512904884E+04  0.50400001928E-02 0. -1.
       -1    1    3    3    0  502 -0.14047335572E+04 -0.11457704871E+04 -0.96089354231E+03  0.20516780390E+04  0.50400001928E-02 0.  1.
</event>
<event>
 5   0  0.1879500E-08  0.3995559E+04  0.7818609E-02  0.8005443E-01
        1   -1    0    0  501    0  0.00000000000E+00  0.00000000000E+00  0.20811509940E+04  0.20811509940E+04  0.50400001928E-02 0. -1.
       -1   -1    0    0    0  501  0.00000000000E+00  0.00000000000E+00 -0.19177474162E+04  0.19177474162E+04  0.50400001928E-02 0.  1.
    10030    2    1    2    0    0  0.00000000000E+00  0.00000000000E+00  0.16340357780E+03  0.39988984102E+04  0.39955585049E+04 0.  0.
        4    1    3    3  502    0 -0.18085349386E+04  0.79087392815E+03  0.38992046975E+03  0.20120436824E+04  0.12699999809E+01 0. -1.
       -4    1    3    3    0  502  0.18085349386E+04 -0.79087392815E+03 -0.22651689195E+03  0.19868547278E+04  0.12699999809E+01 0.  1.
</event>
<event>
 5   0  0.6161563E-08  0.4170225E+04  0.7818609E-02  0.7971060E-01
       -2   -1    0    0    0  501  0.00000000000E+00  0.00000000000E+00  0.19841342583E+04  0.19841342583E+04  0.25500000920E-02 0. -1.
        2   -1    0    0  501    0  0.00000000000E+00  0.00000000000E+00 -0.21912295213E+04  0.21912295213E+04  0.25500000920E-02 0.  1.
    10030    2    1    2    0    0  0.00000000000E+00  0.00000000000E+00 -0.20709526296E+03  0.41753637795E+04  0.41702247234E+04 0.  0.
        1    1    3    3  502    0  0.50079141711E+03  0.65629583291E+03  0.18135383552E+04  0.19925957015E+04  0.50400001928E-02 0. -1.
       -1    1    3    3    0  502 -0.50079141711E+03 -0.65629583291E+03 -0.20206336182E+04  0.21827680781E+04  0.50400001928E-02 0.  1.
</event>
<event>
 5   0  0.1879500E-08  0.3981544E+04  0.7818609E-02  0.8008280E-01
       -1   -1    0    0    0  501  0.00000000000E+00  0.00000000000E+00  0.19863211802E+04  0.19863211802E+04  0.50400001928E-02 0.  1.
        1   -1    0    0  501    0  0.00000000000E+00  0.00000000000E+00 -0.19952332167E+04  0.19952332167E+04  0.50400001928E-02 0. -1.
    10030    2    1    2    0    0  0.00000000000E+00  0.00000000000E+00 -0.89120364936E+01  0.39815543970E+04  0.39815444229E+04 0.  0.
        1    1    3    3  502    0 -0.12386951488E+04 -0.72942685004E+03 -0.13816830510E+04  0.19938598884E+04  0.50400001928E-02 0. -1.
       -1    1    3    3    0  502  0.12386951488E+04  0.72942685004E+03  0.13727710145E+04  0.19876945086E+04  0.50400001928E-02 0.  1.
</event>
<event>
 5   0  0.5846812E-08  0.3979522E+04  0.7818609E-02  0.8008690E-01
       -2   -1    0    0    0  501  0.00000000000E+00  0.00000000000E+00  0.24186831768E+04  0.24186831768E+04  0.25500000920E-02 0.  1.
        2   -1    0    0  501    0  0.00000000000E+00  0.00000000000E+00 -0.16369028767E+04  0.16369028767E+04  0.25500000920E-02 0. -1.
    10030    2    1    2    0    0  0.00000000000E+00  0.00000000000E+00  0.78178030004E+03  0.40555860535E+04  0.39795223080E+04 0.  0.
        4    1    3    3  502    0 -0.66420849263E+03  0.44421841254E+03  0.22479841910E+04  0.23857781656E+04  0.12699999809E+01 0.  1.
       -4    1    3    3    0  502  0.66420849263E+03 -0.44421841254E+03 -0.14662038910E+04  0.16698078879E+04  0.12699999809E+01 0. -1.
</event>
<event>
 5   0  0.5945387E-08  0.4001545E+04  0.7818609E-02  0.8004235E-01
       -2   -1    0    0    0  501  0.00000000000E+00  0.00000000000E+00  0.24428413396E+04  0.24428413396E+04  0.25500000920E-02 0. -1.
        2   -1    0    0  501    0  0.00000000000E+00  0.00000000000E+00 -0.16387022899E+04  0.16387022899E+04  0.25500000920E-02 0.  1.
    10030    2    1    2    0    0  0.00000000000E+00  0.00000000000E+00  0.80413904968E+03  0.40815436296E+04  0.40015445504E+04 0.  0.
        3    1    3    3  502    0 -0.82837467180E+03 -0.86955506550E+03  0.20342987414E+04  0.23623509452E+04  0.10100000352E+00 0. -1.
       -3    1    3    3    0  502  0.82837467180E+03  0.86955506550E+03 -0.12301596917E+04  0.17191926844E+04  0.10100000352E+00 0.  1.
</event>
<event>
 5   0  0.5951623E-08  0.3985034E+04  0.7818609E-02  0.8007572E-01
        2   -1    0    0  501    0  0.00000000000E+00  0.00000000000E+00  0.13902657416E+04  0.13902657416E+04  0.25500000920E-02 0. -1.
       -2   -1    0    0    0  501  0.00000000000E+00  0.00000000000E+00 -0.28556590758E+04  0.28556590758E+04  0.25500000920E-02 0.  1.
    10030    2    1    2    0    0  0.00000000000E+00  0.00000000000E+00 -0.14653933342E+04  0.42459248174E+04  0.39850344956E+04 0.  0.
        2    1    3    3  502    0  0.16155912344E+04 -0.11223163580E+04 -0.10702934404E+04  0.22394769686E+04  0.25500000920E-02 0. -1.
       -2    1    3    3    0  502 -0.16155912344E+04  0.11223163580E+04 -0.39509989375E+03  0.20064478489E+04  0.25500000920E-02 0.  1.
</event>
<event>
 5   0  0.6161563E-08  0.4001006E+04  0.7818609E-02  0.8004344E-01
       -2   -1    0    0    0  501  0.00000000000E+00  0.00000000000E+00  0.26505761899E+04  0.26505761899E+04  0.25500000920E-02 0. -1.
        2   -1    0    0  501    0  0.00000000000E+00  0.00000000000E+00 -0.15098653731E+04  0.15098653731E+04  0.25500000920E-02 0.  1.
    10030    2    1    2    0    0  0.00000000000E+00  0.00000000000E+00  0.11407108168E+04  0.41604415630E+04  0.40010064773E+04 0.  0.
        1    1    3    3  502    0  0.10618763129E+04  0.14047842439E+04 -0.41668681746E+03  0.18095933188E+04  0.50400001928E-02 0.  1.
       -1    1    3    3    0  502 -0.10618763129E+04 -0.14047842439E+04  0.15573976343E+04  0.23508482441E+04  0.50400001928E-02 0. -1.
</event>
<event>
 5   0  0.1879500E-08  0.3786073E+04  0.7818609E-02  0.8049150E-01
       -1   -1    0    0    0  501  0.00000000000E+00  0.00000000000E+00  0.13968017606E+04  0.13968017606E+04  0.50400001928E-02 0. -1.
        1   -1    0    0  501    0  0.00000000000E+00  0.00000000000E+00 -0.25655657932E+04  0.25655657932E+04  0.50400001928E-02 0.  1.
    10030    2    1    2    0    0  0.00000000000E+00  0.00000000000E+00 -0.11687640326E+04  0.39623675539E+04  0.37860728028E+04 0.  0.
        4    1    3    3  502    0 -0.10047788985E+04  0.59375599366E+03 -0.21442393867E+04  0.24412887939E+04  0.12699999809E+01 0.  1.
       -4    1    3    3    0  502  0.10047788985E+04 -0.59375599366E+03  0.97547535407E+03  0.15210787600E+04  0.12699999809E+01 0. -1.
</event>
<event>
 5   0  0.5951623E-08  0.3997579E+04  0.7818609E-02  0.8005035E-01
        2   -1    0    0  501    0  0.00000000000E+00  0.00000000000E+00  0.20639232493E+04  0.20639232493E+04  0.25500000920E-02 0.  1.
       -2   -1    0    0    0  501  0.00000000000E+00  0.00000000000E+00 -0.19357117049E+04  0.19357117049E+04  0.25500000920E-02 0. -1.
    10030    2    1    2    0    0  0.00000000000E+00  0.00000000000E+00  0.12821154449E+03  0.39996349542E+04  0.39975794635E+04 0.  0.
        2    1    3    3  502    0 -0.51382585454E+03  0.14222684779E+04 -0.12435841633E+04  0.19578984149E+04  0.25500000920E-02 0. -1.
       -2    1    3    3    0  502  0.51382585454E+03 -0.14222684779E+04  0.13717957078E+04  0.20417365393E+04  0.25500000920E-02 0.  1.
</event>
<event>
 5   0  0.1879500E-08  0.4003460E+04  0.7818609E-02  0.8003849E-01
        1   -1    0    0  501    0  0.00000000000E+00  0.00000000000E+00  0.14916014837E+04  0.14916014837E+04  0.50400001928E-02 0. -1.
       -1   -1    0    0    0  501  0.00000000000E+00  0.00000000000E+00 -0.26863224711E+04  0.26863224711E+04  0.50400001928E-02 0.  1.
    10030    2    1    2    0    0  0.00000000000E+00  0.00000000000E+00 -0.11947209874E+04  0.41779239548E+04  0.40034597955E+04 0.  0.
        5    1    3    3  502    0  0.88594366316E+03  0.13436606423E+04  0.64470836504E+03  0.17337794156E+04  0.46999998093E+01 0. -1.
       -5    1    3    3    0  502 -0.88594366316E+03 -0.13436606423E+04 -0.18394293525E+04  0.24441445392E+04  0.46999998093E+01 0.  1.
</event>
<event>
 5   0  0.1879500E-08  0.3996023E+04  0.7818609E-02  0.8005349E-01
        1   -1    0    0  501    0  0.00000000000E+00  0.00000000000E+00  0.15483668325E+04  0.15483668325E+04  0.50400001928E-02 0. -1.
       -1   -1    0    0    0  501  0.00000000000E+00  0.00000000000E+00 -0.25782323593E+04  0.25782323593E+04  0.50400001928E-02 0.  1.
    10030    2    1    2    0    0  0.00000000000E+00  0.00000000000E+00 -0.10298655268E+04  0.41265991918E+04  0.39960227585E+04 0.  0.
        4    1    3    3  502    0  0.12055854958E+04  0.24193803640E+03  0.11113533672E+04  0.16574312416E+04  0.12699999809E+01 0. -1.
       -4    1    3    3    0  502 -0.12055854958E+04 -0.24193803640E+03 -0.21412188940E+04  0.24691679501E+04  0.12699999809E+01 0.  1.
</event>
<event>
 5   0  0.1879500E-08  0.3987241E+04  0.7818609E-02  0.8007125E-01
        1   -1    0    0  501    0  0.00000000000E+00  0.00000000000E+00  0.12994499183E+04  0.12994499183E+04  0.50400001928E-02 0. -1.
       -1   -1    0    0    0  501  0.00000000000E+00  0.00000000000E+00 -0.30586193516E+04  0.30586193516E+04  0.50400001928E-02 0.  1.
    10030    2    1    2    0    0  0.00000000000E+00  0.00000000000E+00 -0.17591694333E+04  0.43580692699E+04  0.39872409842E+04 0.  0.
        2    1    3    3  502    0  0.18414119300E+04  0.49404561129E+03 -0.15165759111E+04  0.24361612131E+04  0.25500000920E-02 0. -1.
       -2    1    3    3    0  502 -0.18414119300E+04 -0.49404561129E+03 -0.24259352224E+03  0.19219080568E+04  0.25500000920E-02 0.  1.
</event>
<event>
 5   0  0.1879500E-08  0.3997271E+04  0.7818609E-02  0.8005097E-01
        1   -1    0    0  501    0  0.00000000000E+00  0.00000000000E+00  0.22048058633E+04  0.22048058633E+04  0.50400001928E-02 0. -1.
       -1   -1    0    0    0  501  0.00000000000E+00  0.00000000000E+00 -0.18117438358E+04  0.18117438358E+04  0.50400001928E-02 0.  1.
    10030    2    1    2    0    0  0.00000000000E+00  0.00000000000E+00  0.39306202754E+03  0.40165496991E+04  0.39972707849E+04 0.  0.
        5    1    3    3  502    0 -0.29309801339E+03  0.16251246742E+04  0.13278317460E+04  0.21189846360E+04  0.46999998093E+01 0. -1.
       -5    1    3    3    0  502  0.29309801339E+03 -0.16251246742E+04 -0.93476971842E+03  0.18975650631E+04  0.46999998093E+01 0.  1.
</event>
<event>
 5   0  0.6161563E-08  0.4011810E+04  0.7818609E-02  0.8002168E-01
       -2   -1    0    0    0  501  0.00000000000E+00  0.00000000000E+00  0.13774192425E+04  0.13774192425E+04  0.25500000920E-02 0. -1.
        2   -1    0    0  501    0  0.00000000000E+00  0.00000000000E+00 -0.29211548731E+04  0.29211548731E+04  0.25500000920E-02 0.  1.
    10030    2    1    2    0    0  0.00000000000E+00  0.00000000000E+00 -0.15437356306E+04  0.42985741156E+04  0.40118100316E+04 0.  0.
        1    1    3    3  502    0  0.67754237002E+03  0.11067594049E+04  0.86706751043E+03  0.15607005194E+04  0.50400001928E-02 0. -1.
       -1    1    3    3    0  502 -0.67754237002E+03 -0.11067594049E+04 -0.24108031411E+04  0.27378735962E+04  0.50400001928E-02 0.  1.
</event>
<event>
 5   0  0.5846812E-08  0.3997634E+04  0.7818609E-02  0.8005024E-01
        2   -1    0    0  501    0  0.00000000000E+00  0.00000000000E+00  0.21155866605E+04  0.21155866605E+04  0.25500000920E-02 0. -1.
       -2   -1    0    0    0  501  0.00000000000E+00  0.00000000000E+00 -0.18884925756E+04  0.18884925756E+04  0.25500000920E-02 0.  1.
    10030    2    1    2    0    0  0.00000000000E+00  0.00000000000E+00  0.22709408487E+03  0.40040792362E+04  0.39976341511E+04 0.  0.
        4    1    3    3  502    0 -0.15869174428E+03 -0.28794443439E+02 -0.18819641407E+04  0.18888628403E+04  0.12699999809E+01 0.  1.
       -4    1    3    3    0  502  0.15869174428E+03  0.28794443439E+02  0.21090582256E+04  0.21152163959E+04  0.12699999809E+01 0. -1.
</event>
<event>
 5   0  0.5945387E-08  0.4080949E+04  0.7818609E-02  0.7988413E-01
        2   -1    0    0  501    0  0.00000000000E+00  0.00000000000E+00  0.14254815016E+04  0.14254815016E+04  0.25500000920E-02 0. -1.
       -2   -1    0    0    0  501  0.00000000000E+00  0.00000000000E+00 -0.29207923956E+04  0.29207923956E+04  0.25500000920E-02 0.  1.
    10030    2    1    2    0    0  0.00000000000E+00  0.00000000000E+00 -0.14953108940E+04  0.43462738972E+04  0.40809486789E+04 0.  0.
        3    1    3    3  502    0  0.45555554384E+03  0.19842164516E+04 -0.89403113249E+03  0.22234966733E+04  0.10100000352E+00 0. -1.
       -3    1    3    3    0  502 -0.45555554384E+03 -0.19842164516E+04 -0.60127976149E+03  0.21227772238E+04  0.10100000352E+00 0.  1.
</event>
<event>
 5   0  0.1879500E-08  0.4014142E+04  0.7818609E-02  0.8001700E-01
       -1   -1    0    0    0  501  0.00000000000E+00  0.00000000000E+00  0.22997589059E+04  0.22997589059E+04  0.50400001928E-02 0.  1.
        1   -1    0    0  501    0  0.00000000000E+00  0.00000000000E+00 -0.17516330534E+04  0.17516330534E+04  0.50400001928E-02 0. -1.
    10030    2    1    2    0    0  0.00000000000E+00  0.00000000000E+00  0.54812585249E+03  0.40513919593E+04  0.40141418582E+04 0.  0.
        2    1    3    3  502    0  0.17385318186E+04 -0.37710030407E+03 -0.66388118739E+03  0.18987985029E+04  0.25500000920E-02 0. -1.
       -2    1    3    3    0  502 -0.17385318186E+04  0.37710030407E+03  0.12120070399E+04  0.21525934564E+04  0.25500000920E-02 0.  1.
</event>
<event>
 5   0  0.1879500E-08  0.3987975E+04  0.7818609E-02  0.8006977E-01
        1   -1    0    0  501    0  0.00000000000E+00  0.00000000000E+00  0.34808017675E+04  0.34808017675E+04  0.50400001928E-02 0. -1.
       -1   -1    0    0    0  501  0.00000000000E+00  0.00000000000E+00 -0.11422613791E+04  0.11422613791E+04  0.50400001928E-02 0.  1.
    10030    2    1    2    0    0  0.00000000000E+00  0.00000000000E+00  0.23385403884E+04  0.46230631466E+04  0.39879746375E+04 0.  0.
        2    1    3    3  502    0  0.10533838679E+04  0.15687389220E+04  0.19074008833E+04  0.26849092179E+04  0.25500000920E-02 0. -1.
       -2    1    3    3    0  502 -0.10533838679E+04 -0.15687389220E+04  0.43113950507E+03  0.19381539287E+04  0.25500000920E-02 0.  1.
</event>
<event>
 5   0  0.1879500E-08  0.4005335E+04  0.7818609E-02  0.8003471E-01
       -1   -1    0    0    0  501  0.00000000000E+00  0.00000000000E+00  0.16386728059E+04  0.16386728059E+04  0.50400001928E-02 0.  1.
        1   -1    0    0  501    0  0.00000000000E+00  0.00000000000E+00 -0.24475160160E+04  0.24475160160E+04  0.50400001928E-02 0. -1.
    10030    2    1    2    0    0  0.00000000000E+00  0.00000000000E+00 -0.80884321010E+03  0.40861888220E+04  0.40053354105E+04 0.  0.
        4    1    3    3  502    0  0.20957577532E+03 -0.17916488041E+04  0.48305197942E+03  0.18674228955E+04  0.12699999809E+01 0. -1.
       -4    1    3    3    0  502 -0.20957577532E+03  0.17916488041E+04 -0.12918951895E+04  0.22187659265E+04  0.12699999809E+01 0.  1.
</event>
<event>
 5   0  0.1879500E-08  0.3993516E+04  0.7818609E-02  0.8005856E-01
       -1   -1    0    0    0  501  0.00000000000E+00  0.00000000000E+00  0.22414490611E+04  0.22414490611E+04  0.50400001928E-02 0. -1.
        1   -1    0    0  501    0  0.00000000000E+00  0.00000000000E+00 -0.17787792053E+04  0.17787792053E+04  0.50400001928E-02 0.  1.
    10030    2    1    2    0    0  0.00000000000E+00  0.00000000000E+00  0.46266985581E+03  0.40202282664E+04  0.39935162349E+04 0.  0.
        3    1    3    3  502    0 -0.50559554558E+03  0.18368670606E+04 -0.37043897511E+03  0.19408587013E+04  0.10100000352E+00 0.  1.
       -3    1    3    3    0  502  0.50559554558E+03 -0.18368670606E+04  0.83310883092E+03  0.20793695651E+04  0.10100000352E+00 0. -1.
</event>
<event>
 5   0  0.5846812E-08  0.3999472E+04  0.7818609E-02  0.8004653E-01
        2   -1    0    0  501    0  0.00000000000E+00  0.00000000000E+00  0.21384077527E+04  0.21384077527E+04  0.25500000920E-02 0.  1.
       -2   -1    0    0    0  501  0.00000000000E+00  0.00000000000E+00 -0.18700572590E+04  0.18700572590E+04  0.25500000920E-02 0. -1.
    10030    2    1    2    0    0  0.00000000000E+00  0.00000000000E+00  0.26835049366E+03  0.40084650117E+04  0.39994724355E+04 0.  0.
        4    1    3    3  502    0 -0.12940217505E+04  0.92818351064E+03 -0.10780592229E+04  0.19230783190E+04  0.12699999809E+01 0. -1.
       -4    1    3    3    0  502  0.12940217505E+04 -0.92818351064E+03  0.13464097166E+04  0.20853866927E+04  0.12699999809E+01 0.  1.
</event>
<event>
 5   0  0.5888700E-08  0.3980271E+04  0.7818609E-02  0.8008538E-01
        2   -1    0    0  501    0  0.00000000000E+00  0.00000000000E+00  0.26048748303E+04  0.26048748303E+04  0.25500000920E-02 0.  1.
       -2   -1    0    0    0  501  0.00000000000E+00  0.00000000000E+00 -0.15204722823E+04  0.15204722823E+04  0.25500000920E-02 0. -1.
    10030    2    1    2    0    0  0.00000000000E+00  0.00000000000E+00  0.10844025480E+04  0.41253471127E+04  0.39802713367E+04 0.  0.
        5    1    3    3  502    0  0.92365456800E+03  0.87193589688E+03  0.21301029180E+04  0.24800746966E+04  0.46999998093E+01 0.  1.
       -5    1    3    3    0  502 -0.92365456800E+03 -0.87193589688E+03 -0.10457003700E+04  0.16452724161E+04  0.46999998093E+01 0. -1.
</event>
<event>
 5   0  0.1879500E-08  0.4010509E+04  0.7818609E-02  0.8002430E-01
        1   -1    0    0  501    0  0.00000000000E+00  0.00000000000E+00  0.27830558396E+04  0.27830558396E+04  0.50400001928E-02 0.  1.
       -1   -1    0    0    0  501  0.00000000000E+00  0.00000000000E+00 -0.14448308004E+04  0.14448308005E+04  0.50400001928E-02 0. -1.
    10030    2    1    2    0    0  0.00000000000E+00  0.00000000000E+00  0.13382250391E+04  0.42278866400E+04  0.40105085944E+04 0.  0.
        5    1    3    3  502    0  0.38574188183E+02  0.44427678282E+03 -0.13918870921E+04  0.14615887229E+04  0.46999998093E+01 0. -1.
       -5    1    3    3    0  502 -0.38574188183E+02 -0.44427678282E+03  0.27301121312E+04  0.27662979172E+04  0.46999998093E+01 0.  1.
</event>
<event>
 5   0  0.6161563E-08  0.4108128E+04  0.7818609E-02  0.7983082E-01
       -2   -1    0    0    0  501  0.00000000000E+00  0.00000000000E+00  0.16245573637E+04  0.16245573637E+04  0.25500000920E-02 0. -1.
        2   -1    0    0  501    0  0.00000000000E+00  0.00000000000E+00 -0.25971254969E+04  0.25971254969E+04  0.25500000920E-02 0.  1.
    10030    2    1    2    0    0  0.00000000000E+00  0.00000000000E+00 -0.97256813318E+03  0.42216828605E+04  0.41081282114E+04 0.  0.
        1    1    3    3  502    0  0.11313294328E+03 -0.14408648087E+04  0.10136109682E+04  0.17653038420E+04  0.50400001928E-02 0. -1.
       -1    1    3    3    0  502 -0.11313294328E+03  0.14408648087E+04 -0.19861791014E+04  0.24563790185E+04  0.50400001928E-02 0.  1.
</event>
<event>
 5   0  0.5951623E-08  0.3998314E+04  0.7818609E-02  0.8004887E-01
       -2   -1    0    0    0  501  0.00000000000E+00  0.00000000000E+00  0.18006195047E+04  0.18006195047E+04  0.25500000920E-02 0.  1.
        2   -1    0    0  501    0  0.00000000000E+00  0.00000000000E+00 -0.22195852281E+04  0.22195852281E+04  0.25500000920E-02 0. -1.
    10030    2    1    2    0    0  0.00000000000E+00  0.00000000000E+00 -0.41896572347E+03  0.40202047328E+04  0.39983138717E+04 0.  0.
        2    1    3    3  502    0 -0.15896687132E+03  0.12030729646E+04  0.13879171239E+04  0.18436292922E+04  0.25500000920E-02 0.  1.
       -2    1    3    3    0  502  0.15896687132E+03 -0.12030729646E+04 -0.18068828474E+04  0.21765754406E+04  0.25500000920E-02 0. -1.
</event>
<event>
 5   0  0.5951623E-08  0.3987353E+04  0.7818609E-02  0.8007103E-01
        2   -1    0    0  501    0  0.00000000000E+00  0.00000000000E+00  0.19439040429E+04  0.19439040429E+04  0.25500000920E-02 0. -1.
       -2   -1    0    0    0  501  0.00000000000E+00  0.00000000000E+00 -0.20447235081E+04  0.20447235081E+04  0.25500000920E-02 0.  1.
    10030    2    1    2    0    0  0.00000000000E+00  0.00000000000E+00 -0.10081946518E+03  0.39886275510E+04  0.39873531542E+04 0.  0.
        2    1    3    3  502    0  0.90772631214E+02 -0.56598292910E+03  0.18596952443E+04  0.19460325661E+04  0.25500000920E-02 0. -1.
       -2    1    3    3    0  502 -0.90772631214E+02  0.56598292910E+03 -0.19605147094E+04  0.20425949850E+04  0.25500000920E-02 0.  1.
</event>
<event>
 5   0  0.1879500E-08  0.3912697E+04  0.7818609E-02  0.8022394E-01
       -1   -1    0    0    0  501  0.00000000000E+00  0.00000000000E+00  0.16286827453E+04  0.16286827454E+04  0.50400001928E-02 0.  1.
        1   -1    0    0  501    0  0.00000000000E+00  0.00000000000E+00 -0.23499356433E+04  0.23499356433E+04  0.50400001928E-02 0. -1.
    10030    2    1    2    0    0  0.00000000000E+00  0.00000000000E+00 -0.72125289795E+03  0.39786183887E+04  0.39126970928E+04 0.  0.
        4    1    3    3  502    0  0.36619103083E+03  0.24641642889E+03 -0.22986441493E+04  0.23406374058E+04  0.12699999809E+01 0. -1.
       -4    1    3    3    0  502 -0.36619103083E+03 -0.24641642889E+03  0.15773912513E+04  0.16379809828E+04  0.12699999809E+01 0.  1.
</event>
<event>
 5   0  0.1879500E-08  0.4014290E+04  0.7818609E-02  0.8001670E-01
       -1   -1    0    0    0  501  0.00000000000E+00  0.00000000000E+00  0.17920333507E+04  0.17920333507E+04  0.50400001928E-02 0.  1.
        1   -1    0    0  501    0  0.00000000000E+00  0.00000000000E+00 -0.22480782956E+04  0.22480782956E+04  0.50400001928E-02 0. -1.
    10030    2    1    2    0    0  0.00000000000E+00  0.00000000000E+00 -0.45604494494E+03  0.40401116463E+04  0.40142901145E+04 0.  0.
        1    1    3    3  502    0 -0.31691376252E+03 -0.11956547126E+04  0.13628434016E+04  0.18404800086E+04  0.50400001928E-02 0.  1.
       -1    1    3    3    0  502  0.31691376252E+03  0.11956547126E+04 -0.18188883465E+04  0.21996316378E+04  0.50400001928E-02 0. -1.
</event>
<event>
 5   0  0.5888700E-08  0.3991097E+04  0.7818609E-02  0.8006345E-01
        2   -1    0    0  501    0  0.00000000000E+00  0.00000000000E+00  0.27445012727E+04  0.27445012727E+04  0.25500000920E-02 0. -1.
       -2   -1    0    0    0  501  0.00000000000E+00  0.00000000000E+00 -0.14509791307E+04  0.14509791307E+04  0.25500000920E-02 0.  1.
    10030    2    1    2    0    0  0.00000000000E+00  0.00000000000E+00  0.12935221421E+04  0.41954804034E+04  0.39910971278E+04 0.  0.
        5    1    3    3  502    0  0.15049292844E+04 -0.86411075491E+03 -0.38892997588E+03  0.17784229430E+04  0.46999998093E+01 0.  1.
       -5    1    3    3    0  502 -0.15049292844E+04  0.86411075491E+03  0.16824521179E+04  0.24170574604E+04  0.46999998093E+01 0. -1.
</event>
<event>
 5   0  0.1879500E-08  0.4022559E+04  0.7818609E-02  0.8000011E-01
       -1   -1    0    0    0  501  0.00000000000E+00  0.00000000000E+00  0.26203547803E+04  0.26203547803E+04  0.50400001928E-02 0.  1.
        1   -1    0    0  501    0  0.00000000000E+00  0.00000000000E+00 -0.15437776486E+04  0.15437776486E+04  0.50400001928E-02 0. -1.
    10030    2    1    2    0    0  0.00000000000E+00  0.00000000000E+00  0.10765771317E+04  0.41641324289E+04  0.40225589573E+04 0.  0.
        5    1    3    3  502    0 -0.43362745142E+02  0.19743688330E+03  0.26098067392E+04  0.26176277345E+04  0.46999998093E+01 0.  1.
       -5    1    3    3    0  502  0.43362745142E+02 -0.19743688330E+03 -0.15332296075E+04  0.15465046944E+04  0.46999998093E+01 0. -1.
</event>
<event>
 5   0  0.5951623E-08  0.3991069E+04  0.7818609E-02  0.8006351E-01
       -2   -1    0    0    0  501  0.00000000000E+00  0.00000000000E+00  0.16811284134E+04  0.16811284134E+04  0.25500000920E-02 0.  1.
        2   -1    0    0  501    0  0.00000000000E+00  0.00000000000E+00 -0.23687408554E+04  0.23687408554E+04  0.25500000920E-02 0. -1.
    10030    2    1    2    0    0  0.00000000000E+00  0.00000000000E+00 -0.68761244200E+03  0.40498692689E+04  0.39910688073E+04 0.  0.
        2    1    3    3  502    0 -0.17913178636E+04 -0.48992457835E+03  0.39723501500E+03  0.18991159623E+04  0.25500000920E-02 0.  1.
       -2    1    3    3    0  502  0.17913178636E+04  0.48992457835E+03 -0.10848474570E+04  0.21507533066E+04  0.25500000920E-02 0. -1.
</event>
<event>
 5   0  0.5846812E-08  0.4036965E+04  0.7818609E-02  0.7997131E-01
       -2   -1    0    0    0  501  0.00000000000E+00  0.00000000000E+00  0.26231715561E+04  0.26231715561E+04  0.25500000920E-02 0. -1.
        2   -1    0    0  501    0  0.00000000000E+00  0.00000000000E+00 -0.15531854764E+04  0.15531854764E+04  0.25500000920E-02 0.  1.
    10030    2    1    2    0    0  0.00000000000E+00  0.00000000000E+00  0.10699860798E+04  0.41763570325E+04  0.40369651785E+04 0.  0.
        4    1    3    3  502    0 -0.87671154296E+03  0.12623241565E+04  0.18886790872E+04  0.24349939862E+04  0.12699999809E+01 0. -1.
       -4    1    3    3    0  502  0.87671154296E+03 -0.12623241565E+04 -0.81869300748E+03  0.17413630463E+04  0.12699999809E+01 0.  1.
</event>
<event>
 5   0  0.1879500E-08  0.4002387E+04  0.7818609E-02  0.8004065E-01
       -1   -1    0    0    0  501  0.00000000000E+00  0.00000000000E+00  0.17823971004E+04  0.17823971004E+04  0.50400001928E-02 0.  1.
        1   -1    0    0  501    0  0.00000000000E+00  0.00000000000E+00 -0.22468477488E+04  0.22468477488E+04  0.50400001928E-02 0. -1.
    10030    2    1    2    0    0  0.00000000000E+00  0.00000000000E+00 -0.46445064839E+03  0.40292448492E+04  0.40023867442E+04 0.  0.
        4    1    3    3  502    0 -0.76252868371E+03  0.16707039728E+04 -0.10325896566E+04  0.21068803407E+04  0.12699999809E+01 0.  1.
       -4    1    3    3    0  502  0.76252868371E+03 -0.16707039728E+04  0.56813900819E+03  0.19223645085E+04  0.12699999809E+01 0. -1.
</event>
<event>
 5   0  0.5888700E-08  0.3999585E+04  0.7818609E-02  0.8004630E-01
       -2   -1    0    0    0  501  0.00000000000E+00  0.00000000000E+00  0.16940963790E+04  0.16940963790E+04  0.25500000920E-02 0.  1.
        2   -1    0    0  501    0  0.00000000000E+00  0.00000000000E+00 -0.23606508576E+04  0.23606508576E+04  0.25500000920E-02 0. -1.
    10030    2    1    2    0    0  0.00000000000E+00  0.00000000000E+00 -0.66655447862E+03  0.40547472366E+04  0.39995850135E+04 0.  0.
        5    1    3    3  502    0  0.55944240077E+03  0.12694388075E+04  0.11269694301E+04  0.17873256201E+04  0.46999998093E+01 0. -1.
       -5    1    3    3    0  502 -0.55944240077E+03 -0.12694388075E+04 -0.17935239088E+04  0.22674216165E+04  0.46999998093E+01 0.  1.
</event>
<event>
 5   0  0.5945387E-08  0.3996686E+04  0.7818609E-02  0.8005215E-01
       -2   -1    0    0    0  501  0.00000000000E+00  0.00000000000E+00  0.26986357335E+04  0.26986357335E+04  0.25500000920E-02 0.  1.
        2   -1    0    0  501    0  0.00000000000E+00  0.00000000000E+00 -0.14797756054E+04  0.14797756054E+04  0.25500000920E-02 0. -1.
    10030    2    1    2    0    0  0.00000000000E+00  0.00000000000E+00  0.12188601281E+04  0.41784113389E+04  0.39966862905E+04 0.  0.
        3    1    3    3  502    0  0.10404704355E+04 -0.15666383006E+04 -0.96893127482E+02  0.18831682294E+04  0.10100000352E+00 0.  1.
       -3    1    3    3    0  502 -0.10404704355E+04  0.15666383006E+04  0.13157532556E+04  0.22952431095E+04  0.10100000352E+00 0. -1.
</event>
<event>
 5   0  0.5846812E-08  0.4022768E+04  0.7818609E-02  0.7999969E-01
        2   -1    0    0  501    0  0.00000000000E+00  0.00000000000E+00  0.27416002364E+04  0.27416002364E+04  0.25500000920E-02 0. -1.
       -2   -1    0    0    0  501  0.00000000000E+00  0.00000000000E+00 -0.14756582722E+04  0.14756582722E+04  0.25500000920E-02 0.  1.
    10030    2    1    2    0    0  0.00000000000E+00  0.00000000000E+00  0.12659419643E+04  0.42172585086E+04  0.40227677377E+04 0.  0.
        4    1    3    3  502    0  0.66818034112E+03 -0.18877136759E+04  0.43479291495E+03  0.20491399128E+04  0.12699999809E+01 0. -1.
       -4    1    3    3    0  502 -0.66818034112E+03  0.18877136759E+04  0.83114904931E+03  0.21681185958E+04  0.12699999809E+01 0.  1.
</event>
<event>
 5   0  0.1879500E-08  0.4000410E+04  0.7818609E-02  0.8004464E-01
        1   -1    0    0  501    0  0.00000000000E+00  0.00000000000E+00  0.24742094330E+04  0.24742094330E+04  0.50400001928E-02 0. -1.
       -1   -1    0    0    0  501  0.00000000000E+00  0.00000000000E+00 -0.16170091464E+04  0.16170091464E+04  0.50400001928E-02 0.  1.
    10030    2    1    2    0    0  0.00000000000E+00  0.00000000000E+00  0.85720028660E+03  0.40912185794E+04  0.40004096206E+04 0.  0.
        2    1    3    3  502    0 -0.18112572071E+04 -0.84571409768E+03  0.50043910031E+03  0.20606611314E+04  0.25500000920E-02 0. -1.
       -2    1    3    3    0  502  0.18112572071E+04  0.84571409768E+03  0.35676118629E+03  0.20305574479E+04  0.25500000920E-02 0.  1.
</event>
<event>
 5   0  0.5945387E-08  0.3992212E+04  0.7818609E-02  0.8006119E-01
       -2   -1    0    0    0  501  0.00000000000E+00  0.00000000000E+00  0.24850160848E+04  0.24850160848E+04  0.25500000920E-02 0. -1.
        2   -1    0    0  501    0  0.00000000000E+00  0.00000000000E+00 -0.16033859383E+04  0.16033859383E+04  0.25500000920E-02 0.  1.
    10030    2    1    2    0    0  0.00000000000E+00  0.00000000000E+00  0.88163014651E+03  0.40884020230E+04  0.39922123424E+04 0.  0.
        3    1    3    3  502    0 -0.37949301542E+03 -0.15422186057E+04 -0.79744442071E+03  0.17771805735E+04  0.10100000352E+00 0.  1.
       -3    1    3    3    0  502  0.37949301542E+03  0.15422186057E+04  0.16790745672E+04  0.23112214496E+04  0.10100000352E+00 0. -1.
</event>
<event>
 5   0  0.1879500E-08  0.3922972E+04  0.7818609E-02  0.8020268E-01
       -1   -1    0    0    0  501  0.00000000000E+00  0.00000000000E+00  0.24311673252E+04  0.24311673252E+04  0.50400001928E-02 0.  1.
        1   -1    0    0  501    0  0.00000000000E+00  0.00000000000E+00 -0.15825431514E+04  0.15825431514E+04  0.50400001928E-02 0. -1.
    10030    2    1    2    0    0  0.00000000000E+00  0.00000000000E+00  0.84862417376E+03  0.40137104766E+04  0.39229719349E+04 0.  0.
        5    1    3    3  502    0  0.16807508187E+04 -0.26774671757E+03 -0.57332811334E+03  0.17959228366E+04  0.46999998093E+01 0. -1.
       -5    1    3    3    0  502 -0.16807508187E+04  0.26774671757E+03  0.14219522871E+04  0.22177876400E+04  0.46999998093E+01 0.  1.
</event>
<event>
 5   0  0.5846812E-08  0.4007853E+04  0.7818609E-02  0.8002964E-01
       -2   -1    0    0    0  501  0.00000000000E+00  0.00000000000E+00  0.31167600361E+04  0.31167600361E+04  0.25500000920E-02 0.  1.
        2   -1    0    0  501    0  0.00000000000E+00  0.00000000000E+00 -0.12884279055E+04  0.12884279055E+04  0.25500000920E-02 0. -1.
    10030    2    1    2    0    0  0.00000000000E+00  0.00000000000E+00  0.18283321306E+04  0.44051879415E+04  0.40078525946E+04 0.  0.
        4    1    3    3  502    0  0.72423522641E+03  0.15119502461E+04 -0.29249095905E+03  0.17017822375E+04  0.12699999809E+01 0. -1.
       -4    1    3    3    0  502 -0.72423522641E+03 -0.15119502461E+04  0.21208230897E+04  0.27034057040E+04  0.12699999809E+01 0.  1.
</event>
<event>
 5   0  0.1879500E-08  0.4023927E+04  0.7818609E-02  0.7999737E-01
        1   -1    0    0  501    0  0.00000000000E+00  0.00000000000E+00  0.21960284639E+04  0.21960284639E+04  0.50400001928E-02 0. -1.
       -1   -1    0    0    0  501  0.00000000000E+00  0.00000000000E+00 -0.18433261486E+04  0.18433261486E+04  0.50400001928E-02 0.  1.
    10030    2    1    2    0    0  0.00000000000E+00  0.00000000000E+00  0.35270231524E+03  0.40393546125E+04  0.40239267839E+04 0.  0.
        1    1    3    3  502    0 -0.26301437811E+03 -0.83085646817E+03 -0.16440230757E+04  0.18607285958E+04  0.50400001928E-02 0.  1.
       -1    1    3    3    0  502  0.26301437811E+03  0.83085646817E+03  0.19967253909E+04  0.21786260167E+04  0.50400001928E-02 0. -1.
</event>
<event>
 5   0  0.5888700E-08  0.3993225E+04  0.7818609E-02  0.8005915E-01
        2   -1    0    0  501    0  0.00000000000E+00  0.00000000000E+00  0.18956755512E+04  0.18956755512E+04  0.25500000920E-02 0. -1.
       -2   -1    0    0    0  501  0.00000000000E+00  0.00000000000E+00 -0.21029244279E+04  0.21029244279E+04  0.25500000920E-02 0.  1.
    10030    2    1    2    0    0  0.00000000000E+00  0.00000000000E+00 -0.20724887666E+03  0.39985999790E+04  0.39932254752E+04 0.  0.
        5    1    3    3  502    0  0.13972149822E+04  0.11594502778E+04  0.72809908910E+03  0.19561914596E+04  0.46999998093E+01 0. -1.
       -5    1    3    3    0  502 -0.13972149822E+04 -0.11594502778E+04 -0.93534796576E+03  0.20424085194E+04  0.46999998093E+01 0.  1.
</event>
<event>
 5   0  0.1879500E-08  0.4016288E+04  0.7818609E-02  0.8001269E-01
        1   -1    0    0  501    0  0.00000000000E+00  0.00000000000E+00  0.17917417921E+04  0.17917417921E+04  0.50400001928E-02 0.  1.
       -1   -1    0    0    0  501  0.00000000000E+00  0.00000000000E+00 -0.22506828692E+04  0.22506828692E+04  0.50400001928E-02 0. -1.
    10030    2    1    2    0    0  0.00000000000E+00  0.00000000000E+00 -0.45894107716E+03  0.40424246613E+04  0.40162881159E+04 0.  0.
        5    1    3    3  502    0 -0.91329151626E+02 -0.87529881215E+02  0.17877219308E+04  0.17921981715E+04  0.46999998093E+01 0.  1.
       -5    1    3    3    0  502  0.91329151626E+02  0.87529881215E+02 -0.22466630080E+04  0.22502264898E+04  0.46999998093E+01 0. -1.
</event>
<event>
 5   0  0.1879500E-08  0.4032621E+04  0.7818609E-02  0.7997998E-01
        1   -1    0    0  501    0  0.00000000000E+00  0.00000000000E+00  0.21873477314E+04  0.21873477314E+04  0.50400001928E-02 0.  1.
       -1   -1    0    0    0  501  0.00000000000E+00  0.00000000000E+00 -0.18586475756E+04  0.18586475757E+04  0.50400001928E-02 0. -1.
    10030    2    1    2    0    0  0.00000000000E+00  0.00000000000E+00  0.32870015577E+03  0.40459953071E+04  0.40326212607E+04 0.  0.
        5    1    3    3  502    0  0.17596759199E+04  0.14194484560E+03  0.11416847537E+04  0.21023971673E+04  0.46999998093E+01 0.  1.
       -5    1    3    3    0  502 -0.17596759199E+04 -0.14194484560E+03 -0.81298459795E+03  0.19435981397E+04  0.46999998093E+01 0. -1.
</event>
<event>
 5   0  0.5888700E-08  0.3980915E+04  0.7818609E-02  0.8008408E-01
        2   -1    0    0  501    0  0.00000000000E+00  0.00000000000E+00  0.17904292281E+04  0.17904292281E+04  0.25500000920E-02 0. -1.
       -2   -1    0    0    0  501  0.00000000000E+00  0.00000000000E+00 -0.22128336400E+04  0.22128336400E+04  0.25500000920E-02 0.  1.
    10030    2    1    2    0    0  0.00000000000E+00  0.00000000000E+00 -0.42240441197E+03  0.40032628681E+04  0.39809154856E+04 0.  0.
        5    1    3    3  502    0 -0.10441452429E+04  0.12057139144E+04 -0.14086488978E+04  0.21279800608E+04  0.46999998093E+01 0.  1.
       -5    1    3    3    0  502  0.10441452429E+04 -0.12057139144E+04  0.98624448581E+03  0.18752828073E+04  0.46999998093E+01 0. -1.
</event>
<event>
 5   0  0.1879500E-08  0.3973315E+04  0.7818609E-02  0.8009951E-01
       -1   -1    0    0    0  501  0.00000000000E+00  0.00000000000E+00  0.27131745738E+04  0.27131745738E+04  0.50400001928E-02 0. -1.
        1   -1    0    0  501    0  0.00000000000E+00  0.00000000000E+00 -0.14546826881E+04  0.14546826882E+04  0.50400001928E-02 0.  1.
    10030    2    1    2    0    0  0.00000000000E+00  0.00000000000E+00  0.12584918857E+04  0.41678572620E+04  0.39733150303E+04 0.  0.
        1    1    3    3  502    0 -0.70619278509E+03 -0.18557009697E+04  0.55908500299E+03  0.20627434109E+04  0.50400001928E-02 0.  1.
       -1    1    3    3    0  502  0.70619278509E+03  0.18557009697E+04  0.69940688270E+03  0.21051138511E+04  0.50400001928E-02 0. -1.
</event>
<event>
 5   0  0.1879500E-08  0.4018379E+04  0.7818609E-02  0.8000849E-01
        1   -1    0    0  501    0  0.00000000000E+00  0.00000000000E+00  0.22379574160E+04  0.22379574160E+04  0.50400001928E-02 0.  1.
       -1   -1    0    0    0  501  0.00000000000E+00  0.00000000000E+00 -0.18038066089E+04  0.18038066089E+04  0.50400001928E-02 0. -1.
    10030    2    1    2    0    0  0.00000000000E+00  0.00000000000E+00  0.43415080710E+03  0.40417640250E+04  0.40183789655E+04 0.  0.
        4    1    3    3  502    0  0.91060970874E+03 -0.17642509260E+04 -0.93019576861E+02  0.19875727977E+04  0.12699999809E+01 0. -1.
       -4    1    3    3    0  502 -0.91060970874E+03  0.17642509260E+04  0.52717038396E+03  0.20541912273E+04  0.12699999809E+01 0.  1.
</event>
<event>
 5   0  0.1879500E-08  0.4023671E+04  0.7818609E-02  0.7999788E-01
        1   -1    0    0  501    0  0.00000000000E+00  0.00000000000E+00  0.27134056192E+04  0.27134056192E+04  0.50400001928E-02 0.  1.
       -1   -1    0    0    0  501  0.00000000000E+00  0.00000000000E+00 -0.14916613929E+04  0.14916613929E+04  0.50400001928E-02 0. -1.
    10030    2    1    2    0    0  0.00000000000E+00  0.00000000000E+00  0.12217442263E+04  0.42050670121E+04  0.40236711622E+04 0.  0.
        5    1    3    3  502    0 -0.18201541056E+04 -0.38113443680E+03  0.14130949778E+04  0.23356121110E+04  0.46999998093E+01 0.  1.
       -5    1    3    3    0  502  0.18201541056E+04  0.38113443680E+03 -0.19135075146E+03  0.18694549010E+04  0.46999998093E+01 0. -1.
</event>
<event>
 5   0  0.1879500E-08  0.3883079E+04  0.7818609E-02  0.8028558E-01
       -1   -1    0    0    0  501  0.00000000000E+00  0.00000000000E+00  0.24095451556E+04  0.24095451556E+04  0.50400001928E-02 0. -1.
        1   -1    0    0  501    0  0.00000000000E+00  0.00000000000E+00 -0.15644347638E+04  0.15644347639E+04  0.50400001928E-02 0.  1.
    10030    2    1    2    0    0  0.00000000000E+00  0.00000000000E+00  0.84511039175E+03  0.39739799194E+04  0.38830792969E+04 0.  0.
        4    1    3    3  502    0 -0.18078770778E+04 -0.70686307623E+03  0.38292325726E+03  0.19785617935E+04  0.12699999809E+01 0.  1.
       -4    1    3    3    0  502  0.18078770778E+04  0.70686307623E+03  0.46218713449E+03  0.19954181259E+04  0.12699999809E+01 0. -1.
</event>
<event>
 5   0  0.1879500E-08  0.4096079E+04  0.7818609E-02  0.7985440E-01
        1   -1    0    0  501    0  0.00000000000E+00  0.00000000000E+00  0.22904593118E+04  0.22904593118E+04  0.50400001928E-02 0.  1.
       -1   -1    0    0    0  501  0.00000000000E+00  0.00000000000E+00 -0.18312772133E+04  0.18312772133E+04  0.50400001928E-02 0. -1.
    10030    2    1    2    0    0  0.00000000000E+00  0.00000000000E+00  0.45918209852E+03  0.41217365250E+04  0.40960790742E+04 0.  0.
        4    1    3    3  502    0 -0.72968945202E+03 -0.82733700769E+03 -0.15067700551E+04  0.18674289364E+04  0.12699999809E+01 0. -1.
       -4    1    3    3    0  502  0.72968945202E+03  0.82733700769E+03  0.19659521536E+04  0.22543075886E+04  0.12699999809E+01 0.  1.
</event>
<event>
 5   0  0.1879500E-08  0.4003692E+04  0.7818609E-02  0.8003802E-01
       -1   -1    0    0    0  501  0.00000000000E+00  0.00000000000E+00  0.14978344797E+04  0.14978344797E+04  0.50400001928E-02 0.  1.
        1   -1    0    0  501    0  0.00000000000E+00  0.00000000000E+00 -0.26754543149E+04  0.26754543149E+04  0.50400001928E-02 0. -1.
    10030    2    1    2    0    0  0.00000000000E+00  0.00000000000E+00 -0.11776198352E+04  0.41732887946E+04  0.40036921569E+04 0.  0.
        4    1    3    3  502    0 -0.10430789324E+03  0.16192350214E+04 -0.18109004827E+04  0.24314942653E+04  0.12699999809E+01 0.  1.
       -4    1    3    3    0  502  0.10430789324E+03 -0.16192350214E+04  0.63328064745E+03  0.17417945293E+04  0.12699999809E+01 0. -1.
</event>
<event>
 5   0  0.1879500E-08  0.4002540E+04  0.7818609E-02  0.8004034E-01
       -1   -1    0    0    0  501  0.00000000000E+00  0.00000000000E+00  0.11977805395E+04  0.11977805395E+04  0.50400001928E-02 0. -1.
        1   -1    0    0  501    0  0.00000000000E+00  0.00000000000E+00 -0.33437518551E+04  0.33437518551E+04  0.50400001928E-02 0.  1.
    10030    2    1    2    0    0  0.00000000000E+00  0.00000000000E+00 -0.21459713155E+04  0.45415323946E+04  0.40025396443E+04 0.  0.
        3    1    3    3  502    0  0.17189981832E+04  0.10053347226E+04 -0.84768086623E+03  0.21643048583E+04  0.10100000352E+00 0. -1.
       -3    1    3    3    0  502 -0.17189981832E+04 -0.10053347226E+04 -0.12982904493E+04  0.23772275363E+04  0.10100000352E+00 0.  1.
</event>
<event>
 5   0  0.5951623E-08  0.4033327E+04  0.7818609E-02  0.7997857E-01
       -2   -1    0    0    0  501  0.00000000000E+00  0.00000000000E+00  0.30161967986E+04  0.30161967986E+04  0.25500000920E-02 0.  1.
        2   -1    0    0  501    0  0.00000000000E+00  0.00000000000E+00 -0.13483642082E+04  0.13483642082E+04  0.25500000920E-02 0. -1.
    10030    2    1    2    0    0  0.00000000000E+00  0.00000000000E+00  0.16678325904E+04  0.43645610068E+04  0.40333270674E+04 0.  0.
        2    1    3    3  502    0 -0.18238736331E+04 -0.42996401917E+03  0.27354192043E+02  0.18740683923E+04  0.25500000920E-02 0. -1.
       -2    1    3    3    0  502  0.18238736331E+04  0.42996401917E+03  0.16404783983E+04  0.24904926145E+04  0.25500000920E-02 0.  1.
</event>
<event>
 5   0  0.1879500E-08  0.3998234E+04  0.7818609E-02  0.8004903E-01
        1   -1    0    0  501    0  0.00000000000E+00  0.00000000000E+00  0.23892642405E+04  0.23892642405E+04  0.50400001928E-02 0. -1.
       -1   -1    0    0    0  501  0.00000000000E+00  0.00000000000E+00 -0.16726775402E+04  0.16726775402E+04  0.50400001928E-02 0.  1.
    10030    2    1    2    0    0  0.00000000000E+00  0.00000000000E+00  0.71658670028E+03  0.40619417808E+04  0.39982339265E+04 0.  0.
        3    1    3    3  502    0  0.80100402381E+03  0.15899390612E+04  0.12821538992E+04  0.21939535765E+04  0.10100000352E+00 0.  1.
       -3    1    3    3    0  502 -0.80100402381E+03 -0.15899390612E+04 -0.56556719895E+03  0.18679882042E+04  0.10100000352E+00 0. -1.
</event>
<event>
 5   0  0.1879500E-08  0.3990731E+04  0.7818609E-02  0.8006419E-01
       -1   -1    0    0    0  501  0.00000000000E+00  0.00000000000E+00  0.32360298983E+04  0.32360298983E+04  0.50400001928E-02 0. -1.
        1   -1    0    0  501    0  0.00000000000E+00  0.00000000000E+00 -0.12303605822E+04  0.12303605822E+04  0.50400001928E-02 0.  1.
    10030    2    1    2    0    0  0.00000000000E+00  0.00000000000E+00  0.20056693161E+04  0.44663904805E+04  0.39907310757E+04 0.  0.
        1    1    3    3  502    0 -0.11764420214E+04  0.14898957806E+04  0.16906395793E+04  0.25420596873E+04  0.50400001928E-02 0.  1.
       -1    1    3    3    0  502  0.11764420214E+04 -0.14898957806E+04  0.31502973678E+03  0.19243307932E+04  0.50400001928E-02 0. -1.
</event>
<event>
 5   0  0.5888700E-08  0.3993646E+04  0.7818609E-02  0.8005830E-01
       -2   -1    0    0    0  501  0.00000000000E+00  0.00000000000E+00  0.20429563168E+04  0.20429563168E+04  0.25500000920E-02 0. -1.
        2   -1    0    0  501    0  0.00000000000E+00  0.00000000000E+00 -0.19517317269E+04  0.19517317269E+04  0.25500000920E-02 0.  1.
    10030    2    1    2    0    0  0.00000000000E+00  0.00000000000E+00  0.91224589873E+02  0.39946880438E+04  0.39936462839E+04 0.  0.
        5    1    3    3  502    0  0.40949501256E+03  0.57751092014E+03 -0.18219782638E+04  0.19546948385E+04  0.46999998093E+01 0.  1.
       -5    1    3    3    0  502 -0.40949501256E+03 -0.57751092014E+03  0.19132028536E+04  0.20399932052E+04  0.46999998093E+01 0. -1.
</event>
<event>
 5   0  0.5888700E-08  0.3974025E+04  0.7818609E-02  0.8009807E-01
       -2   -1    0    0    0  501  0.00000000000E+00  0.00000000000E+00  0.22061332007E+04  0.22061332007E+04  0.25500000920E-02 0. -1.
        2   -1    0    0  501    0  0.00000000000E+00  0.00000000000E+00 -0.17896557933E+04  0.17896557933E+04  0.25500000920E-02 0.  1.
    10030    2    1    2    0    0  0.00000000000E+00  0.00000000000E+00  0.41647740738E+03  0.39957889940E+04  0.39740251954E+04 0.  0.
        5    1    3    3  502    0  0.14339065415E+04 -0.10709311549E+04 -0.65974757470E+03  0.19074250865E+04  0.46999998093E+01 0.  1.
       -5    1    3    3    0  502 -0.14339065415E+04  0.10709311549E+04  0.10762249821E+04  0.20883639075E+04  0.46999998093E+01 0. -1.
</event>
<event>
 5   0  0.1879500E-08  0.3913588E+04  0.7818609E-02  0.8022209E-01
        1   -1    0    0  501    0  0.00000000000E+00  0.00000000000E+00  0.19568968077E+04  0.19568968077E+04  0.50400001928E-02 0.  1.
       -1   -1    0    0    0  501  0.00000000000E+00  0.00000000000E+00 -0.19566915658E+04  0.19566915658E+04  0.50400001928E-02 0. -1.
    10030    2    1    2    0    0  0.00000000000E+00  0.00000000000E+00  0.20524198353E+00  0.39135883735E+04  0.39135883681E+04 0.  0.
        5    1    3    3  502    0 -0.19107379366E+04 -0.14509237063E+03  0.39639813047E+03  0.19568149698E+04  0.46999998093E+01 0.  1.
       -5    1    3    3    0  502  0.19107379366E+04  0.14509237063E+03 -0.39619288849E+03  0.19567734037E+04  0.46999998093E+01 0. -1.
</event>
<event>
 5   0  0.1879500E-08  0.3988102E+04  0.7818609E-02  0.8006951E-01
       -1   -1    0    0    0  501  0.00000000000E+00  0.00000000000E+00  0.13371159481E+04  0.13371159481E+04  0.50400001928E-02 0.  1.
        1   -1    0    0  501    0  0.00000000000E+00  0.00000000000E+00 -0.29737427803E+04  0.29737427803E+04  0.50400001928E-02 0. -1.
    10030    2    1    2    0    0  0.00000000000E+00  0.00000000000E+00 -0.16366268322E+04  0.43108587284E+04  0.39881017525E+04 0.  0.
        4    1    3    3  502    0  0.53295049965E+03  0.87775030638E+03  0.10293356707E+04  0.14539653955E+04  0.12699999809E+01 0.  1.
       -4    1    3    3    0  502 -0.53295049965E+03 -0.87775030638E+03 -0.26659625029E+04  0.28568933329E+04  0.12699999809E+01 0. -1.
</event>
<event>
 5   0  0.1879500E-08  0.4033265E+04  0.7818609E-02  0.7997869E-01
        1   -1    0    0  501    0  0.00000000000E+00  0.00000000000E+00  0.14589780118E+04  0.14589780118E+04  0.50400001928E-02 0. -1.
       -1   -1    0    0    0  501  0.00000000000E+00  0.00000000000E+00 -0.27874351156E+04  0.27874351156E+04  0.50400001928E-02 0.  1.
    10030    2    1    2    0    0  0.00000000000E+00  0.00000000000E+00 -0.13284571038E+04  0.42464131274E+04  0.40332649518E+04 0.  0.
        4    1    3    3  502    0  0.11740019768E+04 -0.11926956072E+04  0.52040109573E+03  0.17526044523E+04  0.12699999809E+01 0.  1.
       -4    1    3    3    0  502 -0.11740019768E+04  0.11926956072E+04 -0.18488581996E+04  0.24938086751E+04  0.12699999809E+01 0. -1.
</event>
<event>
 5   0  0.5846812E-08  0.4006022E+04  0.7818609E-02  0.8003333E-01
        2   -1    0    0  501    0  0.00000000000E+00  0.00000000000E+00  0.18273226130E+04  0.18273226130E+04  0.25500000920E-02 0. -1.
       -2   -1    0    0    0  501  0.00000000000E+00  0.00000000000E+00 -0.21955911402E+04  0.21955911402E+04  0.25500000920E-02 0.  1.
    10030    2    1    2    0    0  0.00000000000E+00  0.00000000000E+00 -0.36826852723E+03  0.40229137532E+04  0.40060221364E+04 0.  0.
        4    1    3    3  502    0  0.13918540534E+04  0.13518686092E+04 -0.68346854747E+03  0.20571673026E+04  0.12699999809E+01 0. -1.
       -4    1    3    3    0  502 -0.13918540534E+04 -0.13518686092E+04  0.31520002024E+03  0.19657464506E+04  0.12699999809E+01 0.  1.
</event>
<event>
 5   0  0.1879500E-08  0.4012544E+04  0.7818609E-02  0.8002021E-01
       -1   -1    0    0    0  501  0.00000000000E+00  0.00000000000E+00  0.23610335588E+04  0.23610335588E+04  0.50400001928E-02 0. -1.
        1   -1    0    0  501    0  0.00000000000E+00  0.00000000000E+00 -0.17048158534E+04  0.17048158535E+04  0.50400001928E-02 0.  1.
    10030    2    1    2    0    0  0.00000000000E+00  0.00000000000E+00  0.65621770535E+03  0.40658494122E+04  0.40125440516E+04 0.  0.
        3    1    3    3  502    0 -0.92550175906E+03 -0.13025105701E+04 -0.90128575119E+03  0.18345035586E+04  0.10100000352E+00 0.  1.
       -3    1    3    3    0  502  0.92550175906E+03  0.13025105701E+04  0.15575034565E+04  0.22313458536E+04  0.10100000352E+00 0. -1.
</event>
<event>
 5   0  0.5951623E-08  0.4040130E+04  0.7818609E-02  0.7996500E-01
        2   -1    0    0  501    0  0.00000000000E+00  0.00000000000E+00  0.27151619698E+04  0.27151619698E+04  0.25500000920E-02 0.  1.
       -2   -1    0    0    0  501  0.00000000000E+00  0.00000000000E+00 -0.15029169810E+04  0.15029169810E+04  0.25500000920E-02 0. -1.
    10030    2    1    2    0    0  0.00000000000E+00  0.00000000000E+00  0.12122449887E+04  0.42180789508E+04  0.40401302111E+04 0.  0.
        2    1    3    3  502    0 -0.48567726760E+03  0.18547622753E+04 -0.58006467142E+02  0.19181736773E+04  0.25500000920E-02 0. -1.
       -2    1    3    3    0  502  0.48567726760E+03 -0.18547622753E+04  0.12702514559E+04  0.22999052735E+04  0.25500000920E-02 0.  1.
</event>
<event>
 5   0  0.5888700E-08  0.3997544E+04  0.7818609E-02  0.8005042E-01
        2   -1    0    0  501    0  0.00000000000E+00  0.00000000000E+00  0.33525384454E+04  0.33525384454E+04  0.25500000920E-02 0. -1.
       -2   -1    0    0    0  501  0.00000000000E+00  0.00000000000E+00 -0.11916608217E+04  0.11916608217E+04  0.25500000920E-02 0.  1.
    10030    2    1    2    0    0  0.00000000000E+00  0.00000000000E+00  0.21608776237E+04  0.45441992671E+04  0.39975436050E+04 0.  0.
        5    1    3    3  502    0 -0.13206705357E+04  0.12337696562E+04  0.20508170437E+04  0.27335381587E+04  0.46999998093E+01 0.  1.
       -5    1    3    3    0  502  0.13206705357E+04 -0.12337696562E+04  0.11006058009E+03  0.18106611084E+04  0.46999998093E+01 0. -1.
</event>
<event>
 5   0  0.5945387E-08  0.4008926E+04  0.7818609E-02  0.8002748E-01
        2   -1    0    0  501    0  0.00000000000E+00  0.00000000000E+00  0.23576579103E+04  0.23576579103E+04  0.25500000920E-02 0. -1.
       -2   -1    0    0    0  501  0.00000000000E+00  0.00000000000E+00 -0.17041791087E+04  0.17041791087E+04  0.25500000920E-02 0.  1.
    10030    2    1    2    0    0  0.00000000000E+00  0.00000000000E+00  0.65347880164E+03  0.40618370190E+04  0.40089257195E+04 0.  0.
        3    1    3    3  502    0  0.32519279079E+03  0.94364604407E+03 -0.14344934956E+04  0.17475668247E+04  0.10100000352E+00 0.  1.
       -3    1    3    3    0  502 -0.32519279079E+03 -0.94364604407E+03  0.20879722973E+04  0.23142701942E+04  0.10100000352E+00 0. -1.
</event>
<event>
 5   0  0.1879500E-08  0.4061126E+04  0.7818609E-02  0.7992328E-01
        1   -1    0    0  501    0  0.00000000000E+00  0.00000000000E+00  0.17021562140E+04  0.17021562140E+04  0.50400001928E-02 0.  1.
       -1   -1    0    0    0  501  0.00000000000E+00  0.00000000000E+00 -0.24223317445E+04  0.24223317445E+04  0.50400001928E-02 0. -1.
    10030    2    1    2    0    0  0.00000000000E+00  0.00000000000E+00 -0.72017553052E+03  0.41244879586E+04  0.40611264602E+04 0.  0.
        2    1    3    3  502    0 -0.11281842979E+04  0.48456605237E+02  0.13538557547E+04  0.17629728464E+04  0.25500000920E-02 0.  1.
       -2    1    3    3    0  502  0.11281842979E+04 -0.48456605237E+02 -0.20740312852E+04  0.23615151121E+04  0.25500000920E-02 0. -1.
</event>
<event>
 5   0  0.5945387E-08  0.3993313E+04  0.7818609E-02  0.8005897E-01
        2   -1    0    0  501    0  0.00000000000E+00  0.00000000000E+00  0.21592742028E+04  0.21592742028E+04  0.25500000920E-02 0. -1.
       -2   -1    0    0    0  501  0.00000000000E+00  0.00000000000E+00 -0.18462853154E+04  0.18462853154E+04  0.25500000920E-02 0.  1.
    10030    2    1    2    0    0  0.00000000000E+00  0.00000000000E+00  0.31298888737E+03  0.40055595181E+04  0.39933125359E+04 0.  0.
        3    1    3    3  502    0  0.87504849913E+03  0.17937758360E+04  0.21406922765E+03  0.20072785732E+04  0.10100000352E+00 0.  1.
       -3    1    3    3    0  502 -0.87504849913E+03 -0.17937758360E+04  0.98919659720E+02  0.19982809450E+04  0.10100000352E+00 0. -1.
</event>
<event>
 5   0  0.1879500E-08  0.4024725E+04  0.7818609E-02  0.7999577E-01
       -1   -1    0    0    0  501  0.00000000000E+00  0.00000000000E+00  0.26494170317E+04  0.26494170317E+04  0.50400001928E-02 0. -1.
        1   -1    0    0  501    0  0.00000000000E+00  0.00000000000E+00 -0.15284884330E+04  0.15284884330E+04  0.50400001928E-02 0.  1.
    10030    2    1    2    0    0  0.00000000000E+00  0.00000000000E+00  0.11209285987E+04  0.41779054648E+04  0.40247252265E+04 0.  0.
        5    1    3    3  502    0  0.17866471997E+04  0.30949243782E+03 -0.34549932830E+03  0.18458834365E+04  0.46999998093E+01 0.  1.
       -5    1    3    3    0  502 -0.17866471997E+04 -0.30949243782E+03  0.14664279270E+04  0.23320220283E+04  0.46999998093E+01 0. -1.
</event>
<event>
 5   0  0.1879500E-08  0.3968402E+04  0.7818609E-02  0.8010951E-01
        1   -1    0    0  501    0  0.00000000000E+00  0.00000000000E+00  0.14074769998E+04  0.14074769998E+04  0.50400001928E-02 0. -1.
       -1   -1    0    0    0  501  0.00000000000E+00  0.00000000000E+00 -0.27972412667E+04  0.27972412667E+04  0.50400001928E-02 0.  1.
    10030    2    1    2    0    0  0.00000000000E+00  0.00000000000E+00 -0.13897642669E+04  0.42047182666E+04  0.39684015653E+04 0.  0.
        3    1    3    3  502    0  0.12977572078E+03  0.19657714584E+02  0.14028720934E+04  0.14089990362E+04  0.10100000352E+00 0. -1.
       -3    1    3    3    0  502 -0.12977572078E+03 -0.19657714584E+02 -0.27926363603E+04  0.27957192303E+04  0.10100000352E+00 0.  1.
</event>
<event>
 5   0  0.1879500E-08  0.3998706E+04  0.7818609E-02  0.8004808E-01
       -1   -1    0    0    0  501  0.00000000000E+00  0.00000000000E+00  0.13834850421E+04  0.13834850421E+04  0.50400001928E-02 0.  1.
        1   -1    0    0  501    0  0.00000000000E+00  0.00000000000E+00 -0.28893781737E+04  0.28893781737E+04  0.50400001928E-02 0. -1.
    10030    2    1    2    0    0  0.00000000000E+00  0.00000000000E+00 -0.15058931317E+04  0.42728632158E+04  0.39987055327E+04 0.  0.
        1    1    3    3  502    0  0.42292086393E+03  0.12106434224E+04 -0.23920280973E+04  0.27140961611E+04  0.50400001928E-02 0. -1.
       -1    1    3    3    0  502 -0.42292086393E+03 -0.12106434224E+04  0.88613496566E+03  0.15587670547E+04  0.50400001928E-02 0.  1.
</event>
<event>
 5   0  0.5846812E-08  0.4010719E+04  0.7818609E-02  0.8002388E-01
       -2   -1    0    0    0  501  0.00000000000E+00  0.00000000000E+00  0.15132347638E+04  0.15132347638E+04  0.25500000920E-02 0.  1.
        2   -1    0    0  501    0  0.00000000000E+00  0.00000000000E+00 -0.26575304085E+04  0.26575304085E+04  0.25500000920E-02 0. -1.
    10030    2    1    2    0    0  0.00000000000E+00  0.00000000000E+00 -0.11442956447E+04  0.41707651724E+04  0.40107193370E+04 0.  0.
        4    1    3    3  502    0 -0.80337471919E+03 -0.96011858830E+03  0.10569638076E+04  0.16384177570E+04  0.12699999809E+01 0.  1.
       -4    1    3    3    0  502  0.80337471919E+03  0.96011858830E+03 -0.22012594523E+04  0.25323474154E+04  0.12699999809E+01 0. -1.
</event>
<event>
 5   0  0.1879500E-08  0.3991040E+04  0.7818609E-02  0.8006356E-01
       -1   -1    0    0    0  501  0.00000000000E+00  0.00000000000E+00  0.31046997268E+04  0.31046997268E+04  0.50400001928E-02 0.  1.
        1   -1    0    0  501    0  0.00000000000E+00  0.00000000000E+00 -0.12826041153E+04  0.12826041153E+04  0.50400001928E-02 0. -1.
    10030    2    1    2    0    0  0.00000000000E+00  0.00000000000E+00  0.18220956115E+04  0.43873038421E+04  0.39910402886E+04 0.  0.
        4    1    3    3  502    0  0.12166975727E+04 -0.69024616894E+03  0.24754807571E+04  0.28433781579E+04  0.12699999809E+01 0.  1.
       -4    1    3    3    0  502 -0.12166975727E+04  0.69024616894E+03 -0.65338514554E+03  0.15439256842E+04  0.12699999809E+01 0. -1.
</event>
<event>
 5   0  0.5888700E-08  0.4010137E+04  0.7818609E-02  0.8002505E-01
        2   -1    0    0  501    0  0.00000000000E+00  0.00000000000E+00  0.11560066236E+04  0.11560066236E+04  0.25500000920E-02 0.  1.
       -2   -1    0    0    0  501  0.00000000000E+00  0.00000000000E+00 -0.34777487657E+04  0.34777487657E+04  0.25500000920E-02 0. -1.
    10030    2    1    2    0    0  0.00000000000E+00  0.00000000000E+00 -0.23217421421E+04  0.46337553893E+04  0.40101374582E+04 0.  0.
        5    1    3    3  502    0  0.82628778158E+03  0.70307222957E+03  0.78753200726E+03  0.13406307510E+04  0.46999998093E+01 0.  1.
       -5    1    3    3    0  502 -0.82628778158E+03 -0.70307222957E+03 -0.31092741494E+04  0.32931246384E+04  0.46999998093E+01 0. -1.
</event>
<event>
 5   0  0.1879500E-08  0.3992085E+04  0.7818609E-02  0.8006145E-01
        1   -1    0    0  501    0  0.00000000000E+00  0.00000000000E+00  0.16873193247E+04  0.16873193247E+04  0.50400001928E-02 0.  1.
       -1   -1    0    0    0  501  0.00000000000E+00  0.00000000000E+00 -0.23612522899E+04  0.23612522899E+04  0.50400001928E-02 0. -1.
    10030    2    1    2    0    0  0.00000000000E+00  0.00000000000E+00 -0.67393296522E+03  0.40485716146E+04  0.39920854796E+04 0.  0.
        5    1    3    3  502    0  0.14515153588E+04  0.76449443410E+03  0.81614247298E+03  0.18323370877E+04  0.46999998093E+01 0. -1.
       -5    1    3    3    0  502 -0.14515153588E+04 -0.76449443410E+03 -0.14900754382E+04  0.22162345269E+04  0.46999998093E+01 0.  1.
</event>
<event>
 5   0  0.5951623E-08  0.3945643E+04  0.7818609E-02  0.8015603E-01
       -2   -1    0    0    0  501  0.00000000000E+00  0.00000000000E+00  0.25499482956E+04  0.25499482956E+04  0.25500000920E-02 0. -1.
        2   -1    0    0  501    0  0.00000000000E+00  0.00000000000E+00 -0.15263147717E+04  0.15263147717E+04  0.25500000920E-02 0.  1.
    10030    2    1    2    0    0  0.00000000000E+00  0.00000000000E+00  0.10236335239E+04  0.40762630674E+04  0.39456425336E+04 0.  0.
        2    1    3    3  502    0  0.12971695236E+04 -0.20352997795E+03  0.20329566368E+04  0.24201210532E+04  0.25500000920E-02 0. -1.
       -2    1    3    3    0  502 -0.12971695236E+04  0.20352997795E+03 -0.10093231129E+04  0.16561420142E+04  0.25500000920E-02 0.  1.
</event>
<event>
 5   0  0.5846812E-08  0.4000559E+04  0.7818609E-02  0.8004434E-01
        2   -1    0    0  501    0  0.00000000000E+00  0.00000000000E+00  0.20431063333E+04  0.20431063333E+04  0.25500000920E-02 0.  1.
       -2   -1    0    0    0  501  0.00000000000E+00  0.00000000000E+00 -0.19583503868E+04  0.19583503868E+04  0.25500000920E-02 0. -1.
    10030    2    1    2    0    0  0.00000000000E+00  0.00000000000E+00  0.84755946542E+02  0.40014567201E+04  0.40005590000E+04 0.  0.
        4    1    3    3  502    0  0.41896617596E+03 -0.12853921212E+04  0.15169377065E+04  0.20319614121E+04  0.12699999809E+01 0.  1.
       -4    1    3    3    0  502 -0.41896617596E+03  0.12853921212E+04 -0.14321817599E+04  0.19694953080E+04  0.12699999809E+01 0. -1.
</event>
<event>
 5   0  0.5951623E-08  0.4001444E+04  0.7818609E-02  0.8004255E-01
        2   -1    0    0  501    0  0.00000000000E+00  0.00000000000E+00  0.27390117788E+04  0.27390117788E+04  0.25500000920E-02 0. -1.
       -2   -1    0    0    0  501  0.00000000000E+00  0.00000000000E+00 -0.14614349694E+04  0.14614349694E+04  0.25500000920E-02 0.  1.
    10030    2    1    2    0    0  0.00000000000E+00  0.00000000000E+00  0.12775768094E+04  0.42004467482E+04  0.40014435371E+04 0.  0.
        2    1    3    3  502    0 -0.17534819863E+04  0.90733661401E+03  0.97882535918E+03  0.22036464987E+04  0.25500000920E-02 0. -1.
       -2    1    3    3    0  502  0.17534819863E+04 -0.90733661401E+03  0.29875145025E+03  0.19968002495E+04  0.25500000920E-02 0.  1.
</event>
<event>
 5   0  0.1879500E-08  0.4000306E+04  0.7818609E-02  0.8004485E-01
        1   -1    0    0  501    0  0.00000000000E+00  0.00000000000E+00  0.29926883706E+04  0.29926883706E+04  0.50400001928E-02 0. -1.
       -1   -1    0    0    0  501  0.00000000000E+00  0.00000000000E+00 -0.13367955893E+04  0.13367955893E+04  0.50400001928E-02 0.  1.
    10030    2    1    2    0    0  0.00000000000E+00  0.00000000000E+00  0.16558927813E+04  0.43294839600E+04  0.40003062953E+04 0.  0.
        4    1    3    3  502    0  0.14463299883E+04 -0.13549810096E+04  0.53599522514E+03  0.20530797514E+04  0.12699999809E+01 0. -1.
       -4    1    3    3    0  502 -0.14463299883E+04  0.13549810096E+04  0.11198975561E+04  0.22764042085E+04  0.12699999809E+01 0.  1.
</event>
<event>
 5   0  0.5888700E-08  0.3994731E+04  0.7818609E-02  0.8005610E-01
        2   -1    0    0  501    0  0.00000000000E+00  0.00000000000E+00  0.18565657068E+04  0.18565657068E+04  0.25500000920E-02 0.  1.
       -2   -1    0    0    0  501  0.00000000000E+00  0.00000000000E+00 -0.21488436021E+04  0.21488436021E+04  0.25500000920E-02 0. -1.
    10030    2    1    2    0    0  0.00000000000E+00  0.00000000000E+00 -0.29227789530E+03  0.40054093090E+04  0.39947312005E+04 0.  0.
        5    1    3    3  502    0 -0.24127987435E+03  0.44913178233E+03 -0.20824955503E+04  0.21440021321E+04  0.46999998093E+01 0. -1.
       -5    1    3    3    0  502  0.24127987435E+03 -0.44913178233E+03  0.17902176550E+04  0.18614071768E+04  0.46999998093E+01 0.  1.
</event>
<event>
 5   0  0.1879500E-08  0.4016870E+04  0.7818609E-02  0.8001152E-01
       -1   -1    0    0    0  501  0.00000000000E+00  0.00000000000E+00  0.18132375955E+04  0.18132375955E+04  0.50400001928E-02 0.  1.
        1   -1    0    0  501    0  0.00000000000E+00  0.00000000000E+00 -0.22246451451E+04  0.22246451451E+04  0.50400001928E-02 0. -1.
    10030    2    1    2    0    0  0.00000000000E+00  0.00000000000E+00 -0.41140754965E+03  0.40378827407E+04  0.40168695343E+04 0.  0.
        2    1    3    3  502    0  0.14246747656E+03  0.16316703313E+04 -0.13741808498E+04  0.21379939335E+04  0.25500000920E-02 0. -1.
       -2    1    3    3    0  502 -0.14246747656E+03 -0.16316703313E+04  0.96277330015E+03  0.18998888071E+04  0.25500000920E-02 0.  1.
</event>
<event>
 5   0  0.1879500E-08  0.3956538E+04  0.7818609E-02  0.8013372E-01
        1   -1    0    0  501    0  0.00000000000E+00  0.00000000000E+00  0.18079141996E+04  0.18079141996E+04  0.50400001928E-02 0. -1.
       -1   -1    0    0    0  501  0.00000000000E+00  0.00000000000E+00 -0.21646762391E+04  0.21646762391E+04  0.50400001928E-02 0.  1.
    10030    2    1    2    0    0  0.00000000000E+00  0.00000000000E+00 -0.35676203956E+03  0.39725904387E+04  0.39565383406E+04 0.  0.
        1    1    3    3  502    0 -0.10186285959E+04 -0.15417901974E+03 -0.18740707365E+04  0.21385781519E+04  0.50400001928E-02 0.  1.
       -1    1    3    3    0  502  0.10186285959E+04  0.15417901974E+03  0.15173086969E+04  0.18340122868E+04  0.50400001928E-02 0. -1.
</event>
<event>
 5   0  0.1879500E-08  0.4021594E+04  0.7818609E-02  0.8000205E-01
       -1   -1    0    0    0  501  0.00000000000E+00  0.00000000000E+00  0.25061399244E+04  0.25061399244E+04  0.50400001928E-02 0. -1.
        1   -1    0    0  501    0  0.00000000000E+00  0.00000000000E+00 -0.16133593260E+04  0.16133593260E+04  0.50400001928E-02 0.  1.
    10030    2    1    2    0    0  0.00000000000E+00  0.00000000000E+00  0.89278059836E+03  0.41194992504E+04  0.40215938230E+04 0.  0.
        5    1    3    3  502    0 -0.56022195825E+03 -0.17877646655E+04 -0.30168382353E+03  0.18976265072E+04  0.46999998093E+01 0.  1.
       -5    1    3    3    0  502  0.56022195825E+03  0.17877646655E+04  0.11944644219E+04  0.22218727431E+04  0.46999998093E+01 0. -1.
</event>
<event>
 5   0  0.1879500E-08  0.4037715E+04  0.7818609E-02  0.7996981E-01
        1   -1    0    0  501    0  0.00000000000E+00  0.00000000000E+00  0.29814355902E+04  0.29814355902E+04  0.50400001928E-02 0. -1.
       -1   -1    0    0    0  501  0.00000000000E+00  0.00000000000E+00 -0.13670544284E+04  0.13670544284E+04  0.50400001928E-02 0.  1.
    10030    2    1    2    0    0  0.00000000000E+00  0.00000000000E+00  0.16143811619E+04  0.43484900186E+04  0.40377145647E+04 0.  0.
        4    1    3    3  502    0 -0.10903218876E+04 -0.15747243989E+04  0.11993268344E+03  0.19190998444E+04  0.12699999809E+01 0.  1.
       -4    1    3    3    0  502  0.10903218876E+04  0.15747243989E+04  0.14944484785E+04  0.24293901743E+04  0.12699999809E+01 0. -1.
</event>
<event>
 5   0  0.6161563E-08  0.3968838E+04  0.7818609E-02  0.8010863E-01
        2   -1    0    0  501    0  0.00000000000E+00  0.00000000000E+00  0.20949546887E+04  0.20949546887E+04  0.25500000920E-02 0. -1.
       -2   -1    0    0    0  501  0.00000000000E+00  0.00000000000E+00 -0.18797154528E+04  0.18797154528E+04  0.25500000920E-02 0.  1.
    10030    2    1    2    0    0  0.00000000000E+00  0.00000000000E+00  0.21523923586E+03  0.39746701415E+04  0.39688379666E+04 0.  0.
        1    1    3    3  502    0  0.50617159096E+03  0.18326080838E+04 -0.46177249382E+03  0.19565009339E+04  0.50400001928E-02 0.  1.
       -1    1    3    3    0  502 -0.50617159096E+03 -0.18326080838E+04  0.67701172968E+03  0.20181692076E+04  0.50400001928E-02 0. -1.
</event>
<event>
 5   0  0.1879500E-08  0.4123930E+04  0.7818609E-02  0.7980002E-01
        1   -1    0    0  501    0  0.00000000000E+00  0.00000000000E+00  0.16966905087E+04  0.16966905087E+04  0.50400001928E-02 0. -1.
       -1   -1    0    0    0  501  0.00000000000E+00  0.00000000000E+00 -0.25058785500E+04  0.25058785500E+04  0.50400001928E-02 0.  1.
    10030    2    1    2    0    0  0.00000000000E+00  0.00000000000E+00 -0.80918804134E+03  0.42025690588E+04  0.41239303349E+04 0.  0.
        1    1    3    3  502    0  0.19428240750E+03 -0.20502841820E+04 -0.50796533998E+03  0.21211882678E+04  0.50400001928E-02 0.  1.
       -1    1    3    3    0  502 -0.19428240750E+03  0.20502841820E+04 -0.30122270136E+03  0.20813807909E+04  0.50400001928E-02 0. -1.
</event>
<event>
 5   0  0.5945387E-08  0.3995578E+04  0.7818609E-02  0.8005439E-01
       -2   -1    0    0    0  501  0.00000000000E+00  0.00000000000E+00  0.26482403377E+04  0.26482403377E+04  0.25500000920E-02 0. -1.
        2   -1    0    0  501    0  0.00000000000E+00  0.00000000000E+00 -0.15070994794E+04  0.15070994794E+04  0.25500000920E-02 0.  1.
    10030    2    1    2    0    0  0.00000000000E+00  0.00000000000E+00  0.11411408583E+04  0.41553398171E+04  0.39955783733E+04 0.  0.
        3    1    3    3  502    0  0.22083948781E+03 -0.55093123106E+03  0.25544255031E+04  0.26224768754E+04  0.10100000352E+00 0. -1.
       -3    1    3    3    0  502 -0.22083948781E+03  0.55093123106E+03 -0.14132846448E+04  0.15328629418E+04  0.10100000352E+00 0.  1.
</event>
<event>
 5   0  0.6161563E-08  0.3993225E+04  0.7818609E-02  0.8005915E-01
        2   -1    0    0  501    0  0.00000000000E+00  0.00000000000E+00  0.29422845824E+04  0.29422845824E+04  0.25500000920E-02 0.  1.
       -2   -1    0    0    0  501  0.00000000000E+00  0.00000000000E+00 -0.13548866299E+04  0.13548866299E+04  0.25500000920E-02 0. -1.
    10030    2    1    2    0    0  0.00000000000E+00  0.00000000000E+00  0.15873979525E+04  0.42971712122E+04  0.39932252839E+04 0.  0.
        1    1    3    3  502    0  0.20288151827E+02  0.67329518156E+03 -0.12289182498E+04  0.14014200210E+04  0.50400001928E-02 0. -1.
       -1    1    3    3    0  502 -0.20288151827E+02 -0.67329518156E+03  0.28163162022E+04  0.28957511912E+04  0.50400001928E-02 0.  1.
</event>
<event>
 5   0  0.6161563E-08  0.4001644E+04  0.7818609E-02  0.8004215E-01
       -2   -1    0    0    0  501  0.00000000000E+00  0.00000000000E+00  0.15526790385E+04  0.15526790385E+04  0.25500000920E-02 0. -1.
        2   -1    0    0  501    0  0.00000000000E+00  0.00000000000E+00 -0.25783100398E+04  0.25783100398E+04  0.25500000920E-02 0.  1.
    10030    2    1    2    0    0  0.00000000000E+00  0.00000000000E+00 -0.10256310013E+04  0.41309890783E+04  0.40016436390E+04 0.  0.
        1    1    3    3  502    0 -0.19576627389E+04  0.26981700319E+03 -0.83605519158E+03  0.21457476315E+04  0.50400001928E-02 0.  1.
       -1    1    3    3    0  502  0.19576627389E+04 -0.26981700319E+03 -0.18957580975E+03  0.19852414468E+04  0.50400001928E-02 0. -1.
</event>
<event>
 5   0  0.5888700E-08  0.4265100E+04  0.7818609E-02  0.7953103E-01
       -2   -1    0    0    0  501  0.00000000000E+00  0.00000000000E+00  0.20151090551E+04  0.20151090551E+04  0.25500000920E-02 0. -1.
        2   -1    0    0  501    0  0.00000000000E+00  0.00000000000E+00 -0.22568353546E+04  0.22568353546E+04  0.25500000920E-02 0.  1.
    10030    2    1    2    0    0  0.00000000000E+00  0.00000000000E+00 -0.24172629955E+03  0.42719444097E+04  0.42650999327E+04 0.  0.
        5    1    3    3  502    0 -0.89134319470E+03  0.61475835346E+03  0.17192913656E+04  0.20318477831E+04  0.46999998093E+01 0. -1.
       -5    1    3    3    0  502  0.89134319470E+03 -0.61475835346E+03 -0.19610176651E+04  0.22400966267E+04  0.46999998093E+01 0.  1.
</event>
<event>
 5   0  0.1879500E-08  0.3950702E+04  0.7818609E-02  0.8014566E-01
       -1   -1    0    0    0  501  0.00000000000E+00  0.00000000000E+00  0.22460711508E+04  0.22460711508E+04  0.50400001928E-02 0.  1.
        1   -1    0    0  501    0  0.00000000000E+00  0.00000000000E+00 -0.17372612166E+04  0.17372612166E+04  0.50400001928E-02 0. -1.
    10030    2    1    2    0    0  0.00000000000E+00  0.00000000000E+00  0.50880993419E+03  0.39833323674E+04  0.39507023679E+04 0.  0.
        5    1    3    3  502    0 -0.11639828200E+02 -0.13683622017E+04 -0.11819450992E+04  0.18081943778E+04  0.46999998093E+01 0. -1.
       -5    1    3    3    0  502  0.11639828200E+02  0.13683622017E+04  0.16907550334E+04  0.21751379895E+04  0.46999998093E+01 0.  1.
</event>
<event>
 5   0  0.5945387E-08  0.3987313E+04  0.7818609E-02  0.8007111E-01
       -2   -1    0    0    0  501  0.00000000000E+00  0.00000000000E+00  0.20142650710E+04  0.20142650710E+04  0.25500000920E-02 0.  1.
        2   -1    0    0  501    0  0.00000000000E+00  0.00000000000E+00 -0.19732590380E+04  0.19732590380E+04  0.25500000920E-02 0. -1.
    10030    2    1    2    0    0  0.00000000000E+00  0.00000000000E+00  0.41006033025E+02  0.39875241090E+04  0.39873132590E+04 0.  0.
        3    1    3    3  502    0 -0.14631618263E+03 -0.19072474756E+04 -0.54136776349E+03  0.19879840100E+04  0.10100000352E+00 0.  1.
       -3    1    3    3    0  502  0.14631618263E+03  0.19072474756E+04  0.58237379652E+03  0.19995400990E+04  0.10100000352E+00 0. -1.
</event>
<event>
 5   0  0.1879500E-08  0.4033447E+04  0.7818609E-02  0.7997833E-01
       -1   -1    0    0    0  501  0.00000000000E+00  0.00000000000E+00  0.14890366182E+04  0.14890366182E+04  0.50400001928E-02 0. -1.
        1   -1    0    0  501    0  0.00000000000E+00  0.00000000000E+00 -0.27314125676E+04  0.27314125676E+04  0.50400001928E-02 0.  1.
    10030    2    1    2    0    0  0.00000000000E+00  0.00000000000E+00 -0.12423759494E+04  0.42204491858E+04  0.40334468300E+04 0.  0.
        2    1    3    3  502    0 -0.19201731145E+04 -0.41737021887E+03 -0.14637591899E+03  0.19704539068E+04  0.25500000920E-02 0. -1.
       -2    1    3    3    0  502  0.19201731145E+04  0.41737021887E+03 -0.10960000304E+04  0.22499952790E+04  0.25500000920E-02 0.  1.
</event>
<event>
 5   0  0.1879500E-08  0.3994871E+04  0.7818609E-02  0.8005582E-01
        1   -1    0    0  501    0  0.00000000000E+00  0.00000000000E+00  0.22591693248E+04  0.22591693248E+04  0.50400001928E-02 0. -1.
       -1   -1    0    0    0  501  0.00000000000E+00  0.00000000000E+00 -0.17660247556E+04  0.17660247556E+04  0.50400001928E-02 0.  1.
    10030    2    1    2    0    0  0.00000000000E+00  0.00000000000E+00  0.49314456918E+03  0.40251940804E+04  0.39948711893E+04 0.  0.
        1    1    3    3  502    0  0.11937302766E+03 -0.84467587144E+03 -0.15732436700E+04  0.17896432305E+04  0.50400001928E-02 0.  1.
       -1    1    3    3    0  502 -0.11937302766E+03  0.84467587144E+03  0.20663882391E+04  0.22355508499E+04  0.50400001928E-02 0. -1.
</event>
<event>
 5   0  0.1879500E-08  0.3994187E+04  0.7818609E-02  0.8005720E-01
        1   -1    0    0  501    0  0.00000000000E+00  0.00000000000E+00  0.23081018591E+04  0.23081018591E+04  0.50400001928E-02 0. -1.
       -1   -1    0    0    0  501  0.00000000000E+00  0.00000000000E+00 -0.17279924744E+04  0.17279924744E+04  0.50400001928E-02 0.  1.
    10030    2    1    2    0    0  0.00000000000E+00  0.00000000000E+00  0.58010938476E+03  0.40360943335E+04  0.39941870976E+04 0.  0.
        3    1    3    3  502    0  0.11171357347E+04  0.15103815321E+03  0.19558586960E+04  0.22574738143E+04  0.10100000352E+00 0. -1.
       -3    1    3    3    0  502 -0.11171357347E+04 -0.15103815321E+03 -0.13757493113E+04  0.17786205191E+04  0.10100000352E+00 0.  1.
</event>
<event>
 5   0  0.1879500E-08  0.4004668E+04  0.7818609E-02  0.8003606E-01
        1   -1    0    0  501    0  0.00000000000E+00  0.00000000000E+00  0.24805841526E+04  0.24805841526E+04  0.50400001928E-02 0. -1.
       -1   -1    0    0    0  501  0.00000000000E+00  0.00000000000E+00 -0.16162893165E+04  0.16162893166E+04  0.50400001928E-02 0.  1.
    10030    2    1    2    0    0  0.00000000000E+00  0.00000000000E+00  0.86429483608E+03  0.40968734692E+04  0.40046681084E+04 0.  0.
        3    1    3    3  502    0 -0.12407642739E+04 -0.28534807669E+03  0.20131827180E+04  0.23819790457E+04  0.10100000352E+00 0. -1.
       -3    1    3    3    0  502  0.12407642739E+04  0.28534807669E+03 -0.11488878819E+04  0.17148944234E+04  0.10100000352E+00 0.  1.
</event>
<event>
 5   0  0.5951623E-08  0.4015301E+04  0.7818609E-02  0.8001467E-01
        2   -1    0    0  501    0  0.00000000000E+00  0.00000000000E+00  0.14814915513E+04  0.14814915513E+04  0.25500000920E-02 0. -1.
       -2   -1    0    0    0  501  0.00000000000E+00  0.00000000000E+00 -0.27206777175E+04  0.27206777175E+04  0.25500000920E-02 0.  1.
    10030    2    1    2    0    0  0.00000000000E+00  0.00000000000E+00 -0.12391861662E+04  0.42021692687E+04  0.40153012600E+04 0.  0.
        2    1    3    3  502    0 -0.10225072511E+04  0.19641387843E+03 -0.24160349455E+04  0.26308409964E+04  0.25500000920E-02 0.  1.
       -2    1    3    3    0  502  0.10225072511E+04 -0.19641387843E+03  0.11768487793E+04  0.15713282724E+04  0.25500000920E-02 0. -1.
</event>
<event>
 5   0  0.1879500E-08  0.3983873E+04  0.7818609E-02  0.8007808E-01
        1   -1    0    0  501    0  0.00000000000E+00  0.00000000000E+00  0.15804191388E+04  0.15804191388E+04  0.50400001928E-02 0.  1.
       -1   -1    0    0    0  501  0.00000000000E+00  0.00000000000E+00 -0.25106068020E+04  0.25106068020E+04  0.50400001928E-02 0. -1.
    10030    2    1    2    0    0  0.00000000000E+00  0.00000000000E+00 -0.93018766322E+03  0.40910259409E+04  0.39838730100E+04 0.  0.
        5    1    3    3  502    0  0.10285234560E+04  0.16841850746E+04 -0.18678951543E+03  0.19822341633E+04  0.46999998093E+01 0.  1.
       -5    1    3    3    0  502 -0.10285234560E+04 -0.16841850746E+04 -0.74339814779E+03  0.21087917776E+04  0.46999998093E+01 0. -1.
</event>
<event>
 5   0  0.5888700E-08  0.3978376E+04  0.7818609E-02  0.8008923E-01
        2   -1    0    0  501    0  0.00000000000E+00  0.00000000000E+00  0.24476691471E+04  0.24476691471E+04  0.25500000920E-02 0.  1.
       -2   -1    0    0    0  501  0.00000000000E+00  0.00000000000E+00 -0.16165861888E+04  0.16165861888E+04  0.25500000920E-02 0. -1.
    10030    2    1    2    0    0  0.00000000000E+00  0.00000000000E+00  0.83108295829E+03  0.40642553359E+04  0.39783756173E+04 0.  0.
        5    1    3    3  502    0 -0.13493476399E+04 -0.65392799644E+03 -0.91976454033E+03  0.17590763990E+04  0.46999998093E+01 0. -1.
       -5    1    3    3    0  502  0.13493476399E+04  0.65392799644E+03  0.17508474986E+04  0.23051789369E+04  0.46999998093E+01 0.  1.
</event>
<event>
 5   0  0.1879500E-08  0.4010249E+04  0.7818609E-02  0.8002482E-01
        1   -1    0    0  501    0  0.00000000000E+00  0.00000000000E+00  0.24559589685E+04  0.24559589685E+04  0.50400001928E-02 0. -1.
       -1   -1    0    0    0  501  0.00000000000E+00  0.00000000000E+00 -0.16370489558E+04  0.16370489558E+04  0.50400001928E-02 0.  1.
    10030    2    1    2    0    0  0.00000000000E+00  0.00000000000E+00  0.81891001272E+03  0.40930079243E+04  0.40102494012E+04 0.  0.
        2    1    3    3  502    0  0.41138088776E+02  0.65760907537E+03 -0.15234011639E+04  0.16597870781E+04  0.25500000920E-02 0.  1.
       -2    1    3    3    0  502 -0.41138088776E+02 -0.65760907537E+03  0.23423111766E+04  0.24332208462E+04  0.25500000920E-02 0. -1.
</event>
<event>
 5   0  0.5888700E-08  0.4004656E+04  0.7818609E-02  0.8003608E-01
       -2   -1    0    0    0  501  0.00000000000E+00  0.00000000000E+00  0.20568984850E+04  0.20568984850E+04  0.25500000920E-02 0.  1.
        2   -1    0    0  501    0  0.00000000000E+00  0.00000000000E+00 -0.19492052558E+04  0.19492052558E+04  0.25500000920E-02 0. -1.
    10030    2    1    2    0    0  0.00000000000E+00  0.00000000000E+00  0.10769322922E+03  0.40061037408E+04  0.40046559590E+04 0.  0.
        5    1    3    3  502    0 -0.13032809091E+04 -0.23360079317E+03  0.15564498278E+04  0.20434452807E+04  0.46999998093E+01 0.  1.
       -5    1    3    3    0  502  0.13032809091E+04  0.23360079317E+03 -0.14487565986E+04  0.19626584600E+04  0.46999998093E+01 0. -1.
</event>
<event>
 5   0  0.1879500E-08  0.4008801E+04  0.7818609E-02  0.8002773E-01
       -1   -1    0    0    0  501  0.00000000000E+00  0.00000000000E+00  0.14775874332E+04  0.14775874332E+04  0.50400001928E-02 0.  1.
        1   -1    0    0  501    0  0.00000000000E+00  0.00000000000E+00 -0.27190414573E+04  0.27190414574E+04  0.50400001928E-02 0. -1.
    10030    2    1    2    0    0  0.00000000000E+00  0.00000000000E+00 -0.12414540242E+04  0.41966288905E+04  0.40088010615E+04 0.  0.
        1    1    3    3  502    0  0.10581613392E+04  0.92121456183E+03  0.87787630940E+03  0.16549950161E+04  0.50400001928E-02 0.  1.
       -1    1    3    3    0  502 -0.10581613392E+04 -0.92121456183E+03 -0.21193303336E+04  0.25416338744E+04  0.50400001928E-02 0. -1.
</event>
<event>
 5   0  0.1879500E-08  0.4037419E+04  0.7818609E-02  0.7997040E-01
        1   -1    0    0  501    0  0.00000000000E+00  0.00000000000E+00  0.16577945763E+04  0.16577945763E+04  0.50400001928E-02 0.  1.
       -1   -1    0    0    0  501  0.00000000000E+00  0.00000000000E+00 -0.24581990400E+04  0.24581990401E+04  0.50400001928E-02 0. -1.
    10030    2    1    2    0    0  0.00000000000E+00  0.00000000000E+00 -0.80040446373E+03  0.41159936164E+04  0.40374194908E+04 0.  0.
        2    1    3    3  502    0  0.17425033396E+04  0.69280957555E+03 -0.11623381822E+04  0.22062033103E+04  0.25500000920E-02 0. -1.
       -2    1    3    3    0  502 -0.17425033396E+04 -0.69280957555E+03  0.36193371845E+03  0.19097903061E+04  0.25500000920E-02 0.  1.
</event>
<event>
 5   0  0.6161563E-08  0.3996462E+04  0.7818609E-02  0.8005261E-01
        2   -1    0    0  501    0  0.00000000000E+00  0.00000000000E+00  0.18635213813E+04  0.18635213813E+04  0.25500000920E-02 0. -1.
       -2   -1    0    0    0  501  0.00000000000E+00  0.00000000000E+00 -0.21426786087E+04  0.21426786087E+04  0.25500000920E-02 0.  1.
    10030    2    1    2    0    0  0.00000000000E+00  0.00000000000E+00 -0.27915722747E+03  0.40061999900E+04  0.39964621357E+04 0.  0.
        1    1    3    3  502    0 -0.15675029696E+04 -0.18758241182E+03 -0.13675837982E+04  0.20886689939E+04  0.50400001928E-02 0.  1.
       -1    1    3    3    0  502  0.15675029696E+04  0.18758241182E+03  0.10884265708E+04  0.19175309961E+04  0.50400001928E-02 0. -1.
</event>
<event>
 5   0  0.6161563E-08  0.3826819E+04  0.7818609E-02  0.8040424E-01
        2   -1    0    0  501    0  0.00000000000E+00  0.00000000000E+00  0.23532610202E+04  0.23532610202E+04  0.25500000920E-02 0.  1.
       -2   -1    0    0    0  501  0.00000000000E+00  0.00000000000E+00 -0.15557714368E+04  0.15557714368E+04  0.25500000920E-02 0. -1.
    10030    2    1    2    0    0  0.00000000000E+00  0.00000000000E+00  0.79748958345E+03  0.39090324570E+04  0.38268191901E+04 0.  0.
        1    1    3    3  502    0 -0.33278177666E+03 -0.12901439222E+04  0.18015362338E+04  0.22407025355E+04  0.50400001928E-02 0.  1.
       -1    1    3    3    0  502  0.33278177666E+03  0.12901439222E+04 -0.10040466503E+04  0.16683299215E+04  0.50400001928E-02 0. -1.
</event>
<event>
 5   0  0.1879500E-08  0.4000102E+04  0.7818609E-02  0.8004526E-01
       -1   -1    0    0    0  501  0.00000000000E+00  0.00000000000E+00  0.30634953884E+04  0.30634953884E+04  0.50400001928E-02 0.  1.
        1   -1    0    0  501    0  0.00000000000E+00  0.00000000000E+00 -0.13057647762E+04  0.13057647762E+04  0.50400001928E-02 0. -1.
    10030    2    1    2    0    0  0.00000000000E+00  0.00000000000E+00  0.17577306122E+04  0.43692601646E+04  0.40001021837E+04 0.  0.
        4    1    3    3  502    0  0.15353747288E+04  0.91639032180E+03 -0.99970233065E+02  0.17908496419E+04  0.12699999809E+01 0. -1.
       -4    1    3    3    0  502 -0.15353747288E+04 -0.91639032180E+03  0.18577008453E+04  0.25784105226E+04  0.12699999809E+01 0.  1.
</event>
<event>
 5   0  0.5888700E-08  0.4006537E+04  0.7818609E-02  0.8003229E-01
        2   -1    0    0  501    0  0.00000000000E+00  0.00000000000E+00  0.12255339318E+04  0.12255339318E+04  0.25500000920E-02 0.  1.
       -2   -1    0    0    0  501  0.00000000000E+00  0.00000000000E+00 -0.32745597885E+04  0.32745597885E+04  0.25500000920E-02 0. -1.
    10030    2    1    2    0    0  0.00000000000E+00  0.00000000000E+00 -0.20490258567E+04  0.45000937202E+04  0.40065367251E+04 0.  0.
        5    1    3    3  502    0  0.17878172772E+04  0.84464517407E+03 -0.13855893863E+04  0.24144556579E+04  0.46999998093E+01 0. -1.
       -5    1    3    3    0  502 -0.17878172772E+04 -0.84464517407E+03 -0.66343647043E+03  0.20856380623E+04  0.46999998093E+01 0.  1.
</event>
<event>
 5   0  0.1879500E-08  0.3997901E+04  0.7818609E-02  0.8004970E-01
        1   -1    0    0  501    0  0.00000000000E+00  0.00000000000E+00  0.17414987477E+04  0.17414987477E+04  0.50400001928E-02 0. -1.
       -1   -1    0    0    0  501  0.00000000000E+00  0.00000000000E+00 -0.22944616641E+04  0.22944616641E+04  0.50400001928E-02 0.  1.
    10030    2    1    2    0    0  0.00000000000E+00  0.00000000000E+00 -0.55296291639E+03  0.40359604118E+04  0.39979005063E+04 0.  0.
        5    1    3    3  502    0 -0.11319435333E+04 -0.14433407080E+04  0.52559563701E+03  0.19080884219E+04  0.46999998093E+01 0.  1.
       -5    1    3    3    0  502  0.11319435333E+04  0.14433407080E+04 -0.10785585534E+04  0.21278719899E+04  0.46999998093E+01 0. -1.
</event>
<event>
 5   0  0.1879500E-08  0.3965018E+04  0.7818609E-02  0.8011641E-01
        1   -1    0    0  501    0  0.00000000000E+00  0.00000000000E+00  0.24212198758E+04  0.24212198758E+04  0.50400001928E-02 0.  1.
       -1   -1    0    0    0  501  0.00000000000E+00  0.00000000000E+00 -0.16232901879E+04  0.16232901879E+04  0.50400001928E-02 0. -1.
    10030    2    1    2    0    0  0.00000000000E+00  0.00000000000E+00  0.79792968798E+03  0.40445100637E+04  0.39650182684E+04 0.  0.
        2    1    3    3  502    0 -0.13344328976E+04 -0.11130727672E+04  0.13724032419E+04  0.22143018768E+04  0.25500000920E-02 0.  1.
       -2    1    3    3    0  502  0.13344328976E+04  0.11130727672E+04 -0.57447355393E+03  0.18302081869E+04  0.25500000920E-02 0. -1.
</event>
<event>
 5   0  0.5888700E-08  0.3990861E+04  0.7818609E-02  0.8006393E-01
        2   -1    0    0  501    0  0.00000000000E+00  0.00000000000E+00  0.16317500145E+04  0.16317500146E+04  0.25500000920E-02 0.  1.
       -2   -1    0    0    0  501  0.00000000000E+00  0.00000000000E+00 -0.24401672357E+04  0.24401672357E+04  0.25500000920E-02 0. -1.
    10030    2    1    2    0    0  0.00000000000E+00  0.00000000000E+00 -0.80841722110E+03  0.40719172502E+04  0.39908610210E+04 0.  0.
        5    1    3    3  502    0 -0.10536004859E+04  0.16878555616E+04 -0.25017737254E+03  0.20053780662E+04  0.46999998093E+01 0.  1.
       -5    1    3    3    0  502  0.10536004859E+04 -0.16878555616E+04 -0.55823984856E+03  0.20665391840E+04  0.46999998093E+01 0. -1.
</event>
<event>
 5   0  0.6161563E-08  0.3964116E+04  0.7818609E-02  0.8011825E-01
       -2   -1    0    0    0  501  0.00000000000E+00  0.00000000000E+00  0.16942988568E+04  0.16942988568E+04  0.25500000920E-02 0.  1.
        2   -1    0    0  501    0  0.00000000000E+00  0.00000000000E+00 -0.23186904720E+04  0.23186904720E+04  0.25500000920E-02 0. -1.
    10030    2    1    2    0    0  0.00000000000E+00  0.00000000000E+00 -0.62439161514E+03  0.40129893288E+04  0.39641163535E+04 0.  0.
        1    1    3    3  502    0 -0.12566146512E+04  0.11325967044E+03 -0.18596511240E+04  0.22472673267E+04  0.50400001928E-02 0. -1.
       -1    1    3    3    0  502  0.12566146512E+04 -0.11325967044E+03  0.12352595088E+04  0.17657220021E+04  0.50400001928E-02 0.  1.
</event>
<event>
 5   0  0.1879500E-08  0.4005458E+04  0.7818609E-02  0.8003446E-01
        1   -1    0    0  501    0  0.00000000000E+00  0.00000000000E+00  0.14861504354E+04  0.14861504354E+04  0.50400001928E-02 0.  1.
       -1   -1    0    0    0  501  0.00000000000E+00  0.00000000000E+00 -0.26988679137E+04  0.26988679137E+04  0.50400001928E-02 0. -1.
    10030    2    1    2    0    0  0.00000000000E+00  0.00000000000E+00 -0.12127174783E+04  0.41850183490E+04  0.40054581385E+04 0.  0.
        2    1    3    3  502    0  0.73003414171E+03  0.14413822659E+04  0.63007210644E+03  0.17342213076E+04  0.25500000920E-02 0. -1.
       -2    1    3    3    0  502 -0.73003414171E+03 -0.14413822659E+04 -0.18427895847E+04  0.24507970414E+04  0.25500000920E-02 0.  1.
</event>
<event>
 5   0  0.1879500E-08  0.4005405E+04  0.7818609E-02  0.8003457E-01
        1   -1    0    0  501    0  0.00000000000E+00  0.00000000000E+00  0.23092558532E+04  0.23092558532E+04  0.50400001928E-02 0.  1.
       -1   -1    0    0    0  501  0.00000000000E+00  0.00000000000E+00 -0.17368436667E+04  0.17368436667E+04  0.50400001928E-02 0. -1.
    10030    2    1    2    0    0  0.00000000000E+00  0.00000000000E+00  0.57241218646E+03  0.40460995199E+04  0.40054045506E+04 0.  0.
        5    1    3    3  502    0 -0.10995508392E+04  0.15827046732E+04 -0.26414868379E+03  0.19451896431E+04  0.46999998093E+01 0. -1.
       -5    1    3    3    0  502  0.10995508392E+04 -0.15827046732E+04  0.83656087025E+03  0.21009098768E+04  0.46999998093E+01 0.  1.
</event>
<event>
 5   0  0.1879500E-08  0.4004853E+04  0.7818609E-02  0.8003568E-01
        1   -1    0    0  501    0  0.00000000000E+00  0.00000000000E+00  0.13880034788E+04  0.13880034788E+04  0.50400001928E-02 0. -1.
       -1   -1    0    0    0  501  0.00000000000E+00  0.00000000000E+00 -0.28888346128E+04  0.28888346128E+04  0.50400001928E-02 0.  1.
    10030    2    1    2    0    0  0.00000000000E+00  0.00000000000E+00 -0.15008311340E+04  0.42768380916E+04  0.40048533018E+04 0.  0.
        3    1    3    3  502    0 -0.38228170939E+03 -0.99794747329E+03 -0.25588430052E+04  0.27730337178E+04  0.10100000352E+00 0.  1.
       -3    1    3    3    0  502  0.38228170939E+03  0.99794747329E+03  0.10580118712E+04  0.15038043738E+04  0.10100000352E+00 0. -1.
</event>
<event>
 5   0  0.1879500E-08  0.4002819E+04  0.7818609E-02  0.8003978E-01
        3   -1    0    0  501    0  0.00000000000E+00  0.00000000000E+00  0.22060905138E+04  0.22060905161E+04  0.10100000352E+00 0. -1.
       -3   -1    0    0    0  501  0.00000000000E+00  0.00000000000E+00 -0.18157191413E+04  0.18157191441E+04  0.10100000352E+00 0.  1.
    10030    2    1    2    0    0  0.00000000000E+00  0.00000000000E+00  0.39037137246E+03  0.40218096602E+04  0.40028193982E+04 0.  0.
        4    1    3    3  502    0 -0.12705107591E+04 -0.98986627599E+03 -0.99856137893E+03  0.18950354281E+04  0.12699999809E+01 0.  1.
       -4    1    3    3    0  502  0.12705107591E+04  0.98986627599E+03  0.13889327514E+04  0.21267742321E+04  0.12699999809E+01 0. -1.
</event>
<event>
 5   0  0.1879500E-08  0.4001260E+04  0.7818609E-02  0.8004292E-01
        1   -1    0    0  501    0  0.00000000000E+00  0.00000000000E+00  0.15832573984E+04  0.15832573984E+04  0.50400001928E-02 0.  1.
       -1   -1    0    0    0  501  0.00000000000E+00  0.00000000000E+00 -0.25280292326E+04  0.25280292326E+04  0.50400001928E-02 0. -1.
    10030    2    1    2    0    0  0.00000000000E+00  0.00000000000E+00 -0.94477183415E+03  0.41112866310E+04  0.40012602944E+04 0.  0.
        4    1    3    3  502    0  0.12143627114E+04 -0.12998134532E+04  0.46839353814E+03  0.18394526163E+04  0.12699999809E+01 0.  1.
       -4    1    3    3    0  502 -0.12143627114E+04  0.12998134532E+04 -0.14131653723E+04  0.22718340147E+04  0.12699999809E+01 0. -1.
</event>
<event>
 5   0  0.1879500E-08  0.3992686E+04  0.7818609E-02  0.8006024E-01
        1   -1    0    0  501    0  0.00000000000E+00  0.00000000000E+00  0.16704259387E+04  0.16704259387E+04  0.50400001928E-02 0.  1.
       -1   -1    0    0    0  501  0.00000000000E+00  0.00000000000E+00 -0.23858496518E+04  0.23858496518E+04  0.50400001928E-02 0. -1.
    10030    2    1    2    0    0  0.00000000000E+00  0.00000000000E+00 -0.71542371315E+03  0.40562755905E+04  0.39926858850E+04 0.  0.
        5    1    3    3  502    0 -0.45441323189E+03 -0.17264227816E+04 -0.12654387017E+04  0.21882376937E+04  0.46999998093E+01 0. -1.
       -5    1    3    3    0  502  0.45441323189E+03  0.17264227816E+04  0.55001498860E+03  0.18680378968E+04  0.46999998093E+01 0.  1.
</event>
<event>
 5   0  0.5846812E-08  0.4002149E+04  0.7818609E-02  0.8004113E-01
        2   -1    0    0  501    0  0.00000000000E+00  0.00000000000E+00  0.14139815410E+04  0.14139815410E+04  0.25500000920E-02 0.  1.
       -2   -1    0    0    0  501  0.00000000000E+00  0.00000000000E+00 -0.28319316296E+04  0.28319316296E+04  0.25500000920E-02 0. -1.
    10030    2    1    2    0    0  0.00000000000E+00  0.00000000000E+00 -0.14179500886E+04  0.42459131706E+04  0.40021489476E+04 0.  0.
        4    1    3    3  502    0  0.77903866940E+02 -0.16686771902E+04 -0.18777787035E+04  0.25132861058E+04  0.12699999809E+01 0. -1.
       -4    1    3    3    0  502 -0.77903866940E+02  0.16686771902E+04  0.45982861489E+03  0.17326270648E+04  0.12699999809E+01 0.  1.
</event>
<event>
 5   0  0.1879500E-08  0.3992929E+04  0.7818609E-02  0.8005975E-01
        1   -1    0    0  501    0  0.00000000000E+00  0.00000000000E+00  0.26548240152E+04  0.26548240152E+04  0.50400001928E-02 0. -1.
       -1   -1    0    0    0  501  0.00000000000E+00  0.00000000000E+00 -0.15013690617E+04  0.15013690617E+04  0.50400001928E-02 0.  1.
    10030    2    1    2    0    0  0.00000000000E+00  0.00000000000E+00  0.11534549535E+04  0.41561930768E+04  0.39929290705E+04 0.  0.
        5    1    3    3  502    0  0.39438184251E+03 -0.19567884451E+04  0.61411977236E+03  0.20884739025E+04  0.46999998093E+01 0.  1.
       -5    1    3    3    0  502 -0.39438184251E+03  0.19567884451E+04  0.53933518117E+03  0.20677191744E+04  0.46999998093E+01 0. -1.
</event>
<event>
 5   0  0.5945387E-08  0.3998502E+04  0.7818609E-02  0.8004849E-01
        2   -1    0    0  501    0  0.00000000000E+00  0.00000000000E+00  0.18002406849E+04  0.18002406849E+04  0.25500000920E-02 0.  1.
       -2   -1    0    0    0  501  0.00000000000E+00  0.00000000000E+00 -0.22202608546E+04  0.22202608546E+04  0.25500000920E-02 0. -1.
    10030    2    1    2    0    0  0.00000000000E+00  0.00000000000E+00 -0.42002016968E+03  0.40205015396E+04  0.39985016802E+04 0.  0.
        3    1    3    3  502    0 -0.17512756119E+04 -0.66611281153E+03 -0.91122168101E+03  0.20835060616E+04  0.10100000352E+00 0.  1.
       -3    1    3    3    0  502  0.17512756119E+04  0.66611281153E+03  0.49120151133E+03  0.19369954779E+04  0.10100000352E+00 0. -1.
</event>
<event>
 5   0  0.5945387E-08  0.4007912E+04  0.7818609E-02  0.8002952E-01
        2   -1    0    0  501    0  0.00000000000E+00  0.00000000000E+00  0.25154312758E+04  0.25154312758E+04  0.25500000920E-02 0. -1.
       -2   -1    0    0    0  501  0.00000000000E+00  0.00000000000E+00 -0.15964814269E+04  0.15964814269E+04  0.25500000920E-02 0.  1.
    10030    2    1    2    0    0  0.00000000000E+00  0.00000000000E+00  0.91894984887E+03  0.41119127028E+04  0.40079118317E+04 0.  0.
        3    1    3    3  502    0  0.99017353776E+02 -0.19654417779E+03  0.25029954712E+04  0.25126520629E+04  0.10100000352E+00 0. -1.
       -3    1    3    3    0  502 -0.99017353776E+02  0.19654417779E+03 -0.15840456224E+04  0.15992606398E+04  0.10100000352E+00 0.  1.
</event>
<event>
 5   0  0.1879500E-08  0.3980881E+04  0.7818609E-02  0.8008415E-01
        1   -1    0    0  501    0  0.00000000000E+00  0.00000000000E+00  0.20265775068E+04  0.20265775068E+04  0.50400001928E-02 0.  1.
       -1   -1    0    0    0  501  0.00000000000E+00  0.00000000000E+00 -0.19549480474E+04  0.19549480474E+04  0.50400001928E-02 0. -1.
    10030    2    1    2    0    0  0.00000000000E+00  0.00000000000E+00  0.71629459348E+02  0.39815255542E+04  0.39808811787E+04 0.  0.
        2    1    3    3  502    0 -0.16628325354E+04 -0.86243449678E+03  0.70901241046E+03  0.20028739102E+04  0.25500000920E-02 0.  1.
       -2    1    3    3    0  502  0.16628325354E+04  0.86243449678E+03 -0.63738295111E+03  0.19786516440E+04  0.25500000920E-02 0. -1.
</event>
<event>
 5   0  0.5888700E-08  0.4017794E+04  0.7818609E-02  0.8000967E-01
        2   -1    0    0  501    0  0.00000000000E+00  0.00000000000E+00  0.23940353107E+04  0.23940353107E+04  0.25500000920E-02 0. -1.
       -2   -1    0    0    0  501  0.00000000000E+00  0.00000000000E+00 -0.16857174044E+04  0.16857174044E+04  0.25500000920E-02 0.  1.
    10030    2    1    2    0    0  0.00000000000E+00  0.00000000000E+00  0.70831790633E+03  0.40797527151E+04  0.40177939170E+04 0.  0.
        5    1    3    3  502    0 -0.98821969207E+03 -0.32580761721E+03 -0.13907458566E+04  0.17369297311E+04  0.46999998093E+01 0.  1.
       -5    1    3    3    0  502  0.98821969207E+03  0.32580761721E+03  0.20990637629E+04  0.23428229839E+04  0.46999998093E+01 0. -1.
</event>
<event>
 5   0  0.1879500E-08  0.3996136E+04  0.7818609E-02  0.8005327E-01
        3   -1    0    0  501    0  0.00000000000E+00  0.00000000000E+00  0.18693908736E+04  0.18693908763E+04  0.10100000352E+00 0.  1.
       -3   -1    0    0    0  501  0.00000000000E+00  0.00000000000E+00 -0.21356024040E+04  0.21356024064E+04  0.10100000352E+00 0. -1.
    10030    2    1    2    0    0  0.00000000000E+00  0.00000000000E+00 -0.26621153044E+03  0.40049932828E+04  0.39961359607E+04 0.  0.
        2    1    3    3  502    0 -0.14436012167E+04  0.65069821063E+03 -0.13543644262E+04  0.20836735908E+04  0.25500000920E-02 0. -1.
       -2    1    3    3    0  502  0.14436012167E+04 -0.65069821063E+03  0.10881528958E+04  0.19213196920E+04  0.25500000920E-02 0.  1.
</event>
<event>
 5   0  0.1879500E-08  0.4031472E+04  0.7818609E-02  0.7998228E-01
        1   -1    0    0  501    0  0.00000000000E+00  0.00000000000E+00  0.16260090108E+04  0.16260090108E+04  0.50400001928E-02 0.  1.
       -1   -1    0    0    0  501  0.00000000000E+00  0.00000000000E+00 -0.24988739297E+04  0.24988739297E+04  0.50400001928E-02 0. -1.
    10030    2    1    2    0    0  0.00000000000E+00  0.00000000000E+00 -0.87286491887E+03  0.41248829405E+04  0.40314719529E+04 0.  0.
        2    1    3    3  502    0 -0.10746254589E+04  0.58172067594E+03 -0.20766907477E+04  0.24095359063E+04  0.25500000920E-02 0. -1.
       -2    1    3    3    0  502  0.10746254589E+04 -0.58172067594E+03  0.12038258289E+04  0.17153470343E+04  0.25500000920E-02 0.  1.
</event>
<event>
 5   0  0.5888700E-08  0.4054039E+04  0.7818609E-02  0.7993733E-01
        2   -1    0    0  501    0  0.00000000000E+00  0.00000000000E+00  0.17110274400E+04  0.17110274400E+04  0.25500000920E-02 0.  1.
       -2   -1    0    0    0  501  0.00000000000E+00  0.00000000000E+00 -0.24013684337E+04  0.24013684337E+04  0.25500000920E-02 0. -1.
    10030    2    1    2    0    0  0.00000000000E+00  0.00000000000E+00 -0.69034099377E+03  0.41123958737E+04  0.40540386202E+04 0.  0.
        5    1    3    3  502    0 -0.17696726995E+04 -0.18060179727E+03  0.64063484281E+03  0.18907124489E+04  0.46999998093E+01 0.  1.
       -5    1    3    3    0  502  0.17696726995E+04  0.18060179727E+03 -0.13309758366E+04  0.22216834248E+04  0.46999998093E+01 0. -1.
</event>
<event>
 5   0  0.6161563E-08  0.4015169E+04  0.7818609E-02  0.8001494E-01
        2   -1    0    0  501    0  0.00000000000E+00  0.00000000000E+00  0.21151523800E+04  0.21151523800E+04  0.25500000920E-02 0. -1.
       -2   -1    0    0    0  501  0.00000000000E+00  0.00000000000E+00 -0.19054866952E+04  0.19054866952E+04  0.25500000920E-02 0.  1.
    10030    2    1    2    0    0  0.00000000000E+00  0.00000000000E+00  0.20966568479E+03  0.40206390753E+04  0.40151685985E+04 0.  0.
        1    1    3    3  502    0  0.32247587228E+03 -0.11061115027E+04 -0.15414634844E+04  0.19244695421E+04  0.50400001928E-02 0.  1.
       -1    1    3    3    0  502 -0.32247587228E+03  0.11061115027E+04  0.17511291692E+04  0.20961695332E+04  0.50400001928E-02 0. -1.
</event>
<event>
 5   0  0.1879500E-08  0.3999758E+04  0.7818609E-02  0.8004595E-01
        1   -1    0    0  501    0  0.00000000000E+00  0.00000000000E+00  0.28563720357E+04  0.28563720357E+04  0.50400001928E-02 0.  1.
       -1   -1    0    0    0  501  0.00000000000E+00  0.00000000000E+00 -0.14002085246E+04  0.14002085246E+04  0.50400001928E-02 0. -1.
    10030    2    1    2    0    0  0.00000000000E+00  0.00000000000E+00  0.14561635111E+04  0.42565805603E+04  0.39997582296E+04 0.  0.
        2    1    3    3  502    0  0.44240784221E+03 -0.19388740893E+04  0.95272586426E+03  0.22051403595E+04  0.25500000920E-02 0. -1.
       -2    1    3    3    0  502 -0.44240784221E+03  0.19388740893E+04  0.50343764685E+03  0.20514402007E+04  0.25500000920E-02 0.  1.
</event>
<event>
 5   0  0.6161563E-08  0.3996754E+04  0.7818609E-02  0.8005202E-01
       -2   -1    0    0    0  501  0.00000000000E+00  0.00000000000E+00  0.15462338850E+04  0.15462338850E+04  0.25500000920E-02 0.  1.
        2   -1    0    0  501    0  0.00000000000E+00  0.00000000000E+00 -0.25827332299E+04  0.25827332299E+04  0.25500000920E-02 0. -1.
    10030    2    1    2    0    0  0.00000000000E+00  0.00000000000E+00 -0.10364993449E+04  0.41289671149E+04  0.39967535006E+04 0.  0.
        1    1    3    3  502    0  0.76653204018E+03 -0.17970156317E+04 -0.95247910650E+03  0.21734886697E+04  0.50400001928E-02 0.  1.
       -1    1    3    3    0  502 -0.76653204018E+03  0.17970156317E+04 -0.84020238404E+02  0.19554784452E+04  0.50400001928E-02 0. -1.
</event>
<event>
 5   0  0.1879500E-08  0.4007353E+04  0.7818609E-02  0.8003065E-01
        1   -1    0    0  501    0  0.00000000000E+00  0.00000000000E+00  0.19928285018E+04  0.19928285018E+04  0.50400001928E-02 0. -1.
       -1   -1    0    0    0  501  0.00000000000E+00  0.00000000000E+00 -0.20145839190E+04  0.20145839190E+04  0.50400001928E-02 0.  1.
    10030    2    1    2    0    0  0.00000000000E+00  0.00000000000E+00 -0.21755417166E+02  0.40074124208E+04  0.40073533675E+04 0.  0.
        4    1    3    3  502    0  0.95278997998E+03 -0.67677839118E+02  0.17504913720E+04  0.19941441002E+04  0.12699999809E+01 0. -1.
       -4    1    3    3    0  502 -0.95278997998E+03  0.67677839118E+02 -0.17722467892E+04  0.20132683206E+04  0.12699999809E+01 0.  1.
</event>
<event>
 5   0  0.5945387E-08  0.3994126E+04  0.7818609E-02  0.8005733E-01
       -2   -1    0    0    0  501  0.00000000000E+00  0.00000000000E+00  0.16948869162E+04  0.16948869162E+04  0.25500000920E-02 0. -1.
        2   -1    0    0  501    0  0.00000000000E+00  0.00000000000E+00 -0.23531125785E+04  0.23531125785E+04  0.25500000920E-02 0.  1.
    10030    2    1    2    0    0  0.00000000000E+00  0.00000000000E+00 -0.65822566226E+03  0.40479994947E+04  0.39941255472E+04 0.  0.
        3    1    3    3  502    0 -0.18818468984E+04  0.39248065954E+03 -0.87758784068E+03  0.21131846217E+04  0.10100000352E+00 0. -1.
       -3    1    3    3    0  502  0.18818468984E+04 -0.39248065954E+03  0.21936217842E+03  0.19348148730E+04  0.10100000352E+00 0.  1.
</event>
<event>
 5   0  0.1879500E-08  0.4002304E+04  0.7818609E-02  0.8004082E-01
        1   -1    0    0  501    0  0.00000000000E+00  0.00000000000E+00  0.21205989600E+04  0.21205989600E+04  0.50400001928E-02 0. -1.
       -1   -1    0    0    0  501  0.00000000000E+00  0.00000000000E+00 -0.18884329743E+04  0.18884329743E+04  0.50400001928E-02 0.  1.
    10030    2    1    2    0    0  0.00000000000E+00  0.00000000000E+00  0.23216598565E+03  0.40090319343E+04  0.40023038372E+04 0.  0.
        4    1    3    3  502    0 -0.12286899643E+03 -0.69285419816E+03 -0.17604224791E+04  0.18958461562E+04  0.12699999809E+01 0.  1.
       -4    1    3    3    0  502  0.12286899643E+03  0.69285419816E+03  0.19925884647E+04  0.21131857781E+04  0.12699999809E+01 0. -1.
</event>
<event>
 5   0  0.5945387E-08  0.3999457E+04  0.7818609E-02  0.8004656E-01
       -2   -1    0    0    0  501  0.00000000000E+00  0.00000000000E+00  0.32649862205E+04  0.32649862205E+04  0.25500000920E-02 0.  1.
        2   -1    0    0  501    0  0.00000000000E+00  0.00000000000E+00 -0.12247876419E+04  0.12247876419E+04  0.25500000920E-02 0. -1.
    10030    2    1    2    0    0  0.00000000000E+00  0.00000000000E+00  0.20401985786E+04  0.44897738624E+04  0.39994573500E+04 0.  0.
        3    1    3    3  502    0  0.67991036931E+03  0.55269734788E+03 -0.99781531567E+03  0.13279261587E+04  0.10100000352E+00 0. -1.
       -3    1    3    3    0  502 -0.67991036931E+03 -0.55269734788E+03  0.30380138943E+04  0.31618477036E+04  0.10100000352E+00 0.  1.
</event>
<event>
 5   0  0.5846812E-08  0.4015548E+04  0.7818609E-02  0.8001417E-01
       -2   -1    0    0    0  501  0.00000000000E+00  0.00000000000E+00  0.15844942449E+04  0.15844942449E+04  0.25500000920E-02 0. -1.
        2   -1    0    0  501    0  0.00000000000E+00  0.00000000000E+00 -0.25441278441E+04  0.25441278441E+04  0.25500000920E-02 0.  1.
    10030    2    1    2    0    0  0.00000000000E+00  0.00000000000E+00 -0.95963359920E+03  0.41286220890E+04  0.40155477471E+04 0.  0.
        4    1    3    3  502    0 -0.78649935705E+03 -0.33499235872E+02 -0.23788383734E+04  0.25057088931E+04  0.12699999809E+01 0.  1.
       -4    1    3    3    0  502  0.78649935705E+03  0.33499235872E+02  0.14192047742E+04  0.16229131959E+04  0.12699999809E+01 0. -1.
</event>
<event>
 5   0  0.5951623E-08  0.4005985E+04  0.7818609E-02  0.8003340E-01
        2   -1    0    0  501    0  0.00000000000E+00  0.00000000000E+00  0.22790073030E+04  0.22790073030E+04  0.25500000920E-02 0.  1.
       -2   -1    0    0    0  501  0.00000000000E+00  0.00000000000E+00 -0.17604061881E+04  0.17604061881E+04  0.25500000920E-02 0. -1.
    10030    2    1    2    0    0  0.00000000000E+00  0.00000000000E+00  0.51860111483E+03  0.40394134911E+04  0.40059848022E+04 0.  0.
        2    1    3    3  502    0 -0.16470829345E+04 -0.23324075024E+03 -0.86566831919E+03  0.18752773340E+04  0.25500000920E-02 0. -1.
       -2    1    3    3    0  502  0.16470829345E+04  0.23324075024E+03  0.13842694340E+04  0.21641361571E+04  0.25500000920E-02 0.  1.
</event>
<event>
 5   0  0.5951623E-08  0.4003211E+04  0.7818609E-02  0.8003899E-01
       -2   -1    0    0    0  501  0.00000000000E+00  0.00000000000E+00  0.16003607952E+04  0.16003607952E+04  0.25500000920E-02 0.  1.
        2   -1    0    0  501    0  0.00000000000E+00  0.00000000000E+00 -0.25034513608E+04  0.25034513608E+04  0.25500000920E-02 0. -1.
    10030    2    1    2    0    0  0.00000000000E+00  0.00000000000E+00 -0.90309056560E+03  0.41038121559E+04  0.40032114160E+04 0.  0.
        2    1    3    3  502    0  0.29261725961E+03  0.17249891257E+04  0.54510731998E+03  0.18325813310E+04  0.25500000920E-02 0.  1.
       -2    1    3    3    0  502 -0.29261725961E+03 -0.17249891257E+04 -0.14481978856E+04  0.22712308249E+04  0.25500000920E-02 0. -1.
</event>
<event>
 5   0  0.1879500E-08  0.4007198E+04  0.7818609E-02  0.8003096E-01
       -1   -1    0    0    0  501  0.00000000000E+00  0.00000000000E+00  0.27554869934E+04  0.27554869934E+04  0.50400001928E-02 0. -1.
        1   -1    0    0  501    0  0.00000000000E+00  0.00000000000E+00 -0.14568781116E+04  0.14568781116E+04  0.50400001928E-02 0.  1.
    10030    2    1    2    0    0  0.00000000000E+00  0.00000000000E+00  0.12986088819E+04  0.42123651050E+04  0.40071978676E+04 0.  0.
        4    1    3    3  502    0 -0.63418928919E+03 -0.15893443817E+04  0.17448721159E+04  0.24439296086E+04  0.12699999809E+01 0. -1.
       -4    1    3    3    0  502  0.63418928919E+03  0.15893443817E+04 -0.44626323401E+03  0.17684354964E+04  0.12699999809E+01 0.  1.
</event>
<event>
 5   0  0.5951623E-08  0.4005563E+04  0.7818609E-02  0.8003425E-01
       -2   -1    0    0    0  501  0.00000000000E+00  0.00000000000E+00  0.13225900201E+04  0.13225900201E+04  0.25500000920E-02 0.  1.
        2   -1    0    0  501    0  0.00000000000E+00  0.00000000000E+00 -0.30327870720E+04  0.30327870720E+04  0.25500000920E-02 0. -1.
    10030    2    1    2    0    0  0.00000000000E+00  0.00000000000E+00 -0.17101970519E+04  0.43553770921E+04  0.40055630888E+04 0.  0.
        2    1    3    3  502    0  0.36399956039E+03 -0.71363724358E+03 -0.28509853066E+04  0.29614001779E+04  0.25500000920E-02 0. -1.
       -2    1    3    3    0  502 -0.36399956039E+03  0.71363724358E+03  0.11407882547E+04  0.13939769142E+04  0.25500000920E-02 0.  1.
</event>
<event>
 5   0  0.5888700E-08  0.4012030E+04  0.7818609E-02  0.8002124E-01
        2   -1    0    0  501    0  0.00000000000E+00  0.00000000000E+00  0.18877342571E+04  0.18877342571E+04  0.25500000920E-02 0. -1.
       -2   -1    0    0    0  501  0.00000000000E+00  0.00000000000E+00 -0.21317069110E+04  0.21317069110E+04  0.25500000920E-02 0.  1.
    10030    2    1    2    0    0  0.00000000000E+00  0.00000000000E+00 -0.24397265390E+03  0.40194411680E+04  0.40120299909E+04 0.  0.
        5    1    3    3  502    0 -0.17558171655E+04 -0.33317911501E+03  0.79083441905E+03  0.19543140510E+04  0.46999998093E+01 0. -1.
       -5    1    3    3    0  502  0.17558171655E+04  0.33317911501E+03 -0.10348070729E+04  0.20651271171E+04  0.46999998093E+01 0.  1.
</event>
<event>
 5   0  0.5888700E-08  0.3969497E+04  0.7818609E-02  0.8010728E-01
        2   -1    0    0  501    0  0.00000000000E+00  0.00000000000E+00  0.14031676449E+04  0.14031676449E+04  0.25500000920E-02 0. -1.
       -2   -1    0    0    0  501  0.00000000000E+00  0.00000000000E+00 -0.28073811071E+04  0.28073811071E+04  0.25500000920E-02 0.  1.
    10030    2    1    2    0    0  0.00000000000E+00  0.00000000000E+00 -0.14042134622E+04  0.42105487520E+04  0.39694968630E+04 0.  0.
        5    1    3    3  502    0  0.42849296697E+03 -0.86875311378E+03  0.11353898610E+04  0.14924712466E+04  0.46999998093E+01 0. -1.
       -5    1    3    3    0  502 -0.42849296697E+03  0.86875311378E+03 -0.25396033233E+04  0.27180775053E+04  0.46999998093E+01 0.  1.
</event>
<event>
 5   0  0.5945387E-08  0.4055293E+04  0.7818609E-02  0.7993484E-01
        2   -1    0    0  501    0  0.00000000000E+00  0.00000000000E+00  0.13497175483E+04  0.13497175483E+04  0.25500000920E-02 0.  1.
       -2   -1    0    0    0  501  0.00000000000E+00  0.00000000000E+00 -0.30460826113E+04  0.30460826113E+04  0.25500000920E-02 0. -1.
    10030    2    1    2    0    0  0.00000000000E+00  0.00000000000E+00 -0.16963650630E+04  0.43958001596E+04  0.40552934069E+04 0.  0.
        3    1    3    3  502    0  0.12703579845E+04  0.14308525780E+04 -0.12087233678E+03  0.19172268100E+04  0.10100000352E+00 0. -1.
       -3    1    3    3    0  502 -0.12703579845E+04 -0.14308525780E+04 -0.15754927262E+04  0.24785733496E+04  0.10100000352E+00 0.  1.
</event>
<event>
 5   0  0.1879500E-08  0.3983902E+04  0.7818609E-02  0.8007802E-01
       -1   -1    0    0    0  501  0.00000000000E+00  0.00000000000E+00  0.21651371449E+04  0.21651371449E+04  0.50400001928E-02 0.  1.
        1   -1    0    0  501    0  0.00000000000E+00  0.00000000000E+00 -0.18326174981E+04  0.18326174981E+04  0.50400001928E-02 0. -1.
    10030    2    1    2    0    0  0.00000000000E+00  0.00000000000E+00  0.33251964682E+03  0.39977546430E+04  0.39839017144E+04 0.  0.
        5    1    3    3  502    0  0.83188205081E+03  0.14917578673E+04  0.11947514567E+04  0.20844237607E+04  0.46999998093E+01 0.  1.
       -5    1    3    3    0  502 -0.83188205081E+03 -0.14917578673E+04 -0.86223180986E+03  0.19133308822E+04  0.46999998093E+01 0. -1.
</event>
<event>
 5   0  0.1879500E-08  0.4016639E+04  0.7818609E-02  0.8001198E-01
       -1   -1    0    0    0  501  0.00000000000E+00  0.00000000000E+00  0.13311295788E+04  0.13311295788E+04  0.50400001928E-02 0.  1.
        1   -1    0    0  501    0  0.00000000000E+00  0.00000000000E+00 -0.30300183285E+04  0.30300183285E+04  0.50400001928E-02 0. -1.
    10030    2    1    2    0    0  0.00000000000E+00  0.00000000000E+00 -0.16988887497E+04  0.43611479073E+04  0.40166389041E+04 0.  0.
        1    1    3    3  502    0  0.16442416905E+03 -0.11656547235E+04  0.91724824561E+03  0.14923573921E+04  0.50400001928E-02 0.  1.
       -1    1    3    3    0  502 -0.16442416905E+03  0.11656547235E+04 -0.26161369953E+04  0.28687905152E+04  0.50400001928E-02 0. -1.
</event>
<event>
 5   0  0.5945387E-08  0.4017555E+04  0.7818609E-02  0.8001015E-01
       -2   -1    0    0    0  501  0.00000000000E+00  0.00000000000E+00  0.14218659658E+04  0.14218659658E+04  0.25500000920E-02 0. -1.
        2   -1    0    0  501    0  0.00000000000E+00  0.00000000000E+00 -0.28379516474E+04  0.28379516474E+04  0.25500000920E-02 0.  1.
    10030    2    1    2    0    0  0.00000000000E+00  0.00000000000E+00 -0.14160856816E+04  0.42598176132E+04  0.40175549082E+04 0.  0.
        3    1    3    3  502    0 -0.16993621671E+04 -0.93630128017E+03 -0.12597000411E+04  0.23132954990E+04  0.10100000352E+00 0.  1.
       -3    1    3    3    0  502  0.16993621671E+04  0.93630128017E+03 -0.15638564047E+03  0.19465221141E+04  0.10100000352E+00 0. -1.
</event>
<event>
 5   0  0.1879500E-08  0.4025975E+04  0.7818609E-02  0.7999327E-01
       -1   -1    0    0    0  501  0.00000000000E+00  0.00000000000E+00  0.21335622768E+04  0.21335622768E+04  0.50400001928E-02 0.  1.
        1   -1    0    0  501    0  0.00000000000E+00  0.00000000000E+00 -0.18992272027E+04  0.18992272027E+04  0.50400001928E-02 0. -1.
    10030    2    1    2    0    0  0.00000000000E+00  0.00000000000E+00  0.23433507410E+03  0.40327894795E+04  0.40259754171E+04 0.  0.
        2    1    3    3  502    0 -0.14017326984E+03 -0.19746440177E+04 -0.24848724371E+03  0.19951474764E+04  0.25500000920E-02 0. -1.
       -2    1    3    3    0  502  0.14017326984E+03  0.19746440177E+04  0.48282231781E+03  0.20376420031E+04  0.25500000920E-02 0.  1.
</event>
<event>
 5   0  0.5846812E-08  0.3995269E+04  0.7818609E-02  0.8005502E-01
        2   -1    0    0  501    0  0.00000000000E+00  0.00000000000E+00  0.13266472294E+04  0.13266472295E+04  0.25500000920E-02 0. -1.
       -2   -1    0    0    0  501  0.00000000000E+00  0.00000000000E+00 -0.30079918421E+04  0.30079918421E+04  0.25500000920E-02 0.  1.
    10030    2    1    2    0    0  0.00000000000E+00  0.00000000000E+00 -0.16813446126E+04  0.43346390715E+04  0.39952692242E+04 0.  0.
        4    1    3    3  502    0  0.89326512390E+03 -0.53308881917E+03  0.10096043053E+04  0.14496236535E+04  0.12699999809E+01 0. -1.
       -4    1    3    3    0  502 -0.89326512390E+03  0.53308881917E+03 -0.26909489179E+04  0.28850154180E+04  0.12699999809E+01 0.  1.
</event>
<event>
 5   0  0.1879500E-08  0.3987186E+04  0.7818609E-02  0.8007137E-01
       -1   -1    0    0    0  501  0.00000000000E+00  0.00000000000E+00  0.18848239524E+04  0.18848239524E+04  0.50400001928E-02 0. -1.
        1   -1    0    0  501    0  0.00000000000E+00  0.00000000000E+00 -0.21086384722E+04  0.21086384722E+04  0.50400001928E-02 0.  1.
    10030    2    1    2    0    0  0.00000000000E+00  0.00000000000E+00 -0.22381451982E+03  0.39934624246E+04  0.39871856236E+04 0.  0.
        4    1    3    3  502    0 -0.41926779542E+03  0.90056404375E+03  0.16192840811E+04  0.18997061955E+04  0.12699999809E+01 0. -1.
       -4    1    3    3    0  502  0.41926779542E+03 -0.90056404375E+03 -0.18430986009E+04  0.20937562291E+04  0.12699999809E+01 0.  1.
</event>
<event>
 5   0  0.5846812E-08  0.4005783E+04  0.7818609E-02  0.8003381E-01
       -2   -1    0    0    0  501  0.00000000000E+00  0.00000000000E+00  0.28325689884E+04  0.28325689884E+04  0.25500000920E-02 0.  1.
        2   -1    0    0  501    0  0.00000000000E+00  0.00000000000E+00 -0.14162318186E+04  0.14162318186E+04  0.25500000920E-02 0. -1.
    10030    2    1    2    0    0  0.00000000000E+00  0.00000000000E+00  0.14163371698E+04  0.42488008071E+04  0.40057829846E+04 0.  0.
        4    1    3    3  502    0  0.61234569324E+03  0.14124768049E+04  0.20671119183E+04  0.25774039785E+04  0.12699999809E+01 0.  1.
       -4    1    3    3    0  502 -0.61234569324E+03 -0.14124768049E+04 -0.65077474850E+03  0.16713968286E+04  0.12699999809E+01 0. -1.
</event>
<event>
 5   0  0.6161563E-08  0.4005322E+04  0.7818609E-02  0.8003474E-01
        2   -1    0    0  501    0  0.00000000000E+00  0.00000000000E+00  0.32192943728E+04  0.32192943728E+04  0.25500000920E-02 0. -1.
       -2   -1    0    0    0  501  0.00000000000E+00  0.00000000000E+00 -0.12458170363E+04  0.12458170363E+04  0.25500000920E-02 0.  1.
    10030    2    1    2    0    0  0.00000000000E+00  0.00000000000E+00  0.19734773366E+04  0.44651114091E+04  0.40053223463E+04 0.  0.
        1    1    3    3  502    0 -0.40708559453E+02 -0.67830290553E+03 -0.11133696346E+04  0.13043557650E+04  0.50400001928E-02 0.  1.
       -1    1    3    3    0  502  0.40708559453E+02  0.67830290553E+03  0.30868469711E+04  0.31607556441E+04  0.50400001928E-02 0. -1.
</event>
<event>
 5   0  0.5951623E-08  0.3929129E+04  0.7818609E-02  0.8018998E-01
       -2   -1    0    0    0  501  0.00000000000E+00  0.00000000000E+00  0.14964024363E+04  0.14964024363E+04  0.25500000920E-02 0. -1.
        2   -1    0    0  501    0  0.00000000000E+00  0.00000000000E+00 -0.25791951354E+04  0.25791951354E+04  0.25500000920E-02 0.  1.
    10030    2    1    2    0    0  0.00000000000E+00  0.00000000000E+00 -0.10827926991E+04  0.40755975717E+04  0.39291291067E+04 0.  0.
        2    1    3    3  502    0  0.62465709492E+03 -0.74006518494E+03  0.12315962715E+04  0.15667553543E+04  0.25500000920E-02 0. -1.
       -2    1    3    3    0  502 -0.62465709492E+03  0.74006518494E+03 -0.23143889706E+04  0.25088422174E+04  0.25500000920E-02 0.  1.
</event>
<event>
 5   0  0.1879500E-08  0.4029998E+04  0.7818609E-02  0.7998522E-01
       -1   -1    0    0    0  501  0.00000000000E+00  0.00000000000E+00  0.18305248780E+04  0.18305248780E+04  0.50400001928E-02 0.  1.
        1   -1    0    0  501    0  0.00000000000E+00  0.00000000000E+00 -0.22180638321E+04  0.22180638321E+04  0.50400001928E-02 0. -1.
    10030    2    1    2    0    0  0.00000000000E+00  0.00000000000E+00 -0.38753895419E+03  0.40485887101E+04  0.40299980276E+04 0.  0.
        3    1    3    3  502    0 -0.23405130634E+03  0.16470662111E+04 -0.13359460197E+04  0.21336257627E+04  0.10100000352E+00 0. -1.
       -3    1    3    3    0  502  0.23405130634E+03 -0.16470662111E+04  0.94840706552E+03  0.19149629474E+04  0.10100000352E+00 0.  1.
</event>
<event>
 5   0  0.1879500E-08  0.4003542E+04  0.7818609E-02  0.8003832E-01
       -1   -1    0    0    0  501  0.00000000000E+00  0.00000000000E+00  0.21599451965E+04  0.21599451965E+04  0.50400001928E-02 0. -1.
        1   -1    0    0  501    0  0.00000000000E+00  0.00000000000E+00 -0.18551802404E+04  0.18551802404E+04  0.50400001928E-02 0.  1.
    10030    2    1    2    0    0  0.00000000000E+00  0.00000000000E+00  0.30476495613E+03  0.40151254369E+04  0.40035422560E+04 0.  0.
        1    1    3    3  502    0 -0.97413314033E+02  0.97585076671E+03  0.19025140937E+04  0.21404050900E+04  0.50400001928E-02 0. -1.
       -1    1    3    3    0  502  0.97413314033E+02 -0.97585076671E+03 -0.15977491375E+04  0.18747203469E+04  0.50400001928E-02 0.  1.
</event>
<event>
 5   0  0.1879500E-08  0.3985927E+04  0.7818609E-02  0.8007392E-01
       -1   -1    0    0    0  501  0.00000000000E+00  0.00000000000E+00  0.14998567198E+04  0.14998567198E+04  0.50400001928E-02 0.  1.
        1   -1    0    0  501    0  0.00000000000E+00  0.00000000000E+00 -0.26481881540E+04  0.26481881540E+04  0.50400001928E-02 0. -1.
    10030    2    1    2    0    0  0.00000000000E+00  0.00000000000E+00 -0.11483314342E+04  0.41480448738E+04  0.39859266416E+04 0.  0.
        2    1    3    3  502    0 -0.12693685090E+04 -0.14890099250E+04 -0.18000508566E+03  0.19649042723E+04  0.25500000920E-02 0.  1.
       -2    1    3    3    0  502  0.12693685090E+04  0.14890099250E+04 -0.96832634854E+03  0.21831406015E+04  0.25500000920E-02 0. -1.
</event>
<event>
 5   0  0.5951623E-08  0.4028613E+04  0.7818609E-02  0.7998799E-01
       -2   -1    0    0    0  501  0.00000000000E+00  0.00000000000E+00  0.15950412946E+04  0.15950412946E+04  0.25500000920E-02 0. -1.
        2   -1    0    0  501    0  0.00000000000E+00  0.00000000000E+00 -0.25437782278E+04  0.25437782278E+04  0.25500000920E-02 0.  1.
    10030    2    1    2    0    0  0.00000000000E+00  0.00000000000E+00 -0.94873693324E+03  0.41388195224E+04  0.40286133185E+04 0.  0.
        2    1    3    3  502    0  0.18561566876E+04 -0.25650310862E+03 -0.12337226409E+04  0.22434756625E+04  0.25500000920E-02 0.  1.
       -2    1    3    3    0  502 -0.18561566876E+04  0.25650310862E+03  0.28498570768E+03  0.18953438599E+04  0.25500000920E-02 0. -1.
</event>
<event>
 5   0  0.5888700E-08  0.3995042E+04  0.7818609E-02  0.8005547E-01
        2   -1    0    0  501    0  0.00000000000E+00  0.00000000000E+00  0.22139360073E+04  0.22139360073E+04  0.25500000920E-02 0.  1.
       -2   -1    0    0    0  501  0.00000000000E+00  0.00000000000E+00 -0.18022612183E+04  0.18022612183E+04  0.25500000920E-02 0. -1.
    10030    2    1    2    0    0  0.00000000000E+00  0.00000000000E+00  0.41167478905E+03  0.40161972256E+04  0.39950424307E+04 0.  0.
        5    1    3    3  502    0 -0.12085382438E+04 -0.15902590156E+04  0.23005838042E+03  0.20105813517E+04  0.46999998093E+01 0.  1.
       -5    1    3    3    0  502  0.12085382438E+04  0.15902590156E+04  0.18161640863E+03  0.20056158739E+04  0.46999998093E+01 0. -1.
</event>
<event>
 5   0  0.1879500E-08  0.3996581E+04  0.7818609E-02  0.8005237E-01
       -1   -1    0    0    0  501  0.00000000000E+00  0.00000000000E+00  0.12786611984E+04  0.12786611984E+04  0.50400001928E-02 0.  1.
        1   -1    0    0  501    0  0.00000000000E+00  0.00000000000E+00 -0.31229261210E+04  0.31229261210E+04  0.50400001928E-02 0. -1.
    10030    2    1    2    0    0  0.00000000000E+00  0.00000000000E+00 -0.18442649225E+04  0.44015873194E+04  0.39965807668E+04 0.  0.
        1    1    3    3  502    0 -0.86964395804E+02 -0.10016851344E+03 -0.31180716871E+04  0.31208921134E+04  0.50400001928E-02 0. -1.
       -1    1    3    3    0  502  0.86964395804E+02  0.10016851344E+03  0.12738067646E+04  0.12806952060E+04  0.50400001928E-02 0.  1.
</event>
<event>
 5   0  0.6161563E-08  0.3894330E+04  0.7818609E-02  0.8026209E-01
        2   -1    0    0  501    0  0.00000000000E+00  0.00000000000E+00  0.26520291104E+04  0.26520291104E+04  0.25500000920E-02 0.  1.
       -2   -1    0    0    0  501  0.00000000000E+00  0.00000000000E+00 -0.14296420334E+04  0.14296420334E+04  0.25500000920E-02 0. -1.
    10030    2    1    2    0    0  0.00000000000E+00  0.00000000000E+00  0.12223870770E+04  0.40816711438E+04  0.38943303866E+04 0.  0.
        1    1    3    3  502    0 -0.15722383680E+04  0.10157389926E+04  0.48922895553E+02  0.18724456298E+04  0.50400001928E-02 0. -1.
       -1    1    3    3    0  502  0.15722383680E+04 -0.10157389926E+04  0.11734641815E+04  0.22092255141E+04  0.50400001928E-02 0.  1.
</event>
<event>
 5   0  0.1879500E-08  0.4008700E+04  0.7818609E-02  0.8002794E-01
        1   -1    0    0  501    0  0.00000000000E+00  0.00000000000E+00  0.12053491826E+04  0.12053491826E+04  0.50400001928E-02 0. -1.
       -1   -1    0    0    0  501  0.00000000000E+00  0.00000000000E+00 -0.33329915203E+04  0.33329915203E+04  0.50400001928E-02 0.  1.
    10030    2    1    2    0    0  0.00000000000E+00  0.00000000000E+00 -0.21276423377E+04  0.45383407029E+04  0.40086998414E+04 0.  0.
        1    1    3    3  502    0  0.12031641719E+04 -0.13299018429E+04 -0.20771664116E+04  0.27442418329E+04  0.50400001928E-02 0.  1.
       -1    1    3    3    0  502 -0.12031641719E+04  0.13299018429E+04 -0.50475926060E+02  0.17940988700E+04  0.50400001928E-02 0. -1.
</event>
<event>
 5   0  0.5888700E-08  0.3994684E+04  0.7818609E-02  0.8005620E-01
       -2   -1    0    0    0  501  0.00000000000E+00  0.00000000000E+00  0.28437578427E+04  0.28437578427E+04  0.25500000920E-02 0.  1.
        2   -1    0    0  501    0  0.00000000000E+00  0.00000000000E+00 -0.14028530524E+04  0.14028530524E+04  0.25500000920E-02 0. -1.
    10030    2    1    2    0    0  0.00000000000E+00  0.00000000000E+00  0.14409047903E+04  0.42466108951E+04  0.39946836521E+04 0.  0.
        5    1    3    3  502    0  0.46016223876E+03  0.19333959856E+04  0.93195425614E+03  0.21950695089E+04  0.46999998093E+01 0. -1.
       -5    1    3    3    0  502 -0.46016223876E+03 -0.19333959856E+04  0.50895053418E+03  0.20515413863E+04  0.46999998093E+01 0.  1.
</event>
<event>
 5   0  0.5846812E-08  0.4002023E+04  0.7818609E-02  0.8004138E-01
        2   -1    0    0  501    0  0.00000000000E+00  0.00000000000E+00  0.25625029576E+04  0.25625029576E+04  0.25500000920E-02 0. -1.
       -2   -1    0    0    0  501  0.00000000000E+00  0.00000000000E+00 -0.15625534582E+04  0.15625534582E+04  0.25500000920E-02 0.  1.
    10030    2    1    2    0    0  0.00000000000E+00  0.00000000000E+00  0.99994949944E+03  0.41250564159E+04  0.40020234173E+04 0.  0.
        4    1    3    3  502    0  0.15887022125E+04  0.34414887123E+03  0.17027384536E+04  0.23540885752E+04  0.12699999809E+01 0. -1.
       -4    1    3    3    0  502 -0.15887022125E+04 -0.34414887123E+03 -0.70278895418E+03  0.17709678407E+04  0.12699999809E+01 0.  1.
</event>
<event>
 5   0  0.5888700E-08  0.3997281E+04  0.7818609E-02  0.8005095E-01
       -2   -1    0    0    0  501  0.00000000000E+00  0.00000000000E+00  0.18341937524E+04  0.18341937524E+04  0.25500000920E-02 0.  1.
        2   -1    0    0  501    0  0.00000000000E+00  0.00000000000E+00 -0.21778313657E+04  0.21778313657E+04  0.25500000920E-02 0. -1.
    10030    2    1    2    0    0  0.00000000000E+00  0.00000000000E+00 -0.34363761332E+03  0.40120251180E+04  0.39972814185E+04 0.  0.
        5    1    3    3  502    0  0.11046448200E+04  0.10463519739E+03 -0.18402840805E+04  0.21489197961E+04  0.46999998093E+01 0. -1.
       -5    1    3    3    0  502 -0.11046448200E+04 -0.10463519739E+03  0.14966464672E+04  0.18631053220E+04  0.46999998093E+01 0.  1.
</event>
<event>
 5   0  0.5888700E-08  0.4039970E+04  0.7818609E-02  0.7996532E-01
        2   -1    0    0  501    0  0.00000000000E+00  0.00000000000E+00  0.22691259259E+04  0.22691259259E+04  0.25500000920E-02 0.  1.
       -2   -1    0    0    0  501  0.00000000000E+00  0.00000000000E+00 -0.17981988564E+04  0.17981988564E+04  0.25500000920E-02 0. -1.
    10030    2    1    2    0    0  0.00000000000E+00  0.00000000000E+00  0.47092706952E+03  0.40673247823E+04  0.40399701211E+04 0.  0.
        5    1    3    3  502    0 -0.18151929092E+04 -0.59422395675E+03 -0.42647607255E+03  0.19570210369E+04  0.46999998093E+01 0. -1.
       -5    1    3    3    0  502  0.18151929092E+04  0.59422395675E+03  0.89740314208E+03  0.21103037454E+04  0.46999998093E+01 0.  1.
</event>
<event>
 5   0  0.1879500E-08  0.3998111E+04  0.7818609E-02  0.8004928E-01
        4   -1    0    0  501    0  0.00000000000E+00  0.00000000000E+00  0.16998636834E+04  0.16998641579E+04  0.12699999809E+01 0.  1.
       -4   -1    0    0    0  501  0.00000000000E+00  0.00000000000E+00 -0.23509069634E+04  0.23509073064E+04  0.12699999809E+01 0. -1.
    10030    2    1    2    0    0  0.00000000000E+00  0.00000000000E+00 -0.65104327992E+03  0.40507714643E+04  0.39981110669E+04 0.  0.
        5    1    3    3  502    0  0.15281521301E+04  0.85713129480E+03  0.64958822345E+03  0.18686652829E+04  0.46999998093E+01 0.  1.
       -5    1    3    3    0  502 -0.15281521301E+04 -0.85713129480E+03 -0.13006315034E+04  0.21821061814E+04  0.46999998093E+01 0. -1.
</event>
<event>
 5   0  0.6161563E-08  0.4013096E+04  0.7818609E-02  0.8001910E-01
        2   -1    0    0  501    0  0.00000000000E+00  0.00000000000E+00  0.16908528840E+04  0.16908528840E+04  0.25500000920E-02 0. -1.
       -2   -1    0    0    0  501  0.00000000000E+00  0.00000000000E+00 -0.23811863876E+04  0.23811863876E+04  0.25500000920E-02 0.  1.
    10030    2    1    2    0    0  0.00000000000E+00  0.00000000000E+00 -0.69033350358E+03  0.40720392716E+04  0.40130964956E+04 0.  0.
        1    1    3    3  502    0  0.12555546729E+04  0.14038643167E+04  0.35708454142E+03  0.19169668558E+04  0.50400001928E-02 0. -1.
       -1    1    3    3    0  502 -0.12555546729E+04 -0.14038643167E+04 -0.10474180450E+04  0.21550724158E+04  0.50400001928E-02 0.  1.
</event>
<event>
 5   0  0.1879500E-08  0.4001905E+04  0.7818609E-02  0.8004162E-01
        1   -1    0    0  501    0  0.00000000000E+00  0.00000000000E+00  0.18730977945E+04  0.18730977945E+04  0.50400001928E-02 0. -1.
       -1   -1    0    0    0  501  0.00000000000E+00  0.00000000000E+00 -0.21375339738E+04  0.21375339738E+04  0.50400001928E-02 0.  1.
    10030    2    1    2    0    0  0.00000000000E+00  0.00000000000E+00 -0.26443617931E+03  0.40106317682E+04  0.40019046325E+04 0.  0.
        2    1    3    3  502    0 -0.92327160761E+03 -0.13403856176E+04  0.10342557688E+04  0.19284058340E+04  0.25500000920E-02 0. -1.
       -2    1    3    3    0  502  0.92327160761E+03  0.13403856176E+04 -0.12986919481E+04  0.20822259343E+04  0.25500000920E-02 0.  1.
</event>
<event>
 5   0  0.5846812E-08  0.3992992E+04  0.7818609E-02  0.8005962E-01
       -2   -1    0    0    0  501  0.00000000000E+00  0.00000000000E+00  0.26669197477E+04  0.26669197477E+04  0.25500000920E-02 0.  1.
        2   -1    0    0  501    0  0.00000000000E+00  0.00000000000E+00 -0.14946066340E+04  0.14946066340E+04  0.25500000920E-02 0. -1.
    10030    2    1    2    0    0  0.00000000000E+00  0.00000000000E+00  0.11723131137E+04  0.41615263817E+04  0.39929918344E+04 0.  0.
        4    1    3    3  502    0 -0.39847921154E+03  0.13111087189E+04  0.20994055733E+04  0.25070494867E+04  0.12699999809E+01 0.  1.
       -4    1    3    3    0  502  0.39847921154E+03 -0.13111087189E+04 -0.92709245962E+03  0.16544768951E+04  0.12699999809E+01 0. -1.
</event>
<event>
 5   0  0.1879500E-08  0.4008409E+04  0.7818609E-02  0.8002852E-01
        1   -1    0    0  501    0  0.00000000000E+00  0.00000000000E+00  0.18416103898E+04  0.18416103898E+04  0.50400001928E-02 0. -1.
       -1   -1    0    0    0  501  0.00000000000E+00  0.00000000000E+00 -0.21811543311E+04  0.21811543311E+04  0.50400001928E-02 0.  1.
    10030    2    1    2    0    0  0.00000000000E+00  0.00000000000E+00 -0.33954394129E+03  0.40227647209E+04  0.40084093992E+04 0.  0.
        3    1    3    3  502    0  0.40955068059E+03  0.15726735068E+04  0.10073748862E+04  0.19120245528E+04  0.10100000352E+00 0. -1.
       -3    1    3    3    0  502 -0.40955068059E+03 -0.15726735068E+04 -0.13469188275E+04  0.21107401681E+04  0.10100000352E+00 0.  1.
</event>
<event>
 5   0  0.5945387E-08  0.3996403E+04  0.7818609E-02  0.8005273E-01
       -2   -1    0    0    0  501  0.00000000000E+00  0.00000000000E+00  0.17174143726E+04  0.17174143726E+04  0.25500000920E-02 0.  1.
        2   -1    0    0  501    0  0.00000000000E+00  0.00000000000E+00 -0.23248953093E+04  0.23248953093E+04  0.25500000920E-02 0. -1.
    10030    2    1    2    0    0  0.00000000000E+00  0.00000000000E+00 -0.60748093667E+03  0.40423096819E+04  0.39964026919E+04 0.  0.
        3    1    3    3  502    0  0.11031121054E+04  0.68624543242E+03 -0.18394095506E+04  0.22519361927E+04  0.10100000352E+00 0. -1.
       -3    1    3    3    0  502 -0.11031121054E+04 -0.68624543242E+03  0.12319286140E+04  0.17903734892E+04  0.10100000352E+00 0.  1.
</event>
<event>
 5   0  0.1879500E-08  0.3964715E+04  0.7818609E-02  0.8011703E-01
        1   -1    0    0  501    0  0.00000000000E+00  0.00000000000E+00  0.21017930520E+04  0.21017930520E+04  0.50400001928E-02 0. -1.
       -1   -1    0    0    0  501  0.00000000000E+00  0.00000000000E+00 -0.18697092777E+04  0.18697092777E+04  0.50400001928E-02 0.  1.
    10030    2    1    2    0    0  0.00000000000E+00  0.00000000000E+00  0.23208377435E+03  0.39715023297E+04  0.39647153588E+04 0.  0.
        4    1    3    3  502    0 -0.10672308768E+04 -0.95204286039E+03 -0.12590326664E+04  0.19053955548E+04  0.12699999809E+01 0.  1.
       -4    1    3    3    0  502  0.10672308768E+04  0.95204286039E+03  0.14911164407E+04  0.20661067749E+04  0.12699999809E+01 0. -1.
</event>
<event>
 5   0  0.6161563E-08  0.4074305E+04  0.7818609E-02  0.7989722E-01
        2   -1    0    0  501    0  0.00000000000E+00  0.00000000000E+00  0.29044052204E+04  0.29044052204E+04  0.25500000920E-02 0. -1.
       -2   -1    0    0    0  501  0.00000000000E+00  0.00000000000E+00 -0.14288607197E+04  0.14288607197E+04  0.25500000920E-02 0.  1.
    10030    2    1    2    0    0  0.00000000000E+00  0.00000000000E+00  0.14755445006E+04  0.43332659401E+04  0.40743051106E+04 0.  0.
        1    1    3    3  502    0 -0.19339098284E+03  0.20114214561E+04  0.46294100875E+03  0.20730486545E+04  0.50400001928E-02 0. -1.
       -1    1    3    3    0  502  0.19339098284E+03 -0.20114214561E+04  0.10126034919E+04  0.22602172856E+04  0.50400001928E-02 0.  1.
</event>
<event>
 5   0  0.1879500E-08  0.4008530E+04  0.7818609E-02  0.8002828E-01
        1   -1    0    0  501    0  0.00000000000E+00  0.00000000000E+00  0.23983868154E+04  0.23983868154E+04  0.50400001928E-02 0.  1.
       -1   -1    0    0    0  501  0.00000000000E+00  0.00000000000E+00 -0.16749086084E+04  0.16749086084E+04  0.50400001928E-02 0. -1.
    10030    2    1    2    0    0  0.00000000000E+00  0.00000000000E+00  0.72347820701E+03  0.40732954239E+04  0.40085302661E+04 0.  0.
        5    1    3    3  502    0 -0.19079390935E+04 -0.50911550285E+03  0.13230708184E+02  0.19747474070E+04  0.46999998093E+01 0.  1.
       -5    1    3    3    0  502  0.19079390935E+04  0.50911550285E+03  0.71024749882E+03  0.20985480169E+04  0.46999998093E+01 0. -1.
</event>
<event>
 5   0  0.1879500E-08  0.3984207E+04  0.7818609E-02  0.8007740E-01
        1   -1    0    0  501    0  0.00000000000E+00  0.00000000000E+00  0.13691957488E+04  0.13691957488E+04  0.50400001928E-02 0. -1.
       -1   -1    0    0    0  501  0.00000000000E+00  0.00000000000E+00 -0.28983999357E+04  0.28983999357E+04  0.50400001928E-02 0.  1.
    10030    2    1    2    0    0  0.00000000000E+00  0.00000000000E+00 -0.15292041869E+04  0.42675956844E+04  0.39842072587E+04 0.  0.
        4    1    3    3  502    0  0.27667178430E+03  0.67258134196E+03 -0.27511220677E+04  0.28456259737E+04  0.12699999809E+01 0.  1.
       -4    1    3    3    0  502 -0.27667178430E+03 -0.67258134196E+03  0.12219178808E+04  0.14219697107E+04  0.12699999809E+01 0. -1.
</event>
<event>
 5   0  0.5945387E-08  0.4081204E+04  0.7818609E-02  0.7988363E-01
       -2   -1    0    0    0  501  0.00000000000E+00  0.00000000000E+00  0.21346356840E+04  0.21346356840E+04  0.25500000920E-02 0.  1.
        2   -1    0    0  501    0  0.00000000000E+00  0.00000000000E+00 -0.19507107538E+04  0.19507107538E+04  0.25500000920E-02 0. -1.
    10030    2    1    2    0    0  0.00000000000E+00  0.00000000000E+00  0.18392493020E+03  0.40853464377E+04  0.40812041282E+04 0.  0.
        3    1    3    3  502    0  0.17201621534E+04  0.10961156972E+04  0.31657496620E+02  0.20399582503E+04  0.10100000352E+00 0. -1.
       -3    1    3    3    0  502 -0.17201621534E+04 -0.10961156972E+04  0.15226743358E+03  0.20453881874E+04  0.10100000352E+00 0.  1.
</event>
<event>
 5   0  0.1879500E-08  0.4001748E+04  0.7818609E-02  0.8004194E-01
       -3   -1    0    0    0  501  0.00000000000E+00  0.00000000000E+00  0.31263375265E+04  0.31263375281E+04  0.10100000352E+00 0. -1.
        3   -1    0    0  501    0  0.00000000000E+00  0.00000000000E+00 -0.12805706084E+04  0.12805706124E+04  0.10100000352E+00 0.  1.
    10030    2    1    2    0    0  0.00000000000E+00  0.00000000000E+00  0.18457669180E+04  0.44069081405E+04  0.40017475986E+04 0.  0.
        3    1    3    3  502    0 -0.90085191487E+03 -0.13529816799E+04  0.22078077912E+04  0.27416252208E+04  0.10100000352E+00 0. -1.
       -3    1    3    3    0  502  0.90085191487E+03  0.13529816799E+04 -0.36204087311E+03  0.16652829197E+04  0.10100000352E+00 0.  1.
</event>
<event>
 5   0  0.1879500E-08  0.3977927E+04  0.7818609E-02  0.8009014E-01
        1   -1    0    0  501    0  0.00000000000E+00  0.00000000000E+00  0.21786626865E+04  0.21786626865E+04  0.50400001928E-02 0. -1.
       -1   -1    0    0    0  501  0.00000000000E+00  0.00000000000E+00 -0.18157821173E+04  0.18157821173E+04  0.50400001928E-02 0.  1.
    10030    2    1    2    0    0  0.00000000000E+00  0.00000000000E+00  0.36288056916E+03  0.39944448038E+04  0.39779274733E+04 0.  0.
        3    1    3    3  502    0  0.33051222994E+03 -0.43531021417E+03  0.21017730727E+04  0.21716775488E+04  0.10100000352E+00 0. -1.
       -3    1    3    3    0  502 -0.33051222994E+03  0.43531021417E+03 -0.17388925035E+04  0.18227672550E+04  0.10100000352E+00 0.  1.
</event>
<event>
 5   0  0.1879500E-08  0.4006152E+04  0.7818609E-02  0.8003307E-01
       -1   -1    0    0    0  501  0.00000000000E+00  0.00000000000E+00  0.15841908359E+04  0.15841908359E+04  0.50400001928E-02 0. -1.
        1   -1    0    0  501    0  0.00000000000E+00  0.00000000000E+00 -0.25327209867E+04  0.25327209867E+04  0.50400001928E-02 0.  1.
    10030    2    1    2    0    0  0.00000000000E+00  0.00000000000E+00 -0.94853015077E+03  0.41169118226E+04  0.40061519577E+04 0.  0.
        2    1    3    3  502    0 -0.12305939575E+04 -0.15154508023E+04 -0.93540376567E+03  0.21647015561E+04  0.25500000920E-02 0.  1.
       -2    1    3    3    0  502  0.12305939575E+04  0.15154508023E+04 -0.13126385102E+02  0.19522102664E+04  0.25500000920E-02 0. -1.
</event>
<event>
 5   0  0.5951623E-08  0.3994763E+04  0.7818609E-02  0.8005604E-01
        2   -1    0    0  501    0  0.00000000000E+00  0.00000000000E+00  0.14907471788E+04  0.14907471788E+04  0.25500000920E-02 0.  1.
       -2   -1    0    0    0  501  0.00000000000E+00  0.00000000000E+00 -0.26761971315E+04  0.26761971315E+04  0.25500000920E-02 0. -1.
    10030    2    1    2    0    0  0.00000000000E+00  0.00000000000E+00 -0.11854499527E+04  0.41669443103E+04  0.39947632339E+04 0.  0.
        2    1    3    3  502    0 -0.11024917474E+04  0.46781550518E+03  0.10746703705E+04  0.16091164672E+04  0.25500000920E-02 0.  1.
       -2    1    3    3    0  502  0.11024917474E+04 -0.46781550518E+03 -0.22601203232E+04  0.25578278431E+04  0.25500000920E-02 0. -1.
</event>
<event>
 5   0  0.1879500E-08  0.4001997E+04  0.7818609E-02  0.8004144E-01
        1   -1    0    0  501    0  0.00000000000E+00  0.00000000000E+00  0.12868100832E+04  0.12868100832E+04  0.50400001928E-02 0.  1.
       -1   -1    0    0    0  501  0.00000000000E+00  0.00000000000E+00 -0.31115669154E+04  0.31115669154E+04  0.50400001928E-02 0. -1.
    10030    2    1    2    0    0  0.00000000000E+00  0.00000000000E+00 -0.18247568322E+04  0.43983769986E+04  0.40019973420E+04 0.  0.
        4    1    3    3  502    0 -0.36993643361E+03  0.19242438375E+04 -0.13580366158E+04  0.23840789362E+04  0.12699999809E+01 0.  1.
       -4    1    3    3    0  502  0.36993643361E+03 -0.19242438375E+04 -0.46672021638E+03  0.20142980624E+04  0.12699999809E+01 0. -1.
</event>
<event>
 5   0  0.1879500E-08  0.4010259E+04  0.7818609E-02  0.8002480E-01
       -1   -1    0    0    0  501  0.00000000000E+00  0.00000000000E+00  0.12535143778E+04  0.12535143778E+04  0.50400001928E-02 0.  1.
        1   -1    0    0  501    0  0.00000000000E+00  0.00000000000E+00 -0.32074172488E+04  0.32074172488E+04  0.50400001928E-02 0. -1.
    10030    2    1    2    0    0  0.00000000000E+00  0.00000000000E+00 -0.19539028711E+04  0.44609316266E+04  0.40102586635E+04 0.  0.
        2    1    3    3  502    0 -0.61697928528E+03 -0.18945294505E+04 -0.72663290799E+03  0.21208254667E+04  0.25500000920E-02 0.  1.
       -2    1    3    3    0  502  0.61697928528E+03  0.18945294505E+04 -0.12272699631E+04  0.23401061599E+04  0.25500000920E-02 0. -1.
</event>
<event>
 5   0  0.1879500E-08  0.4000724E+04  0.7818609E-02  0.8004400E-01
        1   -1    0    0  501    0  0.00000000000E+00  0.00000000000E+00  0.25963401256E+04  0.25963401256E+04  0.50400001928E-02 0.  1.
       -1   -1    0    0    0  501  0.00000000000E+00  0.00000000000E+00 -0.15411880842E+04  0.15411880842E+04  0.50400001928E-02 0. -1.
    10030    2    1    2    0    0  0.00000000000E+00  0.00000000000E+00  0.10551520415E+04  0.41375282098E+04  0.40007241665E+04 0.  0.
        3    1    3    3  502    0 -0.13035677777E+04  0.13440090870E+03 -0.10354259486E+04  0.16701674948E+04  0.10100000352E+00 0. -1.
       -3    1    3    3    0  502  0.13035677777E+04 -0.13440090870E+03  0.20905779901E+04  0.24673607151E+04  0.10100000352E+00 0.  1.
</event>
<event>
 5   0  0.6161563E-08  0.4002018E+04  0.7818609E-02  0.8004139E-01
       -2   -1    0    0    0  501  0.00000000000E+00  0.00000000000E+00  0.18493890541E+04  0.18493890541E+04  0.25500000920E-02 0. -1.
        2   -1    0    0  501    0  0.00000000000E+00  0.00000000000E+00 -0.21650598086E+04  0.21650598086E+04  0.25500000920E-02 0.  1.
    10030    2    1    2    0    0  0.00000000000E+00  0.00000000000E+00 -0.31567075450E+03  0.40144488627E+04  0.40020184465E+04 0.  0.
        1    1    3    3  502    0  0.13125964270E+04  0.69747942001E+03  0.11859714569E+04  0.19015559992E+04  0.50400001928E-02 0. -1.
       -1    1    3    3    0  502 -0.13125964270E+04 -0.69747942001E+03 -0.15016422114E+04  0.21128928635E+04  0.50400001928E-02 0.  1.
</event>
<event>
 5   0  0.5846812E-08  0.3978475E+04  0.7818609E-02  0.8008903E-01
       -2   -1    0    0    0  501  0.00000000000E+00  0.00000000000E+00  0.21127446448E+04  0.21127446448E+04  0.25500000920E-02 0.  1.
        2   -1    0    0  501    0  0.00000000000E+00  0.00000000000E+00 -0.18729507816E+04  0.18729507816E+04  0.25500000920E-02 0. -1.
    10030    2    1    2    0    0  0.00000000000E+00  0.00000000000E+00  0.23979386320E+03  0.39856954264E+04  0.39784754536E+04 0.  0.
        4    1    3    3  502    0 -0.14301690563E+04  0.12838787637E+04 -0.39419796682E+03  0.19619179033E+04  0.12699999809E+01 0. -1.
       -4    1    3    3    0  502  0.14301690563E+04 -0.12838787637E+04  0.63399183003E+03  0.20237775231E+04  0.12699999809E+01 0.  1.
</event>
<event>
 5   0  0.1879500E-08  0.3997801E+04  0.7818609E-02  0.8004990E-01
        1   -1    0    0  501    0  0.00000000000E+00  0.00000000000E+00  0.23004851561E+04  0.23004851561E+04  0.50400001928E-02 0.  1.
       -1   -1    0    0    0  501  0.00000000000E+00  0.00000000000E+00 -0.17368526531E+04  0.17368526531E+04  0.50400001928E-02 0. -1.
    10030    2    1    2    0    0  0.00000000000E+00  0.00000000000E+00  0.56363250298E+03  0.40373378092E+04  0.39978012691E+04 0.  0.
        3    1    3    3  502    0  0.69764919056E+02 -0.19975812867E+04  0.30215482615E+03  0.20215082711E+04  0.10100000352E+00 0. -1.
       -3    1    3    3    0  502 -0.69764919056E+02  0.19975812867E+04  0.26147767683E+03  0.20158295381E+04  0.10100000352E+00 0.  1.
</event>
<event>
 5   0  0.6161563E-08  0.3998255E+04  0.7818609E-02  0.8004899E-01
        2   -1    0    0  501    0  0.00000000000E+00  0.00000000000E+00  0.26913938579E+04  0.26913938579E+04  0.25500000920E-02 0.  1.
       -2   -1    0    0    0  501  0.00000000000E+00  0.00000000000E+00 -0.14849219569E+04  0.14849219569E+04  0.25500000920E-02 0. -1.
    10030    2    1    2    0    0  0.00000000000E+00  0.00000000000E+00  0.12064719011E+04  0.41763158148E+04  0.39982545363E+04 0.  0.
        1    1    3    3  502    0 -0.85745347672E+03 -0.65904172921E+03  0.23594674229E+04  0.25955055356E+04  0.50400001928E-02 0.  1.
       -1    1    3    3    0  502  0.85745347672E+03  0.65904172921E+03 -0.11529955218E+04  0.15808102792E+04  0.50400001928E-02 0. -1.
</event>
<event>
 5   0  0.5846812E-08  0.4013990E+04  0.7818609E-02  0.8001730E-01
        2   -1    0    0  501    0  0.00000000000E+00  0.00000000000E+00  0.16060886305E+04  0.16060886305E+04  0.25500000920E-02 0.  1.
       -2   -1    0    0    0  501  0.00000000000E+00  0.00000000000E+00 -0.25079742469E+04  0.25079742469E+04  0.25500000920E-02 0. -1.
    10030    2    1    2    0    0  0.00000000000E+00  0.00000000000E+00 -0.90188561640E+03  0.41140628775E+04  0.40139899968E+04 0.  0.
        4    1    3    3  502    0 -0.70340401233E+02  0.17063126670E+04  0.62965564391E+03  0.18201424484E+04  0.12699999809E+01 0.  1.
       -4    1    3    3    0  502  0.70340401233E+02 -0.17063126670E+04 -0.15315412603E+04  0.22939204290E+04  0.12699999809E+01 0. -1.
</event>
<event>
 5   0  0.5888700E-08  0.3720425E+04  0.7818609E-02  0.8063450E-01
        2   -1    0    0  501    0  0.00000000000E+00  0.00000000000E+00  0.19265351067E+04  0.19265351067E+04  0.25500000920E-02 0. -1.
       -2   -1    0    0    0  501  0.00000000000E+00  0.00000000000E+00 -0.17961730915E+04  0.17961730915E+04  0.25500000920E-02 0.  1.
    10030    2    1    2    0    0  0.00000000000E+00  0.00000000000E+00  0.13036201526E+03  0.37227081982E+04  0.37204249857E+04 0.  0.
        5    1    3    3  502    0 -0.19055667492E+03  0.81223632703E+03  0.17288284135E+04  0.19196118021E+04  0.46999998093E+01 0. -1.
       -5    1    3    3    0  502  0.19055667492E+03 -0.81223632703E+03 -0.15984663983E+04  0.18030963961E+04  0.46999998093E+01 0.  1.
</event>
<event>
 5   0  0.6161563E-08  0.4018473E+04  0.7818609E-02  0.8000830E-01
       -2   -1    0    0    0  501  0.00000000000E+00  0.00000000000E+00  0.13611046226E+04  0.13611046226E+04  0.25500000920E-02 0.  1.
        2   -1    0    0  501    0  0.00000000000E+00  0.00000000000E+00 -0.29659960642E+04  0.29659960642E+04  0.25500000920E-02 0. -1.
    10030    2    1    2    0    0  0.00000000000E+00  0.00000000000E+00 -0.16048914416E+04  0.43271006868E+04  0.40184728212E+04 0.  0.
        1    1    3    3  502    0  0.16805983881E+02  0.48421043904E+03  0.12972603968E+04  0.13847840003E+04  0.50400001928E-02 0.  1.
       -1    1    3    3    0  502 -0.16805983881E+02 -0.48421043904E+03 -0.29021518384E+04  0.29423166865E+04  0.50400001928E-02 0. -1.
</event>
<event>
 5   0  0.5888700E-08  0.3992002E+04  0.7818609E-02  0.8006162E-01
       -2   -1    0    0    0  501  0.00000000000E+00  0.00000000000E+00  0.16277458080E+04  0.16277458080E+04  0.25500000920E-02 0.  1.
        2   -1    0    0  501    0  0.00000000000E+00  0.00000000000E+00 -0.24475686209E+04  0.24475686209E+04  0.25500000920E-02 0. -1.
    10030    2    1    2    0    0  0.00000000000E+00  0.00000000000E+00 -0.81982281286E+03  0.40753144289E+04  0.39920017848E+04 0.  0.
        5    1    3    3  502    0 -0.32702877464E+03  0.11621562929E+04  0.12127394986E+04  0.17112317932E+04  0.46999998093E+01 0.  1.
       -5    1    3    3    0  502  0.32702877464E+03 -0.11621562929E+04 -0.20325623114E+04  0.23640826357E+04  0.46999998093E+01 0. -1.
</event>
<event>
 5   0  0.6161563E-08  0.3974697E+04  0.7818609E-02  0.8009670E-01
        2   -1    0    0  501    0  0.00000000000E+00  0.00000000000E+00  0.13924366731E+04  0.13924366731E+04  0.25500000920E-02 0. -1.
       -2   -1    0    0    0  501  0.00000000000E+00  0.00000000000E+00 -0.28364337785E+04  0.28364337785E+04  0.25500000920E-02 0.  1.
    10030    2    1    2    0    0  0.00000000000E+00  0.00000000000E+00 -0.14439971054E+04  0.42288704516E+04  0.39746971779E+04 0.  0.
        1    1    3    3  502    0 -0.63329388797E+03  0.82240397263E+03  0.10811168080E+04  0.14987404696E+04  0.50400001928E-02 0. -1.
       -1    1    3    3    0  502  0.63329388797E+03 -0.82240397263E+03 -0.25251139134E+04  0.27301299820E+04  0.50400001928E-02 0.  1.
</event>
<event>
 5   0  0.1879500E-08  0.3996804E+04  0.7818609E-02  0.8005192E-01
       -1   -1    0    0    0  501  0.00000000000E+00  0.00000000000E+00  0.14606257251E+04  0.14606257251E+04  0.50400001928E-02 0.  1.
        1   -1    0    0  501    0  0.00000000000E+00  0.00000000000E+00 -0.27341774099E+04  0.27341774099E+04  0.50400001928E-02 0. -1.
    10030    2    1    2    0    0  0.00000000000E+00  0.00000000000E+00 -0.12735516848E+04  0.41948031350E+04  0.39968036539E+04 0.  0.
        4    1    3    3  502    0  0.14323440783E+04 -0.13686084753E+04 -0.36126517447E+03  0.20137559079E+04  0.12699999809E+01 0.  1.
       -4    1    3    3    0  502 -0.14323440783E+04  0.13686084753E+04 -0.91228651033E+03  0.21810472272E+04  0.12699999809E+01 0. -1.
</event>
<event>
 5   0  0.1879500E-08  0.4007873E+04  0.7818609E-02  0.8002960E-01
        1   -1    0    0  501    0  0.00000000000E+00  0.00000000000E+00  0.15410300126E+04  0.15410300126E+04  0.50400001928E-02 0.  1.
       -1   -1    0    0    0  501  0.00000000000E+00  0.00000000000E+00 -0.26058943457E+04  0.26058943458E+04  0.50400001928E-02 0. -1.
    10030    2    1    2    0    0  0.00000000000E+00  0.00000000000E+00 -0.10648643332E+04  0.41469243584E+04  0.40078729503E+04 0.  0.
        3    1    3    3  502    0  0.58384572661E+03 -0.19076363119E+04 -0.72823087085E+03  0.21237401777E+04  0.10100000352E+00 0. -1.
       -3    1    3    3    0  502 -0.58384572661E+03  0.19076363119E+04 -0.33663346231E+03  0.20231841807E+04  0.10100000352E+00 0.  1.
</event>
<event>
 5   0  0.6161563E-08  0.4011371E+04  0.7818609E-02  0.8002256E-01
        2   -1    0    0  501    0  0.00000000000E+00  0.00000000000E+00  0.15144605582E+04  0.15144605582E+04  0.25500000920E-02 0. -1.
       -2   -1    0    0    0  501  0.00000000000E+00  0.00000000000E+00 -0.26562429790E+04  0.26562429790E+04  0.25500000920E-02 0.  1.
    10030    2    1    2    0    0  0.00000000000E+00  0.00000000000E+00 -0.11417824208E+04  0.41707035372E+04  0.40113714486E+04 0.  0.
        1    1    3    3  502    0  0.98399663491E+03 -0.58069795876E+03 -0.22847952111E+04  0.25545544922E+04  0.50400001928E-02 0.  1.
       -1    1    3    3    0  502 -0.98399663491E+03  0.58069795876E+03  0.11430127903E+04  0.16161490450E+04  0.50400001928E-02 0. -1.
</event>
<event>
 5   0  0.1879500E-08  0.4070785E+04  0.7818609E-02  0.7990417E-01
        1   -1    0    0  501    0  0.00000000000E+00  0.00000000000E+00  0.19459349725E+04  0.19459349725E+04  0.50400001928E-02 0.  1.
       -1   -1    0    0    0  501  0.00000000000E+00  0.00000000000E+00 -0.21289627391E+04  0.21289627391E+04  0.50400001928E-02 0. -1.
    10030    2    1    2    0    0  0.00000000000E+00  0.00000000000E+00 -0.18302776659E+03  0.40748977116E+04  0.40707852064E+04 0.  0.
        2    1    3    3  502    0 -0.15083170289E+04  0.60377286466E+03 -0.13188280186E+04  0.20925747954E+04  0.25500000920E-02 0. -1.
       -2    1    3    3    0  502  0.15083170289E+04 -0.60377286466E+03  0.11358002520E+04  0.19823229162E+04  0.25500000920E-02 0.  1.
</event>
<event>
 5   0  0.5951623E-08  0.4024968E+04  0.7818609E-02  0.7999529E-01
       -2   -1    0    0    0  501  0.00000000000E+00  0.00000000000E+00  0.19325437305E+04  0.19325437305E+04  0.25500000920E-02 0. -1.
        2   -1    0    0  501    0  0.00000000000E+00  0.00000000000E+00 -0.20957308304E+04  0.20957308304E+04  0.25500000920E-02 0.  1.
    10030    2    1    2    0    0  0.00000000000E+00  0.00000000000E+00 -0.16318709992E+03  0.40282745610E+04  0.40249678147E+04 0.  0.
        2    1    3    3  502    0 -0.13750257042E+04  0.87029754078E+03  0.11034307285E+04  0.19661314476E+04  0.25500000920E-02 0. -1.
       -2    1    3    3    0  502  0.13750257042E+04 -0.87029754078E+03 -0.12666178284E+04  0.20621431134E+04  0.25500000920E-02 0.  1.
</event>
<event>
 5   0  0.1879500E-08  0.4010294E+04  0.7818609E-02  0.8002473E-01
        1   -1    0    0  501    0  0.00000000000E+00  0.00000000000E+00  0.21865420428E+04  0.21865420429E+04  0.50400001928E-02 0. -1.
       -1   -1    0    0    0  501  0.00000000000E+00  0.00000000000E+00 -0.18388007655E+04  0.18388007656E+04  0.50400001928E-02 0.  1.
    10030    2    1    2    0    0  0.00000000000E+00  0.00000000000E+00  0.34774127730E+03  0.40253428084E+04  0.40102943445E+04 0.  0.
        4    1    3    3  502    0  0.81694191491E+03  0.45809632253E+03 -0.16057366802E+04  0.18589347036E+04  0.12699999809E+01 0.  1.
       -4    1    3    3    0  502 -0.81694191491E+03 -0.45809632253E+03  0.19534779575E+04  0.21664081048E+04  0.12699999809E+01 0. -1.
</event>
<event>
 5   0  0.5888700E-08  0.4003446E+04  0.7818609E-02  0.8003852E-01
        2   -1    0    0  501    0  0.00000000000E+00  0.00000000000E+00  0.17372012501E+04  0.17372012501E+04  0.25500000920E-02 0. -1.
       -2   -1    0    0    0  501  0.00000000000E+00  0.00000000000E+00 -0.23065230104E+04  0.23065230104E+04  0.25500000920E-02 0.  1.
    10030    2    1    2    0    0  0.00000000000E+00  0.00000000000E+00 -0.56932176030E+03  0.40437242604E+04  0.40034458442E+04 0.  0.
        5    1    3    3  502    0  0.33251773879E+03 -0.15614593719E+04 -0.15043483159E+04  0.21935836803E+04  0.46999998093E+01 0.  1.
       -5    1    3    3    0  502 -0.33251773879E+03  0.15614593719E+04  0.93502655562E+03  0.18501405802E+04  0.46999998093E+01 0. -1.
</event>
<event>
 5   0  0.1879500E-08  0.4017131E+04  0.7818609E-02  0.8001100E-01
       -1   -1    0    0    0  501  0.00000000000E+00  0.00000000000E+00  0.20583424343E+04  0.20583424343E+04  0.50400001928E-02 0. -1.
        1   -1    0    0  501    0  0.00000000000E+00  0.00000000000E+00 -0.19599921752E+04  0.19599921752E+04  0.50400001928E-02 0.  1.
    10030    2    1    2    0    0  0.00000000000E+00  0.00000000000E+00  0.98350259131E+02  0.40183346095E+04  0.40171308493E+04 0.  0.
        1    1    3    3  502    0  0.17045401483E+04  0.61363395397E+03 -0.81845513053E+03  0.19879317261E+04  0.50400001928E-02 0.  1.
       -1    1    3    3    0  502 -0.17045401483E+04 -0.61363395397E+03  0.91680538966E+03  0.20304028835E+04  0.50400001928E-02 0. -1.
</event>
<event>
 5   0  0.6161563E-08  0.3987948E+04  0.7818609E-02  0.8006982E-01
        2   -1    0    0  501    0  0.00000000000E+00  0.00000000000E+00  0.17110242731E+04  0.17110242731E+04  0.25500000920E-02 0. -1.
       -2   -1    0    0    0  501  0.00000000000E+00  0.00000000000E+00 -0.23237152699E+04  0.23237152699E+04  0.25500000920E-02 0.  1.
    10030    2    1    2    0    0  0.00000000000E+00  0.00000000000E+00 -0.61269099676E+03  0.40347395430E+04  0.39879484603E+04 0.  0.
        1    1    3    3  502    0  0.17756976468E+04 -0.83604108539E+03 -0.66242151900E+03  0.20714413094E+04  0.50400001928E-02 0.  1.
       -1    1    3    3    0  502 -0.17756976468E+04  0.83604108539E+03  0.49730522243E+02  0.19632982336E+04  0.50400001928E-02 0. -1.
</event>
<event>
 5   0  0.1879500E-08  0.3984870E+04  0.7818609E-02  0.8007606E-01
        1   -1    0    0  501    0  0.00000000000E+00  0.00000000000E+00  0.26810364650E+04  0.26810364650E+04  0.50400001928E-02 0.  1.
       -1   -1    0    0    0  501  0.00000000000E+00  0.00000000000E+00 -0.14806947601E+04  0.14806947601E+04  0.50400001928E-02 0. -1.
    10030    2    1    2    0    0  0.00000000000E+00  0.00000000000E+00  0.12003417049E+04  0.41617312251E+04  0.39848697070E+04 0.  0.
        2    1    3    3  502    0  0.10016221410E+04  0.11850622119E+04  0.19055151088E+04  0.24573577658E+04  0.25500000920E-02 0.  1.
       -2    1    3    3    0  502 -0.10016221410E+04 -0.11850622119E+04 -0.70517340390E+03  0.17043734593E+04  0.25500000920E-02 0. -1.
</event>
<event>
 5   0  0.1879500E-08  0.4013468E+04  0.7818609E-02  0.8001835E-01
       -1   -1    0    0    0  501  0.00000000000E+00  0.00000000000E+00  0.13530020198E+04  0.13530020198E+04  0.50400001928E-02 0. -1.
        1   -1    0    0  501    0  0.00000000000E+00  0.00000000000E+00 -0.29763305108E+04  0.29763305108E+04  0.50400001928E-02 0.  1.
    10030    2    1    2    0    0  0.00000000000E+00  0.00000000000E+00 -0.16233284910E+04  0.43293325306E+04  0.40134679232E+04 0.  0.
        2    1    3    3  502    0  0.48396934033E+03  0.79531248252E+03 -0.27292760530E+04  0.28836948592E+04  0.25500000920E-02 0.  1.
       -2    1    3    3    0  502 -0.48396934033E+03 -0.79531248252E+03  0.11059475620E+04  0.14456376714E+04  0.25500000920E-02 0. -1.
</event>
<event>
 5   0  0.1879500E-08  0.3997083E+04  0.7818609E-02  0.8005135E-01
       -1   -1    0    0    0  501  0.00000000000E+00  0.00000000000E+00  0.18152562700E+04  0.18152562701E+04  0.50400001928E-02 0.  1.
        1   -1    0    0  501    0  0.00000000000E+00  0.00000000000E+00 -0.22003328958E+04  0.22003328958E+04  0.50400001928E-02 0. -1.
    10030    2    1    2    0    0  0.00000000000E+00  0.00000000000E+00 -0.38507662574E+03  0.40155891658E+04  0.39970829790E+04 0.  0.
        5    1    3    3  502    0  0.60521800834E+03 -0.14079010325E+03 -0.21008156772E+04  0.21907896499E+04  0.46999998093E+01 0. -1.
       -5    1    3    3    0  502 -0.60521800834E+03  0.14079010325E+03  0.17157390514E+04  0.18247995159E+04  0.46999998093E+01 0.  1.
</event>
<event>
 5   0  0.1879500E-08  0.4013181E+04  0.7818609E-02  0.8001893E-01
        1   -1    0    0  501    0  0.00000000000E+00  0.00000000000E+00  0.23811685293E+04  0.23811685293E+04  0.50400001928E-02 0. -1.
       -1   -1    0    0    0  501  0.00000000000E+00  0.00000000000E+00 -0.16909366123E+04  0.16909366123E+04  0.50400001928E-02 0.  1.
    10030    2    1    2    0    0  0.00000000000E+00  0.00000000000E+00  0.69023191696E+03  0.40721051416E+04  0.40131808064E+04 0.  0.
        5    1    3    3  502    0 -0.25746544237E+03 -0.98869137774E+03  0.20974891004E+04  0.23330841628E+04  0.46999998093E+01 0. -1.
       -5    1    3    3    0  502  0.25746544237E+03  0.98869137774E+03 -0.14072571834E+04  0.17390209788E+04  0.46999998093E+01 0.  1.
</event>
<event>
 5   0  0.1879500E-08  0.3988356E+04  0.7818609E-02  0.8006900E-01
        1   -1    0    0  501    0  0.00000000000E+00  0.00000000000E+00  0.19317663239E+04  0.19317663240E+04  0.50400001928E-02 0.  1.
       -1   -1    0    0    0  501  0.00000000000E+00  0.00000000000E+00 -0.20586064739E+04  0.20586064739E+04  0.50400001928E-02 0. -1.
    10030    2    1    2    0    0  0.00000000000E+00  0.00000000000E+00 -0.12684014994E+03  0.39903727978E+04  0.39883563835E+04 0.  0.
        4    1    3    3  502    0  0.12084905153E+04  0.11137761063E+04  0.10666634872E+04  0.19592649510E+04  0.12699999809E+01 0.  1.
       -4    1    3    3    0  502 -0.12084905153E+04 -0.11137761063E+04 -0.11935036371E+04  0.20311078468E+04  0.12699999809E+01 0. -1.
</event>
<event>
 5   0  0.5846812E-08  0.3989092E+04  0.7818609E-02  0.8006751E-01
       -2   -1    0    0    0  501  0.00000000000E+00  0.00000000000E+00  0.30984380830E+04  0.30984380830E+04  0.25500000920E-02 0. -1.
        2   -1    0    0  501    0  0.00000000000E+00  0.00000000000E+00 -0.12839416563E+04  0.12839416563E+04  0.25500000920E-02 0.  1.
    10030    2    1    2    0    0  0.00000000000E+00  0.00000000000E+00  0.18144964267E+04  0.43823797394E+04  0.39890919891E+04 0.  0.
        4    1    3    3  502    0  0.10593750849E+04  0.29498032865E+02 -0.94903425420E+03  0.14226079337E+04  0.12699999809E+01 0.  1.
       -4    1    3    3    0  502 -0.10593750849E+04 -0.29498032865E+02  0.27635306809E+04  0.29597718056E+04  0.12699999809E+01 0. -1.
</event>
<event>
 5   0  0.6161563E-08  0.3981881E+04  0.7818609E-02  0.8008212E-01
       -2   -1    0    0    0  501  0.00000000000E+00  0.00000000000E+00  0.18969359254E+04  0.18969359254E+04  0.25500000920E-02 0. -1.
        2   -1    0    0  501    0  0.00000000000E+00  0.00000000000E+00 -0.20896031069E+04  0.20896031069E+04  0.25500000920E-02 0.  1.
    10030    2    1    2    0    0  0.00000000000E+00  0.00000000000E+00 -0.19266718151E+03  0.39865390323E+04  0.39818805624E+04 0.  0.
        1    1    3    3  502    0 -0.13350972424E+04  0.10174516765E+04  0.97550315691E+03  0.19414682510E+04  0.50400001928E-02 0. -1.
       -1    1    3    3    0  502  0.13350972424E+04 -0.10174516765E+04 -0.11681703384E+04  0.20450707812E+04  0.50400001928E-02 0.  1.
</event>
<event>
 5   0  0.5888700E-08  0.3964910E+04  0.7818609E-02  0.8011663E-01
        2   -1    0    0  501    0  0.00000000000E+00  0.00000000000E+00  0.21794683599E+04  0.21794683599E+04  0.25500000920E-02 0. -1.
       -2   -1    0    0    0  501  0.00000000000E+00  0.00000000000E+00 -0.18032505345E+04  0.18032505345E+04  0.25500000920E-02 0.  1.
    10030    2    1    2    0    0  0.00000000000E+00  0.00000000000E+00  0.37621782538E+03  0.39827188945E+04  0.39649098275E+04 0.  0.
        5    1    3    3  502    0  0.17381942881E+04  0.51097103161E+03 -0.62030072665E+03  0.19149950026E+04  0.46999998093E+01 0.  1.
       -5    1    3    3    0  502 -0.17381942881E+04 -0.51097103161E+03  0.99651855203E+03  0.20677238919E+04  0.46999998093E+01 0. -1.
</event>
<event>
 5   0  0.5951623E-08  0.3997662E+04  0.7818609E-02  0.8005018E-01
        2   -1    0    0  501    0  0.00000000000E+00  0.00000000000E+00  0.21206274271E+04  0.21206274271E+04  0.25500000920E-02 0.  1.
       -2   -1    0    0    0  501  0.00000000000E+00  0.00000000000E+00 -0.18840301709E+04  0.18840301709E+04  0.25500000920E-02 0. -1.
    10030    2    1    2    0    0  0.00000000000E+00  0.00000000000E+00  0.23659725617E+03  0.40046575981E+04  0.39976623439E+04 0.  0.
        2    1    3    3  502    0 -0.16801416690E+04  0.67375868236E+02  0.12008887623E+04  0.20662887879E+04  0.25500000920E-02 0.  1.
       -2    1    3    3    0  502  0.16801416690E+04 -0.67375868236E+02 -0.96429150616E+03  0.19383688102E+04  0.25500000920E-02 0. -1.
</event>
<event>
 5   0  0.1879500E-08  0.4003012E+04  0.7818609E-02  0.8003939E-01
        1   -1    0    0  501    0  0.00000000000E+00  0.00000000000E+00  0.28138006353E+04  0.28138006353E+04  0.50400001928E-02 0. -1.
       -1   -1    0    0    0  501  0.00000000000E+00  0.00000000000E+00 -0.14237066640E+04  0.14237066640E+04  0.50400001928E-02 0.  1.
    10030    2    1    2    0    0  0.00000000000E+00  0.00000000000E+00  0.13900939713E+04  0.42375072993E+04  0.40030122236E+04 0.  0.
        2    1    3    3  502    0 -0.11407728411E+04 -0.10347443886E+04  0.20481950748E+04  0.25626473985E+04  0.25500000920E-02 0. -1.
       -2    1    3    3    0  502  0.11407728411E+04  0.10347443886E+04 -0.65810110350E+03  0.16748599008E+04  0.25500000920E-02 0.  1.
</event>
<event>
 5   0  0.1879500E-08  0.3993111E+04  0.7818609E-02  0.8005938E-01
        1   -1    0    0  501    0  0.00000000000E+00  0.00000000000E+00  0.23256673512E+04  0.23256673512E+04  0.50400001928E-02 0. -1.
       -1   -1    0    0    0  501  0.00000000000E+00  0.00000000000E+00 -0.17140175202E+04  0.17140175202E+04  0.50400001928E-02 0.  1.
    10030    2    1    2    0    0  0.00000000000E+00  0.00000000000E+00  0.61164983100E+03  0.40396848713E+04  0.39931113613E+04 0.  0.
        1    1    3    3  502    0 -0.57433212878E+03  0.25213900215E+03 -0.16117519215E+04  0.17295015834E+04  0.50400001928E-02 0.  1.
       -1    1    3    3    0  502  0.57433212878E+03 -0.25213900215E+03  0.22234017525E+04  0.23101832879E+04  0.50400001928E-02 0. -1.
</event>
<event>
 5   0  0.5888700E-08  0.3996293E+04  0.7818609E-02  0.8005295E-01
        2   -1    0    0  501    0  0.00000000000E+00  0.00000000000E+00  0.37139376131E+04  0.37139376131E+04  0.25500000920E-02 0.  1.
       -2   -1    0    0    0  501  0.00000000000E+00  0.00000000000E+00 -0.10750284091E+04  0.10750284091E+04  0.25500000920E-02 0. -1.
    10030    2    1    2    0    0  0.00000000000E+00  0.00000000000E+00  0.26389092040E+04  0.47889660222E+04  0.39962925037E+04 0.  0.
        5    1    3    3  502    0 -0.76169114417E+03 -0.13559103169E+04  0.28228495209E+04  0.32229129207E+04  0.46999998093E+01 0.  1.
       -5    1    3    3    0  502  0.76169114417E+03  0.13559103169E+04 -0.18394031692E+03  0.15660531015E+04  0.46999998093E+01 0. -1.
</event>
<event>
 5   0  0.6161563E-08  0.4006625E+04  0.7818609E-02  0.8003211E-01
       -2   -1    0    0    0  501  0.00000000000E+00  0.00000000000E+00  0.21671077611E+04  0.21671077611E+04  0.25500000920E-02 0.  1.
        2   -1    0    0  501    0  0.00000000000E+00  0.00000000000E+00 -0.18518977230E+04  0.18518977231E+04  0.25500000920E-02 0. -1.
    10030    2    1    2    0    0  0.00000000000E+00  0.00000000000E+00  0.31521003806E+03  0.40190054842E+04  0.40066254771E+04 0.  0.
        1    1    3    3  502    0 -0.45101513933E+03  0.10050307009E+04  0.18360236684E+04  0.21411408820E+04  0.50400001928E-02 0.  1.
       -1    1    3    3    0  502  0.45101513933E+03 -0.10050307009E+04 -0.15208136304E+04  0.18778646021E+04  0.50400001928E-02 0. -1.
</event>
<event>
 5   0  0.1879500E-08  0.4000943E+04  0.7818609E-02  0.8004356E-01
        3   -1    0    0  501    0  0.00000000000E+00  0.00000000000E+00  0.16878302525E+04  0.16878302555E+04  0.10100000352E+00 0. -1.
       -3   -1    0    0    0  501  0.00000000000E+00  0.00000000000E+00 -0.23710246141E+04  0.23710246163E+04  0.10100000352E+00 0.  1.
    10030    2    1    2    0    0  0.00000000000E+00  0.00000000000E+00 -0.68319436162E+03  0.40588548718E+04  0.40009434306E+04 0.  0.
        3    1    3    3  502    0  0.11280593844E+04  0.29244057518E+03  0.13079294122E+04  0.17517759053E+04  0.10100000352E+00 0. -1.
       -3    1    3    3    0  502 -0.11280593844E+04 -0.29244057518E+03 -0.19911237739E+04  0.23070789665E+04  0.10100000352E+00 0.  1.
</event>
<event>
 5   0  0.1879500E-08  0.3975485E+04  0.7818609E-02  0.8009510E-01
       -1   -1    0    0    0  501  0.00000000000E+00  0.00000000000E+00  0.25474367595E+04  0.25474367595E+04  0.50400001928E-02 0. -1.
        1   -1    0    0  501    0  0.00000000000E+00  0.00000000000E+00 -0.15510176561E+04  0.15510176562E+04  0.50400001928E-02 0.  1.
    10030    2    1    2    0    0  0.00000000000E+00  0.00000000000E+00  0.99641910339E+03  0.40984544157E+04  0.39754845702E+04 0.  0.
        3    1    3    3  502    0  0.60716296706E+03 -0.13984897758E+03  0.24441643771E+04  0.25223291057E+04  0.10100000352E+00 0. -1.
       -3    1    3    3    0  502 -0.60716296706E+03  0.13984897758E+03 -0.14477452737E+04  0.15761253100E+04  0.10100000352E+00 0.  1.
</event>
<event>
 5   0  0.5888700E-08  0.4034806E+04  0.7818609E-02  0.7997562E-01
       -2   -1    0    0    0  501  0.00000000000E+00  0.00000000000E+00  0.28722256985E+04  0.28722256985E+04  0.25500000920E-02 0. -1.
        2   -1    0    0  501    0  0.00000000000E+00  0.00000000000E+00 -0.14169899168E+04  0.14169899168E+04  0.25500000920E-02 0.  1.
    10030    2    1    2    0    0  0.00000000000E+00  0.00000000000E+00  0.14552357817E+04  0.42892156153E+04  0.40348059946E+04 0.  0.
        5    1    3    3  502    0 -0.11125232577E+04  0.16591713476E+04  0.10270429833E+04  0.22461961043E+04  0.46999998093E+01 0.  1.
       -5    1    3    3    0  502  0.11125232577E+04 -0.16591713476E+04  0.42819279839E+03  0.20430195110E+04  0.46999998093E+01 0. -1.
</event>
<event>
 5   0  0.1879500E-08  0.4006481E+04  0.7818609E-02  0.8003240E-01
       -1   -1    0    0    0  501  0.00000000000E+00  0.00000000000E+00  0.12763959078E+04  0.12763959078E+04  0.50400001928E-02 0.  1.
        1   -1    0    0  501    0  0.00000000000E+00  0.00000000000E+00 -0.31439879140E+04  0.31439879140E+04  0.50400001928E-02 0. -1.
    10030    2    1    2    0    0  0.00000000000E+00  0.00000000000E+00 -0.18675920063E+04  0.44203838218E+04  0.40064814027E+04 0.  0.
        3    1    3    3  502    0  0.59115560937E+03  0.13596810523E+04  0.55251035874E+03  0.15822342511E+04  0.10100000352E+00 0.  1.
       -3    1    3    3    0  502 -0.59115560937E+03 -0.13596810523E+04 -0.24201023650E+04  0.28381495707E+04  0.10100000352E+00 0. -1.
</event>
<event>
 5   0  0.5945387E-08  0.3993267E+04  0.7818609E-02  0.8005906E-01
        2   -1    0    0  501    0  0.00000000000E+00  0.00000000000E+00  0.22699458132E+04  0.22699458132E+04  0.25500000920E-02 0.  1.
       -2   -1    0    0    0  501  0.00000000000E+00  0.00000000000E+00 -0.17562293364E+04  0.17562293364E+04  0.25500000920E-02 0. -1.
    10030    2    1    2    0    0  0.00000000000E+00  0.00000000000E+00  0.51371647686E+03  0.40261751496E+04  0.39932670480E+04 0.  0.
        3    1    3    3  502    0 -0.18170383290E+04  0.82471081925E+03  0.32648670484E+03  0.20219717612E+04  0.10100000352E+00 0.  1.
       -3    1    3    3    0  502  0.18170383290E+04 -0.82471081925E+03  0.18722977203E+03  0.20042033884E+04  0.10100000352E+00 0. -1.
</event>
<event>
 5   0  0.1879500E-08  0.3999822E+04  0.7818609E-02  0.8004582E-01
       -1   -1    0    0    0  501  0.00000000000E+00  0.00000000000E+00  0.21632370997E+04  0.21632370997E+04  0.50400001928E-02 0. -1.
        1   -1    0    0  501    0  0.00000000000E+00  0.00000000000E+00 -0.18489161638E+04  0.18489161638E+04  0.50400001928E-02 0.  1.
    10030    2    1    2    0    0  0.00000000000E+00  0.00000000000E+00  0.31432093596E+03  0.40121532635E+04  0.39998220159E+04 0.  0.
        2    1    3    3  502    0 -0.13407769635E+04  0.12350188947E+04  0.98230792983E+03  0.20707205039E+04  0.25500000920E-02 0. -1.
       -2    1    3    3    0  502  0.13407769635E+04 -0.12350188947E+04 -0.66798699387E+03  0.19414327596E+04  0.25500000920E-02 0.  1.
</event>
<event>
 5   0  0.6161563E-08  0.4000512E+04  0.7818609E-02  0.8004443E-01
       -2   -1    0    0    0  501  0.00000000000E+00  0.00000000000E+00  0.35319329146E+04  0.35319329146E+04  0.25500000920E-02 0. -1.
        2   -1    0    0  501    0  0.00000000000E+00  0.00000000000E+00 -0.11328141881E+04  0.11328141881E+04  0.25500000920E-02 0.  1.
    10030    2    1    2    0    0  0.00000000000E+00  0.00000000000E+00  0.23991187265E+04  0.46647471027E+04  0.40005118258E+04 0.  0.
        1    1    3    3  502    0  0.93159783594E+03  0.31739222229E+02 -0.86407738771E+03  0.12710277881E+04  0.50400001928E-02 0.  1.
       -1    1    3    3    0  502 -0.93159783594E+03 -0.31739222229E+02  0.32631961143E+04  0.33937193146E+04  0.50400001928E-02 0. -1.
</event>
<event>
 5   0  0.1879500E-08  0.4224200E+04  0.7818609E-02  0.7960785E-01
        1   -1    0    0  501    0  0.00000000000E+00  0.00000000000E+00  0.20473711347E+04  0.20473711347E+04  0.50400001928E-02 0. -1.
       -1   -1    0    0    0  501  0.00000000000E+00  0.00000000000E+00 -0.21788750734E+04  0.21788750734E+04  0.50400001928E-02 0.  1.
    10030    2    1    2    0    0  0.00000000000E+00  0.00000000000E+00 -0.13150393870E+03  0.42262462081E+04  0.42241997734E+04 0.  0.
        2    1    3    3  502    0  0.10495223634E+04  0.17301331208E+04 -0.67111379198E+03  0.21319595514E+04  0.25500000920E-02 0.  1.
       -2    1    3    3    0  502 -0.10495223634E+04 -0.17301331208E+04  0.53960985328E+03  0.20942866568E+04  0.25500000920E-02 0. -1.
</event>
<event>
 5   0  0.5846812E-08  0.3812300E+04  0.7818609E-02  0.8043520E-01
       -2   -1    0    0    0  501  0.00000000000E+00  0.00000000000E+00  0.19128790464E+04  0.19128790464E+04  0.25500000920E-02 0. -1.
        2   -1    0    0  501    0  0.00000000000E+00  0.00000000000E+00 -0.18994450281E+04  0.18994450281E+04  0.25500000920E-02 0.  1.
    10030    2    1    2    0    0  0.00000000000E+00  0.00000000000E+00  0.13434018231E+02  0.38123240745E+04  0.38123004048E+04 0.  0.
        4    1    3    3  502    0 -0.10420271386E+04 -0.13717868076E+04  0.82268002637E+03  0.19090373600E+04  0.12699999809E+01 0. -1.
       -4    1    3    3    0  502  0.10420271386E+04  0.13717868076E+04 -0.80924600814E+03  0.19032867145E+04  0.12699999809E+01 0.  1.
</event>
<event>
 5   0  0.1879500E-08  0.4012939E+04  0.7818609E-02  0.8001941E-01
       -1   -1    0    0    0  501  0.00000000000E+00  0.00000000000E+00  0.32593809124E+04  0.32593809124E+04  0.50400001928E-02 0. -1.
        1   -1    0    0  501    0  0.00000000000E+00  0.00000000000E+00 -0.12351792331E+04  0.12351792331E+04  0.50400001928E-02 0.  1.
    10030    2    1    2    0    0  0.00000000000E+00  0.00000000000E+00  0.20242016793E+04  0.44945601455E+04  0.40129388811E+04 0.  0.
        4    1    3    3  502    0  0.42621581282E+03  0.13066471482E+04 -0.62516775987E+03  0.15099082852E+04  0.12699999809E+01 0.  1.
       -4    1    3    3    0  502 -0.42621581282E+03 -0.13066471482E+04  0.26493694392E+04  0.29846518603E+04  0.12699999809E+01 0. -1.
</event>
<event>
 5   0  0.1879500E-08  0.4046168E+04  0.7818609E-02  0.7995297E-01
        1   -1    0    0  501    0  0.00000000000E+00  0.00000000000E+00  0.16477476484E+04  0.16477476484E+04  0.50400001928E-02 0.  1.
       -1   -1    0    0    0  501  0.00000000000E+00  0.00000000000E+00 -0.24839170974E+04  0.24839170974E+04  0.50400001928E-02 0. -1.
    10030    2    1    2    0    0  0.00000000000E+00  0.00000000000E+00 -0.83616944899E+03  0.41316647458E+04  0.40461678443E+04 0.  0.
        2    1    3    3  502    0 -0.11206717818E+04  0.80045317118E+03 -0.19313702717E+04  0.23720922512E+04  0.25500000920E-02 0. -1.
       -2    1    3    3    0  502  0.11206717818E+04 -0.80045317118E+03  0.10952008227E+04  0.17595724946E+04  0.25500000920E-02 0.  1.
</event>
<event>
 5   0  0.1879500E-08  0.4004665E+04  0.7818609E-02  0.8003606E-01
       -1   -1    0    0    0  501  0.00000000000E+00  0.00000000000E+00  0.26096125509E+04  0.26096125509E+04  0.50400001928E-02 0.  1.
        1   -1    0    0  501    0  0.00000000000E+00  0.00000000000E+00 -0.15363718176E+04  0.15363718177E+04  0.50400001928E-02 0. -1.
    10030    2    1    2    0    0  0.00000000000E+00  0.00000000000E+00  0.10732407332E+04  0.41459843685E+04  0.40046648689E+04 0.  0.
        5    1    3    3  502    0 -0.13447192103E+04  0.41207864471E+03  0.20121281921E+04  0.24549461329E+04  0.46999998093E+01 0.  1.
       -5    1    3    3    0  502  0.13447192103E+04 -0.41207864471E+03 -0.93888745887E+03  0.16910382356E+04  0.46999998093E+01 0. -1.
</event>
<event>
 5   0  0.1879500E-08  0.4059441E+04  0.7818609E-02  0.7992662E-01
       -1   -1    0    0    0  501  0.00000000000E+00  0.00000000000E+00  0.19103734189E+04  0.19103734189E+04  0.50400001928E-02 0. -1.
        1   -1    0    0  501    0  0.00000000000E+00  0.00000000000E+00 -0.21565233044E+04  0.21565233044E+04  0.50400001928E-02 0.  1.
    10030    2    1    2    0    0  0.00000000000E+00  0.00000000000E+00 -0.24614988550E+03  0.40668967232E+04  0.40594407486E+04 0.  0.
        2    1    3    3  502    0 -0.73782155843E+03  0.18712346931E+04  0.14920515862E+03  0.20169685441E+04  0.25500000920E-02 0. -1.
       -2    1    3    3    0  502  0.73782155843E+03 -0.18712346931E+04 -0.39535504412E+03  0.20499281791E+04  0.25500000920E-02 0.  1.
</event>
<event>
 5   0  0.1879500E-08  0.4068566E+04  0.7818609E-02  0.7990856E-01
       -1   -1    0    0    0  501  0.00000000000E+00  0.00000000000E+00  0.19011737190E+04  0.19011737190E+04  0.50400001928E-02 0.  1.
        1   -1    0    0  501    0  0.00000000000E+00  0.00000000000E+00 -0.21767123533E+04  0.21767123533E+04  0.50400001928E-02 0. -1.
    10030    2    1    2    0    0  0.00000000000E+00  0.00000000000E+00 -0.27553863429E+03  0.40778860723E+04  0.40685664895E+04 0.  0.
        3    1    3    3  502    0  0.18323177912E+04 -0.42140071618E+03  0.64076037891E+03  0.19863385726E+04  0.10100000352E+00 0.  1.
       -3    1    3    3    0  502 -0.18323177912E+04  0.42140071618E+03 -0.91629901320E+03  0.20915474997E+04  0.10100000352E+00 0. -1.
</event>
<event>
 5   0  0.1879500E-08  0.4008247E+04  0.7818609E-02  0.8002885E-01
        1   -1    0    0  501    0  0.00000000000E+00  0.00000000000E+00  0.12731956165E+04  0.12731956165E+04  0.50400001928E-02 0.  1.
       -1   -1    0    0    0  501  0.00000000000E+00  0.00000000000E+00 -0.31546692112E+04  0.31546692112E+04  0.50400001928E-02 0. -1.
    10030    2    1    2    0    0  0.00000000000E+00  0.00000000000E+00 -0.18814735947E+04  0.44278648276E+04  0.40082470039E+04 0.  0.
        5    1    3    3  502    0 -0.19610407503E+04  0.27832084544E+03 -0.12782469277E+04  0.23573460958E+04  0.46999998093E+01 0.  1.
       -5    1    3    3    0  502  0.19610407503E+04 -0.27832084544E+03 -0.60322666704E+03  0.20705187319E+04  0.46999998093E+01 0. -1.
</event>
<event>
 5   0  0.1879500E-08  0.4059745E+04  0.7818609E-02  0.7992601E-01
        1   -1    0    0  501    0  0.00000000000E+00  0.00000000000E+00  0.16862618857E+04  0.16862618857E+04  0.50400001928E-02 0. -1.
       -1   -1    0    0    0  501  0.00000000000E+00  0.00000000000E+00 -0.24435009340E+04  0.24435009340E+04  0.50400001928E-02 0.  1.
    10030    2    1    2    0    0  0.00000000000E+00  0.00000000000E+00 -0.75723904828E+03  0.41297628197E+04  0.40597450623E+04 0.  0.
        5    1    3    3  502    0  0.17563163224E+04 -0.10154752797E+04 -0.44703521426E+03  0.20774262058E+04  0.46999998093E+01 0.  1.
       -5    1    3    3    0  502 -0.17563163224E+04  0.10154752797E+04 -0.31020383402E+03  0.20523366138E+04  0.46999998093E+01 0. -1.
</event>
<event>
 5   0  0.1879500E-08  0.3997865E+04  0.7818609E-02  0.8004977E-01
        1   -1    0    0  501    0  0.00000000000E+00  0.00000000000E+00  0.20660987684E+04  0.20660987684E+04  0.50400001928E-02 0.  1.
       -1   -1    0    0    0  501  0.00000000000E+00  0.00000000000E+00 -0.19339493106E+04  0.19339493106E+04  0.50400001928E-02 0. -1.
    10030    2    1    2    0    0  0.00000000000E+00  0.00000000000E+00  0.13214945782E+03  0.40000480790E+04  0.39978645744E+04 0.  0.
        5    1    3    3  502    0  0.70950532145E+03 -0.16954658262E+04  0.85244675053E+03  0.20260033863E+04  0.46999998093E+01 0.  1.
       -5    1    3    3    0  502 -0.70950532145E+03  0.16954658262E+04 -0.72029729271E+03  0.19740446927E+04  0.46999998093E+01 0. -1.
</event>
<event>
 5   0  0.5846812E-08  0.3991583E+04  0.7818609E-02  0.8006247E-01
        2   -1    0    0  501    0  0.00000000000E+00  0.00000000000E+00  0.23873310850E+04  0.23873310850E+04  0.25500000920E-02 0.  1.
       -2   -1    0    0    0  501  0.00000000000E+00  0.00000000000E+00 -0.16684672399E+04  0.16684672399E+04  0.25500000920E-02 0. -1.
    10030    2    1    2    0    0  0.00000000000E+00  0.00000000000E+00  0.71886384509E+03  0.40557983249E+04  0.39915829973E+04 0.  0.
        4    1    3    3  502    0  0.15598694369E+04 -0.75063655750E+03  0.13686551989E+04  0.22067774169E+04  0.12699999809E+01 0.  1.
       -4    1    3    3    0  502 -0.15598694369E+04  0.75063655750E+03 -0.64979135377E+03  0.18490209079E+04  0.12699999809E+01 0. -1.
</event>
<event>
 5   0  0.1879500E-08  0.3931386E+04  0.7818609E-02  0.8018533E-01
       -1   -1    0    0    0  501  0.00000000000E+00  0.00000000000E+00  0.14995424303E+04  0.14995424303E+04  0.50400001928E-02 0.  1.
        1   -1    0    0  501    0  0.00000000000E+00  0.00000000000E+00 -0.25767517732E+04  0.25767517732E+04  0.50400001928E-02 0. -1.
    10030    2    1    2    0    0  0.00000000000E+00  0.00000000000E+00 -0.10772093429E+04  0.40762942034E+04  0.39313858199E+04 0.  0.
        4    1    3    3  502    0  0.74677273257E+03  0.15703688230E+04  0.41181664400E+03  0.17869869377E+04  0.12699999809E+01 0. -1.
       -4    1    3    3    0  502 -0.74677273257E+03 -0.15703688230E+04 -0.14890259869E+04  0.22893072657E+04  0.12699999809E+01 0.  1.
</event>
<event>
 5   0  0.5945387E-08  0.3965057E+04  0.7818609E-02  0.8011633E-01
        2   -1    0    0  501    0  0.00000000000E+00  0.00000000000E+00  0.25737693610E+04  0.25737693610E+04  0.25500000920E-02 0.  1.
       -2   -1    0    0    0  501  0.00000000000E+00  0.00000000000E+00 -0.15271061561E+04  0.15271061561E+04  0.25500000920E-02 0. -1.
    10030    2    1    2    0    0  0.00000000000E+00  0.00000000000E+00  0.10466632049E+04  0.41008755171E+04  0.39650568902E+04 0.  0.
        3    1    3    3  502    0  0.93918213704E+03  0.12847467540E+04 -0.69944421518E+03  0.17383496567E+04  0.10100000352E+00 0. -1.
       -3    1    3    3    0  502 -0.93918213704E+03 -0.12847467540E+04  0.17461074201E+04  0.23625258604E+04  0.10100000352E+00 0.  1.
</event>
<event>
 5   0  0.6161563E-08  0.3930056E+04  0.7818609E-02  0.8018807E-01
       -2   -1    0    0    0  501  0.00000000000E+00  0.00000000000E+00  0.20488529785E+04  0.20488529785E+04  0.25500000920E-02 0.  1.
        2   -1    0    0  501    0  0.00000000000E+00  0.00000000000E+00 -0.18846321010E+04  0.18846321010E+04  0.25500000920E-02 0. -1.
    10030    2    1    2    0    0  0.00000000000E+00  0.00000000000E+00  0.16422087754E+03  0.39334850795E+04  0.39300555180E+04 0.  0.
        1    1    3    3  502    0  0.10603035851E+04 -0.14177149107E+04  0.93560005466E+03  0.20023752703E+04  0.50400001928E-02 0.  1.
       -1    1    3    3    0  502 -0.10603035851E+04  0.14177149107E+04 -0.77137917712E+03  0.19311098093E+04  0.50400001928E-02 0. -1.
</event>
<event>
 5   0  0.1879500E-08  0.3998215E+04  0.7818609E-02  0.8004907E-01
       -1   -1    0    0    0  501  0.00000000000E+00  0.00000000000E+00  0.25258782576E+04  0.25258782576E+04  0.50400001928E-02 0. -1.
        1   -1    0    0  501    0  0.00000000000E+00  0.00000000000E+00 -0.15821941941E+04  0.15821941941E+04  0.50400001928E-02 0.  1.
    10030    2    1    2    0    0  0.00000000000E+00  0.00000000000E+00  0.94368406358E+03  0.41080724517E+04  0.39982145586E+04 0.  0.
        4    1    3    3  502    0  0.53600780207E+03  0.37040830947E+03  0.24137245790E+04  0.25001149245E+04  0.12699999809E+01 0. -1.
       -4    1    3    3    0  502 -0.53600780207E+03 -0.37040830947E+03 -0.14700405154E+04  0.16079575272E+04  0.12699999809E+01 0.  1.
</event>
<event>
 5   0  0.6161563E-08  0.4020357E+04  0.7818609E-02  0.8000453E-01
       -2   -1    0    0    0  501  0.00000000000E+00  0.00000000000E+00  0.15764235680E+04  0.15764235680E+04  0.25500000920E-02 0.  1.
        2   -1    0    0  501    0  0.00000000000E+00  0.00000000000E+00 -0.25632810770E+04  0.25632810770E+04  0.25500000920E-02 0. -1.
    10030    2    1    2    0    0  0.00000000000E+00  0.00000000000E+00 -0.98685750895E+03  0.41397046450E+04  0.40203565520E+04 0.  0.
        1    1    3    3  502    0  0.96473202887E+03  0.37179047813E+03  0.12816616166E+04  0.16466913939E+04  0.50400001928E-02 0.  1.
       -1    1    3    3    0  502 -0.96473202887E+03 -0.37179047813E+03 -0.22685191256E+04  0.24930132511E+04  0.50400001928E-02 0. -1.
</event>
<event>
 5   0  0.5945387E-08  0.3994556E+04  0.7818609E-02  0.8005646E-01
       -2   -1    0    0    0  501  0.00000000000E+00  0.00000000000E+00  0.18643180489E+04  0.18643180489E+04  0.25500000920E-02 0.  1.
        2   -1    0    0  501    0  0.00000000000E+00  0.00000000000E+00 -0.21397200819E+04  0.21397200819E+04  0.25500000920E-02 0. -1.
    10030    2    1    2    0    0  0.00000000000E+00  0.00000000000E+00 -0.27540203296E+03  0.40040381308E+04  0.39945556791E+04 0.  0.
        3    1    3    3  502    0 -0.19650929779E+03  0.75193150574E+03  0.17065311672E+04  0.18751707997E+04  0.10100000352E+00 0.  1.
       -3    1    3    3    0  502  0.19650929779E+03 -0.75193150574E+03 -0.19819332001E+04  0.21288673311E+04  0.10100000352E+00 0. -1.
</event>
<event>
 5   0  0.1879500E-08  0.4001585E+04  0.7818609E-02  0.8004227E-01
        1   -1    0    0  501    0  0.00000000000E+00  0.00000000000E+00  0.27078088856E+04  0.27078088856E+04  0.50400001928E-02 0.  1.
       -1   -1    0    0    0  501  0.00000000000E+00  0.00000000000E+00 -0.14783802444E+04  0.14783802444E+04  0.50400001928E-02 0. -1.
    10030    2    1    2    0    0  0.00000000000E+00  0.00000000000E+00  0.12294286412E+04  0.41861891299E+04  0.40015852668E+04 0.  0.
        2    1    3    3  502    0  0.39555516114E+03 -0.41335802516E+03  0.26204108032E+04  0.26821412193E+04  0.25500000920E-02 0.  1.
       -2    1    3    3    0  502 -0.39555516114E+03  0.41335802516E+03 -0.13909821620E+04  0.15040479107E+04  0.25500000920E-02 0. -1.
</event>
<event>
 5   0  0.6161563E-08  0.3998426E+04  0.7818609E-02  0.8004864E-01
        2   -1    0    0  501    0  0.00000000000E+00  0.00000000000E+00  0.14339014652E+04  0.14339014652E+04  0.25500000920E-02 0. -1.
       -2   -1    0    0    0  501  0.00000000000E+00  0.00000000000E+00 -0.27873973770E+04  0.27873973770E+04  0.25500000920E-02 0.  1.
    10030    2    1    2    0    0  0.00000000000E+00  0.00000000000E+00 -0.13534959118E+04  0.42212988422E+04  0.39984262819E+04 0.  0.
        1    1    3    3  502    0  0.11580715550E+04  0.15001952938E+04 -0.13487308950E+04  0.23261106322E+04  0.50400001928E-02 0.  1.
       -1    1    3    3    0  502 -0.11580715550E+04 -0.15001952938E+04 -0.47650167914E+01  0.18951882100E+04  0.50400001928E-02 0. -1.
</event>
<event>
 5   0  0.1879500E-08  0.3990764E+04  0.7818609E-02  0.8006412E-01
        1   -1    0    0  501    0  0.00000000000E+00  0.00000000000E+00  0.15665518948E+04  0.15665518948E+04  0.50400001928E-02 0. -1.
       -1   -1    0    0    0  501  0.00000000000E+00  0.00000000000E+00 -0.25416009695E+04  0.25416009695E+04  0.50400001928E-02 0.  1.
    10030    2    1    2    0    0  0.00000000000E+00  0.00000000000E+00 -0.97504907468E+03  0.41081528643E+04  0.39907642449E+04 0.  0.
        1    1    3    3  502    0  0.34424681346E+03 -0.29062335454E+03  0.15135116802E+04  0.15791407185E+04  0.50400001928E-02 0. -1.
       -1    1    3    3    0  502 -0.34424681346E+03  0.29062335454E+03 -0.24885607549E+04  0.25290121458E+04  0.50400001928E-02 0.  1.
</event>
<event>
 5   0  0.1879500E-08  0.3999965E+04  0.7818609E-02  0.8004554E-01
        1   -1    0    0  501    0  0.00000000000E+00  0.00000000000E+00  0.15465094309E+04  0.15465094309E+04  0.50400001928E-02 0.  1.
       -1   -1    0    0    0  501  0.00000000000E+00  0.00000000000E+00 -0.25864241572E+04  0.25864241572E+04  0.50400001928E-02 0. -1.
    10030    2    1    2    0    0  0.00000000000E+00  0.00000000000E+00 -0.10399147263E+04  0.41329335881E+04  0.39999646755E+04 0.  0.
        2    1    3    3  502    0 -0.10938471040E+04  0.58781697051E+03 -0.21398427724E+04  0.24740568644E+04  0.25500000920E-02 0. -1.
       -2    1    3    3    0  502  0.10938471040E+04 -0.58781697051E+03  0.10999280461E+04  0.16588767237E+04  0.25500000920E-02 0.  1.
</event>
<event>
 5   0  0.1879500E-08  0.3925910E+04  0.7818609E-02  0.8019662E-01
       -1   -1    0    0    0  501  0.00000000000E+00  0.00000000000E+00  0.18743406056E+04  0.18743406056E+04  0.50400001928E-02 0. -1.
        1   -1    0    0  501    0  0.00000000000E+00  0.00000000000E+00 -0.20557591686E+04  0.20557591686E+04  0.50400001928E-02 0.  1.
    10030    2    1    2    0    0  0.00000000000E+00  0.00000000000E+00 -0.18141856297E+03  0.39300997742E+04  0.39259102818E+04 0.  0.
        1    1    3    3  502    0 -0.50085674793E+03  0.59805383851E+03 -0.18939274398E+04  0.20482888036E+04  0.50400001928E-02 0.  1.
       -1    1    3    3    0  502  0.50085674793E+03 -0.59805383851E+03  0.17125088769E+04  0.18818109706E+04  0.50400001928E-02 0. -1.
</event>
<event>
 5   0  0.6161563E-08  0.4000596E+04  0.7818609E-02  0.8004426E-01
        2   -1    0    0  501    0  0.00000000000E+00  0.00000000000E+00  0.17364367325E+04  0.17364367325E+04  0.25500000920E-02 0.  1.
       -2   -1    0    0    0  501  0.00000000000E+00  0.00000000000E+00 -0.23042539437E+04  0.23042539437E+04  0.25500000920E-02 0. -1.
    10030    2    1    2    0    0  0.00000000000E+00  0.00000000000E+00 -0.56781721116E+03  0.40406906762E+04  0.40005955501E+04 0.  0.
        1    1    3    3  502    0 -0.15140838019E+04  0.84053455526E+03  0.72724583524E+03  0.18782530720E+04  0.50400001928E-02 0.  1.
       -1    1    3    3    0  502  0.15140838019E+04 -0.84053455526E+03 -0.12950630464E+04  0.21624376042E+04  0.50400001928E-02 0. -1.
</event>
<event>
 5   0  0.1879500E-08  0.3982348E+04  0.7818609E-02  0.8008117E-01
        1   -1    0    0  501    0  0.00000000000E+00  0.00000000000E+00  0.18902703654E+04  0.18902703654E+04  0.50400001928E-02 0.  1.
       -1   -1    0    0    0  501  0.00000000000E+00  0.00000000000E+00 -0.20974638895E+04  0.20974638895E+04  0.50400001928E-02 0. -1.
    10030    2    1    2    0    0  0.00000000000E+00  0.00000000000E+00 -0.20719352417E+03  0.39877342549E+04  0.39823479671E+04 0.  0.
        1    1    3    3  502    0 -0.17942708642E+04 -0.81406687632E+03  0.18430039944E+03  0.19789086514E+04  0.50400001928E-02 0. -1.
       -1    1    3    3    0  502  0.17942708642E+04  0.81406687632E+03 -0.39149392361E+03  0.20088256035E+04  0.50400001928E-02 0.  1.
</event>
<event>
 5   0  0.1879500E-08  0.3984998E+04  0.7818609E-02  0.8007580E-01
       -1   -1    0    0    0  501  0.00000000000E+00  0.00000000000E+00  0.22731552689E+04  0.22731552689E+04  0.50400001928E-02 0. -1.
        1   -1    0    0  501    0  0.00000000000E+00  0.00000000000E+00 -0.17464938936E+04  0.17464938936E+04  0.50400001928E-02 0.  1.
    10030    2    1    2    0    0  0.00000000000E+00  0.00000000000E+00  0.52666137525E+03  0.40196491625E+04  0.39849977648E+04 0.  0.
        4    1    3    3  502    0 -0.49417518975E+02  0.18914170485E+03 -0.17367965627E+04  0.17477644546E+04  0.12699999809E+01 0.  1.
       -4    1    3    3    0  502  0.49417518975E+02 -0.18914170485E+03  0.22634579380E+04  0.22718847078E+04  0.12699999809E+01 0. -1.
</event>
<event>
 5   0  0.5951623E-08  0.3969427E+04  0.7818609E-02  0.8010743E-01
       -2   -1    0    0    0  501  0.00000000000E+00  0.00000000000E+00  0.15551298317E+04  0.15551298317E+04  0.25500000920E-02 0.  1.
        2   -1    0    0  501    0  0.00000000000E+00  0.00000000000E+00 -0.25329632654E+04  0.25329632654E+04  0.25500000920E-02 0. -1.
    10030    2    1    2    0    0  0.00000000000E+00  0.00000000000E+00 -0.97783343369E+03  0.40880930971E+04  0.39694265261E+04 0.  0.
        2    1    3    3  502    0  0.58446325627E+03 -0.16716139550E+04 -0.14119212603E+04  0.22648205575E+04  0.25500000920E-02 0. -1.
       -2    1    3    3    0  502 -0.58446325627E+03  0.16716139550E+04  0.43408782662E+03  0.18232725396E+04  0.25500000920E-02 0.  1.
</event>
<event>
 5   0  0.5951623E-08  0.3980039E+04  0.7818609E-02  0.8008585E-01
        2   -1    0    0  501    0  0.00000000000E+00  0.00000000000E+00  0.19837461361E+04  0.19837461361E+04  0.25500000920E-02 0. -1.
       -2   -1    0    0    0  501  0.00000000000E+00  0.00000000000E+00 -0.19963126900E+04  0.19963126900E+04  0.25500000920E-02 0.  1.
    10030    2    1    2    0    0  0.00000000000E+00  0.00000000000E+00 -0.12566553918E+02  0.39800588261E+04  0.39800389874E+04 0.  0.
        2    1    3    3  502    0  0.50282648017E+03  0.13521512735E+04 -0.13770672797E+04  0.19943574976E+04  0.25500000920E-02 0.  1.
       -2    1    3    3    0  502 -0.50282648017E+03 -0.13521512735E+04  0.13645007258E+04  0.19857013285E+04  0.25500000920E-02 0. -1.
</event>
<event>
 5   0  0.5888700E-08  0.3997860E+04  0.7818609E-02  0.8004978E-01
        2   -1    0    0  501    0  0.00000000000E+00  0.00000000000E+00  0.26818922070E+04  0.26818922070E+04  0.25500000920E-02 0.  1.
       -2   -1    0    0    0  501  0.00000000000E+00  0.00000000000E+00 -0.14898888629E+04  0.14898888629E+04  0.25500000920E-02 0. -1.
    10030    2    1    2    0    0  0.00000000000E+00  0.00000000000E+00  0.11920033441E+04  0.41717810699E+04  0.39978600929E+04 0.  0.
        5    1    3    3  502    0 -0.33628289793E+03 -0.12498439262E+04 -0.99358789775E+03  0.16316969780E+04  0.46999998093E+01 0. -1.
       -5    1    3    3    0  502  0.33628289793E+03  0.12498439262E+04  0.21855912419E+04  0.25400840919E+04  0.46999998093E+01 0.  1.
</event>
<event>
 5   0  0.6161563E-08  0.4008330E+04  0.7818609E-02  0.8002868E-01
        2   -1    0    0  501    0  0.00000000000E+00  0.00000000000E+00  0.24732247401E+04  0.24732247401E+04  0.25500000920E-02 0.  1.
       -2   -1    0    0    0  501  0.00000000000E+00  0.00000000000E+00 -0.16240646699E+04  0.16240646699E+04  0.25500000920E-02 0. -1.
    10030    2    1    2    0    0  0.00000000000E+00  0.00000000000E+00  0.84916007011E+03  0.40972894100E+04  0.40083297874E+04 0.  0.
        1    1    3    3  502    0 -0.97156925669E+02 -0.17714905979E+04  0.13775028051E+04  0.22461372141E+04  0.50400001928E-02 0.  1.
       -1    1    3    3    0  502  0.97156925669E+02  0.17714905979E+04 -0.52834273495E+03  0.18511521959E+04  0.50400001928E-02 0. -1.
</event>
<event>
 5   0  0.1879500E-08  0.4002608E+04  0.7818609E-02  0.8004021E-01
        1   -1    0    0  501    0  0.00000000000E+00  0.00000000000E+00  0.26061579857E+04  0.26061579857E+04  0.50400001928E-02 0.  1.
       -1   -1    0    0    0  501  0.00000000000E+00  0.00000000000E+00 -0.15368283553E+04  0.15368283554E+04  0.50400001928E-02 0. -1.
    10030    2    1    2    0    0  0.00000000000E+00  0.00000000000E+00  0.10693296303E+04  0.41429863410E+04  0.40026078953E+04 0.  0.
        3    1    3    3  502    0 -0.15968083007E+04 -0.10366179672E+04  0.11734340163E+04  0.22363633336E+04  0.10100000352E+00 0.  1.
       -3    1    3    3    0  502  0.15968083007E+04  0.10366179672E+04 -0.10410438596E+03  0.19066230074E+04  0.10100000352E+00 0. -1.
</event>
<event>
 5   0  0.5846812E-08  0.3993886E+04  0.7818609E-02  0.8005781E-01
       -2   -1    0    0    0  501  0.00000000000E+00  0.00000000000E+00  0.26439826032E+04  0.26439826032E+04  0.25500000920E-02 0.  1.
        2   -1    0    0  501    0  0.00000000000E+00  0.00000000000E+00 -0.15082476913E+04  0.15082476913E+04  0.25500000920E-02 0. -1.
    10030    2    1    2    0    0  0.00000000000E+00  0.00000000000E+00  0.11357349119E+04  0.41522302946E+04  0.39938856555E+04 0.  0.
        4    1    3    3  502    0 -0.34673802731E+03  0.14911348640E+02  0.26123875827E+04  0.26353406048E+04  0.12699999809E+01 0.  1.
       -4    1    3    3    0  502  0.34673802731E+03 -0.14911348640E+02 -0.14766526708E+04  0.15168896898E+04  0.12699999809E+01 0. -1.
</event>
<event>
 5   0  0.5888700E-08  0.3999177E+04  0.7818609E-02  0.8004713E-01
        2   -1    0    0  501    0  0.00000000000E+00  0.00000000000E+00  0.22201546198E+04  0.22201546198E+04  0.25500000920E-02 0. -1.
       -2   -1    0    0    0  501  0.00000000000E+00  0.00000000000E+00 -0.18009352175E+04  0.18009352175E+04  0.25500000920E-02 0.  1.
    10030    2    1    2    0    0  0.00000000000E+00  0.00000000000E+00  0.41921940234E+03  0.40210898373E+04  0.39991772370E+04 0.  0.
        5    1    3    3  502    0 -0.38950833088E+03 -0.18170865137E+04  0.95176812641E+03  0.20879187711E+04  0.46999998093E+01 0. -1.
       -5    1    3    3    0  502  0.38950833088E+03  0.18170865137E+04 -0.53254872407E+03  0.19331710663E+04  0.46999998093E+01 0.  1.
</event>
<event>
 5   0  0.6161563E-08  0.4023976E+04  0.7818609E-02  0.7999727E-01
        2   -1    0    0  501    0  0.00000000000E+00  0.00000000000E+00  0.17602322015E+04  0.17602322015E+04  0.25500000920E-02 0. -1.
       -2   -1    0    0    0  501  0.00000000000E+00  0.00000000000E+00 -0.22997508229E+04  0.22997508229E+04  0.25500000920E-02 0.  1.
    10030    2    1    2    0    0  0.00000000000E+00  0.00000000000E+00 -0.53951862140E+03  0.40599830244E+04  0.40239758716E+04 0.  0.
        1    1    3    3  502    0 -0.44712731425E+03 -0.20831335296E+01  0.17094689224E+04  0.17669779771E+04  0.50400001928E-02 0. -1.
       -1    1    3    3    0  502  0.44712731425E+03  0.20831335296E+01 -0.22489875438E+04  0.22930050473E+04  0.50400001928E-02 0.  1.
</event>
<event>
 5   0  0.1879500E-08  0.4000673E+04  0.7818609E-02  0.8004411E-01
       -1   -1    0    0    0  501  0.00000000000E+00  0.00000000000E+00  0.14667260290E+04  0.14667260290E+04  0.50400001928E-02 0.  1.
        1   -1    0    0  501    0  0.00000000000E+00  0.00000000000E+00 -0.27280805302E+04  0.27280805302E+04  0.50400001928E-02 0. -1.
    10030    2    1    2    0    0  0.00000000000E+00  0.00000000000E+00 -0.12613545011E+04  0.41948065592E+04  0.40006733048E+04 0.  0.
        1    1    3    3  502    0  0.15161324903E+04 -0.49181433795E+03 -0.18979653822E+04  0.24784696212E+04  0.50400001928E-02 0.  1.
       -1    1    3    3    0  502 -0.15161324903E+04  0.49181433795E+03  0.63661088103E+03  0.17163369381E+04  0.50400001928E-02 0. -1.
</event>
<event>
 5   0  0.1879500E-08  0.3973586E+04  0.7818609E-02  0.8009896E-01
        1   -1    0    0  501    0  0.00000000000E+00  0.00000000000E+00  0.13685882266E+04  0.13685882266E+04  0.50400001928E-02 0. -1.
       -1   -1    0    0    0  501  0.00000000000E+00  0.00000000000E+00 -0.28842469642E+04  0.28842469642E+04  0.50400001928E-02 0.  1.
    10030    2    1    2    0    0  0.00000000000E+00  0.00000000000E+00 -0.15156587376E+04  0.42528351908E+04  0.39735860065E+04 0.  0.
        2    1    3    3  502    0  0.13873338241E+04 -0.97444486569E+03 -0.18665388291E+04  0.25215481625E+04  0.25500000920E-02 0.  1.
       -2    1    3    3    0  502 -0.13873338241E+04  0.97444486569E+03  0.35088009142E+03  0.17312870283E+04  0.25500000920E-02 0. -1.
</event>
<event>
 5   0  0.1879500E-08  0.4001794E+04  0.7818609E-02  0.8004185E-01
        1   -1    0    0  501    0  0.00000000000E+00  0.00000000000E+00  0.31293665264E+04  0.31293665264E+04  0.50400001928E-02 0.  1.
       -1   -1    0    0    0  501  0.00000000000E+00  0.00000000000E+00 -0.12793608579E+04  0.12793608580E+04  0.50400001928E-02 0. -1.
    10030    2    1    2    0    0  0.00000000000E+00  0.00000000000E+00  0.18500056685E+04  0.44087273844E+04  0.40017941197E+04 0.  0.
        2    1    3    3  502    0  0.12847552436E+04  0.36101175426E+03 -0.71745929272E+03  0.15151479662E+04  0.25500000920E-02 0. -1.
       -2    1    3    3    0  502 -0.12847552436E+04 -0.36101175426E+03  0.25674649612E+04  0.28935794182E+04  0.25500000920E-02 0.  1.
</event>
<event>
 5   0  0.5951623E-08  0.3729704E+04  0.7818609E-02  0.8061411E-01
        2   -1    0    0  501    0  0.00000000000E+00  0.00000000000E+00  0.12291898329E+04  0.12291898329E+04  0.25500000920E-02 0. -1.
       -2   -1    0    0    0  501  0.00000000000E+00  0.00000000000E+00 -0.28292406554E+04  0.28292406554E+04  0.25500000920E-02 0.  1.
    10030    2    1    2    0    0  0.00000000000E+00  0.00000000000E+00 -0.16000508225E+04  0.40584304882E+04  0.37297044646E+04 0.  0.
        2    1    3    3  502    0 -0.13502235002E+04  0.11852269117E+04 -0.25616625863E+03  0.18147968163E+04  0.25500000920E-02 0. -1.
       -2    1    3    3    0  502  0.13502235002E+04 -0.11852269117E+04 -0.13438845639E+04  0.22436336719E+04  0.25500000920E-02 0.  1.
</event>
<event>
 5   0  0.5846812E-08  0.4005035E+04  0.7818609E-02  0.8003532E-01
       -2   -1    0    0    0  501  0.00000000000E+00  0.00000000000E+00  0.14189389891E+04  0.14189389891E+04  0.25500000920E-02 0. -1.
        2   -1    0    0  501    0  0.00000000000E+00  0.00000000000E+00 -0.28261097645E+04  0.28261097645E+04  0.25500000920E-02 0.  1.
    10030    2    1    2    0    0  0.00000000000E+00  0.00000000000E+00 -0.14071707754E+04  0.42450487535E+04  0.40050354966E+04 0.  0.
        4    1    3    3  502    0  0.24953031472E+03  0.18553940662E+04 -0.14570466551E+04  0.23722856251E+04  0.12699999809E+01 0.  1.
       -4    1    3    3    0  502 -0.24953031472E+03 -0.18553940662E+04  0.49875879731E+02  0.18727631284E+04  0.12699999809E+01 0. -1.
</event>
<event>
 5   0  0.5888700E-08  0.3985118E+04  0.7818609E-02  0.8007556E-01
       -2   -1    0    0    0  501  0.00000000000E+00  0.00000000000E+00  0.28889352858E+04  0.28889352858E+04  0.25500000920E-02 0.  1.
        2   -1    0    0  501    0  0.00000000000E+00  0.00000000000E+00 -0.13743093407E+04  0.13743093407E+04  0.25500000920E-02 0. -1.
    10030    2    1    2    0    0  0.00000000000E+00  0.00000000000E+00  0.15146259451E+04  0.42632446266E+04  0.39851176887E+04 0.  0.
        5    1    3    3  502    0  0.10021413303E+04  0.15661413723E+04 -0.90509810510E+01  0.18593520522E+04  0.46999998093E+01 0. -1.
       -5    1    3    3    0  502 -0.10021413303E+04 -0.15661413723E+04  0.15236769262E+04  0.24038925744E+04  0.46999998093E+01 0.  1.
</event>
<event>
 5   0  0.1879500E-08  0.4007994E+04  0.7818609E-02  0.8002936E-01
        1   -1    0    0  501    0  0.00000000000E+00  0.00000000000E+00  0.22323253178E+04  0.22323253178E+04  0.50400001928E-02 0.  1.
       -1   -1    0    0    0  501  0.00000000000E+00  0.00000000000E+00 -0.17990229478E+04  0.17990229478E+04  0.50400001928E-02 0. -1.
    10030    2    1    2    0    0  0.00000000000E+00  0.00000000000E+00  0.43330237005E+03  0.40313482656E+04  0.40079942483E+04 0.  0.
        1    1    3    3  502    0  0.10722415798E+04  0.78791444991E+03 -0.12905773553E+04  0.18536723270E+04  0.50400001928E-02 0. -1.
       -1    1    3    3    0  502 -0.10722415798E+04 -0.78791444991E+03  0.17238797254E+04  0.21776759386E+04  0.50400001928E-02 0.  1.
</event>
<event>
 5   0  0.1879500E-08  0.3993907E+04  0.7818609E-02  0.8005777E-01
       -1   -1    0    0    0  501  0.00000000000E+00  0.00000000000E+00  0.15914205398E+04  0.15914205398E+04  0.50400001928E-02 0. -1.
        1   -1    0    0  501    0  0.00000000000E+00  0.00000000000E+00 -0.25058264386E+04  0.25058264386E+04  0.50400001928E-02 0.  1.
    10030    2    1    2    0    0  0.00000000000E+00  0.00000000000E+00 -0.91440589878E+03  0.40972469784E+04  0.39939071915E+04 0.  0.
        4    1    3    3  502    0 -0.18390197188E+04  0.37090479518E+03 -0.11592025271E+04  0.22052927254E+04  0.12699999809E+01 0.  1.
       -4    1    3    3    0  502  0.18390197188E+04 -0.37090479518E+03  0.24479662829E+03  0.18919542530E+04  0.12699999809E+01 0. -1.
</event>
<event>
 5   0  0.5951623E-08  0.3999397E+04  0.7818609E-02  0.8004668E-01
        2   -1    0    0  501    0  0.00000000000E+00  0.00000000000E+00  0.23427896409E+04  0.23427896409E+04  0.25500000920E-02 0.  1.
       -2   -1    0    0    0  501  0.00000000000E+00  0.00000000000E+00 -0.17068517652E+04  0.17068517652E+04  0.25500000920E-02 0. -1.
    10030    2    1    2    0    0  0.00000000000E+00  0.00000000000E+00  0.63593787570E+03  0.40496414061E+04  0.39993972716E+04 0.  0.
        2    1    3    3  502    0 -0.13059710129E+04  0.58398198803E+03  0.17327332895E+04  0.22469890746E+04  0.25500000920E-02 0.  1.
       -2    1    3    3    0  502  0.13059710129E+04 -0.58398198803E+03 -0.10967954138E+04  0.18026523316E+04  0.25500000920E-02 0. -1.
</event>
<event>
 5   0  0.6161563E-08  0.4028399E+04  0.7818609E-02  0.7998842E-01
        2   -1    0    0  501    0  0.00000000000E+00  0.00000000000E+00  0.13826471106E+04  0.13826471106E+04  0.25500000920E-02 0. -1.
       -2   -1    0    0    0  501  0.00000000000E+00  0.00000000000E+00 -0.29342262786E+04  0.29342262786E+04  0.25500000920E-02 0.  1.
    10030    2    1    2    0    0  0.00000000000E+00  0.00000000000E+00 -0.15515791680E+04  0.43168733892E+04  0.40283989305E+04 0.  0.
        1    1    3    3  502    0 -0.18136536346E+04  0.39957974170E+03  0.59788813951E+02  0.18581114548E+04  0.50400001928E-02 0. -1.
       -1    1    3    3    0  502  0.18136536346E+04 -0.39957974170E+03 -0.16113679820E+04  0.24587619343E+04  0.50400001928E-02 0.  1.
</event>
<event>
 5   0  0.5846812E-08  0.3930173E+04  0.7818609E-02  0.8018783E-01
       -2   -1    0    0    0  501  0.00000000000E+00  0.00000000000E+00  0.22601543559E+04  0.22601543559E+04  0.25500000920E-02 0.  1.
        2   -1    0    0  501    0  0.00000000000E+00  0.00000000000E+00 -0.17085399665E+04  0.17085399665E+04  0.25500000920E-02 0. -1.
    10030    2    1    2    0    0  0.00000000000E+00  0.00000000000E+00  0.55161438938E+03  0.39686943224E+04  0.39301725395E+04 0.  0.
        4    1    3    3  502    0  0.12735235360E+04  0.14031023744E+04 -0.24987571179E+03  0.19112817568E+04  0.12699999809E+01 0. -1.
       -4    1    3    3    0  502 -0.12735235360E+04 -0.14031023744E+04  0.80149010117E+03  0.20574125656E+04  0.12699999809E+01 0.  1.
</event>
<event>
 5   0  0.1879500E-08  0.3985738E+04  0.7818609E-02  0.8007430E-01
       -1   -1    0    0    0  501  0.00000000000E+00  0.00000000000E+00  0.16744195415E+04  0.16744195415E+04  0.50400001928E-02 0. -1.
        1   -1    0    0  501    0  0.00000000000E+00  0.00000000000E+00 -0.23718823823E+04  0.23718823823E+04  0.50400001928E-02 0.  1.
    10030    2    1    2    0    0  0.00000000000E+00  0.00000000000E+00 -0.69746284079E+03  0.40463019239E+04  0.39857376789E+04 0.  0.
        2    1    3    3  502    0  0.18326119590E+04 -0.48794735609E+03 -0.97038164558E+03  0.21303050844E+04  0.25500000920E-02 0.  1.
       -2    1    3    3    0  502 -0.18326119590E+04  0.48794735609E+03  0.27291880479E+03  0.19159968394E+04  0.25500000920E-02 0. -1.
</event>
<event>
 5   0  0.5888700E-08  0.4002822E+04  0.7818609E-02  0.8003977E-01
       -2   -1    0    0    0  501  0.00000000000E+00  0.00000000000E+00  0.21871435782E+04  0.21871435782E+04  0.25500000920E-02 0.  1.
        2   -1    0    0  501    0  0.00000000000E+00  0.00000000000E+00 -0.18314509471E+04  0.18314509471E+04  0.25500000920E-02 0. -1.
    10030    2    1    2    0    0  0.00000000000E+00  0.00000000000E+00  0.35569263102E+03  0.40185945253E+04  0.40028220934E+04 0.  0.
        5    1    3    3  502    0 -0.82122806259E+03  0.11896383445E+04 -0.12117932089E+04  0.18862979067E+04  0.46999998093E+01 0. -1.
       -5    1    3    3    0  502  0.82122806259E+03 -0.11896383445E+04  0.15674858400E+04  0.21322966186E+04  0.46999998093E+01 0.  1.
</event>
<event>
 5   0  0.1879500E-08  0.4037908E+04  0.7818609E-02  0.7996943E-01
       -1   -1    0    0    0  501  0.00000000000E+00  0.00000000000E+00  0.14647650976E+04  0.14647650976E+04  0.50400001928E-02 0.  1.
        1   -1    0    0  501    0  0.00000000000E+00  0.00000000000E+00 -0.27828182766E+04  0.27828182766E+04  0.50400001928E-02 0. -1.
    10030    2    1    2    0    0  0.00000000000E+00  0.00000000000E+00 -0.13180531790E+04  0.42475833742E+04  0.40379079160E+04 0.  0.
        4    1    3    3  502    0 -0.14329422093E+04 -0.14106850991E+04 -0.84958987249E+03  0.21829247326E+04  0.12699999809E+01 0.  1.
       -4    1    3    3    0  502  0.14329422093E+04  0.14106850991E+04 -0.46846330653E+03  0.20646586416E+04  0.12699999809E+01 0. -1.
</event>
<event>
 5   0  0.1879500E-08  0.4003678E+04  0.7818609E-02  0.8003805E-01
       -1   -1    0    0    0  501  0.00000000000E+00  0.00000000000E+00  0.13193027086E+04  0.13193027086E+04  0.50400001928E-02 0.  1.
        1   -1    0    0  501    0  0.00000000000E+00  0.00000000000E+00 -0.30374836225E+04  0.30374836225E+04  0.50400001928E-02 0. -1.
    10030    2    1    2    0    0  0.00000000000E+00  0.00000000000E+00 -0.17181809139E+04  0.43567863311E+04  0.40036784939E+04 0.  0.
        1    1    3    3  502    0  0.11468145932E+04 -0.14159297944E+04  0.43075409947E+02  0.18226070297E+04  0.50400001928E-02 0.  1.
       -1    1    3    3    0  502 -0.11468145932E+04  0.14159297944E+04 -0.17612563238E+04  0.25341793015E+04  0.50400001928E-02 0. -1.
</event>
<event>
 5   0  0.1879500E-08  0.4019298E+04  0.7818609E-02  0.8000665E-01
        1   -1    0    0  501    0  0.00000000000E+00  0.00000000000E+00  0.30708039528E+04  0.30708039528E+04  0.50400001928E-02 0.  1.
       -1   -1    0    0    0  501  0.00000000000E+00  0.00000000000E+00 -0.13151894893E+04  0.13151894893E+04  0.50400001928E-02 0. -1.
    10030    2    1    2    0    0  0.00000000000E+00  0.00000000000E+00  0.17556144635E+04  0.43859934421E+04  0.40192979896E+04 0.  0.
        1    1    3    3  502    0  0.49503268304E+03  0.13677426068E+04  0.23910111744E+04  0.27986982030E+04  0.50400001928E-02 0.  1.
       -1    1    3    3    0  502 -0.49503268304E+03 -0.13677426068E+04 -0.63539671083E+03  0.15872952390E+04  0.50400001928E-02 0. -1.
</event>
<event>
 5   0  0.1879500E-08  0.3996240E+04  0.7818609E-02  0.8005306E-01
       -1   -1    0    0    0  501  0.00000000000E+00  0.00000000000E+00  0.37314461092E+04  0.37314461092E+04  0.50400001928E-02 0. -1.
        1   -1    0    0  501    0  0.00000000000E+00  0.00000000000E+00 -0.10699558376E+04  0.10699558376E+04  0.50400001928E-02 0.  1.
    10030    2    1    2    0    0  0.00000000000E+00  0.00000000000E+00  0.26614902716E+04  0.48014019468E+04  0.39962395059E+04 0.  0.
        2    1    3    3  502    0 -0.28834087952E+03  0.10418800834E+04 -0.68825186435E+03  0.12815401671E+04  0.25500000920E-02 0.  1.
       -2    1    3    3    0  502  0.28834087952E+03 -0.10418800834E+04  0.33497421359E+04  0.35198617797E+04  0.25500000920E-02 0. -1.
</event>
<event>
 5   0  0.1879500E-08  0.3933438E+04  0.7818609E-02  0.8018110E-01
       -1   -1    0    0    0  501  0.00000000000E+00  0.00000000000E+00  0.24808580646E+04  0.24808580646E+04  0.50400001928E-02 0.  1.
        1   -1    0    0  501    0  0.00000000000E+00  0.00000000000E+00 -0.15591315471E+04  0.15591315471E+04  0.50400001928E-02 0. -1.
    10030    2    1    2    0    0  0.00000000000E+00  0.00000000000E+00  0.92172651754E+03  0.40399896117E+04  0.39334382275E+04 0.  0.
        3    1    3    3  502    0 -0.12711805423E+04  0.14109229881E+04  0.98596617937E+03  0.21397974125E+04  0.10100000352E+00 0. -1.
       -3    1    3    3    0  502  0.12711805423E+04 -0.14109229881E+04 -0.64239661832E+02  0.19001921992E+04  0.10100000352E+00 0.  1.
</event>
<event>
 5   0  0.5945387E-08  0.3987479E+04  0.7818609E-02  0.8007077E-01
       -2   -1    0    0    0  501  0.00000000000E+00  0.00000000000E+00  0.30948419358E+04  0.30948419358E+04  0.25500000920E-02 0. -1.
        2   -1    0    0  501    0  0.00000000000E+00  0.00000000000E+00 -0.12843943362E+04  0.12843943362E+04  0.25500000920E-02 0.  1.
    10030    2    1    2    0    0  0.00000000000E+00  0.00000000000E+00  0.18104475996E+04  0.43792362720E+04  0.39874791303E+04 0.  0.
        3    1    3    3  502    0 -0.71869207000E+03 -0.50597582176E+03  0.28705847727E+04  0.30021303721E+04  0.10100000352E+00 0. -1.
       -3    1    3    3    0  502  0.71869207000E+03  0.50597582176E+03 -0.10601371730E+04  0.13771058999E+04  0.10100000352E+00 0.  1.
</event>
<event>
 5   0  0.1879500E-08  0.3993893E+04  0.7818609E-02  0.8005780E-01
        1   -1    0    0  501    0  0.00000000000E+00  0.00000000000E+00  0.18831468494E+04  0.18831468494E+04  0.50400001928E-02 0.  1.
       -1   -1    0    0    0  501  0.00000000000E+00  0.00000000000E+00 -0.21176227288E+04  0.21176227288E+04  0.50400001928E-02 0. -1.
    10030    2    1    2    0    0  0.00000000000E+00  0.00000000000E+00 -0.23447587940E+03  0.40007695782E+04  0.39938926225E+04 0.  0.
        3    1    3    3  502    0  0.42095622873E+03 -0.14511461903E+04 -0.14251526782E+04  0.20770386560E+04  0.10100000352E+00 0. -1.
       -3    1    3    3    0  502 -0.42095622873E+03  0.14511461903E+04  0.11906767988E+04  0.19237309223E+04  0.10100000352E+00 0.  1.
</event>
<event>
 5   0  0.5846812E-08  0.4027980E+04  0.7818609E-02  0.7998926E-01
       -2   -1    0    0    0  501  0.00000000000E+00  0.00000000000E+00  0.29719988105E+04  0.29719988105E+04  0.25500000920E-02 0.  1.
        2   -1    0    0  501    0  0.00000000000E+00  0.00000000000E+00 -0.13647905747E+04  0.13647905747E+04  0.25500000920E-02 0. -1.
    10030    2    1    2    0    0  0.00000000000E+00  0.00000000000E+00  0.16072082359E+04  0.43367893852E+04  0.40279801213E+04 0.  0.
        4    1    3    3  502    0 -0.21076379017E+03  0.37366233523E+03  0.29222326866E+04  0.29535555528E+04  0.12699999809E+01 0.  1.
       -4    1    3    3    0  502  0.21076379017E+03 -0.37366233523E+03 -0.13150244507E+04  0.13832338324E+04  0.12699999809E+01 0. -1.
</event>
<event>
 5   0  0.5945387E-08  0.3791759E+04  0.7818609E-02  0.8047926E-01
        2   -1    0    0  501    0  0.00000000000E+00  0.00000000000E+00  0.20419951298E+04  0.20419951298E+04  0.25500000920E-02 0.  1.
       -2   -1    0    0    0  501  0.00000000000E+00  0.00000000000E+00 -0.17602190454E+04  0.17602190454E+04  0.25500000920E-02 0. -1.
    10030    2    1    2    0    0  0.00000000000E+00  0.00000000000E+00  0.28177608448E+03  0.38022141752E+04  0.37917588099E+04 0.  0.
        3    1    3    3  502    0  0.28475711543E+03  0.99773702446E+03 -0.14502427350E+04  0.17831908999E+04  0.10100000352E+00 0. -1.
       -3    1    3    3    0  502 -0.28475711543E+03 -0.99773702446E+03  0.17320188195E+04  0.20190232753E+04  0.10100000352E+00 0.  1.
</event>
<event>
 5   0  0.5951623E-08  0.4011752E+04  0.7818609E-02  0.8002180E-01
       -2   -1    0    0    0  501  0.00000000000E+00  0.00000000000E+00  0.27788010958E+04  0.27788010958E+04  0.25500000920E-02 0. -1.
        2   -1    0    0  501    0  0.00000000000E+00  0.00000000000E+00 -0.14479407125E+04  0.14479407125E+04  0.25500000920E-02 0.  1.
    10030    2    1    2    0    0  0.00000000000E+00  0.00000000000E+00  0.13308603833E+04  0.42267418083E+04  0.40117523545E+04 0.  0.
        2    1    3    3  502    0  0.79021736001E+03  0.73920586148E+03  0.24449277879E+04  0.26736754982E+04  0.25500000920E-02 0. -1.
       -2    1    3    3    0  502 -0.79021736001E+03 -0.73920586148E+03 -0.11140674045E+04  0.15530663101E+04  0.25500000920E-02 0.  1.
</event>
<event>
 5   0  0.1879500E-08  0.3997174E+04  0.7818609E-02  0.8005117E-01
       -1   -1    0    0    0  501  0.00000000000E+00  0.00000000000E+00  0.26306473592E+04  0.26306473592E+04  0.50400001928E-02 0.  1.
        1   -1    0    0  501    0  0.00000000000E+00  0.00000000000E+00 -0.15183902776E+04  0.15183902777E+04  0.50400001928E-02 0. -1.
    10030    2    1    2    0    0  0.00000000000E+00  0.00000000000E+00  0.11122570816E+04  0.41490376369E+04  0.39971736886E+04 0.  0.
        5    1    3    3  502    0 -0.92458245866E+03  0.16158252197E+04 -0.19853109739E+03  0.18722127417E+04  0.46999998093E+01 0. -1.
       -5    1    3    3    0  502  0.92458245866E+03 -0.16158252197E+04  0.13107881790E+04  0.22768248952E+04  0.46999998093E+01 0.  1.
</event>
<event>
 5   0  0.1879500E-08  0.4001858E+04  0.7818609E-02  0.8004172E-01
        1   -1    0    0  501    0  0.00000000000E+00  0.00000000000E+00  0.23725125682E+04  0.23725125682E+04  0.50400001928E-02 0.  1.
       -1   -1    0    0    0  501  0.00000000000E+00  0.00000000000E+00 -0.16875430192E+04  0.16875430192E+04  0.50400001928E-02 0. -1.
    10030    2    1    2    0    0  0.00000000000E+00  0.00000000000E+00  0.68496954900E+03  0.40600555874E+04  0.40018580796E+04 0.  0.
        1    1    3    3  502    0  0.75337867333E+03  0.15811598616E+04  0.13240625411E+04  0.21956291914E+04  0.50400001928E-02 0.  1.
       -1    1    3    3    0  502 -0.75337867333E+03 -0.15811598616E+04 -0.63909299211E+03  0.18644263960E+04  0.50400001928E-02 0. -1.
</event>
<event>
 5   0  0.5846812E-08  0.3991653E+04  0.7818609E-02  0.8006232E-01
       -2   -1    0    0    0  501  0.00000000000E+00  0.00000000000E+00  0.24450116983E+04  0.24450116983E+04  0.25500000920E-02 0.  1.
        2   -1    0    0  501    0  0.00000000000E+00  0.00000000000E+00 -0.16291634293E+04  0.16291634293E+04  0.25500000920E-02 0. -1.
    10030    2    1    2    0    0  0.00000000000E+00  0.00000000000E+00  0.81584826902E+03  0.40741751276E+04  0.39916531127E+04 0.  0.
        4    1    3    3  502    0  0.76609640668E+01 -0.15447912489E+04  0.16977274680E+04  0.22953690034E+04  0.12699999809E+01 0.  1.
       -4    1    3    3    0  502 -0.76609640668E+01  0.15447912489E+04 -0.88187919896E+03  0.17788061242E+04  0.12699999809E+01 0. -1.
</event>
<event>
 5   0  0.5846812E-08  0.3995054E+04  0.7818609E-02  0.8005545E-01
        2   -1    0    0  501    0  0.00000000000E+00  0.00000000000E+00  0.23397486982E+04  0.23397486982E+04  0.25500000920E-02 0.  1.
       -2   -1    0    0    0  501  0.00000000000E+00  0.00000000000E+00 -0.17053596946E+04  0.17053596946E+04  0.25500000920E-02 0. -1.
    10030    2    1    2    0    0  0.00000000000E+00  0.00000000000E+00  0.63438900368E+03  0.40451083928E+04  0.39950535042E+04 0.  0.
        4    1    3    3  502    0  0.30603093319E+03 -0.16776040633E+04  0.13704688326E+04  0.21877378178E+04  0.12699999809E+01 0.  1.
       -4    1    3    3    0  502 -0.30603093319E+03  0.16776040633E+04 -0.73607982891E+03  0.18573705750E+04  0.12699999809E+01 0. -1.
</event>
<event>
 5   0  0.5888700E-08  0.3989710E+04  0.7818609E-02  0.8006626E-01
        2   -1    0    0  501    0  0.00000000000E+00  0.00000000000E+00  0.23756815101E+04  0.23756815101E+04  0.25500000920E-02 0.  1.
       -2   -1    0    0    0  501  0.00000000000E+00  0.00000000000E+00 -0.16750753899E+04  0.16750753899E+04  0.25500000920E-02 0. -1.
    10030    2    1    2    0    0  0.00000000000E+00  0.00000000000E+00  0.70060612024E+03  0.40507569000E+04  0.39897095793E+04 0.  0.
        5    1    3    3  502    0 -0.34038830271E+03  0.46161978620E+03  0.22901572254E+04  0.23608894999E+04  0.46999998093E+01 0.  1.
       -5    1    3    3    0  502  0.34038830271E+03 -0.46161978620E+03 -0.15895511052E+04  0.16898674000E+04  0.46999998093E+01 0. -1.
</event>
<event>
 5   0  0.5945387E-08  0.3980663E+04  0.7818609E-02  0.8008459E-01
       -2   -1    0    0    0  501  0.00000000000E+00  0.00000000000E+00  0.14996304257E+04  0.14996304257E+04  0.25500000920E-02 0. -1.
        2   -1    0    0  501    0  0.00000000000E+00  0.00000000000E+00 -0.26415965794E+04  0.26415965794E+04  0.25500000920E-02 0.  1.
    10030    2    1    2    0    0  0.00000000000E+00  0.00000000000E+00 -0.11419661537E+04  0.41412270052E+04  0.39806625595E+04 0.  0.
        3    1    3    3  502    0  0.18287661985E+04  0.43470185458E+03 -0.12516420737E+04  0.22583089696E+04  0.10100000352E+00 0.  1.
       -3    1    3    3    0  502 -0.18287661985E+04 -0.43470185458E+03  0.10967591997E+03  0.18829180356E+04  0.10100000352E+00 0. -1.
</event>
<event>
 5   0  0.5846812E-08  0.3877873E+04  0.7818609E-02  0.8029647E-01
        2   -1    0    0  501    0  0.00000000000E+00  0.00000000000E+00  0.11114669086E+04  0.11114669086E+04  0.25500000920E-02 0. -1.
       -2   -1    0    0    0  501  0.00000000000E+00  0.00000000000E+00 -0.33824445994E+04  0.33824445994E+04  0.25500000920E-02 0.  1.
    10030    2    1    2    0    0  0.00000000000E+00  0.00000000000E+00 -0.22709776908E+04  0.44939115080E+04  0.38778732534E+04 0.  0.
        4    1    3    3  502    0  0.38513738683E+03  0.72254193795E+03 -0.31722739047E+04  0.32762357971E+04  0.12699999809E+01 0.  1.
       -4    1    3    3    0  502 -0.38513738683E+03 -0.72254193795E+03  0.90129621391E+03  0.12176757109E+04  0.12699999809E+01 0. -1.
</event>
<event>
 5   0  0.1879500E-08  0.3997904E+04  0.7818609E-02  0.8004970E-01
        1   -1    0    0  501    0  0.00000000000E+00  0.00000000000E+00  0.23852758990E+04  0.23852758990E+04  0.50400001928E-02 0. -1.
       -1   -1    0    0    0  501  0.00000000000E+00  0.00000000000E+00 -0.16751974838E+04  0.16751974838E+04  0.50400001928E-02 0.  1.
    10030    2    1    2    0    0  0.00000000000E+00  0.00000000000E+00  0.71007841519E+03  0.40604733828E+04  0.39979035427E+04 0.  0.
        5    1    3    3  502    0 -0.72688560973E+02 -0.98297667841E+03  0.21212961012E+04  0.23391122282E+04  0.46999998093E+01 0. -1.
       -5    1    3    3    0  502  0.72688560973E+02  0.98297667841E+03 -0.14112176860E+04  0.17213611546E+04  0.46999998093E+01 0.  1.
</event>
<event>
 5   0  0.1879500E-08  0.3977230E+04  0.7818609E-02  0.8009156E-01
        1   -1    0    0  501    0  0.00000000000E+00  0.00000000000E+00  0.17965014822E+04  0.17965014822E+04  0.50400001928E-02 0. -1.
       -1   -1    0    0    0  501  0.00000000000E+00  0.00000000000E+00 -0.22012728399E+04  0.22012728400E+04  0.50400001928E-02 0.  1.
    10030    2    1    2    0    0  0.00000000000E+00  0.00000000000E+00 -0.40477135778E+03  0.39977743221E+04  0.39772301516E+04 0.  0.
        2    1    3    3  502    0 -0.33713434112E+03 -0.34260175209E+03  0.17372331987E+04  0.18025023471E+04  0.25500000920E-02 0. -1.
       -2    1    3    3    0  502  0.33713434112E+03  0.34260175209E+03 -0.21420045565E+04  0.21952719751E+04  0.25500000920E-02 0.  1.
</event>
<event>
 5   0  0.5846812E-08  0.3993872E+04  0.7818609E-02  0.8005784E-01
        2   -1    0    0  501    0  0.00000000000E+00  0.00000000000E+00  0.26250998569E+04  0.26250998569E+04  0.25500000920E-02 0. -1.
       -2   -1    0    0    0  501  0.00000000000E+00  0.00000000000E+00 -0.15190866540E+04  0.15190866540E+04  0.25500000920E-02 0.  1.
    10030    2    1    2    0    0  0.00000000000E+00  0.00000000000E+00  0.11060132029E+04  0.41441865108E+04  0.39938723855E+04 0.  0.
        4    1    3    3  502    0 -0.11448141479E+04 -0.15685662179E+04  0.10360963252E+04  0.22010217221E+04  0.12699999809E+01 0. -1.
       -4    1    3    3    0  502  0.11448141479E+04  0.15685662179E+04  0.69916877653E+02  0.19431647887E+04  0.12699999809E+01 0.  1.
</event>
<event>
 5   0  0.5945387E-08  0.4004649E+04  0.7818609E-02  0.8003609E-01
       -2   -1    0    0    0  501  0.00000000000E+00  0.00000000000E+00  0.13436253085E+04  0.13436253085E+04  0.25500000920E-02 0.  1.
        2   -1    0    0  501    0  0.00000000000E+00  0.00000000000E+00 -0.29839439233E+04  0.29839439233E+04  0.25500000920E-02 0. -1.
    10030    2    1    2    0    0  0.00000000000E+00  0.00000000000E+00 -0.16403186148E+04  0.43275692319E+04  0.40046485862E+04 0.  0.
        3    1    3    3  502    0 -0.73234543543E+03 -0.23177022795E+03 -0.28183888523E+04  0.29211920527E+04  0.10100000352E+00 0. -1.
       -3    1    3    3    0  502  0.73234543543E+03  0.23177022795E+03  0.11780702376E+04  0.14063771792E+04  0.10100000352E+00 0.  1.
</event>
<event>
 5   0  0.5951623E-08  0.3971459E+04  0.7818609E-02  0.8010329E-01
       -2   -1    0    0    0  501  0.00000000000E+00  0.00000000000E+00  0.18065680819E+04  0.18065680819E+04  0.25500000920E-02 0. -1.
        2   -1    0    0  501    0  0.00000000000E+00  0.00000000000E+00 -0.21826591994E+04  0.21826591994E+04  0.25500000920E-02 0.  1.
    10030    2    1    2    0    0  0.00000000000E+00  0.00000000000E+00 -0.37609111747E+03  0.39892272813E+04  0.39714594009E+04 0.  0.
        2    1    3    3  502    0  0.16499590100E+04 -0.10632862375E+04 -0.48968906095E+03  0.20230515896E+04  0.25500000920E-02 0.  1.
       -2    1    3    3    0  502 -0.16499590100E+04  0.10632862375E+04  0.11359794349E+03  0.19661756917E+04  0.25500000920E-02 0. -1.
</event>
<event>
 5   0  0.5846812E-08  0.3988158E+04  0.7818609E-02  0.8006940E-01
       -2   -1    0    0    0  501  0.00000000000E+00  0.00000000000E+00  0.17993249174E+04  0.17993249174E+04  0.25500000920E-02 0.  1.
        2   -1    0    0  501    0  0.00000000000E+00  0.00000000000E+00 -0.22099130597E+04  0.22099130597E+04  0.25500000920E-02 0. -1.
    10030    2    1    2    0    0  0.00000000000E+00  0.00000000000E+00 -0.41058814229E+03  0.40092379771E+04  0.39881582885E+04 0.  0.
        4    1    3    3  502    0 -0.14372651535E+03  0.45506915971E+03 -0.21516590211E+04  0.22039472334E+04  0.12699999809E+01 0. -1.
       -4    1    3    3    0  502  0.14372651535E+03 -0.45506915971E+03  0.17410708788E+04  0.18052907437E+04  0.12699999809E+01 0.  1.
</event>
<event>
 5   0  0.1879500E-08  0.4019030E+04  0.7818609E-02  0.8000719E-01
        1   -1    0    0  501    0  0.00000000000E+00  0.00000000000E+00  0.22997027864E+04  0.22997027864E+04  0.50400001928E-02 0. -1.
       -1   -1    0    0    0  501  0.00000000000E+00  0.00000000000E+00 -0.17559447262E+04  0.17559447262E+04  0.50400001928E-02 0.  1.
    10030    2    1    2    0    0  0.00000000000E+00  0.00000000000E+00  0.54375806016E+03  0.40556475126E+04  0.40190302211E+04 0.  0.
        1    1    3    3  502    0 -0.39412153602E+03 -0.55082954505E+01  0.22603113679E+04  0.22944214099E+04  0.50400001928E-02 0. -1.
       -1    1    3    3    0  502  0.39412153602E+03  0.55082954505E+01 -0.17165533077E+04  0.17612261027E+04  0.50400001928E-02 0.  1.
</event>
<event>
 5   0  0.5951623E-08  0.4048605E+04  0.7818609E-02  0.7994813E-01
        2   -1    0    0  501    0  0.00000000000E+00  0.00000000000E+00  0.17803958476E+04  0.17803958476E+04  0.25500000920E-02 0.  1.
       -2   -1    0    0    0  501  0.00000000000E+00  0.00000000000E+00 -0.23016232992E+04  0.23016232992E+04  0.25500000920E-02 0. -1.
    10030    2    1    2    0    0  0.00000000000E+00  0.00000000000E+00 -0.52122745166E+03  0.40820191468E+04  0.40486049769E+04 0.  0.
        2    1    3    3  502    0 -0.20011484940E+04  0.19729222843E+03 -0.49551952445E+03  0.20710043741E+04  0.25500000920E-02 0.  1.
       -2    1    3    3    0  502  0.20011484940E+04 -0.19729222843E+03 -0.25707927207E+02  0.20110147727E+04  0.25500000920E-02 0. -1.
</event>
<event>
 5   0  0.1879500E-08  0.4000845E+04  0.7818609E-02  0.8004376E-01
        1   -1    0    0  501    0  0.00000000000E+00  0.00000000000E+00  0.12401184051E+04  0.12401184052E+04  0.50400001928E-02 0. -1.
       -1   -1    0    0    0  501  0.00000000000E+00  0.00000000000E+00 -0.32268609903E+04  0.32268609903E+04  0.50400001928E-02 0.  1.
    10030    2    1    2    0    0  0.00000000000E+00  0.00000000000E+00 -0.19867425852E+04  0.44669793955E+04  0.40008447633E+04 0.  0.
        5    1    3    3  502    0  0.13454269612E+04 -0.42324964365E+03 -0.25772225767E+04  0.29379265254E+04  0.46999998093E+01 0.  1.
       -5    1    3    3    0  502 -0.13454269612E+04  0.42324964365E+03  0.59047999157E+03  0.15290528700E+04  0.46999998093E+01 0. -1.
</event>
<event>
 5   0  0.1879500E-08  0.3989288E+04  0.7818609E-02  0.8006711E-01
       -1   -1    0    0    0  501  0.00000000000E+00  0.00000000000E+00  0.15644917321E+04  0.15644917321E+04  0.50400001928E-02 0. -1.
        1   -1    0    0  501    0  0.00000000000E+00  0.00000000000E+00 -0.25430654971E+04  0.25430654971E+04  0.50400001928E-02 0.  1.
    10030    2    1    2    0    0  0.00000000000E+00  0.00000000000E+00 -0.97857376491E+03  0.41075572292E+04  0.39892881292E+04 0.  0.
        3    1    3    3  502    0 -0.63606631768E+02  0.54192875569E+03  0.14861519966E+04  0.15831551873E+04  0.10100000352E+00 0. -1.
       -3    1    3    3    0  502  0.63606631768E+02 -0.54192875569E+03 -0.24647257615E+04  0.25244020419E+04  0.10100000352E+00 0.  1.
</event>
<event>
 5   0  0.5888700E-08  0.4003320E+04  0.7818609E-02  0.8003877E-01
        2   -1    0    0  501    0  0.00000000000E+00  0.00000000000E+00  0.14955941517E+04  0.14955941517E+04  0.25500000920E-02 0.  1.
       -2   -1    0    0    0  501  0.00000000000E+00  0.00000000000E+00 -0.26789644574E+04  0.26789644574E+04  0.25500000920E-02 0. -1.
    10030    2    1    2    0    0  0.00000000000E+00  0.00000000000E+00 -0.11833703057E+04  0.41745586091E+04  0.40033204095E+04 0.  0.
        5    1    3    3  502    0  0.11633487423E+04 -0.47862669009E+03  0.10318834521E+04  0.16270431320E+04  0.46999998093E+01 0.  1.
       -5    1    3    3    0  502 -0.11633487423E+04  0.47862669009E+03 -0.22152537578E+04  0.25475154771E+04  0.46999998093E+01 0. -1.
</event>
<event>
 5   0  0.1879500E-08  0.4005669E+04  0.7818609E-02  0.8003404E-01
       -1   -1    0    0    0  501  0.00000000000E+00  0.00000000000E+00  0.28654173327E+04  0.28654173327E+04  0.50400001928E-02 0.  1.
        1   -1    0    0  501    0  0.00000000000E+00  0.00000000000E+00 -0.13999165762E+04  0.13999165762E+04  0.50400001928E-02 0. -1.
    10030    2    1    2    0    0  0.00000000000E+00  0.00000000000E+00  0.14655007565E+04  0.42653339089E+04  0.40056685943E+04 0.  0.
        5    1    3    3  502    0  0.13726210848E+04  0.38850960239E+03 -0.76418785709E+03  0.16183428328E+04  0.46999998093E+01 0. -1.
       -5    1    3    3    0  502 -0.13726210848E+04 -0.38850960239E+03  0.22296886136E+04  0.26469910761E+04  0.46999998093E+01 0.  1.
</event>
<event>
 5   0  0.5945387E-08  0.3945377E+04  0.7818609E-02  0.8015657E-01
       -2   -1    0    0    0  501  0.00000000000E+00  0.00000000000E+00  0.25997953858E+04  0.25997953858E+04  0.25500000920E-02 0.  1.
        2   -1    0    0  501    0  0.00000000000E+00  0.00000000000E+00 -0.14968488045E+04  0.14968488045E+04  0.25500000920E-02 0. -1.
    10030    2    1    2    0    0  0.00000000000E+00  0.00000000000E+00  0.11029465813E+04  0.40966441903E+04  0.39453773534E+04 0.  0.
        3    1    3    3  502    0  0.48772867612E+03  0.11593414086E+04 -0.10265131735E+04  0.16234780777E+04  0.10100000352E+00 0. -1.
       -3    1    3    3    0  502 -0.48772867612E+03 -0.11593414086E+04  0.21294597548E+04  0.24731661126E+04  0.10100000352E+00 0.  1.
</event>
<event>
 5   0  0.1879500E-08  0.3999281E+04  0.7818609E-02  0.8004692E-01
        1   -1    0    0  501    0  0.00000000000E+00  0.00000000000E+00  0.27292922142E+04  0.27292922142E+04  0.50400001928E-02 0.  1.
       -1   -1    0    0    0  501  0.00000000000E+00  0.00000000000E+00 -0.14650544990E+04  0.14650544990E+04  0.50400001928E-02 0. -1.
    10030    2    1    2    0    0  0.00000000000E+00  0.00000000000E+00  0.12642377152E+04  0.41943467133E+04  0.39992808542E+04 0.  0.
        1    1    3    3  502    0 -0.99073028763E+03  0.79616723044E+03 -0.98691738404E+03  0.16091720494E+04  0.50400001928E-02 0.  1.
       -1    1    3    3    0  502  0.99073028763E+03 -0.79616723044E+03  0.22511550993E+04  0.25851746639E+04  0.50400001928E-02 0. -1.
</event>
<event>
 5   0  0.1879500E-08  0.4069826E+04  0.7818609E-02  0.7990607E-01
        1   -1    0    0  501    0  0.00000000000E+00  0.00000000000E+00  0.15264092741E+04  0.15264092741E+04  0.50400001928E-02 0. -1.
       -1   -1    0    0    0  501  0.00000000000E+00  0.00000000000E+00 -0.27128185431E+04  0.27128185431E+04  0.50400001928E-02 0.  1.
    10030    2    1    2    0    0  0.00000000000E+00  0.00000000000E+00 -0.11864092690E+04  0.42392278172E+04  0.40698262288E+04 0.  0.
        5    1    3    3  502    0  0.66380392349E+03 -0.18881857023E+04 -0.97587685512E+03  0.22267102689E+04  0.46999998093E+01 0.  1.
       -5    1    3    3    0  502 -0.66380392349E+03  0.18881857023E+04 -0.21053241392E+03  0.20125175483E+04  0.46999998093E+01 0. -1.
</event>
<event>
 5   0  0.5945387E-08  0.4018349E+04  0.7818609E-02  0.8000855E-01
       -2   -1    0    0    0  501  0.00000000000E+00  0.00000000000E+00  0.13146108779E+04  0.13146108779E+04  0.25500000920E-02 0. -1.
        2   -1    0    0  501    0  0.00000000000E+00  0.00000000000E+00 -0.30707048645E+04  0.30707048645E+04  0.25500000920E-02 0.  1.
    10030    2    1    2    0    0  0.00000000000E+00  0.00000000000E+00 -0.17560939866E+04  0.43853157424E+04  0.40183489235E+04 0.  0.
        3    1    3    3  502    0 -0.82550853320E+03 -0.13746334330E+04 -0.21992691708E+04  0.27217395742E+04  0.10100000352E+00 0.  1.
       -3    1    3    3    0  502  0.82550853320E+03  0.13746334330E+04  0.44317518427E+03  0.16635761683E+04  0.10100000352E+00 0. -1.
</event>
<event>
 5   0  0.5888700E-08  0.3991245E+04  0.7818609E-02  0.8006315E-01
       -2   -1    0    0    0  501  0.00000000000E+00  0.00000000000E+00  0.20282886212E+04  0.20282886212E+04  0.25500000920E-02 0.  1.
        2   -1    0    0  501    0  0.00000000000E+00  0.00000000000E+00 -0.19634825640E+04  0.19634825640E+04  0.25500000920E-02 0. -1.
    10030    2    1    2    0    0  0.00000000000E+00  0.00000000000E+00  0.64806057205E+02  0.39917711852E+04  0.39912450901E+04 0.  0.
        5    1    3    3  502    0 -0.64147255645E+03  0.13064141074E+04 -0.13331642142E+04  0.19737157274E+04  0.46999998093E+01 0. -1.
       -5    1    3    3    0  502  0.64147255645E+03 -0.13064141074E+04  0.13979702714E+04  0.20180554577E+04  0.46999998093E+01 0.  1.
</event>
<event>
 5   0  0.5888700E-08  0.3993404E+04  0.7818609E-02  0.8005879E-01
       -2   -1    0    0    0  501  0.00000000000E+00  0.00000000000E+00  0.25433734414E+04  0.25433734414E+04  0.25500000920E-02 0. -1.
        2   -1    0    0  501    0  0.00000000000E+00  0.00000000000E+00 -0.15675314747E+04  0.15675314747E+04  0.25500000920E-02 0.  1.
    10030    2    1    2    0    0  0.00000000000E+00  0.00000000000E+00  0.97584196672E+03  0.41109049161E+04  0.39934035215E+04 0.  0.
        5    1    3    3  502    0  0.19672236885E+03  0.73591872149E+03 -0.14120619176E+04  0.16044366626E+04  0.46999998093E+01 0.  1.
       -5    1    3    3    0  502 -0.19672236885E+03 -0.73591872149E+03  0.23879038844E+04  0.25064682535E+04  0.46999998093E+01 0. -1.
</event>
<event>
 5   0  0.1879500E-08  0.3990421E+04  0.7818609E-02  0.8006482E-01
        1   -1    0    0  501    0  0.00000000000E+00  0.00000000000E+00  0.19934816958E+04  0.19934816958E+04  0.50400001928E-02 0.  1.
       -1   -1    0    0    0  501  0.00000000000E+00  0.00000000000E+00 -0.19969403464E+04  0.19969403464E+04  0.50400001928E-02 0. -1.
    10030    2    1    2    0    0  0.00000000000E+00  0.00000000000E+00 -0.34586505570E+01  0.39904220422E+04  0.39904205434E+04 0.  0.
        4    1    3    3  502    0 -0.92355018611E+03  0.38881575112E+03  0.17235944174E+04  0.19937156174E+04  0.12699999809E+01 0.  1.
       -4    1    3    3    0  502  0.92355018611E+03 -0.38881575112E+03 -0.17270530679E+04  0.19967064248E+04  0.12699999809E+01 0. -1.
</event>
<event>
 5   0  0.1879500E-08  0.4017436E+04  0.7818609E-02  0.8001038E-01
       -1   -1    0    0    0  501  0.00000000000E+00  0.00000000000E+00  0.14317888715E+04  0.14317888715E+04  0.50400001928E-02 0. -1.
        1   -1    0    0  501    0  0.00000000000E+00  0.00000000000E+00 -0.28181160443E+04  0.28181160443E+04  0.50400001928E-02 0.  1.
    10030    2    1    2    0    0  0.00000000000E+00  0.00000000000E+00 -0.13863271728E+04  0.42499049159E+04  0.40174355955E+04 0.  0.
        4    1    3    3  502    0  0.13005742118E+04  0.14917167860E+04 -0.10569112794E+04  0.22436076563E+04  0.12699999809E+01 0.  1.
       -4    1    3    3    0  502 -0.13005742118E+04 -0.14917167860E+04 -0.32941589347E+03  0.20062972596E+04  0.12699999809E+01 0. -1.
</event>
<event>
 5   0  0.1879500E-08  0.4041220E+04  0.7818609E-02  0.7996282E-01
        1   -1    0    0  501    0  0.00000000000E+00  0.00000000000E+00  0.24339214157E+04  0.24339214158E+04  0.50400001928E-02 0.  1.
       -1   -1    0    0    0  501  0.00000000000E+00  0.00000000000E+00 -0.16774846266E+04  0.16774846266E+04  0.50400001928E-02 0. -1.
    10030    2    1    2    0    0  0.00000000000E+00  0.00000000000E+00  0.75643678911E+03  0.41114060424E+04  0.40412204876E+04 0.  0.
        3    1    3    3  502    0 -0.54224487188E+03 -0.10565842134E+04 -0.12849411859E+04  0.17497067076E+04  0.10100000352E+00 0. -1.
       -3    1    3    3    0  502  0.54224487188E+03  0.10565842134E+04  0.20413779750E+04  0.23616993348E+04  0.10100000352E+00 0.  1.
</event>
<event>
 5   0  0.1879500E-08  0.3994672E+04  0.7818609E-02  0.8005622E-01
       -1   -1    0    0    0  501  0.00000000000E+00  0.00000000000E+00  0.29688230603E+04  0.29688230603E+04  0.50400001928E-02 0.  1.
        1   -1    0    0  501    0  0.00000000000E+00  0.00000000000E+00 -0.13437486696E+04  0.13437486696E+04  0.50400001928E-02 0. -1.
    10030    2    1    2    0    0  0.00000000000E+00  0.00000000000E+00  0.16250743907E+04  0.43125717299E+04  0.39946724710E+04 0.  0.
        1    1    3    3  502    0  0.17958356374E+02  0.62777776480E+03  0.28594533273E+04  0.29276100757E+04  0.50400001928E-02 0.  1.
       -1    1    3    3    0  502 -0.17958356374E+02 -0.62777776480E+03 -0.12343789366E+04  0.13849616542E+04  0.50400001928E-02 0. -1.
</event>
<event>
 5   0  0.5945387E-08  0.4006664E+04  0.7818609E-02  0.8003203E-01
        2   -1    0    0  501    0  0.00000000000E+00  0.00000000000E+00  0.23444176270E+04  0.23444176270E+04  0.25500000920E-02 0. -1.
       -2   -1    0    0    0  501  0.00000000000E+00  0.00000000000E+00 -0.17118707247E+04  0.17118707247E+04  0.25500000920E-02 0.  1.
    10030    2    1    2    0    0  0.00000000000E+00  0.00000000000E+00  0.63254690227E+03  0.40562883517E+04  0.40066643993E+04 0.  0.
        3    1    3    3  502    0  0.11170300285E+04 -0.94075666230E+03 -0.10720463960E+04  0.18116463970E+04  0.10100000352E+00 0.  1.
       -3    1    3    3    0  502 -0.11170300285E+04  0.94075666230E+03  0.17045932983E+04  0.22446419547E+04  0.10100000352E+00 0. -1.
</event>
<event>
 5   0  0.5888700E-08  0.3998598E+04  0.7818609E-02  0.8004829E-01
        2   -1    0    0  501    0  0.00000000000E+00  0.00000000000E+00  0.21276064924E+04  0.21276064924E+04  0.25500000920E-02 0.  1.
       -2   -1    0    0    0  501  0.00000000000E+00  0.00000000000E+00 -0.18787292445E+04  0.18787292445E+04  0.25500000920E-02 0. -1.
    10030    2    1    2    0    0  0.00000000000E+00  0.00000000000E+00  0.24887724792E+03  0.40063357370E+04  0.39985980234E+04 0.  0.
        5    1    3    3  502    0 -0.74025177944E+03  0.70381161450E+03 -0.15975642961E+04  0.18961954688E+04  0.46999998093E+01 0. -1.
       -5    1    3    3    0  502  0.74025177944E+03 -0.70381161450E+03  0.18464415441E+04  0.21101402682E+04  0.46999998093E+01 0.  1.
</event>
<event>
 5   0  0.5888700E-08  0.3986687E+04  0.7818609E-02  0.8007238E-01
        2   -1    0    0  501    0  0.00000000000E+00  0.00000000000E+00  0.28462960940E+04  0.28462960940E+04  0.25500000920E-02 0.  1.
       -2   -1    0    0    0  501  0.00000000000E+00  0.00000000000E+00 -0.13959959717E+04  0.13959959717E+04  0.25500000920E-02 0. -1.
    10030    2    1    2    0    0  0.00000000000E+00  0.00000000000E+00  0.14503001223E+04  0.42422920657E+04  0.39866867855E+04 0.  0.
        5    1    3    3  502    0 -0.16056143947E+04 -0.11102878492E+04  0.29598176776E+03  0.19744275093E+04  0.46999998093E+01 0. -1.
       -5    1    3    3    0  502  0.16056143947E+04  0.11102878492E+04  0.11543183546E+04  0.22678645564E+04  0.46999998093E+01 0.  1.
</event>
<event>
 5   0  0.1879500E-08  0.3999478E+04  0.7818609E-02  0.8004652E-01
        1   -1    0    0  501    0  0.00000000000E+00  0.00000000000E+00  0.13391720052E+04  0.13391720052E+04  0.50400001928E-02 0. -1.
       -1   -1    0    0    0  501  0.00000000000E+00  0.00000000000E+00 -0.29861402123E+04  0.29861402123E+04  0.50400001928E-02 0.  1.
    10030    2    1    2    0    0  0.00000000000E+00  0.00000000000E+00 -0.16469682071E+04  0.43253122175E+04  0.39994776539E+04 0.  0.
        1    1    3    3  502    0  0.12651321035E+04 -0.62555216691E+01 -0.24983155338E+04  0.28003890582E+04  0.50400001928E-02 0.  1.
       -1    1    3    3    0  502 -0.12651321035E+04  0.62555216691E+01  0.85134732678E+03  0.15249231593E+04  0.50400001928E-02 0. -1.
</event>
<event>
 5   0  0.6161563E-08  0.3969163E+04  0.7818609E-02  0.8010796E-01
        2   -1    0    0  501    0  0.00000000000E+00  0.00000000000E+00  0.18036501913E+04  0.18036501913E+04  0.25500000920E-02 0.  1.
       -2   -1    0    0    0  501  0.00000000000E+00  0.00000000000E+00 -0.21836629491E+04  0.21836629491E+04  0.25500000920E-02 0. -1.
    10030    2    1    2    0    0  0.00000000000E+00  0.00000000000E+00 -0.38001275778E+03  0.39873131404E+04  0.39691631843E+04 0.  0.
        1    1    3    3  502    0 -0.15078430979E+04  0.37589338519E+03 -0.14300241515E+04  0.21118370484E+04  0.50400001928E-02 0. -1.
       -1    1    3    3    0  502  0.15078430979E+04 -0.37589338519E+03  0.10500113937E+04  0.18754760921E+04  0.50400001928E-02 0.  1.
</event>
<event>
 5   0  0.6161563E-08  0.4003870E+04  0.7818609E-02  0.8003766E-01
        2   -1    0    0  501    0  0.00000000000E+00  0.00000000000E+00  0.15942886474E+04  0.15942886474E+04  0.25500000920E-02 0.  1.
       -2   -1    0    0    0  501  0.00000000000E+00  0.00000000000E+00 -0.25138133123E+04  0.25138133123E+04  0.25500000920E-02 0. -1.
    10030    2    1    2    0    0  0.00000000000E+00  0.00000000000E+00 -0.91952466486E+03  0.41081019597E+04  0.40038701405E+04 0.  0.
        1    1    3    3  502    0 -0.44214258892E+03  0.16542646407E+03 -0.24558874030E+04  0.25008476403E+04  0.50400001928E-02 0. -1.
       -1    1    3    3    0  502  0.44214258892E+03 -0.16542646407E+03  0.15363627381E+04  0.16072543194E+04  0.50400001928E-02 0.  1.
</event>
<event>
 5   0  0.1879500E-08  0.3990625E+04  0.7818609E-02  0.8006441E-01
        1   -1    0    0  501    0  0.00000000000E+00  0.00000000000E+00  0.30278191391E+04  0.30278191391E+04  0.50400001928E-02 0.  1.
       -1   -1    0    0    0  501  0.00000000000E+00  0.00000000000E+00 -0.13148973755E+04  0.13148973756E+04  0.50400001928E-02 0. -1.
    10030    2    1    2    0    0  0.00000000000E+00  0.00000000000E+00  0.17129217636E+04  0.43427165147E+04  0.39906247329E+04 0.  0.
        3    1    3    3  502    0 -0.77979863448E+03 -0.16266274474E+04 -0.71581967630E+02  0.18053051685E+04  0.10100000352E+00 0. -1.
       -3    1    3    3    0  502  0.77979863448E+03  0.16266274474E+04  0.17845037312E+04  0.25374113462E+04  0.10100000352E+00 0.  1.
</event>
<event>
 5   0  0.5846812E-08  0.3995354E+04  0.7818609E-02  0.8005484E-01
       -2   -1    0    0    0  501  0.00000000000E+00  0.00000000000E+00  0.23420627395E+04  0.23420627395E+04  0.25500000920E-02 0.  1.
        2   -1    0    0  501    0  0.00000000000E+00  0.00000000000E+00 -0.17039314133E+04  0.17039314133E+04  0.25500000920E-02 0. -1.
    10030    2    1    2    0    0  0.00000000000E+00  0.00000000000E+00  0.63813132614E+03  0.40459941528E+04  0.39953544392E+04 0.  0.
        4    1    3    3  502    0  0.76871962543E+03 -0.45505993011E+03  0.21285266158E+04  0.23083839736E+04  0.12699999809E+01 0.  1.
       -4    1    3    3    0  502 -0.76871962543E+03  0.45505993011E+03 -0.14903952897E+04  0.17376101792E+04  0.12699999809E+01 0. -1.
</event>
<event>
 5   0  0.1879500E-08  0.4000158E+04  0.7818609E-02  0.8004515E-01
       -1   -1    0    0    0  501  0.00000000000E+00  0.00000000000E+00  0.25156626557E+04  0.25156626557E+04  0.50400001928E-02 0. -1.
        1   -1    0    0  501    0  0.00000000000E+00  0.00000000000E+00 -0.15901639306E+04  0.15901639306E+04  0.50400001928E-02 0.  1.
    10030    2    1    2    0    0  0.00000000000E+00  0.00000000000E+00  0.92549872502E+03  0.41058265863E+04  0.40001580052E+04 0.  0.
        2    1    3    3  502    0 -0.93309119507E+03 -0.12054490351E+04 -0.86627102051E+03  0.17533373992E+04  0.25500000920E-02 0.  1.
       -2    1    3    3    0  502  0.93309119507E+03  0.12054490351E+04  0.17917697455E+04  0.23524891871E+04  0.25500000920E-02 0. -1.
</event>
<event>
 5   0  0.5951623E-08  0.3973839E+04  0.7818609E-02  0.8009845E-01
        2   -1    0    0  501    0  0.00000000000E+00  0.00000000000E+00  0.23704633268E+04  0.23704633268E+04  0.25500000920E-02 0. -1.
       -2   -1    0    0    0  501  0.00000000000E+00  0.00000000000E+00 -0.16654336263E+04  0.16654336263E+04  0.25500000920E-02 0.  1.
    10030    2    1    2    0    0  0.00000000000E+00  0.00000000000E+00  0.70502970051E+03  0.40358969530E+04  0.39738391182E+04 0.  0.
        2    1    3    3  502    0 -0.14113746830E+04 -0.66549320285E+03 -0.89673056685E+03  0.17997181469E+04  0.25500000920E-02 0.  1.
       -2    1    3    3    0  502  0.14113746830E+04  0.66549320285E+03  0.16017602674E+04  0.22361788061E+04  0.25500000920E-02 0. -1.
</event>
<event>
 5   0  0.1879500E-08  0.3964572E+04  0.7818609E-02  0.8011732E-01
        1   -1    0    0  501    0  0.00000000000E+00  0.00000000000E+00  0.27196813015E+04  0.27196813015E+04  0.50400001928E-02 0. -1.
       -1   -1    0    0    0  501  0.00000000000E+00  0.00000000000E+00 -0.14448225845E+04  0.14448225845E+04  0.50400001928E-02 0.  1.
    10030    2    1    2    0    0  0.00000000000E+00  0.00000000000E+00  0.12748587170E+04  0.41645038860E+04  0.39645715869E+04 0.  0.
        3    1    3    3  502    0  0.85405856012E+03 -0.39408372048E+03 -0.11954844341E+04  0.15211512237E+04  0.10100000352E+00 0.  1.
       -3    1    3    3    0  502 -0.85405856012E+03  0.39408372048E+03  0.24703431511E+04  0.26433526623E+04  0.10100000352E+00 0. -1.
</event>
<event>
 5   0  0.5951623E-08  0.4003869E+04  0.7818609E-02  0.8003767E-01
       -2   -1    0    0    0  501  0.00000000000E+00  0.00000000000E+00  0.15044263563E+04  0.15044263563E+04  0.25500000920E-02 0.  1.
        2   -1    0    0  501    0  0.00000000000E+00  0.00000000000E+00 -0.26639667342E+04  0.26639667342E+04  0.25500000920E-02 0. -1.
    10030    2    1    2    0    0  0.00000000000E+00  0.00000000000E+00 -0.11595403779E+04  0.41683930905E+04  0.40038690124E+04 0.  0.
        2    1    3    3  502    0  0.57319754410E+03  0.15147408333E+04 -0.18048769943E+04  0.24249899343E+04  0.25500000920E-02 0. -1.
       -2    1    3    3    0  502 -0.57319754410E+03 -0.15147408333E+04  0.64533661640E+03  0.17434031562E+04  0.25500000920E-02 0.  1.
</event>
<event>
 5   0  0.5888700E-08  0.4015784E+04  0.7818609E-02  0.8001370E-01
       -2   -1    0    0    0  501  0.00000000000E+00  0.00000000000E+00  0.18081210175E+04  0.18081210175E+04  0.25500000920E-02 0. -1.
        2   -1    0    0  501    0  0.00000000000E+00  0.00000000000E+00 -0.22297343967E+04  0.22297343967E+04  0.25500000920E-02 0.  1.
    10030    2    1    2    0    0  0.00000000000E+00  0.00000000000E+00 -0.42161337922E+03  0.40378554142E+04  0.40157836725E+04 0.  0.
        5    1    3    3  502    0  0.22557373106E+03 -0.12238456103E+04 -0.17951975846E+04  0.21843621595E+04  0.46999998093E+01 0.  1.
       -5    1    3    3    0  502 -0.22557373106E+03  0.12238456103E+04  0.13735842054E+04  0.18534932547E+04  0.46999998093E+01 0. -1.
</event>
<event>
 5   0  0.5888700E-08  0.4002197E+04  0.7818609E-02  0.8004104E-01
        2   -1    0    0  501    0  0.00000000000E+00  0.00000000000E+00  0.14079830549E+04  0.14079830549E+04  0.25500000920E-02 0. -1.
       -2   -1    0    0    0  501  0.00000000000E+00  0.00000000000E+00 -0.28440647492E+04  0.28440647492E+04  0.25500000920E-02 0.  1.
    10030    2    1    2    0    0  0.00000000000E+00  0.00000000000E+00 -0.14360816943E+04  0.42520478040E+04  0.40021968836E+04 0.  0.
        5    1    3    3  502    0  0.88685567754E+03 -0.12830765498E+04 -0.20499272031E+04  0.25758536553E+04  0.46999998093E+01 0.  1.
       -5    1    3    3    0  502 -0.88685567754E+03  0.12830765498E+04  0.61384550880E+03  0.16761941487E+04  0.46999998093E+01 0. -1.
</event>
<event>
 5   0  0.5888700E-08  0.3972487E+04  0.7818609E-02  0.8010120E-01
       -2   -1    0    0    0  501  0.00000000000E+00  0.00000000000E+00  0.20154799057E+04  0.20154799057E+04  0.25500000920E-02 0.  1.
        2   -1    0    0  501    0  0.00000000000E+00  0.00000000000E+00 -0.19574309064E+04  0.19574309064E+04  0.25500000920E-02 0. -1.
    10030    2    1    2    0    0  0.00000000000E+00  0.00000000000E+00  0.58048999360E+02  0.39729108121E+04  0.39724867066E+04 0.  0.
        5    1    3    3  502    0 -0.18643730250E+04 -0.25366453353E+03  0.66541632683E+03  0.19957538551E+04  0.46999998093E+01 0.  1.
       -5    1    3    3    0  502  0.18643730250E+04  0.25366453353E+03 -0.60736732747E+03  0.19771569570E+04  0.46999998093E+01 0. -1.
</event>
<event>
 5   0  0.1879500E-08  0.4008532E+04  0.7818609E-02  0.8002828E-01
       -1   -1    0    0    0  501  0.00000000000E+00  0.00000000000E+00  0.15041589048E+04  0.15041589048E+04  0.50400001928E-02 0.  1.
        1   -1    0    0  501    0  0.00000000000E+00  0.00000000000E+00 -0.26706501340E+04  0.26706501340E+04  0.50400001928E-02 0. -1.
    10030    2    1    2    0    0  0.00000000000E+00  0.00000000000E+00 -0.11664912293E+04  0.41748090388E+04  0.40085319910E+04 0.  0.
        3    1    3    3  502    0  0.71375659676E+03  0.14340367050E+04 -0.18378614623E+04  0.24379590882E+04  0.10100000352E+00 0. -1.
       -3    1    3    3    0  502 -0.71375659676E+03 -0.14340367050E+04  0.67137023308E+03  0.17368499506E+04  0.10100000352E+00 0.  1.
</event>
<event>
 5   0  0.1879500E-08  0.4032228E+04  0.7818609E-02  0.7998077E-01
       -1   -1    0    0    0  501  0.00000000000E+00  0.00000000000E+00  0.18973027905E+04  0.18973027905E+04  0.50400001928E-02 0.  1.
        1   -1    0    0  501    0  0.00000000000E+00  0.00000000000E+00 -0.21423647985E+04  0.21423647985E+04  0.50400001928E-02 0. -1.
    10030    2    1    2    0    0  0.00000000000E+00  0.00000000000E+00 -0.24506200798E+03  0.40396675890E+04  0.40322275286E+04 0.  0.
        3    1    3    3  502    0  0.94787907239E+03 -0.17232880224E+04  0.32159086738E+03  0.19928916278E+04  0.10100000352E+00 0.  1.
       -3    1    3    3    0  502 -0.94787907239E+03  0.17232880224E+04 -0.56665287536E+03  0.20467759612E+04  0.10100000352E+00 0. -1.
</event>
<event>
 5   0  0.1879500E-08  0.4000919E+04  0.7818609E-02  0.8004361E-01
        1   -1    0    0  501    0  0.00000000000E+00  0.00000000000E+00  0.12375581079E+04  0.12375581079E+04  0.50400001928E-02 0. -1.
       -1   -1    0    0    0  501  0.00000000000E+00  0.00000000000E+00 -0.32336568547E+04  0.32336568547E+04  0.50400001928E-02 0.  1.
    10030    2    1    2    0    0  0.00000000000E+00  0.00000000000E+00 -0.19960987468E+04  0.44712149626E+04  0.40009190238E+04 0.  0.
        5    1    3    3  502    0  0.50612906089E+03  0.13041580560E+04  0.60001205509E+03  0.15221798243E+04  0.46999998093E+01 0. -1.
       -5    1    3    3    0  502 -0.50612906089E+03 -0.13041580560E+04 -0.25961108019E+04  0.29490351383E+04  0.46999998093E+01 0.  1.
</event>
<event>
 5   0  0.6161563E-08  0.4129773E+04  0.7818609E-02  0.7978867E-01
        2   -1    0    0  501    0  0.00000000000E+00  0.00000000000E+00  0.24441657966E+04  0.24441657966E+04  0.25500000920E-02 0.  1.
       -2   -1    0    0    0  501  0.00000000000E+00  0.00000000000E+00 -0.17444629477E+04  0.17444629477E+04  0.25500000920E-02 0. -1.
    10030    2    1    2    0    0  0.00000000000E+00  0.00000000000E+00  0.69970284893E+03  0.41886287442E+04  0.41297731996E+04 0.  0.
        1    1    3    3  502    0 -0.34944293035E+03 -0.95005512087E+03  0.21752341171E+04  0.23992412464E+04  0.50400001928E-02 0.  1.
       -1    1    3    3    0  502  0.34944293035E+03  0.95005512087E+03 -0.14755312681E+04  0.17893874979E+04  0.50400001928E-02 0. -1.
</event>
<event>
 5   0  0.1879500E-08  0.3990977E+04  0.7818609E-02  0.8006369E-01
       -1   -1    0    0    0  501  0.00000000000E+00  0.00000000000E+00  0.23400171911E+04  0.23400171911E+04  0.50400001928E-02 0.  1.
        1   -1    0    0  501    0  0.00000000000E+00  0.00000000000E+00 -0.17016858857E+04  0.17016858857E+04  0.50400001928E-02 0. -1.
    10030    2    1    2    0    0  0.00000000000E+00  0.00000000000E+00  0.63833130542E+03  0.40417030768E+04  0.39909769362E+04 0.  0.
        5    1    3    3  502    0 -0.13971111328E+04 -0.14240632522E+04  0.27301814079E+03  0.20135631748E+04  0.46999998093E+01 0.  1.
       -5    1    3    3    0  502  0.13971111328E+04  0.14240632522E+04  0.36531316463E+03  0.20281399020E+04  0.46999998093E+01 0. -1.
</event>
<event>
 5   0  0.6161563E-08  0.3999890E+04  0.7818609E-02  0.8004569E-01
        2   -1    0    0  501    0  0.00000000000E+00  0.00000000000E+00  0.21290744409E+04  0.21290744409E+04  0.25500000920E-02 0.  1.
       -2   -1    0    0    0  501  0.00000000000E+00  0.00000000000E+00 -0.18786471990E+04  0.18786471990E+04  0.25500000920E-02 0. -1.
    10030    2    1    2    0    0  0.00000000000E+00  0.00000000000E+00  0.25042724189E+03  0.40077216399E+04  0.39998898659E+04 0.  0.
        1    1    3    3  502    0 -0.87721782076E+03  0.47911335499E+03 -0.16104364956E+04  0.18954066630E+04  0.50400001928E-02 0. -1.
       -1    1    3    3    0  502  0.87721782076E+03 -0.47911335499E+03  0.18608637375E+04  0.21123149768E+04  0.50400001928E-02 0.  1.
</event>
<event>
 5   0  0.5945387E-08  0.4005312E+04  0.7818609E-02  0.8003476E-01
        2   -1    0    0  501    0  0.00000000000E+00  0.00000000000E+00  0.29076947394E+04  0.29076947394E+04  0.25500000920E-02 0. -1.
       -2   -1    0    0    0  501  0.00000000000E+00  0.00000000000E+00 -0.13793161471E+04  0.13793161471E+04  0.25500000920E-02 0.  1.
    10030    2    1    2    0    0  0.00000000000E+00  0.00000000000E+00  0.15283785923E+04  0.42870108866E+04  0.40053116258E+04 0.  0.
        3    1    3    3  502    0 -0.61979809940E+03 -0.18962852074E+04  0.95136888091E+03  0.22102375505E+04  0.10100000352E+00 0. -1.
       -3    1    3    3    0  502  0.61979809940E+03  0.18962852074E+04  0.57700971137E+03  0.20767733360E+04  0.10100000352E+00 0.  1.
</event>
<event>
 5   0  0.5951623E-08  0.4000853E+04  0.7818609E-02  0.8004375E-01
       -2   -1    0    0    0  501  0.00000000000E+00  0.00000000000E+00  0.14816691619E+04  0.14816691619E+04  0.25500000920E-02 0. -1.
        2   -1    0    0  501    0  0.00000000000E+00  0.00000000000E+00 -0.27008090919E+04  0.27008090919E+04  0.25500000920E-02 0.  1.
    10030    2    1    2    0    0  0.00000000000E+00  0.00000000000E+00 -0.12191399301E+04  0.41824782538E+04  0.40008526809E+04 0.  0.
        2    1    3    3  502    0  0.15959625819E+04 -0.12039673870E+04 -0.68401741871E+03  0.21129396255E+04  0.25500000920E-02 0.  1.
       -2    1    3    3    0  502 -0.15959625819E+04  0.12039673870E+04 -0.53512251137E+03  0.20695386283E+04  0.25500000920E-02 0. -1.
</event>
<event>
 5   0  0.1879500E-08  0.3956716E+04  0.7818609E-02  0.8013336E-01
       -1   -1    0    0    0  501  0.00000000000E+00  0.00000000000E+00  0.23604802273E+04  0.23604802273E+04  0.50400001928E-02 0.  1.
        1   -1    0    0  501    0  0.00000000000E+00  0.00000000000E+00 -0.16580953309E+04  0.16580953309E+04  0.50400001928E-02 0. -1.
    10030    2    1    2    0    0  0.00000000000E+00  0.00000000000E+00  0.70238489646E+03  0.40185755582E+04  0.39567164385E+04 0.  0.
        2    1    3    3  502    0  0.18600630632E+03  0.19594622325E+04  0.14854698597E+03  0.19738684844E+04  0.25500000920E-02 0.  1.
       -2    1    3    3    0  502 -0.18600630632E+03 -0.19594622325E+04  0.55383791049E+03  0.20447070738E+04  0.25500000920E-02 0. -1.
</event>
<event>
 5   0  0.5888700E-08  0.4006743E+04  0.7818609E-02  0.8003188E-01
       -2   -1    0    0    0  501  0.00000000000E+00  0.00000000000E+00  0.19988601568E+04  0.19988601568E+04  0.25500000920E-02 0. -1.
        2   -1    0    0  501    0  0.00000000000E+00  0.00000000000E+00 -0.20078925740E+04  0.20078925740E+04  0.25500000920E-02 0.  1.
    10030    2    1    2    0    0  0.00000000000E+00  0.00000000000E+00 -0.90324171650E+01  0.40067527308E+04  0.40067425499E+04 0.  0.
        5    1    3    3  502    0  0.16842317991E+04  0.34066841668E+03 -0.10344618589E+04  0.20056981705E+04  0.46999998093E+01 0.  1.
       -5    1    3    3    0  502 -0.16842317991E+04 -0.34066841668E+03  0.10254294418E+04  0.20010545603E+04  0.46999998093E+01 0. -1.
</event>
<event>
 5   0  0.5888700E-08  0.3979647E+04  0.7818609E-02  0.8008665E-01
        2   -1    0    0  501    0  0.00000000000E+00  0.00000000000E+00  0.15735742275E+04  0.15735742275E+04  0.25500000920E-02 0. -1.
       -2   -1    0    0    0  501  0.00000000000E+00  0.00000000000E+00 -0.25161807076E+04  0.25161807076E+04  0.25500000920E-02 0.  1.
    10030    2    1    2    0    0  0.00000000000E+00  0.00000000000E+00 -0.94260648008E+03  0.40897549351E+04  0.39796467748E+04 0.  0.
        5    1    3    3  502    0 -0.78972053477E+03  0.11001393608E+03 -0.23448218496E+04  0.24766859279E+04  0.46999998093E+01 0.  1.
       -5    1    3    3    0  502  0.78972053477E+03 -0.11001393608E+03  0.14022153695E+04  0.16130690071E+04  0.46999998093E+01 0. -1.
</event>
<event>
 5   0  0.6161563E-08  0.4004207E+04  0.7818609E-02  0.8003698E-01
        2   -1    0    0  501    0  0.00000000000E+00  0.00000000000E+00  0.22828411617E+04  0.22828411617E+04  0.25500000920E-02 0. -1.
       -2   -1    0    0    0  501  0.00000000000E+00  0.00000000000E+00 -0.17558899809E+04  0.17558899809E+04  0.25500000920E-02 0.  1.
    10030    2    1    2    0    0  0.00000000000E+00  0.00000000000E+00  0.52695118084E+03  0.40387311426E+04  0.40042067498E+04 0.  0.
        1    1    3    3  502    0 -0.17543414134E+03  0.16457164204E+04 -0.87285172686E+03  0.18711039018E+04  0.50400001928E-02 0.  1.
       -1    1    3    3    0  502  0.17543414134E+03 -0.16457164204E+04  0.13998029077E+04  0.21676272407E+04  0.50400001928E-02 0. -1.
</event>
<event>
 5   0  0.5846812E-08  0.4023642E+04  0.7818609E-02  0.7999794E-01
       -2   -1    0    0    0  501  0.00000000000E+00  0.00000000000E+00  0.19291109474E+04  0.19291109474E+04  0.25500000920E-02 0.  1.
        2   -1    0    0  501    0  0.00000000000E+00  0.00000000000E+00 -0.20980776094E+04  0.20980776094E+04  0.25500000920E-02 0. -1.
    10030    2    1    2    0    0  0.00000000000E+00  0.00000000000E+00 -0.16896666194E+03  0.40271885568E+04  0.40236423722E+04 0.  0.
        4    1    3    3  502    0  0.89035647212E+03 -0.18022180196E+04 -0.25672354307E+01  0.20101573673E+04  0.12699999809E+01 0.  1.
       -4    1    3    3    0  502 -0.89035647212E+03  0.18022180196E+04 -0.16639942651E+03  0.20170311896E+04  0.12699999809E+01 0. -1.
</event>
<event>
 5   0  0.1879500E-08  0.4012159E+04  0.7818609E-02  0.8002098E-01
       -1   -1    0    0    0  501  0.00000000000E+00  0.00000000000E+00  0.14337918344E+04  0.14337918344E+04  0.50400001928E-02 0.  1.
        1   -1    0    0  501    0  0.00000000000E+00  0.00000000000E+00 -0.28067919704E+04  0.28067919704E+04  0.50400001928E-02 0. -1.
    10030    2    1    2    0    0  0.00000000000E+00  0.00000000000E+00 -0.13730001360E+04  0.42405838047E+04  0.40121592231E+04 0.  0.
        2    1    3    3  502    0  0.64142102197E+03  0.48864549281E+03 -0.26279684895E+04  0.27488931822E+04  0.25500000920E-02 0. -1.
       -2    1    3    3    0  502 -0.64142102197E+03 -0.48864549281E+03  0.12549683535E+04  0.14916906226E+04  0.25500000920E-02 0.  1.
</event>
<event>
 5   0  0.1879500E-08  0.3998954E+04  0.7818609E-02  0.8004758E-01
       -1   -1    0    0    0  501  0.00000000000E+00  0.00000000000E+00  0.12861802914E+04  0.12861802914E+04  0.50400001928E-02 0.  1.
        1   -1    0    0  501    0  0.00000000000E+00  0.00000000000E+00 -0.31083573391E+04  0.31083573391E+04  0.50400001928E-02 0. -1.
    10030    2    1    2    0    0  0.00000000000E+00  0.00000000000E+00 -0.18221770478E+04  0.43945376305E+04  0.39989538373E+04 0.  0.
        2    1    3    3  502    0 -0.41960501910E+02 -0.11479743529E+04 -0.27095311265E+04  0.29429856819E+04  0.25500000920E-02 0. -1.
       -2    1    3    3    0  502  0.41960501910E+02  0.11479743529E+04  0.88735407871E+03  0.14515519486E+04  0.25500000920E-02 0.  1.
</event>
<event>
 5   0  0.5888700E-08  0.4002131E+04  0.7818609E-02  0.8004117E-01
        2   -1    0    0  501    0  0.00000000000E+00  0.00000000000E+00  0.21723532422E+04  0.21723532422E+04  0.25500000920E-02 0. -1.
       -2   -1    0    0    0  501  0.00000000000E+00  0.00000000000E+00 -0.18432836246E+04  0.18432836246E+04  0.25500000920E-02 0.  1.
    10030    2    1    2    0    0  0.00000000000E+00  0.00000000000E+00  0.32906961756E+03  0.40156368668E+04  0.40021310114E+04 0.  0.
        5    1    3    3  502    0  0.16489348246E+04 -0.78141140658E+03 -0.65960859755E+03  0.19402823079E+04  0.46999998093E+01 0.  1.
       -5    1    3    3    0  502 -0.16489348246E+04  0.78141140658E+03  0.98867821511E+03  0.20753545589E+04  0.46999998093E+01 0. -1.
</event>
<event>
 5   0  0.5945387E-08  0.4016316E+04  0.7818609E-02  0.8001263E-01
       -2   -1    0    0    0  501  0.00000000000E+00  0.00000000000E+00  0.21088135800E+04  0.21088135800E+04  0.25500000920E-02 0.  1.
        2   -1    0    0  501    0  0.00000000000E+00  0.00000000000E+00 -0.19123069439E+04  0.19123069439E+04  0.25500000920E-02 0. -1.
    10030    2    1    2    0    0  0.00000000000E+00  0.00000000000E+00  0.19650663612E+03  0.40211205239E+04  0.40163161491E+04 0.  0.
        3    1    3    3  502    0 -0.19864996634E+04  0.52389497197E+02  0.38803567007E+03  0.20247215274E+04  0.10100000352E+00 0.  1.
       -3    1    3    3    0  502  0.19864996634E+04 -0.52389497197E+02 -0.19152903396E+03  0.19963989965E+04  0.10100000352E+00 0. -1.
</event>
<event>
 5   0  0.1879500E-08  0.3996667E+04  0.7818609E-02  0.8005219E-01
        1   -1    0    0  501    0  0.00000000000E+00  0.00000000000E+00  0.16003239545E+04  0.16003239545E+04  0.50400001928E-02 0.  1.
       -1   -1    0    0    0  501  0.00000000000E+00  0.00000000000E+00 -0.24953300749E+04  0.24953300749E+04  0.50400001928E-02 0. -1.
    10030    2    1    2    0    0  0.00000000000E+00  0.00000000000E+00 -0.89500612040E+03  0.40956540294E+04  0.39966668579E+04 0.  0.
        2    1    3    3  502    0 -0.81016083582E+03 -0.18066712543E+04 -0.17078759389E+03  0.19873575429E+04  0.25500000920E-02 0.  1.
       -2    1    3    3    0  502  0.81016083582E+03  0.18066712543E+04 -0.72421852651E+03  0.21082964866E+04  0.25500000920E-02 0. -1.
</event>
<event>
 5   0  0.5846812E-08  0.3989530E+04  0.7818609E-02  0.8006662E-01
        2   -1    0    0  501    0  0.00000000000E+00  0.00000000000E+00  0.23874894331E+04  0.23874894331E+04  0.25500000920E-02 0.  1.
       -2   -1    0    0    0  501  0.00000000000E+00  0.00000000000E+00 -0.16666411358E+04  0.16666411358E+04  0.25500000920E-02 0. -1.
    10030    2    1    2    0    0  0.00000000000E+00  0.00000000000E+00  0.72084829725E+03  0.40541305689E+04  0.39895303485E+04 0.  0.
        4    1    3    3  502    0  0.71724341004E+03  0.17781061740E+04  0.91977953118E+03  0.21265219665E+04  0.12699999809E+01 0. -1.
       -4    1    3    3    0  502 -0.71724341004E+03 -0.17781061740E+04 -0.19893123393E+03  0.19276086024E+04  0.12699999809E+01 0.  1.
</event>
<event>
 5   0  0.1879500E-08  0.4004524E+04  0.7818609E-02  0.8003634E-01
       -1   -1    0    0    0  501  0.00000000000E+00  0.00000000000E+00  0.19004035559E+04  0.19004035559E+04  0.50400001928E-02 0.  1.
        1   -1    0    0  501    0  0.00000000000E+00  0.00000000000E+00 -0.21095802497E+04  0.21095802497E+04  0.50400001928E-02 0. -1.
    10030    2    1    2    0    0  0.00000000000E+00  0.00000000000E+00 -0.20917669378E+03  0.40099838056E+04  0.40045243453E+04 0.  0.
        4    1    3    3  502    0 -0.12155548227E+04  0.32944770655E+03  0.14541142828E+04  0.19236837783E+04  0.12699999809E+01 0.  1.
       -4    1    3    3    0  502  0.12155548227E+04 -0.32944770655E+03 -0.16632909766E+04  0.20863000273E+04  0.12699999809E+01 0. -1.
</event>
<event>
 5   0  0.1879500E-08  0.4013249E+04  0.7818609E-02  0.8001879E-01
        1   -1    0    0  501    0  0.00000000000E+00  0.00000000000E+00  0.14947709363E+04  0.14947709363E+04  0.50400001928E-02 0.  1.
       -1   -1    0    0    0  501  0.00000000000E+00  0.00000000000E+00 -0.26937515010E+04  0.26937515011E+04  0.50400001928E-02 0. -1.
    10030    2    1    2    0    0  0.00000000000E+00  0.00000000000E+00 -0.11989805648E+04  0.41885224373E+04  0.40132487854E+04 0.  0.
        5    1    3    3  502    0 -0.93456978045E+03  0.47043728207E+03  0.11875362648E+04  0.15827180359E+04  0.46999998093E+01 0.  1.
       -5    1    3    3    0  502  0.93456978045E+03 -0.47043728207E+03 -0.23865168296E+04  0.26058044015E+04  0.46999998093E+01 0. -1.
</event>
<event>
 5   0  0.6161563E-08  0.4004568E+04  0.7818609E-02  0.8003626E-01
        2   -1    0    0  501    0  0.00000000000E+00  0.00000000000E+00  0.19952266730E+04  0.19952266730E+04  0.25500000920E-02 0.  1.
       -2   -1    0    0    0  501  0.00000000000E+00  0.00000000000E+00 -0.20093658050E+04  0.20093658050E+04  0.25500000920E-02 0. -1.
    10030    2    1    2    0    0  0.00000000000E+00  0.00000000000E+00 -0.14139131988E+02  0.40045924780E+04  0.40045675172E+04 0.  0.
        1    1    3    3  502    0  0.14933972351E+04  0.25156006788E+03 -0.13168954581E+04  0.20069208796E+04  0.50400001928E-02 0. -1.
       -1    1    3    3    0  502 -0.14933972351E+04 -0.25156006788E+03  0.13027563261E+04  0.19976715983E+04  0.50400001928E-02 0.  1.
</event>
<event>
 5   0  0.1879500E-08  0.4001427E+04  0.7818609E-02  0.8004259E-01
       -1   -1    0    0    0  501  0.00000000000E+00  0.00000000000E+00  0.20036880671E+04  0.20036880671E+04  0.50400001928E-02 0.  1.
        1   -1    0    0  501    0  0.00000000000E+00  0.00000000000E+00 -0.19977429447E+04  0.19977429447E+04  0.50400001928E-02 0. -1.
    10030    2    1    2    0    0  0.00000000000E+00  0.00000000000E+00  0.59451224137E+01  0.40014310118E+04  0.40014265953E+04 0.  0.
        2    1    3    3  502    0 -0.13909161571E+04  0.12233171754E+04 -0.75313741337E+03  0.19995921162E+04  0.25500000920E-02 0.  1.
       -2    1    3    3    0  502  0.13909161571E+04 -0.12233171754E+04  0.75908253579E+03  0.20018388956E+04  0.25500000920E-02 0. -1.
</event>
<event>
 5   0  0.6161563E-08  0.4010063E+04  0.7818609E-02  0.8002520E-01
        2   -1    0    0  501    0  0.00000000000E+00  0.00000000000E+00  0.12798416595E+04  0.12798416595E+04  0.25500000920E-02 0.  1.
       -2   -1    0    0    0  501  0.00000000000E+00  0.00000000000E+00 -0.31411318193E+04  0.31411318193E+04  0.25500000920E-02 0. -1.
    10030    2    1    2    0    0  0.00000000000E+00  0.00000000000E+00 -0.18612901598E+04  0.44209734788E+04  0.40100630221E+04 0.  0.
        1    1    3    3  502    0 -0.13365138315E+04 -0.16602831437E+03  0.70692781533E+03  0.15210462055E+04  0.50400001928E-02 0.  1.
       -1    1    3    3    0  502  0.13365138315E+04  0.16602831437E+03 -0.25682179751E+04  0.28999272734E+04  0.50400001928E-02 0. -1.
</event>
<event>
 5   0  0.5945387E-08  0.3991817E+04  0.7818609E-02  0.8006199E-01
       -2   -1    0    0    0  501  0.00000000000E+00  0.00000000000E+00  0.17070153403E+04  0.17070153403E+04  0.25500000920E-02 0. -1.
        2   -1    0    0  501    0  0.00000000000E+00  0.00000000000E+00 -0.23336933972E+04  0.23336933972E+04  0.25500000920E-02 0.  1.
    10030    2    1    2    0    0  0.00000000000E+00  0.00000000000E+00 -0.62667805690E+03  0.40407087375E+04  0.39918168438E+04 0.  0.
        3    1    3    3  502    0 -0.64709595051E+03  0.11697939330E+04 -0.18135505110E+04  0.22530238527E+04  0.10100000352E+00 0.  1.
       -3    1    3    3    0  502  0.64709595051E+03 -0.11697939330E+04  0.11868724541E+04  0.17876848848E+04  0.10100000352E+00 0. -1.
</event>
<event>
 5   0  0.1879500E-08  0.3998493E+04  0.7818609E-02  0.8004851E-01
        1   -1    0    0  501    0  0.00000000000E+00  0.00000000000E+00  0.23110848447E+04  0.23110848447E+04  0.50400001928E-02 0. -1.
       -1   -1    0    0    0  501  0.00000000000E+00  0.00000000000E+00 -0.17294850631E+04  0.17294850631E+04  0.50400001928E-02 0.  1.
    10030    2    1    2    0    0  0.00000000000E+00  0.00000000000E+00  0.58159978159E+03  0.40405699078E+04  0.39984930754E+04 0.  0.
        3    1    3    3  502    0 -0.16394953113E+04  0.51231415186E+03 -0.74298854874E+03  0.18714814078E+04  0.10100000352E+00 0.  1.
       -3    1    3    3    0  502  0.16394953113E+04 -0.51231415186E+03  0.13245883303E+04  0.21690885000E+04  0.10100000352E+00 0. -1.
</event>
<event>
 5   0  0.1879500E-08  0.4000258E+04  0.7818609E-02  0.8004495E-01
        1   -1    0    0  501    0  0.00000000000E+00  0.00000000000E+00  0.14156693982E+04  0.14156693983E+04  0.50400001928E-02 0.  1.
       -1   -1    0    0    0  501  0.00000000000E+00  0.00000000000E+00 -0.28258827594E+04  0.28258827595E+04  0.50400001928E-02 0. -1.
    10030    2    1    2    0    0  0.00000000000E+00  0.00000000000E+00 -0.14102133612E+04  0.42415521577E+04  0.40002578645E+04 0.  0.
        1    1    3    3  502    0  0.16634211781E+04 -0.83875992823E+03  0.66837736821E+02  0.18641232567E+04  0.50400001928E-02 0.  1.
       -1    1    3    3    0  502 -0.16634211781E+04  0.83875992823E+03 -0.14770510980E+04  0.23774289010E+04  0.50400001928E-02 0. -1.
</event>
<event>
 5   0  0.6161563E-08  0.3986620E+04  0.7818609E-02  0.8007251E-01
        2   -1    0    0  501    0  0.00000000000E+00  0.00000000000E+00  0.13565819844E+04  0.13565819844E+04  0.25500000920E-02 0.  1.
       -2   -1    0    0    0  501  0.00000000000E+00  0.00000000000E+00 -0.29288940352E+04  0.29288940352E+04  0.25500000920E-02 0. -1.
    10030    2    1    2    0    0  0.00000000000E+00  0.00000000000E+00 -0.15723120508E+04  0.42854760196E+04  0.39866200633E+04 0.  0.
        1    1    3    3  502    0 -0.11838125432E+03 -0.79223390823E+03  0.11759524196E+04  0.14228537451E+04  0.50400001928E-02 0.  1.
       -1    1    3    3    0  502  0.11838125432E+03  0.79223390823E+03 -0.27482644704E+04  0.28626222744E+04  0.50400001928E-02 0. -1.
</event>
<event>
 5   0  0.1879500E-08  0.3999251E+04  0.7818609E-02  0.8004698E-01
        1   -1    0    0  501    0  0.00000000000E+00  0.00000000000E+00  0.21865104968E+04  0.21865104968E+04  0.50400001928E-02 0. -1.
       -1   -1    0    0    0  501  0.00000000000E+00  0.00000000000E+00 -0.18287136248E+04  0.18287136248E+04  0.50400001928E-02 0.  1.
    10030    2    1    2    0    0  0.00000000000E+00  0.00000000000E+00  0.35779687206E+03  0.40152241216E+04  0.39992506980E+04 0.  0.
        2    1    3    3  502    0 -0.80211886591E+02 -0.10219291664E+04  0.19026508722E+04  0.21612157480E+04  0.25500000920E-02 0. -1.
       -2    1    3    3    0  502  0.80211886591E+02  0.10219291664E+04 -0.15448540001E+04  0.18540083736E+04  0.25500000920E-02 0.  1.
</event>
<event>
 5   0  0.1879500E-08  0.3994990E+04  0.7818609E-02  0.8005558E-01
       -1   -1    0    0    0  501  0.00000000000E+00  0.00000000000E+00  0.27172911759E+04  0.27172911759E+04  0.50400001928E-02 0. -1.
        1   -1    0    0  501    0  0.00000000000E+00  0.00000000000E+00 -0.14683689523E+04  0.14683689523E+04  0.50400001928E-02 0.  1.
    10030    2    1    2    0    0  0.00000000000E+00  0.00000000000E+00  0.12489222237E+04  0.41856601282E+04  0.39949898609E+04 0.  0.
        1    1    3    3  502    0  0.23575882488E+03  0.84246433770E+03  0.25058998606E+04  0.26542159851E+04  0.50400001928E-02 0. -1.
       -1    1    3    3    0  502 -0.23575882488E+03 -0.84246433770E+03 -0.12569776370E+04  0.15314441432E+04  0.50400001928E-02 0.  1.
</event>
<event>
 5   0  0.5945387E-08  0.3969093E+04  0.7818609E-02  0.8010811E-01
       -2   -1    0    0    0  501  0.00000000000E+00  0.00000000000E+00  0.28439729187E+04  0.28439729187E+04  0.25500000920E-02 0.  1.
        2   -1    0    0  501    0  0.00000000000E+00  0.00000000000E+00 -0.13848318943E+04  0.13848318943E+04  0.25500000920E-02 0. -1.
    10030    2    1    2    0    0  0.00000000000E+00  0.00000000000E+00  0.14591410244E+04  0.42288048130E+04  0.39690927953E+04 0.  0.
        3    1    3    3  502    0 -0.99961299591E+03  0.17022122143E+04  0.51207631486E+03  0.20393564491E+04  0.10100000352E+00 0.  1.
       -3    1    3    3    0  502  0.99961299591E+03 -0.17022122143E+04  0.94706470950E+03  0.21894483639E+04  0.10100000352E+00 0. -1.
</event>
<event>
 5   0  0.1879500E-08  0.3991121E+04  0.7818609E-02  0.8006340E-01
       -1   -1    0    0    0  501  0.00000000000E+00  0.00000000000E+00  0.13973406896E+04  0.13973406896E+04  0.50400001928E-02 0. -1.
        1   -1    0    0  501    0  0.00000000000E+00  0.00000000000E+00 -0.28498861231E+04  0.28498861231E+04  0.50400001928E-02 0.  1.
    10030    2    1    2    0    0  0.00000000000E+00  0.00000000000E+00 -0.14525454335E+04  0.42472268127E+04  0.39911210659E+04 0.  0.
        4    1    3    3  502    0  0.44232285310E+03 -0.39768413967E+03 -0.27533560610E+04  0.28168729813E+04  0.12699999809E+01 0.  1.
       -4    1    3    3    0  502 -0.44232285310E+03  0.39768413967E+03  0.13008106276E+04  0.14303538314E+04  0.12699999809E+01 0. -1.
</event>
<event>
 5   0  0.1879500E-08  0.4005721E+04  0.7818609E-02  0.8003393E-01
        1   -1    0    0  501    0  0.00000000000E+00  0.00000000000E+00  0.14617250352E+04  0.14617250352E+04  0.50400001928E-02 0. -1.
       -1   -1    0    0    0  501  0.00000000000E+00  0.00000000000E+00 -0.27443258044E+04  0.27443258044E+04  0.50400001928E-02 0.  1.
    10030    2    1    2    0    0  0.00000000000E+00  0.00000000000E+00 -0.12826007692E+04  0.42060508396E+04  0.40057207757E+04 0.  0.
        1    1    3    3  502    0 -0.94156953346E+03  0.17676121813E+04 -0.66341859556E+03  0.21097701872E+04  0.50400001928E-02 0. -1.
       -1    1    3    3    0  502  0.94156953346E+03 -0.17676121813E+04 -0.61918217363E+03  0.20962806525E+04  0.50400001928E-02 0.  1.
</event>
<event>
 5   0  0.1879500E-08  0.3984042E+04  0.7818609E-02  0.8007773E-01
        1   -1    0    0  501    0  0.00000000000E+00  0.00000000000E+00  0.22699375786E+04  0.22699375786E+04  0.50400001928E-02 0. -1.
       -1   -1    0    0    0  501  0.00000000000E+00  0.00000000000E+00 -0.17481309521E+04  0.17481309521E+04  0.50400001928E-02 0.  1.
    10030    2    1    2    0    0  0.00000000000E+00  0.00000000000E+00  0.52180662647E+03  0.40180685307E+04  0.39840422390E+04 0.  0.
        1    1    3    3  502    0 -0.11166921641E+04  0.16476063378E+04  0.17934169829E+03  0.19984422630E+04  0.50400001928E-02 0.  1.
       -1    1    3    3    0  502  0.11166921641E+04 -0.16476063378E+04  0.34246492818E+03  0.20196262676E+04  0.50400001928E-02 0. -1.
</event>
<event>
 5   0  0.5951623E-08  0.3915419E+04  0.7818609E-02  0.8021830E-01
       -2   -1    0    0    0  501  0.00000000000E+00  0.00000000000E+00  0.24107061849E+04  0.24107061849E+04  0.25500000920E-02 0. -1.
        2   -1    0    0  501    0  0.00000000000E+00  0.00000000000E+00 -0.15898351862E+04  0.15898351862E+04  0.25500000920E-02 0.  1.
    10030    2    1    2    0    0  0.00000000000E+00  0.00000000000E+00  0.82087099871E+03  0.40005413711E+04  0.39154185045E+04 0.  0.
        2    1    3    3  502    0 -0.41691040679E+03 -0.56773078469E+03 -0.14558826739E+04  0.16173208993E+04  0.25500000920E-02 0.  1.
       -2    1    3    3    0  502  0.41691040679E+03  0.56773078469E+03  0.22767536727E+04  0.23832204718E+04  0.25500000920E-02 0. -1.
</event>
<event>
 5   0  0.5846812E-08  0.3999227E+04  0.7818609E-02  0.8004703E-01
       -2   -1    0    0    0  501  0.00000000000E+00  0.00000000000E+00  0.13978468873E+04  0.13978468873E+04  0.25500000920E-02 0. -1.
        2   -1    0    0  501    0  0.00000000000E+00  0.00000000000E+00 -0.28604378192E+04  0.28604378192E+04  0.25500000920E-02 0.  1.
    10030    2    1    2    0    0  0.00000000000E+00  0.00000000000E+00 -0.14625909319E+04  0.42582847065E+04  0.39992269763E+04 0.  0.
        4    1    3    3  502    0  0.86852520374E+03 -0.54719885481E+03 -0.25584632230E+04  0.27567187547E+04  0.12699999809E+01 0.  1.
       -4    1    3    3    0  502 -0.86852520374E+03  0.54719885481E+03  0.10958722911E+04  0.15015659518E+04  0.12699999809E+01 0. -1.
</event>
<event>
 5   0  0.5945387E-08  0.3985204E+04  0.7818609E-02  0.8007538E-01
       -2   -1    0    0    0  501  0.00000000000E+00  0.00000000000E+00  0.16740806111E+04  0.16740806111E+04  0.25500000920E-02 0. -1.
        2   -1    0    0  501    0  0.00000000000E+00  0.00000000000E+00 -0.23717271327E+04  0.23717271327E+04  0.25500000920E-02 0.  1.
    10030    2    1    2    0    0  0.00000000000E+00  0.00000000000E+00 -0.69764652161E+03  0.40458077437E+04  0.39852038380E+04 0.  0.
        3    1    3    3  502    0  0.76498846774E+03 -0.12713836680E+04 -0.16990254448E+04  0.22557285429E+04  0.10100000352E+00 0.  1.
       -3    1    3    3    0  502 -0.76498846774E+03  0.12713836680E+04  0.10013789232E+04  0.17900792008E+04  0.10100000352E+00 0. -1.
</event>
<event>
 5   0  0.1879500E-08  0.4001510E+04  0.7818609E-02  0.8004242E-01
       -1   -1    0    0    0  501  0.00000000000E+00  0.00000000000E+00  0.22033451773E+04  0.22033451773E+04  0.50400001928E-02 0. -1.
        1   -1    0    0  501    0  0.00000000000E+00  0.00000000000E+00 -0.18167923863E+04  0.18167923863E+04  0.50400001928E-02 0.  1.
    10030    2    1    2    0    0  0.00000000000E+00  0.00000000000E+00  0.38655279099E+03  0.40201375636E+04  0.40015100863E+04 0.  0.
        5    1    3    3  502    0  0.97538953866E+03  0.38324738420E+02  0.19478728578E+04  0.21787804612E+04  0.46999998093E+01 0. -1.
       -5    1    3    3    0  502 -0.97538953866E+03 -0.38324738420E+02 -0.15613200668E+04  0.18413571025E+04  0.46999998093E+01 0.  1.
</event>
<event>
 5   0  0.5945387E-08  0.3994852E+04  0.7818609E-02  0.8005586E-01
       -2   -1    0    0    0  501  0.00000000000E+00  0.00000000000E+00  0.15105733364E+04  0.15105733364E+04  0.25500000920E-02 0.  1.
        2   -1    0    0  501    0  0.00000000000E+00  0.00000000000E+00 -0.26411894006E+04  0.26411894006E+04  0.25500000920E-02 0. -1.
    10030    2    1    2    0    0  0.00000000000E+00  0.00000000000E+00 -0.11306160643E+04  0.41517627370E+04  0.39948518295E+04 0.  0.
        3    1    3    3  502    0 -0.89706184367E+03  0.35579225084E+03  0.12522117623E+04  0.15809308603E+04  0.10100000352E+00 0.  1.
       -3    1    3    3    0  502  0.89706184367E+03 -0.35579225084E+03 -0.23828278266E+04  0.25708318767E+04  0.10100000352E+00 0. -1.
</event>
<event>
 5   0  0.5951623E-08  0.3869800E+04  0.7818609E-02  0.8031340E-01
       -2   -1    0    0    0  501  0.00000000000E+00  0.00000000000E+00  0.12801093564E+04  0.12801093564E+04  0.25500000920E-02 0. -1.
        2   -1    0    0  501    0  0.00000000000E+00  0.00000000000E+00 -0.29246241729E+04  0.29246241729E+04  0.25500000920E-02 0.  1.
    10030    2    1    2    0    0  0.00000000000E+00  0.00000000000E+00 -0.16445148164E+04  0.42047335293E+04  0.38698003916E+04 0.  0.
        2    1    3    3  502    0 -0.46805904496E+03  0.99497346985E+03 -0.25521561166E+04  0.27789480598E+04  0.25500000920E-02 0.  1.
       -2    1    3    3    0  502  0.46805904496E+03 -0.99497346985E+03  0.90764130019E+03  0.14257854695E+04  0.25500000920E-02 0. -1.
</event>
<event>
 5   0  0.1879500E-08  0.3988192E+04  0.7818609E-02  0.8006933E-01
       -1   -1    0    0    0  501  0.00000000000E+00  0.00000000000E+00  0.25069839945E+04  0.25069839945E+04  0.50400001928E-02 0.  1.
        1   -1    0    0  501    0  0.00000000000E+00  0.00000000000E+00 -0.15861367920E+04  0.15861367920E+04  0.50400001928E-02 0. -1.
    10030    2    1    2    0    0  0.00000000000E+00  0.00000000000E+00  0.92084720254E+03  0.40931207865E+04  0.39881923477E+04 0.  0.
        3    1    3    3  502    0 -0.86200270583E+03 -0.17144640367E+04 -0.96044494320E+02  0.19213693432E+04  0.10100000352E+00 0. -1.
       -3    1    3    3    0  502  0.86200270583E+03  0.17144640367E+04  0.10168916969E+04  0.21717514432E+04  0.10100000352E+00 0.  1.
</event>
<event>
 5   0  0.5888700E-08  0.4022208E+04  0.7818609E-02  0.8000081E-01
       -2   -1    0    0    0  501  0.00000000000E+00  0.00000000000E+00  0.22084716708E+04  0.22084716708E+04  0.25500000920E-02 0.  1.
        2   -1    0    0  501    0  0.00000000000E+00  0.00000000000E+00 -0.18313745639E+04  0.18313745639E+04  0.25500000920E-02 0. -1.
    10030    2    1    2    0    0  0.00000000000E+00  0.00000000000E+00  0.37709710688E+03  0.40398462347E+04  0.40222077733E+04 0.  0.
        5    1    3    3  502    0  0.15108944383E+04 -0.12719511524E+04  0.56949404490E+03  0.20554822536E+04  0.46999998093E+01 0.  1.
       -5    1    3    3    0  502 -0.15108944383E+04  0.12719511524E+04 -0.19239693801E+03  0.19843639811E+04  0.46999998093E+01 0. -1.
</event>
<event>
 5   0  0.5888700E-08  0.4008949E+04  0.7818609E-02  0.8002744E-01
        2   -1    0    0  501    0  0.00000000000E+00  0.00000000000E+00  0.25231666285E+04  0.25231666285E+04  0.25500000920E-02 0.  1.
       -2   -1    0    0    0  501  0.00000000000E+00  0.00000000000E+00 -0.15924108019E+04  0.15924108019E+04  0.25500000920E-02 0. -1.
    10030    2    1    2    0    0  0.00000000000E+00  0.00000000000E+00  0.93075582661E+03  0.41155774304E+04  0.40089488868E+04 0.  0.
        5    1    3    3  502    0  0.52332717746E+03 -0.17504311117E+04 -0.38118569944E+03  0.18663346535E+04  0.46999998093E+01 0. -1.
       -5    1    3    3    0  502 -0.52332717746E+03  0.17504311117E+04  0.13119415261E+04  0.22492427769E+04  0.46999998093E+01 0.  1.
</event>
<event>
 5   0  0.6161563E-08  0.3844638E+04  0.7818609E-02  0.8036643E-01
        2   -1    0    0  501    0  0.00000000000E+00  0.00000000000E+00  0.21578589486E+04  0.21578589486E+04  0.25500000920E-02 0.  1.
       -2   -1    0    0    0  501  0.00000000000E+00  0.00000000000E+00 -0.17124890182E+04  0.17124890182E+04  0.25500000920E-02 0. -1.
    10030    2    1    2    0    0  0.00000000000E+00  0.00000000000E+00  0.44536993043E+03  0.38703479667E+04  0.38446376954E+04 0.  0.
        1    1    3    3  502    0  0.13732720277E+04 -0.79012331953E+03  0.13186058580E+04  0.20612841461E+04  0.50400001928E-02 0. -1.
       -1    1    3    3    0  502 -0.13732720277E+04  0.79012331953E+03 -0.87323592758E+03  0.18090638207E+04  0.50400001928E-02 0.  1.
</event>
<event>
 5   0  0.5846812E-08  0.4279755E+04  0.7818609E-02  0.7950372E-01
        2   -1    0    0  501    0  0.00000000000E+00  0.00000000000E+00  0.19287748222E+04  0.19287748222E+04  0.25500000920E-02 0.  1.
       -2   -1    0    0    0  501  0.00000000000E+00  0.00000000000E+00 -0.23740852416E+04  0.23740852416E+04  0.25500000920E-02 0. -1.
    10030    2    1    2    0    0  0.00000000000E+00  0.00000000000E+00 -0.44531041936E+03  0.43028600638E+04  0.42797550583E+04 0.  0.
        4    1    3    3  502    0 -0.15677583054E+04  0.46899100875E+03 -0.16089594658E+04  0.22949010536E+04  0.12699999809E+01 0. -1.
       -4    1    3    3    0  502  0.15677583054E+04 -0.46899100875E+03  0.11636490464E+04  0.20079590102E+04  0.12699999809E+01 0.  1.
</event>
<event>
 5   0  0.1879500E-08  0.4001510E+04  0.7818609E-02  0.8004242E-01
        1   -1    0    0  501    0  0.00000000000E+00  0.00000000000E+00  0.21617493523E+04  0.21617493523E+04  0.50400001928E-02 0. -1.
       -1   -1    0    0    0  501  0.00000000000E+00  0.00000000000E+00 -0.18517506075E+04  0.18517506075E+04  0.50400001928E-02 0.  1.
    10030    2    1    2    0    0  0.00000000000E+00  0.00000000000E+00  0.30999874472E+03  0.40134999598E+04  0.40015100532E+04 0.  0.
        3    1    3    3  502    0 -0.41542123105E+03 -0.16144895794E+04  0.12646004373E+04  0.20924544625E+04  0.10100000352E+00 0.  1.
       -3    1    3    3    0  502  0.41542123105E+03  0.16144895794E+04 -0.95460169262E+03  0.19210454973E+04  0.10100000352E+00 0. -1.
</event>
<event>
 5   0  0.1879500E-08  0.4027800E+04  0.7818609E-02  0.7998962E-01
        1   -1    0    0  501    0  0.00000000000E+00  0.00000000000E+00  0.25290094765E+04  0.25290094765E+04  0.50400001928E-02 0.  1.
       -1   -1    0    0    0  501  0.00000000000E+00  0.00000000000E+00 -0.16037083116E+04  0.16037083116E+04  0.50400001928E-02 0. -1.
    10030    2    1    2    0    0  0.00000000000E+00  0.00000000000E+00  0.92530116486E+03  0.41327177881E+04  0.40278001527E+04 0.  0.
        4    1    3    3  502    0 -0.86028621988E+01  0.10528573240E+04 -0.12988116208E+04  0.16719736221E+04  0.12699999809E+01 0. -1.
       -4    1    3    3    0  502  0.86028621988E+01 -0.10528573240E+04  0.22241127857E+04  0.24607441659E+04  0.12699999809E+01 0.  1.
</event>
<event>
 5   0  0.6161563E-08  0.4001514E+04  0.7818609E-02  0.8004241E-01
       -2   -1    0    0    0  501  0.00000000000E+00  0.00000000000E+00  0.18350394681E+04  0.18350394681E+04  0.25500000920E-02 0. -1.
        2   -1    0    0  501    0  0.00000000000E+00  0.00000000000E+00 -0.21814395191E+04  0.21814395191E+04  0.25500000920E-02 0.  1.
    10030    2    1    2    0    0  0.00000000000E+00  0.00000000000E+00 -0.34640005104E+03  0.40164789872E+04  0.40015135211E+04 0.  0.
        1    1    3    3  502    0  0.16568880448E+04 -0.66301050081E+03 -0.10811085831E+04  0.20865418006E+04  0.50400001928E-02 0.  1.
       -1    1    3    3    0  502 -0.16568880448E+04  0.66301050081E+03  0.73470853207E+03  0.19299371866E+04  0.50400001928E-02 0. -1.
</event>
<event>
 5   0  0.1879500E-08  0.3927646E+04  0.7818609E-02  0.8019304E-01
        1   -1    0    0  501    0  0.00000000000E+00  0.00000000000E+00  0.21609667500E+04  0.21609667500E+04  0.50400001928E-02 0.  1.
       -1   -1    0    0    0  501  0.00000000000E+00  0.00000000000E+00 -0.17846643179E+04  0.17846643179E+04  0.50400001928E-02 0. -1.
    10030    2    1    2    0    0  0.00000000000E+00  0.00000000000E+00  0.37630243213E+03  0.39456310679E+04  0.39276457329E+04 0.  0.
        1    1    3    3  502    0  0.90420908865E+03 -0.16664312047E+04  0.70236742755E+03  0.20218573241E+04  0.50400001928E-02 0. -1.
       -1    1    3    3    0  502 -0.90420908865E+03  0.16664312047E+04 -0.32606499542E+03  0.19237737438E+04  0.50400001928E-02 0.  1.
</event>
<event>
 5   0  0.5846812E-08  0.3973762E+04  0.7818609E-02  0.8009861E-01
       -2   -1    0    0    0  501  0.00000000000E+00  0.00000000000E+00  0.13574097633E+04  0.13574097633E+04  0.25500000920E-02 0. -1.
        2   -1    0    0  501    0  0.00000000000E+00  0.00000000000E+00 -0.29082567064E+04  0.29082567064E+04  0.25500000920E-02 0.  1.
    10030    2    1    2    0    0  0.00000000000E+00  0.00000000000E+00 -0.15508469430E+04  0.42656664697E+04  0.39737619695E+04 0.  0.
        4    1    3    3  502    0  0.95704015005E+03 -0.58396640473E+03  0.98542452595E+03  0.14926505686E+04  0.12699999809E+01 0. -1.
       -4    1    3    3    0  502 -0.95704015005E+03  0.58396640473E+03 -0.25362714690E+04  0.27730159011E+04  0.12699999809E+01 0.  1.
</event>
<event>
 5   0  0.5888700E-08  0.4053283E+04  0.7818609E-02  0.7993883E-01
        2   -1    0    0  501    0  0.00000000000E+00  0.00000000000E+00  0.15694080839E+04  0.15694080839E+04  0.25500000920E-02 0.  1.
       -2   -1    0    0    0  501  0.00000000000E+00  0.00000000000E+00 -0.26170863852E+04  0.26170863852E+04  0.25500000920E-02 0. -1.
    10030    2    1    2    0    0  0.00000000000E+00  0.00000000000E+00 -0.10476783012E+04  0.41864944691E+04  0.40532833748E+04 0.  0.
        5    1    3    3  502    0  0.66429407137E+03 -0.10362116330E+04 -0.21867945255E+04  0.25094050188E+04  0.46999998093E+01 0. -1.
       -5    1    3    3    0  502 -0.66429407137E+03  0.10362116330E+04  0.11391162243E+04  0.16770894502E+04  0.46999998093E+01 0.  1.
</event>
<event>
 5   0  0.5888700E-08  0.4001550E+04  0.7818609E-02  0.8004234E-01
        2   -1    0    0  501    0  0.00000000000E+00  0.00000000000E+00  0.14761661483E+04  0.14761661483E+04  0.25500000920E-02 0.  1.
       -2   -1    0    0    0  501  0.00000000000E+00  0.00000000000E+00 -0.27118229148E+04  0.27118229148E+04  0.25500000920E-02 0. -1.
    10030    2    1    2    0    0  0.00000000000E+00  0.00000000000E+00 -0.12356567665E+04  0.41879890632E+04  0.40015502931E+04 0.  0.
        5    1    3    3  502    0  0.19534773996E+04  0.43063020148E+03 -0.57645456195E+03  0.20817872785E+04  0.46999998093E+01 0. -1.
       -5    1    3    3    0  502 -0.19534773996E+04 -0.43063020148E+03 -0.65920220460E+03  0.21062017846E+04  0.46999998093E+01 0.  1.
</event>
<event>
 5   0  0.1879500E-08  0.4023220E+04  0.7818609E-02  0.7999879E-01
       -1   -1    0    0    0  501  0.00000000000E+00  0.00000000000E+00  0.21047677775E+04  0.21047677775E+04  0.50400001928E-02 0.  1.
        1   -1    0    0  501    0  0.00000000000E+00  0.00000000000E+00 -0.19225750294E+04  0.19225750294E+04  0.50400001928E-02 0. -1.
    10030    2    1    2    0    0  0.00000000000E+00  0.00000000000E+00  0.18219274808E+03  0.40273428069E+04  0.40232195922E+04 0.  0.
        4    1    3    3  502    0 -0.53686938873E+02  0.14842275399E+04 -0.12670397142E+04  0.19522307568E+04  0.12699999809E+01 0. -1.
       -4    1    3    3    0  502  0.53686938873E+02 -0.14842275399E+04  0.14492324623E+04  0.20751120501E+04  0.12699999809E+01 0.  1.
</event>
<event>
 5   0  0.1879500E-08  0.4024714E+04  0.7818609E-02  0.7999579E-01
        1   -1    0    0  501    0  0.00000000000E+00  0.00000000000E+00  0.17512858931E+04  0.17512858931E+04  0.50400001928E-02 0.  1.
       -1   -1    0    0    0  501  0.00000000000E+00  0.00000000000E+00 -0.23123470034E+04  0.23123470034E+04  0.50400001928E-02 0. -1.
    10030    2    1    2    0    0  0.00000000000E+00  0.00000000000E+00 -0.56106111025E+03  0.40636328965E+04  0.40247139959E+04 0.  0.
        4    1    3    3  502    0 -0.36738117762E+03 -0.14068626981E+04 -0.16851507902E+04  0.22257507452E+04  0.12699999809E+01 0. -1.
       -4    1    3    3    0  502  0.36738117762E+03  0.14068626981E+04  0.11240896800E+04  0.18378821514E+04  0.12699999809E+01 0.  1.
</event>
<event>
 5   0  0.1879500E-08  0.4015644E+04  0.7818609E-02  0.8001398E-01
       -1   -1    0    0    0  501  0.00000000000E+00  0.00000000000E+00  0.15660355614E+04  0.15660355614E+04  0.50400001928E-02 0. -1.
        1   -1    0    0  501    0  0.00000000000E+00  0.00000000000E+00 -0.25742388371E+04  0.25742388371E+04  0.50400001928E-02 0.  1.
    10030    2    1    2    0    0  0.00000000000E+00  0.00000000000E+00 -0.10082032757E+04  0.41402743986E+04  0.40156441887E+04 0.  0.
        1    1    3    3  502    0  0.91016117909E+03 -0.15192720237E+04  0.47117830865E+03  0.18326455883E+04  0.50400001928E-02 0.  1.
       -1    1    3    3    0  502 -0.91016117909E+03  0.15192720237E+04 -0.14793815843E+04  0.23076288103E+04  0.50400001928E-02 0. -1.
</event>
<event>
 5   0  0.5888700E-08  0.3922296E+04  0.7818609E-02  0.8020408E-01
        2   -1    0    0  501    0  0.00000000000E+00  0.00000000000E+00  0.13185177070E+04  0.13185177070E+04  0.25500000920E-02 0.  1.
       -2   -1    0    0    0  501  0.00000000000E+00  0.00000000000E+00 -0.29169882490E+04  0.29169882490E+04  0.25500000920E-02 0. -1.
    10030    2    1    2    0    0  0.00000000000E+00  0.00000000000E+00 -0.15984705420E+04  0.42355059560E+04  0.39222955816E+04 0.  0.
        5    1    3    3  502    0 -0.19026217725E+04 -0.28524915453E+03 -0.38840533711E+03  0.19627066732E+04  0.46999998093E+01 0. -1.
       -5    1    3    3    0  502  0.19026217725E+04  0.28524915453E+03 -0.12100652049E+04  0.22727992827E+04  0.46999998093E+01 0.  1.
</event>
<event>
 5   0  0.5846812E-08  0.4032672E+04  0.7818609E-02  0.7997988E-01
       -2   -1    0    0    0  501  0.00000000000E+00  0.00000000000E+00  0.15858730468E+04  0.15858730468E+04  0.25500000920E-02 0.  1.
        2   -1    0    0  501    0  0.00000000000E+00  0.00000000000E+00 -0.25636414901E+04  0.25636414901E+04  0.25500000920E-02 0. -1.
    10030    2    1    2    0    0  0.00000000000E+00  0.00000000000E+00 -0.97776844330E+03  0.41495145368E+04  0.40326715416E+04 0.  0.
        4    1    3    3  502    0  0.16480547007E+04  0.65977277339E+03 -0.14727383893E+04  0.23065871727E+04  0.12699999809E+01 0. -1.
       -4    1    3    3    0  502 -0.16480547007E+04 -0.65977277339E+03  0.49496994602E+03  0.18429273641E+04  0.12699999809E+01 0.  1.
</event>
<event>
 5   0  0.6161563E-08  0.3992740E+04  0.7818609E-02  0.8006013E-01
       -2   -1    0    0    0  501  0.00000000000E+00  0.00000000000E+00  0.18655411053E+04  0.18655411054E+04  0.25500000920E-02 0. -1.
        2   -1    0    0  501    0  0.00000000000E+00  0.00000000000E+00 -0.21363740455E+04  0.21363740455E+04  0.25500000920E-02 0.  1.
    10030    2    1    2    0    0  0.00000000000E+00  0.00000000000E+00 -0.27083294015E+03  0.40019151508E+04  0.39927402111E+04 0.  0.
        1    1    3    3  502    0 -0.11331607112E+04 -0.12640512009E+04 -0.11883612908E+04  0.20722164929E+04  0.50400001928E-02 0.  1.
       -1    1    3    3    0  502  0.11331607112E+04  0.12640512009E+04  0.91752835068E+03  0.19296986579E+04  0.50400001928E-02 0. -1.
</event>
<event>
 5   0  0.6161563E-08  0.3986280E+04  0.7818609E-02  0.8007320E-01
       -2   -1    0    0    0  501  0.00000000000E+00  0.00000000000E+00  0.18816796059E+04  0.18816796059E+04  0.25500000920E-02 0. -1.
        2   -1    0    0  501    0  0.00000000000E+00  0.00000000000E+00 -0.21112026240E+04  0.21112026240E+04  0.25500000920E-02 0.  1.
    10030    2    1    2    0    0  0.00000000000E+00  0.00000000000E+00 -0.22952301805E+03  0.39928822299E+04  0.39862799307E+04 0.  0.
        1    1    3    3  502    0  0.17234545247E+04  0.72255993295E+03  0.57936428147E+03  0.19565406528E+04  0.50400001928E-02 0. -1.
       -1    1    3    3    0  502 -0.17234545247E+04 -0.72255993295E+03 -0.80888729952E+03  0.20363415771E+04  0.50400001928E-02 0.  1.
</event>
<event>
 5   0  0.1879500E-08  0.3984101E+04  0.7818609E-02  0.8007761E-01
        1   -1    0    0  501    0  0.00000000000E+00  0.00000000000E+00  0.33237489012E+04  0.33237489012E+04  0.50400001928E-02 0.  1.
       -1   -1    0    0    0  501  0.00000000000E+00  0.00000000000E+00 -0.11939127484E+04  0.11939127484E+04  0.50400001928E-02 0. -1.
    10030    2    1    2    0    0  0.00000000000E+00  0.00000000000E+00  0.21298361528E+04  0.45176616497E+04  0.39841014976E+04 0.  0.
        2    1    3    3  502    0 -0.15693421927E+04 -0.11447766931E+04  0.15655388019E+04  0.24948467558E+04  0.25500000920E-02 0.  1.
       -2    1    3    3    0  502  0.15693421927E+04  0.11447766931E+04  0.56429735092E+03  0.20228148939E+04  0.25500000920E-02 0. -1.
</event>
<event>
 5   0  0.1879500E-08  0.4011492E+04  0.7818609E-02  0.8002232E-01
       -3   -1    0    0    0  501  0.00000000000E+00  0.00000000000E+00  0.16314515744E+04  0.16314515775E+04  0.10100000352E+00 0. -1.
        3   -1    0    0  501    0  0.00000000000E+00  0.00000000000E+00 -0.24659122205E+04  0.24659122225E+04  0.10100000352E+00 0.  1.
    10030    2    1    2    0    0  0.00000000000E+00  0.00000000000E+00 -0.83446064604E+03  0.40973638001E+04  0.40114916852E+04 0.  0.
        4    1    3    3  502    0 -0.62844189824E+03 -0.17487250461E+04 -0.11883998732E+04  0.22057366973E+04  0.12699999809E+01 0.  1.
       -4    1    3    3    0  502  0.62844189824E+03  0.17487250461E+04  0.35393922711E+03  0.18916271028E+04  0.12699999809E+01 0. -1.
</event>
<event>
 5   0  0.5888700E-08  0.3934934E+04  0.7818609E-02  0.8017803E-01
       -2   -1    0    0    0  501  0.00000000000E+00  0.00000000000E+00  0.17943966206E+04  0.17943966206E+04  0.25500000920E-02 0.  1.
        2   -1    0    0  501    0  0.00000000000E+00  0.00000000000E+00 -0.21572297711E+04  0.21572297711E+04  0.25500000920E-02 0. -1.
    10030    2    1    2    0    0  0.00000000000E+00  0.00000000000E+00 -0.36283315052E+03  0.39516263918E+04  0.39349337028E+04 0.  0.
        5    1    3    3  502    0  0.48658265779E+03 -0.18811047204E+04  0.12906494692E+03  0.19473051899E+04  0.46999998093E+01 0. -1.
       -5    1    3    3    0  502 -0.48658265779E+03  0.18811047204E+04 -0.49189809744E+03  0.20043212019E+04  0.46999998093E+01 0.  1.
</event>
<event>
 5   0  0.1879500E-08  0.4001579E+04  0.7818609E-02  0.8004228E-01
        1   -1    0    0  501    0  0.00000000000E+00  0.00000000000E+00  0.15879354138E+04  0.15879354138E+04  0.50400001928E-02 0. -1.
       -1   -1    0    0    0  501  0.00000000000E+00  0.00000000000E+00 -0.25209829396E+04  0.25209829396E+04  0.50400001928E-02 0.  1.
    10030    2    1    2    0    0  0.00000000000E+00  0.00000000000E+00 -0.93304752579E+03  0.41089183533E+04  0.40015787321E+04 0.  0.
        4    1    3    3  502    0 -0.16629578317E+04 -0.10481316368E+04 -0.83492421074E+02  0.19674809466E+04  0.12699999809E+01 0. -1.
       -4    1    3    3    0  502  0.16629578317E+04  0.10481316368E+04 -0.84955510471E+03  0.21414374067E+04  0.12699999809E+01 0.  1.
</event>
<event>
 5   0  0.5951623E-08  0.3992226E+04  0.7818609E-02  0.8006117E-01
        2   -1    0    0  501    0  0.00000000000E+00  0.00000000000E+00  0.24431672906E+04  0.24431672906E+04  0.25500000920E-02 0.  1.
       -2   -1    0    0    0  501  0.00000000000E+00  0.00000000000E+00 -0.16308613364E+04  0.16308613364E+04  0.25500000920E-02 0. -1.
    10030    2    1    2    0    0  0.00000000000E+00  0.00000000000E+00  0.81230595427E+03  0.40740286270E+04  0.39922259819E+04 0.  0.
        2    1    3    3  502    0  0.16639521810E+03  0.11538103029E+04  0.20596944576E+04  0.23667080180E+04  0.25500000920E-02 0.  1.
       -2    1    3    3    0  502 -0.16639521810E+03 -0.11538103029E+04 -0.12473885034E+04  0.17073206090E+04  0.25500000920E-02 0. -1.
</event>
<event>
 5   0  0.1879500E-08  0.4011578E+04  0.7818609E-02  0.8002215E-01
       -1   -1    0    0    0  501  0.00000000000E+00  0.00000000000E+00  0.21862367629E+04  0.21862367629E+04  0.50400001928E-02 0.  1.
        1   -1    0    0  501    0  0.00000000000E+00  0.00000000000E+00 -0.18402349373E+04  0.18402349373E+04  0.50400001928E-02 0. -1.
    10030    2    1    2    0    0  0.00000000000E+00  0.00000000000E+00  0.34600182554E+03  0.40264717002E+04  0.40115778802E+04 0.  0.
        1    1    3    3  502    0  0.35972764054E+03  0.25922572123E+03  0.21364300754E+04  0.21819567862E+04  0.50400001928E-02 0.  1.
       -1    1    3    3    0  502 -0.35972764054E+03 -0.25922572123E+03 -0.17904282499E+04  0.18445149140E+04  0.50400001928E-02 0. -1.
</event>
<event>
 5   0  0.5945387E-08  0.4007011E+04  0.7818609E-02  0.8003134E-01
        2   -1    0    0  501    0  0.00000000000E+00  0.00000000000E+00  0.22367276311E+04  0.22367276311E+04  0.25500000920E-02 0.  1.
       -2   -1    0    0    0  501  0.00000000000E+00  0.00000000000E+00 -0.17946008905E+04  0.17946008905E+04  0.25500000920E-02 0. -1.
    10030    2    1    2    0    0  0.00000000000E+00  0.00000000000E+00  0.44212674061E+03  0.40313285216E+04  0.40070105558E+04 0.  0.
        3    1    3    3  502    0  0.66145386931E+03 -0.90089807593E+03  0.18939519347E+04  0.21991344901E+04  0.10100000352E+00 0.  1.
       -3    1    3    3    0  502 -0.66145386931E+03  0.90089807593E+03 -0.14518251941E+04  0.18321940314E+04  0.10100000352E+00 0. -1.
</event>
<event>
 5   0  0.5888700E-08  0.3941114E+04  0.7818609E-02  0.8016532E-01
       -2   -1    0    0    0  501  0.00000000000E+00  0.00000000000E+00  0.16100603619E+04  0.16100603619E+04  0.25500000920E-02 0. -1.
        2   -1    0    0  501    0  0.00000000000E+00  0.00000000000E+00 -0.24117701295E+04  0.24117701295E+04  0.25500000920E-02 0.  1.
    10030    2    1    2    0    0  0.00000000000E+00  0.00000000000E+00 -0.80170976757E+03  0.40218304914E+04  0.39411143031E+04 0.  0.
        5    1    3    3  502    0 -0.12089793345E+04 -0.38747654322E+03 -0.19388055078E+04  0.23174895879E+04  0.46999998093E+01 0.  1.
       -5    1    3    3    0  502  0.12089793345E+04  0.38747654322E+03  0.11370957403E+04  0.17043409035E+04  0.46999998093E+01 0. -1.
</event>
<event>
 5   0  0.1879500E-08  0.3995100E+04  0.7818609E-02  0.8005536E-01
        1   -1    0    0  501    0  0.00000000000E+00  0.00000000000E+00  0.14131992892E+04  0.14131992892E+04  0.50400001928E-02 0.  1.
       -1   -1    0    0    0  501  0.00000000000E+00  0.00000000000E+00 -0.28235273514E+04  0.28235273514E+04  0.50400001928E-02 0. -1.
    10030    2    1    2    0    0  0.00000000000E+00  0.00000000000E+00 -0.14103280622E+04  0.42367266407E+04  0.39951004223E+04 0.  0.
        1    1    3    3  502    0  0.95963162540E+03 -0.11568395831E+04 -0.21004261853E+04  0.25828203262E+04  0.50400001928E-02 0.  1.
       -1    1    3    3    0  502 -0.95963162540E+03  0.11568395831E+04  0.69009812306E+03  0.16539063145E+04  0.50400001928E-02 0. -1.
</event>
<event>
 5   0  0.1879500E-08  0.3988921E+04  0.7818609E-02  0.8006785E-01
       -1   -1    0    0    0  501  0.00000000000E+00  0.00000000000E+00  0.13740059945E+04  0.13740059946E+04  0.50400001928E-02 0.  1.
        1   -1    0    0  501    0  0.00000000000E+00  0.00000000000E+00 -0.28950909239E+04  0.28950909239E+04  0.50400001928E-02 0. -1.
    10030    2    1    2    0    0  0.00000000000E+00  0.00000000000E+00 -0.15210849294E+04  0.42690969185E+04  0.39889207985E+04 0.  0.
        4    1    3    3  502    0  0.11643874898E+04  0.71958866847E+03  0.79195455434E+03  0.15813916995E+04  0.12699999809E+01 0.  1.
       -4    1    3    3    0  502 -0.11643874898E+04 -0.71958866847E+03 -0.23130394837E+04  0.26877052190E+04  0.12699999809E+01 0. -1.
</event>
<event>
 5   0  0.1879500E-08  0.3959092E+04  0.7818609E-02  0.8012850E-01
        1   -1    0    0  501    0  0.00000000000E+00  0.00000000000E+00  0.22930728207E+04  0.22930728207E+04  0.50400001928E-02 0.  1.
       -1   -1    0    0    0  501  0.00000000000E+00  0.00000000000E+00 -0.17088872671E+04  0.17088872671E+04  0.50400001928E-02 0. -1.
    10030    2    1    2    0    0  0.00000000000E+00  0.00000000000E+00  0.58418555365E+03  0.40019600878E+04  0.39590922929E+04 0.  0.
        5    1    3    3  502    0 -0.19282177889E+04  0.43929015284E+03  0.20408006204E+03  0.19881324004E+04  0.46999998093E+01 0. -1.
       -5    1    3    3    0  502  0.19282177889E+04 -0.43929015284E+03  0.38010549161E+03  0.20138276874E+04  0.46999998093E+01 0.  1.
</event>
<event>
 5   0  0.5888700E-08  0.3999299E+04  0.7818609E-02  0.8004688E-01
        2   -1    0    0  501    0  0.00000000000E+00  0.00000000000E+00  0.23108502496E+04  0.23108502496E+04  0.25500000920E-02 0.  1.
       -2   -1    0    0    0  501  0.00000000000E+00  0.00000000000E+00 -0.17303578329E+04  0.17303578329E+04  0.25500000920E-02 0. -1.
    10030    2    1    2    0    0  0.00000000000E+00  0.00000000000E+00  0.58049241670E+03  0.40412080825E+04  0.39992988535E+04 0.  0.
        5    1    3    3  502    0 -0.58689799506E+03  0.84502723996E+03  0.20228733555E+04  0.22694843016E+04  0.46999998093E+01 0.  1.
       -5    1    3    3    0  502  0.58689799506E+03 -0.84502723996E+03 -0.14423809388E+04  0.17717237808E+04  0.46999998093E+01 0. -1.
</event>
<event>
 5   0  0.5888700E-08  0.4079813E+04  0.7818609E-02  0.7988636E-01
       -2   -1    0    0    0  501  0.00000000000E+00  0.00000000000E+00  0.23755166802E+04  0.23755166802E+04  0.25500000920E-02 0. -1.
        2   -1    0    0  501    0  0.00000000000E+00  0.00000000000E+00 -0.17517113216E+04  0.17517113216E+04  0.25500000920E-02 0.  1.
    10030    2    1    2    0    0  0.00000000000E+00  0.00000000000E+00  0.62380535859E+03  0.41272280018E+04  0.40798134582E+04 0.  0.
        5    1    3    3  502    0  0.11058937649E+04  0.34533303034E+03  0.20103855961E+04  0.23203293422E+04  0.46999998093E+01 0. -1.
       -5    1    3    3    0  502 -0.11058937649E+04 -0.34533303034E+03 -0.13865802376E+04  0.18068986596E+04  0.46999998093E+01 0.  1.
</event>
<event>
 5   0  0.5945387E-08  0.3992337E+04  0.7818609E-02  0.8006094E-01
       -2   -1    0    0    0  501  0.00000000000E+00  0.00000000000E+00  0.17079128167E+04  0.17079128167E+04  0.25500000920E-02 0.  1.
        2   -1    0    0  501    0  0.00000000000E+00  0.00000000000E+00 -0.23330754385E+04  0.23330754385E+04  0.25500000920E-02 0. -1.
    10030    2    1    2    0    0  0.00000000000E+00  0.00000000000E+00 -0.62516262171E+03  0.40409882552E+04  0.39923373824E+04 0.  0.
        3    1    3    3  502    0 -0.14577282897E+04 -0.31585096377E+03 -0.16553810178E+04  0.22282324659E+04  0.10100000352E+00 0. -1.
       -3    1    3    3    0  502  0.14577282897E+04  0.31585096377E+03  0.10302183961E+04  0.18127557893E+04  0.10100000352E+00 0.  1.
</event>
<event>
 5   0  0.5888700E-08  0.4008292E+04  0.7818609E-02  0.8002876E-01
       -2   -1    0    0    0  501  0.00000000000E+00  0.00000000000E+00  0.12725054302E+04  0.12725054302E+04  0.25500000920E-02 0. -1.
        2   -1    0    0  501    0  0.00000000000E+00  0.00000000000E+00 -0.31564519032E+04  0.31564519032E+04  0.25500000920E-02 0.  1.
    10030    2    1    2    0    0  0.00000000000E+00  0.00000000000E+00 -0.18839464730E+04  0.44289573335E+04  0.40082924979E+04 0.  0.
        5    1    3    3  502    0 -0.60654167347E+02 -0.35046007619E+03 -0.31212946986E+04  0.31414970760E+04  0.46999998093E+01 0.  1.
       -5    1    3    3    0  502  0.60654167347E+02  0.35046007619E+03  0.12373482256E+04  0.12874602574E+04  0.46999998093E+01 0. -1.
</event>
<event>
 5   0  0.1879500E-08  0.4012866E+04  0.7818609E-02  0.8001956E-01
       -1   -1    0    0    0  501  0.00000000000E+00  0.00000000000E+00  0.22173666314E+04  0.22173666314E+04  0.50400001928E-02 0.  1.
        1   -1    0    0  501    0  0.00000000000E+00  0.00000000000E+00 -0.18155649543E+04  0.18155649543E+04  0.50400001928E-02 0. -1.
    10030    2    1    2    0    0  0.00000000000E+00  0.00000000000E+00  0.40180167711E+03  0.40329315857E+04  0.40128658820E+04 0.  0.
        2    1    3    3  502    0 -0.99146354402E+03  0.16700384998E+04  0.70715034326E+03  0.20669035193E+04  0.25500000920E-02 0. -1.
       -2    1    3    3    0  502  0.99146354402E+03 -0.16700384998E+04 -0.30534866616E+03  0.19660280664E+04  0.25500000920E-02 0.  1.
</event>
<event>
 5   0  0.5945387E-08  0.4004592E+04  0.7818609E-02  0.8003621E-01
        2   -1    0    0  501    0  0.00000000000E+00  0.00000000000E+00  0.13892708373E+04  0.13892708373E+04  0.25500000920E-02 0.  1.
       -2   -1    0    0    0  501  0.00000000000E+00  0.00000000000E+00 -0.28858230893E+04  0.28858230893E+04  0.25500000920E-02 0. -1.
    10030    2    1    2    0    0  0.00000000000E+00  0.00000000000E+00 -0.14965522520E+04  0.42750939266E+04  0.40045922936E+04 0.  0.
        3    1    3    3  502    0 -0.16165894241E+03  0.18100968152E+04  0.14910294973E+03  0.18234077421E+04  0.10100000352E+00 0.  1.
       -3    1    3    3    0  502  0.16165894241E+03 -0.18100968152E+04 -0.16456552017E+04  0.24516861845E+04  0.10100000352E+00 0. -1.
</event>
<event>
 5   0  0.5951623E-08  0.4005556E+04  0.7818609E-02  0.8003427E-01
        2   -1    0    0  501    0  0.00000000000E+00  0.00000000000E+00  0.28256828060E+04  0.28256828060E+04  0.25500000920E-02 0.  1.
       -2   -1    0    0    0  501  0.00000000000E+00  0.00000000000E+00 -0.14195219596E+04  0.14195219596E+04  0.25500000920E-02 0. -1.
    10030    2    1    2    0    0  0.00000000000E+00  0.00000000000E+00  0.14061608463E+04  0.42452047656E+04  0.40055555390E+04 0.  0.
        2    1    3    3  502    0 -0.17128620640E+04  0.10019517033E+04  0.99004790272E+03  0.22176560860E+04  0.25500000920E-02 0.  1.
       -2    1    3    3    0  502  0.17128620640E+04 -0.10019517033E+04  0.41611294362E+03  0.20275486796E+04  0.25500000920E-02 0. -1.
</event>
<event>
 5   0  0.5945387E-08  0.4007325E+04  0.7818609E-02  0.8003071E-01
        2   -1    0    0  501    0  0.00000000000E+00  0.00000000000E+00  0.26176606082E+04  0.26176606082E+04  0.25500000920E-02 0.  1.
       -2   -1    0    0    0  501  0.00000000000E+00  0.00000000000E+00 -0.15336834146E+04  0.15336834146E+04  0.25500000920E-02 0. -1.
    10030    2    1    2    0    0  0.00000000000E+00  0.00000000000E+00  0.10839771936E+04  0.41513440227E+04  0.40073246236E+04 0.  0.
        3    1    3    3  502    0  0.13662262580E+04  0.50665002528E+03  0.19666945136E+04  0.24476837533E+04  0.10100000352E+00 0.  1.
       -3    1    3    3    0  502 -0.13662262580E+04 -0.50665002528E+03 -0.88271732002E+03  0.17036602694E+04  0.10100000352E+00 0. -1.
</event>
<event>
 5   0  0.1879500E-08  0.4002198E+04  0.7818609E-02  0.8004103E-01
       -1   -1    0    0    0  501  0.00000000000E+00  0.00000000000E+00  0.15072868852E+04  0.15072868852E+04  0.50400001928E-02 0. -1.
        1   -1    0    0  501    0  0.00000000000E+00  0.00000000000E+00 -0.26566927865E+04  0.26566927865E+04  0.50400001928E-02 0.  1.
    10030    2    1    2    0    0  0.00000000000E+00  0.00000000000E+00 -0.11494059012E+04  0.41639796717E+04  0.40021984934E+04 0.  0.
        2    1    3    3  502    0 -0.77237186262E+03  0.10224255298E+04  0.10244668968E+04  0.16405623063E+04  0.25500000920E-02 0. -1.
       -2    1    3    3    0  502  0.77237186262E+03 -0.10224255298E+04 -0.21738727980E+04  0.25234173654E+04  0.25500000920E-02 0.  1.
</event>
<event>
 5   0  0.5951623E-08  0.4005833E+04  0.7818609E-02  0.8003371E-01
       -2   -1    0    0    0  501  0.00000000000E+00  0.00000000000E+00  0.20593980153E+04  0.20593980153E+04  0.25500000920E-02 0. -1.
        2   -1    0    0  501    0  0.00000000000E+00  0.00000000000E+00 -0.19479836742E+04  0.19479836742E+04  0.25500000920E-02 0.  1.
    10030    2    1    2    0    0  0.00000000000E+00  0.00000000000E+00  0.11141434106E+03  0.40073816895E+04  0.40058326039E+04 0.  0.
        2    1    3    3  502    0  0.95109336068E+03  0.66150770357E+03  0.16902002793E+04  0.20491334771E+04  0.25500000920E-02 0. -1.
       -2    1    3    3    0  502 -0.95109336068E+03 -0.66150770357E+03 -0.15787859383E+04  0.19582482124E+04  0.25500000920E-02 0.  1.
</event>
<event>
 5   0  0.1879500E-08  0.3997115E+04  0.7818609E-02  0.8005129E-01
        1   -1    0    0  501    0  0.00000000000E+00  0.00000000000E+00  0.22025274994E+04  0.22025274994E+04  0.50400001928E-02 0. -1.
       -1   -1    0    0    0  501  0.00000000000E+00  0.00000000000E+00 -0.18134767300E+04  0.18134767300E+04  0.50400001928E-02 0.  1.
    10030    2    1    2    0    0  0.00000000000E+00  0.00000000000E+00  0.38905076937E+03  0.40160042294E+04  0.39971151434E+04 0.  0.
        4    1    3    3  502    0 -0.99700298621E+02 -0.10289381179E+04  0.19130401411E+04  0.21744833856E+04  0.12699999809E+01 0. -1.
       -4    1    3    3    0  502  0.99700298621E+02  0.10289381179E+04 -0.15239893718E+04  0.18415208438E+04  0.12699999809E+01 0.  1.
</event>
<event>
 5   0  0.1879500E-08  0.4005001E+04  0.7818609E-02  0.8003539E-01
       -1   -1    0    0    0  501  0.00000000000E+00  0.00000000000E+00  0.26735070660E+04  0.26735070660E+04  0.50400001928E-02 0. -1.
        1   -1    0    0  501    0  0.00000000000E+00  0.00000000000E+00 -0.14999052668E+04  0.14999052668E+04  0.50400001928E-02 0.  1.
    10030    2    1    2    0    0  0.00000000000E+00  0.00000000000E+00  0.11736017993E+04  0.41734123328E+04  0.40050005389E+04 0.  0.
        4    1    3    3  502    0  0.13641889239E+04  0.11430694448E+04  0.15432115988E+04  0.23556576210E+04  0.12699999809E+01 0. -1.
       -4    1    3    3    0  502 -0.13641889239E+04 -0.11430694448E+04 -0.36960979951E+03  0.18177547119E+04  0.12699999809E+01 0.  1.
</event>
<event>
 5   0  0.5846812E-08  0.3984114E+04  0.7818609E-02  0.8007759E-01
       -2   -1    0    0    0  501  0.00000000000E+00  0.00000000000E+00  0.13643514404E+04  0.13643514404E+04  0.25500000920E-02 0. -1.
        2   -1    0    0  501    0  0.00000000000E+00  0.00000000000E+00 -0.29085549297E+04  0.29085549297E+04  0.25500000920E-02 0.  1.
    10030    2    1    2    0    0  0.00000000000E+00  0.00000000000E+00 -0.15442034893E+04  0.42729063701E+04  0.39841140083E+04 0.  0.
        4    1    3    3  502    0 -0.97491601612E+03  0.94824488370E+03  0.78896776731E+03  0.15722917505E+04  0.12699999809E+01 0. -1.
       -4    1    3    3    0  502  0.97491601612E+03 -0.94824488370E+03 -0.23331712566E+04  0.27006146196E+04  0.12699999809E+01 0.  1.
</event>
<event>
 5   0  0.1879500E-08  0.3990603E+04  0.7818609E-02  0.8006445E-01
        1   -1    0    0  501    0  0.00000000000E+00  0.00000000000E+00  0.27393005921E+04  0.27393005921E+04  0.50400001928E-02 0.  1.
       -1   -1    0    0    0  501  0.00000000000E+00  0.00000000000E+00 -0.14533737537E+04  0.14533737537E+04  0.50400001928E-02 0. -1.
    10030    2    1    2    0    0  0.00000000000E+00  0.00000000000E+00  0.12859268384E+04  0.41926743458E+04  0.39906027535E+04 0.  0.
        5    1    3    3  502    0  0.32415963121E+03  0.11711163556E+04  0.23056979110E+04  0.26063111732E+04  0.46999998093E+01 0.  1.
       -5    1    3    3    0  502 -0.32415963121E+03 -0.11711163556E+04 -0.10197710725E+04  0.15863631726E+04  0.46999998093E+01 0. -1.
</event>
<event>
 5   0  0.1879500E-08  0.3923614E+04  0.7818609E-02  0.8020136E-01
       -1   -1    0    0    0  501  0.00000000000E+00  0.00000000000E+00  0.18941838232E+04  0.18941838232E+04  0.50400001928E-02 0.  1.
        1   -1    0    0  501    0  0.00000000000E+00  0.00000000000E+00 -0.20318438787E+04  0.20318438787E+04  0.50400001928E-02 0. -1.
    10030    2    1    2    0    0  0.00000000000E+00  0.00000000000E+00 -0.13766005551E+03  0.39260277019E+04  0.39236135418E+04 0.  0.
        2    1    3    3  502    0  0.29406427319E+03  0.16874184872E+04  0.88822638511E+03  0.19294561563E+04  0.25500000920E-02 0.  1.
       -2    1    3    3    0  502 -0.29406427319E+03 -0.16874184872E+04 -0.10258864406E+04  0.19965715456E+04  0.25500000920E-02 0. -1.
</event>
<event>
 5   0  0.6161563E-08  0.4049130E+04  0.7818609E-02  0.7994708E-01
       -2   -1    0    0    0  501  0.00000000000E+00  0.00000000000E+00  0.23007235597E+04  0.23007235597E+04  0.25500000920E-02 0.  1.
        2   -1    0    0  501    0  0.00000000000E+00  0.00000000000E+00 -0.17815542542E+04  0.17815542542E+04  0.25500000920E-02 0. -1.
    10030    2    1    2    0    0  0.00000000000E+00  0.00000000000E+00  0.51916930551E+03  0.40822778139E+04  0.40491302007E+04 0.  0.
        1    1    3    3  502    0 -0.17426570761E+04 -0.56894910156E+03 -0.60669742906E+03  0.19309682896E+04  0.50400001928E-02 0. -1.
       -1    1    3    3    0  502  0.17426570761E+04  0.56894910156E+03  0.11258667346E+04  0.21513095243E+04  0.50400001928E-02 0.  1.
</event>
<event>
 5   0  0.5945387E-08  0.4001468E+04  0.7818609E-02  0.8004251E-01
       -2   -1    0    0    0  501  0.00000000000E+00  0.00000000000E+00  0.23405561626E+04  0.23405561626E+04  0.25500000920E-02 0. -1.
        2   -1    0    0  501    0  0.00000000000E+00  0.00000000000E+00 -0.17102498395E+04  0.17102498395E+04  0.25500000920E-02 0.  1.
    10030    2    1    2    0    0  0.00000000000E+00  0.00000000000E+00  0.63030632316E+03  0.40508060021E+04  0.40014676315E+04 0.  0.
        3    1    3    3  502    0  0.65955938027E+03  0.15265244550E+04  0.14413631075E+04  0.22006415214E+04  0.10100000352E+00 0. -1.
       -3    1    3    3    0  502 -0.65955938027E+03 -0.15265244550E+04 -0.81105678438E+03  0.18501644807E+04  0.10100000352E+00 0.  1.
</event>
<event>
 5   0  0.5951623E-08  0.4018876E+04  0.7818609E-02  0.8000750E-01
        2   -1    0    0  501    0  0.00000000000E+00  0.00000000000E+00  0.26666883016E+04  0.26666883016E+04  0.25500000920E-02 0.  1.
       -2   -1    0    0    0  501  0.00000000000E+00  0.00000000000E+00 -0.15141778101E+04  0.15141778101E+04  0.25500000920E-02 0. -1.
    10030    2    1    2    0    0  0.00000000000E+00  0.00000000000E+00  0.11525104915E+04  0.41808661117E+04  0.40188755904E+04 0.  0.
        2    1    3    3  502    0 -0.59696182146E+03 -0.92608527042E+03  0.23244184070E+04  0.25723371232E+04  0.25500000920E-02 0.  1.
       -2    1    3    3    0  502  0.59696182146E+03  0.92608527042E+03 -0.11719079156E+04  0.16085289885E+04  0.25500000920E-02 0. -1.
</event>
<event>
 5   0  0.1879500E-08  0.3999136E+04  0.7818609E-02  0.8004721E-01
        1   -1    0    0  501    0  0.00000000000E+00  0.00000000000E+00  0.15172689245E+04  0.15172689245E+04  0.50400001928E-02 0.  1.
       -1   -1    0    0    0  501  0.00000000000E+00  0.00000000000E+00 -0.26351770613E+04  0.26351770613E+04  0.50400001928E-02 0. -1.
    10030    2    1    2    0    0  0.00000000000E+00  0.00000000000E+00 -0.11179081369E+04  0.41524459858E+04  0.39991360395E+04 0.  0.
        1    1    3    3  502    0 -0.72350845479E+03  0.14216204182E+04  0.69300641040E+03  0.17391742243E+04  0.50400001928E-02 0.  1.
       -1    1    3    3    0  502  0.72350845479E+03 -0.14216204182E+04 -0.18109145473E+04  0.24132717615E+04  0.50400001928E-02 0. -1.
</event>
<event>
 5   0  0.5846812E-08  0.4004266E+04  0.7818609E-02  0.8003687E-01
        2   -1    0    0  501    0  0.00000000000E+00  0.00000000000E+00  0.25761812642E+04  0.25761812642E+04  0.25500000920E-02 0.  1.
       -2   -1    0    0    0  501  0.00000000000E+00  0.00000000000E+00 -0.15559994074E+04  0.15559994074E+04  0.25500000920E-02 0. -1.
    10030    2    1    2    0    0  0.00000000000E+00  0.00000000000E+00  0.10201818568E+04  0.41321806716E+04  0.40042659854E+04 0.  0.
        4    1    3    3  502    0  0.19700033736E+04  0.33511221897E+03  0.63782473147E+03  0.20976261564E+04  0.12699999809E+01 0. -1.
       -4    1    3    3    0  502 -0.19700033736E+04 -0.33511221897E+03  0.38235712529E+03  0.20345545152E+04  0.12699999809E+01 0.  1.
</event>
<event>
 5   0  0.1879500E-08  0.3995182E+04  0.7818609E-02  0.8005519E-01
       -1   -1    0    0    0  501  0.00000000000E+00  0.00000000000E+00  0.14980260446E+04  0.14980260446E+04  0.50400001928E-02 0. -1.
        1   -1    0    0  501    0  0.00000000000E+00  0.00000000000E+00 -0.26637523478E+04  0.26637523478E+04  0.50400001928E-02 0.  1.
    10030    2    1    2    0    0  0.00000000000E+00  0.00000000000E+00 -0.11657263032E+04  0.41617783924E+04  0.39951822954E+04 0.  0.
        3    1    3    3  502    0 -0.18131872790E+04  0.21786392724E+03  0.26037137110E+03  0.18446967395E+04  0.10100000352E+00 0. -1.
       -3    1    3    3    0  502  0.18131872790E+04 -0.21786392724E+03 -0.14260976743E+04  0.23170816529E+04  0.10100000352E+00 0.  1.
</event>
<event>
 5   0  0.5945387E-08  0.4012749E+04  0.7818609E-02  0.8001980E-01
        2   -1    0    0  501    0  0.00000000000E+00  0.00000000000E+00  0.12583614211E+04  0.12583614211E+04  0.25500000920E-02 0.  1.
       -2   -1    0    0    0  501  0.00000000000E+00  0.00000000000E+00 -0.31990322969E+04  0.31990322969E+04  0.25500000920E-02 0. -1.
    10030    2    1    2    0    0  0.00000000000E+00  0.00000000000E+00 -0.19406708757E+04  0.44573937180E+04  0.40127490962E+04 0.  0.
        3    1    3    3  502    0 -0.13369691635E+03  0.85509950043E+03  0.10403401690E+04  0.13532840421E+04  0.10100000352E+00 0.  1.
       -3    1    3    3    0  502  0.13369691635E+03 -0.85509950043E+03 -0.29810110447E+04  0.31041096759E+04  0.10100000352E+00 0. -1.
</event>
<event>
 5   0  0.5945387E-08  0.4000867E+04  0.7818609E-02  0.8004372E-01
       -2   -1    0    0    0  501  0.00000000000E+00  0.00000000000E+00  0.28206119262E+04  0.28206119262E+04  0.25500000920E-02 0. -1.
        2   -1    0    0  501    0  0.00000000000E+00  0.00000000000E+00 -0.14187467118E+04  0.14187467118E+04  0.25500000920E-02 0.  1.
    10030    2    1    2    0    0  0.00000000000E+00  0.00000000000E+00  0.14018652144E+04  0.42393586380E+04  0.40008668539E+04 0.  0.
        3    1    3    3  502    0  0.86479398962E+03 -0.56115744933E+03  0.25174662924E+04  0.27203681499E+04  0.10100000352E+00 0. -1.
       -3    1    3    3    0  502 -0.86479398962E+03  0.56115744933E+03 -0.11156010780E+04  0.15189904881E+04  0.10100000352E+00 0.  1.
</event>
<event>
 5   0  0.1879500E-08  0.3966270E+04  0.7818609E-02  0.8011386E-01
        1   -1    0    0  501    0  0.00000000000E+00  0.00000000000E+00  0.12088438414E+04  0.12088438414E+04  0.50400001928E-02 0.  1.
       -1   -1    0    0    0  501  0.00000000000E+00  0.00000000000E+00 -0.32533770536E+04  0.32533770536E+04  0.50400001928E-02 0. -1.
    10030    2    1    2    0    0  0.00000000000E+00  0.00000000000E+00 -0.20445332122E+04  0.44622208950E+04  0.39662701950E+04 0.  0.
        1    1    3    3  502    0 -0.16720782473E+04  0.68328822103E+03 -0.19432194588E+04  0.26530794039E+04  0.50400001928E-02 0. -1.
       -1    1    3    3    0  502  0.16720782473E+04 -0.68328822103E+03 -0.10131375336E+03  0.18091414911E+04  0.50400001928E-02 0.  1.
</event>
<event>
 5   0  0.1879500E-08  0.3962934E+04  0.7818609E-02  0.8012066E-01
        1   -1    0    0  501    0  0.00000000000E+00  0.00000000000E+00  0.26171298682E+04  0.26171298682E+04  0.50400001928E-02 0. -1.
       -1   -1    0    0    0  501  0.00000000000E+00  0.00000000000E+00 -0.15001971603E+04  0.15001971603E+04  0.50400001928E-02 0.  1.
    10030    2    1    2    0    0  0.00000000000E+00  0.00000000000E+00  0.11169327079E+04  0.41173270285E+04  0.39629336590E+04 0.  0.
        1    1    3    3  502    0  0.19316084740E+04 -0.30894620890E+03  0.88644155210E+03  0.21476353699E+04  0.50400001928E-02 0.  1.
       -1    1    3    3    0  502 -0.19316084740E+04  0.30894620890E+03  0.23049115584E+03  0.19696916586E+04  0.50400001928E-02 0. -1.
</event>
<event>
 5   0  0.6161563E-08  0.3984038E+04  0.7818609E-02  0.8007774E-01
       -2   -1    0    0    0  501  0.00000000000E+00  0.00000000000E+00  0.19260108477E+04  0.19260108477E+04  0.25500000920E-02 0.  1.
        2   -1    0    0  501    0  0.00000000000E+00  0.00000000000E+00 -0.20602894820E+04  0.20602894820E+04  0.25500000920E-02 0. -1.
    10030    2    1    2    0    0  0.00000000000E+00  0.00000000000E+00 -0.13427863434E+03  0.39863003297E+04  0.39840380980E+04 0.  0.
        1    1    3    3  502    0  0.14472855052E+04  0.12377925175E+04 -0.65174348477E+03  0.20128425720E+04  0.50400001928E-02 0. -1.
       -1    1    3    3    0  502 -0.14472855052E+04 -0.12377925175E+04  0.51746485043E+03  0.19734577576E+04  0.50400001928E-02 0.  1.
</event>
<event>
 5   0  0.1879500E-08  0.4000122E+04  0.7818609E-02  0.8004522E-01
       -1   -1    0    0    0  501  0.00000000000E+00  0.00000000000E+00  0.13136524106E+04  0.13136524106E+04  0.50400001928E-02 0. -1.
        1   -1    0    0  501    0  0.00000000000E+00  0.00000000000E+00 -0.30451312507E+04  0.30451312507E+04  0.50400001928E-02 0.  1.
    10030    2    1    2    0    0  0.00000000000E+00  0.00000000000E+00 -0.17314788401E+04  0.43587836612E+04  0.40001220021E+04 0.  0.
        4    1    3    3  502    0 -0.66013895315E+03 -0.18330963851E+04 -0.37331724927E+03  0.19837825425E+04  0.12699999809E+01 0.  1.
       -4    1    3    3    0  502  0.66013895315E+03  0.18330963851E+04 -0.13581615908E+04  0.23750011188E+04  0.12699999809E+01 0. -1.
</event>
<event>
 5   0  0.5888700E-08  0.4002167E+04  0.7818609E-02  0.8004110E-01
        2   -1    0    0  501    0  0.00000000000E+00  0.00000000000E+00  0.24620546950E+04  0.24620546950E+04  0.25500000920E-02 0.  1.
       -2   -1    0    0    0  501  0.00000000000E+00  0.00000000000E+00 -0.16264200869E+04  0.16264200869E+04  0.25500000920E-02 0. -1.
    10030    2    1    2    0    0  0.00000000000E+00  0.00000000000E+00  0.83563460811E+03  0.40884747819E+04  0.40021670185E+04 0.  0.
        5    1    3    3  502    0 -0.90546752832E+03 -0.17742026727E+04  0.22225611137E+03  0.20042670574E+04  0.46999998093E+01 0. -1.
       -5    1    3    3    0  502  0.90546752832E+03  0.17742026727E+04  0.61337849674E+03  0.20842077245E+04  0.46999998093E+01 0.  1.
</event>
<event>
 5   0  0.1879500E-08  0.3993222E+04  0.7818609E-02  0.8005915E-01
        1   -1    0    0  501    0  0.00000000000E+00  0.00000000000E+00  0.16932129428E+04  0.16932129428E+04  0.50400001928E-02 0.  1.
       -1   -1    0    0    0  501  0.00000000000E+00  0.00000000000E+00 -0.23543735645E+04  0.23543735645E+04  0.50400001928E-02 0. -1.
    10030    2    1    2    0    0  0.00000000000E+00  0.00000000000E+00 -0.66116062174E+03  0.40475865073E+04  0.39932221534E+04 0.  0.
        2    1    3    3  502    0 -0.14012118810E+03 -0.19858339373E+04 -0.17590724910E+03  0.19985278918E+04  0.25500000920E-02 0. -1.
       -2    1    3    3    0  502  0.14012118810E+03  0.19858339373E+04 -0.48525337264E+03  0.20490586155E+04  0.25500000920E-02 0.  1.
</event>
<event>
 5   0  0.1879500E-08  0.4021814E+04  0.7818609E-02  0.8000160E-01
        1   -1    0    0  501    0  0.00000000000E+00  0.00000000000E+00  0.21649191391E+04  0.21649191391E+04  0.50400001928E-02 0. -1.
       -1   -1    0    0    0  501  0.00000000000E+00  0.00000000000E+00 -0.18678510893E+04  0.18678510893E+04  0.50400001928E-02 0.  1.
    10030    2    1    2    0    0  0.00000000000E+00  0.00000000000E+00  0.29706804980E+03  0.40327702284E+04  0.40218138058E+04 0.  0.
        5    1    3    3  502    0 -0.10746995772E+04  0.11518401741E+04 -0.11046745422E+04  0.19240693600E+04  0.46999998093E+01 0.  1.
       -5    1    3    3    0  502  0.10746995772E+04 -0.11518401741E+04  0.14017425920E+04  0.21087008684E+04  0.46999998093E+01 0. -1.
</event>
<event>
 5   0  0.1879500E-08  0.3986700E+04  0.7818609E-02  0.8007235E-01
       -1   -1    0    0    0  501  0.00000000000E+00  0.00000000000E+00  0.18500833549E+04  0.18500833549E+04  0.50400001928E-02 0.  1.
        1   -1    0    0  501    0  0.00000000000E+00  0.00000000000E+00 -0.21477109662E+04  0.21477109663E+04  0.50400001928E-02 0. -1.
    10030    2    1    2    0    0  0.00000000000E+00  0.00000000000E+00 -0.29762761132E+03  0.39977943212E+04  0.39867000438E+04 0.  0.
        3    1    3    3  502    0  0.11437859420E+04 -0.39857833811E+03 -0.17363597408E+04  0.21170867088E+04  0.10100000352E+00 0. -1.
       -3    1    3    3    0  502 -0.11437859420E+04  0.39857833811E+03  0.14387321295E+04  0.18807076124E+04  0.10100000352E+00 0.  1.
</event>
<event>
 5   0  0.5888700E-08  0.3999585E+04  0.7818609E-02  0.8004630E-01
       -2   -1    0    0    0  501  0.00000000000E+00  0.00000000000E+00  0.27678053703E+04  0.27678053703E+04  0.25500000920E-02 0.  1.
        2   -1    0    0  501    0  0.00000000000E+00  0.00000000000E+00 -0.14448884930E+04  0.14448884930E+04  0.25500000920E-02 0. -1.
    10030    2    1    2    0    0  0.00000000000E+00  0.00000000000E+00  0.13229168773E+04  0.42126938632E+04  0.39995850436E+04 0.  0.
        5    1    3    3  502    0 -0.10879797585E+04 -0.17473405471E+03  0.24191838121E+04  0.26583273597E+04  0.46999998093E+01 0.  1.
       -5    1    3    3    0  502  0.10879797585E+04  0.17473405471E+03 -0.10962669348E+04  0.15543665035E+04  0.46999998093E+01 0. -1.
</event>
<event>
 5   0  0.1879500E-08  0.3994762E+04  0.7818609E-02  0.8005604E-01
        1   -1    0    0  501    0  0.00000000000E+00  0.00000000000E+00  0.23713849119E+04  0.23713849119E+04  0.50400001928E-02 0.  1.
       -1   -1    0    0    0  501  0.00000000000E+00  0.00000000000E+00 -0.16823633969E+04  0.16823633969E+04  0.50400001928E-02 0. -1.
    10030    2    1    2    0    0  0.00000000000E+00  0.00000000000E+00  0.68902151506E+03  0.40537483088E+04  0.39947621585E+04 0.  0.
        2    1    3    3  502    0  0.79549005693E+03  0.40596823490E+03 -0.14684634127E+04  0.17187202893E+04  0.25500000920E-02 0. -1.
       -2    1    3    3    0  502 -0.79549005693E+03 -0.40596823490E+03  0.21574849277E+04  0.23350280195E+04  0.25500000920E-02 0.  1.
</event>
<event>
 5   0  0.1879500E-08  0.4015067E+04  0.7818609E-02  0.8001514E-01
       -1   -1    0    0    0  501  0.00000000000E+00  0.00000000000E+00  0.20001186259E+04  0.20001186259E+04  0.50400001928E-02 0. -1.
        1   -1    0    0  501    0  0.00000000000E+00  0.00000000000E+00 -0.20149758472E+04  0.20149758472E+04  0.50400001928E-02 0.  1.
    10030    2    1    2    0    0  0.00000000000E+00  0.00000000000E+00 -0.14857221223E+02  0.40150944731E+04  0.40150669846E+04 0.  0.
        3    1    3    3  502    0  0.90885195450E+03 -0.56437309791E+02 -0.17965729585E+04  0.20141676819E+04  0.10100000352E+00 0.  1.
       -3    1    3    3    0  502 -0.90885195450E+03  0.56437309791E+02  0.17817157373E+04  0.20009267912E+04  0.10100000352E+00 0. -1.
</event>
<event>
 5   0  0.5945387E-08  0.3982177E+04  0.7818609E-02  0.8008152E-01
        2   -1    0    0  501    0  0.00000000000E+00  0.00000000000E+00  0.16121670597E+04  0.16121670597E+04  0.25500000920E-02 0.  1.
       -2   -1    0    0    0  501  0.00000000000E+00  0.00000000000E+00 -0.24590713515E+04  0.24590713515E+04  0.25500000920E-02 0. -1.
    10030    2    1    2    0    0  0.00000000000E+00  0.00000000000E+00 -0.84690429181E+03  0.40712384111E+04  0.39821772086E+04 0.  0.
        3    1    3    3  502    0 -0.19846701091E+04 -0.24433268230E+02 -0.58484790276E+03  0.20691929601E+04  0.10100000352E+00 0. -1.
       -3    1    3    3    0  502  0.19846701091E+04  0.24433268230E+02 -0.26205638905E+03  0.20020454510E+04  0.10100000352E+00 0.  1.
</event>
<event>
 5   0  0.5888700E-08  0.4015359E+04  0.7818609E-02  0.8001455E-01
       -2   -1    0    0    0  501  0.00000000000E+00  0.00000000000E+00  0.21612451434E+04  0.21612451434E+04  0.25500000920E-02 0. -1.
        2   -1    0    0  501    0  0.00000000000E+00  0.00000000000E+00 -0.18650256698E+04  0.18650256698E+04  0.25500000920E-02 0.  1.
    10030    2    1    2    0    0  0.00000000000E+00  0.00000000000E+00  0.29621947358E+03  0.40262708132E+04  0.40153593469E+04 0.  0.
        5    1    3    3  502    0 -0.63318169494E+03  0.12684903039E+04  0.15735101709E+04  0.21180044991E+04  0.46999998093E+01 0. -1.
       -5    1    3    3    0  502  0.63318169494E+03 -0.12684903039E+04 -0.12772906974E+04  0.19082663141E+04  0.46999998093E+01 0.  1.
</event>
<event>
 5   0  0.6161563E-08  0.4010517E+04  0.7818609E-02  0.8002428E-01
        2   -1    0    0  501    0  0.00000000000E+00  0.00000000000E+00  0.23372183873E+04  0.23372183873E+04  0.25500000920E-02 0. -1.
       -2   -1    0    0    0  501  0.00000000000E+00  0.00000000000E+00 -0.17204476282E+04  0.17204476282E+04  0.25500000920E-02 0.  1.
    10030    2    1    2    0    0  0.00000000000E+00  0.00000000000E+00  0.61677075915E+03  0.40576660155E+04  0.40105170893E+04 0.  0.
        1    1    3    3  502    0  0.18972088177E+04  0.21022780933E+03  0.92998988857E+03  0.21233177395E+04  0.50400001928E-02 0. -1.
       -1    1    3    3    0  502 -0.18972088177E+04 -0.21022780933E+03 -0.31321912942E+03  0.19343482760E+04  0.50400001928E-02 0.  1.
</event>
<event>
 5   0  0.1879500E-08  0.3958626E+04  0.7818609E-02  0.8012945E-01
       -1   -1    0    0    0  501  0.00000000000E+00  0.00000000000E+00  0.31882917017E+04  0.31882917017E+04  0.50400001928E-02 0. -1.
        1   -1    0    0  501    0  0.00000000000E+00  0.00000000000E+00 -0.12287710716E+04  0.12287710716E+04  0.50400001928E-02 0.  1.
    10030    2    1    2    0    0  0.00000000000E+00  0.00000000000E+00  0.19595206300E+04  0.44170627733E+04  0.39586263330E+04 0.  0.
        4    1    3    3  502    0 -0.88697822815E+03  0.17677279975E+04  0.89271058208E+03  0.21699139261E+04  0.12699999809E+01 0. -1.
       -4    1    3    3    0  502  0.88697822815E+03 -0.17677279975E+04  0.10668100480E+04  0.22471488472E+04  0.12699999809E+01 0.  1.
</event>
<event>
 5   0  0.1879500E-08  0.4002578E+04  0.7818609E-02  0.8004027E-01
        1   -1    0    0  501    0  0.00000000000E+00  0.00000000000E+00  0.34575395561E+04  0.34575395561E+04  0.50400001928E-02 0.  1.
       -1   -1    0    0    0  501  0.00000000000E+00  0.00000000000E+00 -0.11583836322E+04  0.11583836323E+04  0.50400001928E-02 0. -1.
    10030    2    1    2    0    0  0.00000000000E+00  0.00000000000E+00  0.22991559239E+04  0.46159231884E+04  0.40025777842E+04 0.  0.
        5    1    3    3  502    0  0.55202740036E+03  0.95702909993E+03 -0.77480767505E+03  0.13494398735E+04  0.46999998093E+01 0. -1.
       -5    1    3    3    0  502 -0.55202740036E+03 -0.95702909993E+03  0.30739635989E+04  0.32664833149E+04  0.46999998093E+01 0.  1.
</event>
<event>
 5   0  0.1879500E-08  0.4000822E+04  0.7818609E-02  0.8004381E-01
        1   -1    0    0  501    0  0.00000000000E+00  0.00000000000E+00  0.22347737331E+04  0.22347737331E+04  0.50400001928E-02 0. -1.
       -1   -1    0    0    0  501  0.00000000000E+00  0.00000000000E+00 -0.17906257350E+04  0.17906257350E+04  0.50400001928E-02 0.  1.
    10030    2    1    2    0    0  0.00000000000E+00  0.00000000000E+00  0.44414799812E+03  0.40253994682E+04  0.40008215949E+04 0.  0.
        3    1    3    3  502    0 -0.17604516027E+04  0.16694101298E+03  0.11630111434E+04  0.21165193307E+04  0.10100000352E+00 0. -1.
       -3    1    3    3    0  502  0.17604516027E+04 -0.16694101298E+03 -0.71886314528E+03  0.19088801375E+04  0.10100000352E+00 0.  1.
</event>
<event>
 5   0  0.5951623E-08  0.3994485E+04  0.7818609E-02  0.8005660E-01
       -2   -1    0    0    0  501  0.00000000000E+00  0.00000000000E+00  0.14271302924E+04  0.14271302924E+04  0.25500000920E-02 0. -1.
        2   -1    0    0  501    0  0.00000000000E+00  0.00000000000E+00 -0.27951045653E+04  0.27951045653E+04  0.25500000920E-02 0.  1.
    10030    2    1    2    0    0  0.00000000000E+00  0.00000000000E+00 -0.13679742728E+04  0.42222348577E+04  0.39944853965E+04 0.  0.
        2    1    3    3  502    0  0.16767757763E+03  0.17526626400E+04  0.31265970582E+03  0.17882108912E+04  0.25500000920E-02 0. -1.
       -2    1    3    3    0  502 -0.16767757763E+03 -0.17526626400E+04 -0.16806339786E+04  0.24340239666E+04  0.25500000920E-02 0.  1.
</event>
<event>
 5   0  0.1879500E-08  0.3996021E+04  0.7818609E-02  0.8005350E-01
       -1   -1    0    0    0  501  0.00000000000E+00  0.00000000000E+00  0.15010816591E+04  0.15010816591E+04  0.50400001928E-02 0. -1.
        1   -1    0    0  501    0  0.00000000000E+00  0.00000000000E+00 -0.26594460053E+04  0.26594460054E+04  0.50400001928E-02 0.  1.
    10030    2    1    2    0    0  0.00000000000E+00  0.00000000000E+00 -0.11583643463E+04  0.41605276644E+04  0.39960208317E+04 0.  0.
        3    1    3    3  502    0 -0.64598685801E+02 -0.11157773332E+04  0.11451730290E+04  0.16001729044E+04  0.10100000352E+00 0. -1.
       -3    1    3    3    0  502  0.64598685801E+02  0.11157773332E+04 -0.23035373753E+04  0.25603547600E+04  0.10100000352E+00 0.  1.
</event>
<event>
 5   0  0.1879500E-08  0.4003786E+04  0.7818609E-02  0.8003783E-01
        1   -1    0    0  501    0  0.00000000000E+00  0.00000000000E+00  0.23938823285E+04  0.23938823285E+04  0.50400001928E-02 0. -1.
       -1   -1    0    0    0  501  0.00000000000E+00  0.00000000000E+00 -0.16740905057E+04  0.16740905057E+04  0.50400001928E-02 0.  1.
    10030    2    1    2    0    0  0.00000000000E+00  0.00000000000E+00  0.71979182275E+03  0.40679728342E+04  0.40037860472E+04 0.  0.
        2    1    3    3  502    0  0.13952455494E+04  0.11249580953E+04 -0.54621671070E+03  0.18736578008E+04  0.25500000920E-02 0.  1.
       -2    1    3    3    0  502 -0.13952455494E+04 -0.11249580953E+04  0.12660085335E+04  0.21943150335E+04  0.25500000920E-02 0. -1.
</event>
<event>
 5   0  0.1879500E-08  0.3999449E+04  0.7818609E-02  0.8004658E-01
        1   -1    0    0  501    0  0.00000000000E+00  0.00000000000E+00  0.25901873410E+04  0.25901873410E+04  0.50400001928E-02 0.  1.
       -1   -1    0    0    0  501  0.00000000000E+00  0.00000000000E+00 -0.15438643335E+04  0.15438643335E+04  0.50400001928E-02 0. -1.
    10030    2    1    2    0    0  0.00000000000E+00  0.00000000000E+00  0.10463230076E+04  0.41340516745E+04  0.39994488885E+04 0.  0.
        4    1    3    3  502    0 -0.53684575118E+03  0.16847139588E+04  0.14886375041E+04  0.23113865352E+04  0.12699999809E+01 0.  1.
       -4    1    3    3    0  502  0.53684575118E+03 -0.16847139588E+04 -0.44231449653E+03  0.18226651393E+04  0.12699999809E+01 0. -1.
</event>
<event>
 5   0  0.6161563E-08  0.3996865E+04  0.7818609E-02  0.8005179E-01
       -2   -1    0    0    0  501  0.00000000000E+00  0.00000000000E+00  0.11981029156E+04  0.11981029156E+04  0.25500000920E-02 0. -1.
        2   -1    0    0  501    0  0.00000000000E+00  0.00000000000E+00 -0.33333805418E+04  0.33333805418E+04  0.25500000920E-02 0.  1.
    10030    2    1    2    0    0  0.00000000000E+00  0.00000000000E+00 -0.21352776262E+04  0.45314834574E+04  0.39968652446E+04 0.  0.
        1    1    3    3  502    0  0.13668478822E+04 -0.83025075277E+03 -0.24263270370E+04  0.29059683990E+04  0.50400001928E-02 0.  1.
       -1    1    3    3    0  502 -0.13668478822E+04  0.83025075277E+03  0.29104941077E+03  0.16255150584E+04  0.50400001928E-02 0. -1.
</event>
<event>
 5   0  0.5945387E-08  0.3972140E+04  0.7818609E-02  0.8010191E-01
        2   -1    0    0  501    0  0.00000000000E+00  0.00000000000E+00  0.15730420063E+04  0.15730420063E+04  0.25500000920E-02 0.  1.
       -2   -1    0    0    0  501  0.00000000000E+00  0.00000000000E+00 -0.25075447878E+04  0.25075447878E+04  0.25500000920E-02 0. -1.
    10030    2    1    2    0    0  0.00000000000E+00  0.00000000000E+00 -0.93450278153E+03  0.40805867940E+04  0.39721396168E+04 0.  0.
        3    1    3    3  502    0  0.57844192179E+03 -0.14878869592E+04  0.74656167314E+03  0.17623158066E+04  0.10100000352E+00 0.  1.
       -3    1    3    3    0  502 -0.57844192179E+03  0.14878869592E+04 -0.16810644547E+04  0.23182709874E+04  0.10100000352E+00 0. -1.
</event>
<event>
 5   0  0.1879500E-08  0.4002453E+04  0.7818609E-02  0.8004052E-01
        1   -1    0    0  501    0  0.00000000000E+00  0.00000000000E+00  0.25543930730E+04  0.25543930730E+04  0.50400001928E-02 0. -1.
       -1   -1    0    0    0  501  0.00000000000E+00  0.00000000000E+00 -0.15678508592E+04  0.15678508592E+04  0.50400001928E-02 0.  1.
    10030    2    1    2    0    0  0.00000000000E+00  0.00000000000E+00  0.98654221372E+03  0.41222439322E+04  0.40024529350E+04 0.  0.
        2    1    3    3  502    0  0.19490602010E+04 -0.38894848881E+03  0.73435111431E+03  0.21188176309E+04  0.25500000920E-02 0.  1.
       -2    1    3    3    0  502 -0.19490602010E+04  0.38894848881E+03  0.25219109941E+03  0.20034263013E+04  0.25500000920E-02 0. -1.
</event>
<event>
 5   0  0.1879500E-08  0.3961564E+04  0.7818609E-02  0.8012345E-01
        1   -1    0    0  501    0  0.00000000000E+00  0.00000000000E+00  0.24130076457E+04  0.24130076457E+04  0.50400001928E-02 0. -1.
       -1   -1    0    0    0  501  0.00000000000E+00  0.00000000000E+00 -0.16259779979E+04  0.16259779979E+04  0.50400001928E-02 0.  1.
    10030    2    1    2    0    0  0.00000000000E+00  0.00000000000E+00  0.78702964785E+03  0.40389856436E+04  0.39615640046E+04 0.  0.
        5    1    3    3  502    0  0.85246274336E+03  0.98847048916E+03  0.19125002821E+04  0.23154796600E+04  0.46999998093E+01 0. -1.
       -5    1    3    3    0  502 -0.85246274336E+03 -0.98847048916E+03 -0.11254706343E+04  0.17235059836E+04  0.46999998093E+01 0.  1.
</event>
<event>
 5   0  0.5888700E-08  0.3788596E+04  0.7818609E-02  0.8048606E-01
        2   -1    0    0  501    0  0.00000000000E+00  0.00000000000E+00  0.24624581800E+04  0.24624581800E+04  0.25500000920E-02 0.  1.
       -2   -1    0    0    0  501  0.00000000000E+00  0.00000000000E+00 -0.14572290726E+04  0.14572290726E+04  0.25500000920E-02 0. -1.
    10030    2    1    2    0    0  0.00000000000E+00  0.00000000000E+00  0.10052291073E+04  0.39196872526E+04  0.37885963892E+04 0.  0.
        5    1    3    3  502    0 -0.17090879470E+04  0.81673250274E+03  0.48439943937E+03  0.19551722426E+04  0.46999998093E+01 0. -1.
       -5    1    3    3    0  502  0.17090879470E+04 -0.81673250274E+03  0.52082966797E+03  0.19645150100E+04  0.46999998093E+01 0.  1.
</event>
<event>
 5   0  0.6161563E-08  0.3964917E+04  0.7818609E-02  0.8011662E-01
        2   -1    0    0  501    0  0.00000000000E+00  0.00000000000E+00  0.18597927271E+04  0.18597927271E+04  0.25500000920E-02 0. -1.
       -2   -1    0    0    0  501  0.00000000000E+00  0.00000000000E+00 -0.21132149681E+04  0.21132149681E+04  0.25500000920E-02 0.  1.
    10030    2    1    2    0    0  0.00000000000E+00  0.00000000000E+00 -0.25342224104E+03  0.39730076951E+04  0.39649170626E+04 0.  0.
        1    1    3    3  502    0  0.87473697817E+03 -0.17786780231E+04 -0.16258273612E+03  0.19887919542E+04  0.50400001928E-02 0.  1.
       -1    1    3    3    0  502 -0.87473697817E+03  0.17786780231E+04 -0.90839504920E+02  0.19842157409E+04  0.50400001928E-02 0. -1.
</event>
<event>
 5   0  0.1879500E-08  0.4023800E+04  0.7818609E-02  0.7999762E-01
        1   -1    0    0  501    0  0.00000000000E+00  0.00000000000E+00  0.17378194189E+04  0.17378194189E+04  0.50400001928E-02 0.  1.
       -1   -1    0    0    0  501  0.00000000000E+00  0.00000000000E+00 -0.23292072696E+04  0.23292072696E+04  0.50400001928E-02 0. -1.
    10030    2    1    2    0    0  0.00000000000E+00  0.00000000000E+00 -0.59138785061E+03  0.40670266885E+04  0.40238000069E+04 0.  0.
        4    1    3    3  502    0  0.17300403318E+04 -0.57715239544E+03  0.56289951390E+03  0.19086649556E+04  0.12699999809E+01 0.  1.
       -4    1    3    3    0  502 -0.17300403318E+04  0.57715239544E+03 -0.11542873645E+04  0.21583617329E+04  0.12699999809E+01 0. -1.
</event>
<event>
 5   0  0.5846812E-08  0.4006356E+04  0.7818609E-02  0.8003266E-01
       -2   -1    0    0    0  501  0.00000000000E+00  0.00000000000E+00  0.17188038738E+04  0.17188038738E+04  0.25500000920E-02 0.  1.
        2   -1    0    0  501    0  0.00000000000E+00  0.00000000000E+00 -0.23346015128E+04  0.23346015128E+04  0.25500000920E-02 0. -1.
    10030    2    1    2    0    0  0.00000000000E+00  0.00000000000E+00 -0.61579763909E+03  0.40534053866E+04  0.40063560121E+04 0.  0.
        4    1    3    3  502    0 -0.46158655251E+03 -0.19178389657E+04  0.44838715867E+02  0.19731144334E+04  0.12699999809E+01 0.  1.
       -4    1    3    3    0  502  0.46158655251E+03  0.19178389657E+04 -0.66063635496E+03  0.20802909532E+04  0.12699999809E+01 0. -1.
</event>
<event>
 5   0  0.6161563E-08  0.4001793E+04  0.7818609E-02  0.8004185E-01
        2   -1    0    0  501    0  0.00000000000E+00  0.00000000000E+00  0.22165443435E+04  0.22165443435E+04  0.25500000920E-02 0.  1.
       -2   -1    0    0    0  501  0.00000000000E+00  0.00000000000E+00 -0.18062290708E+04  0.18062290708E+04  0.25500000920E-02 0. -1.
    10030    2    1    2    0    0  0.00000000000E+00  0.00000000000E+00  0.41031527270E+03  0.40227734144E+04  0.40017930132E+04 0.  0.
        1    1    3    3  502    0 -0.53200361721E+03  0.11707242286E+04  0.17461537104E+04  0.21685653895E+04  0.50400001928E-02 0.  1.
       -1    1    3    3    0  502  0.53200361721E+03 -0.11707242286E+04 -0.13358384377E+04  0.18542080249E+04  0.50400001928E-02 0. -1.
</event>
<event>
 5   0  0.5888700E-08  0.4023271E+04  0.7818609E-02  0.7999868E-01
        2   -1    0    0  501    0  0.00000000000E+00  0.00000000000E+00  0.24434879952E+04  0.24434879952E+04  0.25500000920E-02 0. -1.
       -2   -1    0    0    0  501  0.00000000000E+00  0.00000000000E+00 -0.16561069799E+04  0.16561069799E+04  0.25500000920E-02 0.  1.
    10030    2    1    2    0    0  0.00000000000E+00  0.00000000000E+00  0.78738101531E+03  0.40995949751E+04  0.40232710693E+04 0.  0.
        5    1    3    3  502    0  0.53316063260E+03 -0.11893843471E+04  0.19549982448E+04  0.23496671281E+04  0.46999998093E+01 0. -1.
       -5    1    3    3    0  502 -0.53316063260E+03  0.11893843471E+04 -0.11676172295E+04  0.17499278471E+04  0.46999998093E+01 0.  1.
</event>
<event>
 5   0  0.5888700E-08  0.3761868E+04  0.7818609E-02  0.8054388E-01
        2   -1    0    0  501    0  0.00000000000E+00  0.00000000000E+00  0.17289071960E+04  0.17289071960E+04  0.25500000920E-02 0.  1.
       -2   -1    0    0    0  501  0.00000000000E+00  0.00000000000E+00 -0.20463288261E+04  0.20463288261E+04  0.25500000920E-02 0. -1.
    10030    2    1    2    0    0  0.00000000000E+00  0.00000000000E+00 -0.31742163010E+03  0.37752360220E+04  0.37618679576E+04 0.  0.
        5    1    3    3  502    0  0.17424689074E+04  0.41464300320E+03  0.41758049299E+03  0.18391634706E+04  0.46999998093E+01 0. -1.
       -5    1    3    3    0  502 -0.17424689074E+04 -0.41464300320E+03 -0.73500212309E+03  0.19360725514E+04  0.46999998093E+01 0.  1.
</event>
<event>
 5   0  0.5888700E-08  0.4016799E+04  0.7818609E-02  0.8001166E-01
       -2   -1    0    0    0  501  0.00000000000E+00  0.00000000000E+00  0.20497840222E+04  0.20497840222E+04  0.25500000920E-02 0.  1.
        2   -1    0    0  501    0  0.00000000000E+00  0.00000000000E+00 -0.19678508558E+04  0.19678508558E+04  0.25500000920E-02 0. -1.
    10030    2    1    2    0    0  0.00000000000E+00  0.00000000000E+00  0.81933166363E+02  0.40176348780E+04  0.40167993439E+04 0.  0.
        5    1    3    3  502    0 -0.15580134989E+03  0.15387846877E+04  0.13224492207E+04  0.20349512051E+04  0.46999998093E+01 0.  1.
       -5    1    3    3    0  502  0.15580134989E+03 -0.15387846877E+04 -0.12405160543E+04  0.19826836729E+04  0.46999998093E+01 0. -1.
</event>
<event>
 5   0  0.1879500E-08  0.3945414E+04  0.7818609E-02  0.8015650E-01
       -1   -1    0    0    0  501  0.00000000000E+00  0.00000000000E+00  0.16022458152E+04  0.16022458152E+04  0.50400001928E-02 0. -1.
        1   -1    0    0  501    0  0.00000000000E+00  0.00000000000E+00 -0.24288235321E+04  0.24288235321E+04  0.50400001928E-02 0.  1.
    10030    2    1    2    0    0  0.00000000000E+00  0.00000000000E+00 -0.82657771689E+03  0.40310693473E+04  0.39454137122E+04 0.  0.
        5    1    3    3  502    0  0.43799848838E+03  0.11603522183E+03  0.15483530172E+04  0.16132966263E+04  0.46999998093E+01 0. -1.
       -5    1    3    3    0  502 -0.43799848838E+03 -0.11603522183E+03 -0.23749307341E+04  0.24177727210E+04  0.46999998093E+01 0.  1.
</event>
<event>
 5   0  0.6161563E-08  0.4002325E+04  0.7818609E-02  0.8004078E-01
       -2   -1    0    0    0  501  0.00000000000E+00  0.00000000000E+00  0.31410738331E+04  0.31410738331E+04  0.25500000920E-02 0.  1.
        2   -1    0    0  501    0  0.00000000000E+00  0.00000000000E+00 -0.12749303602E+04  0.12749303602E+04  0.25500000920E-02 0. -1.
    10030    2    1    2    0    0  0.00000000000E+00  0.00000000000E+00  0.18661434729E+04  0.44160041933E+04  0.40023245213E+04 0.  0.
        1    1    3    3  502    0 -0.11038476871E+04 -0.13261852265E+03 -0.90281528513E+03  0.14321811435E+04  0.50400001928E-02 0.  1.
       -1    1    3    3    0  502  0.11038476871E+04  0.13261852265E+03  0.27689587580E+04  0.29838230498E+04  0.50400001928E-02 0. -1.
</event>
<event>
 5   0  0.1879500E-08  0.4016832E+04  0.7818609E-02  0.8001160E-01
       -1   -1    0    0    0  501  0.00000000000E+00  0.00000000000E+00  0.18657267462E+04  0.18657267462E+04  0.50400001928E-02 0.  1.
        1   -1    0    0  501    0  0.00000000000E+00  0.00000000000E+00 -0.21620179666E+04  0.21620179666E+04  0.50400001928E-02 0. -1.
    10030    2    1    2    0    0  0.00000000000E+00  0.00000000000E+00 -0.29629122034E+03  0.40277447128E+04  0.40168319587E+04 0.  0.
        2    1    3    3  502    0 -0.22142187424E+03 -0.50377044382E+03  0.17886615542E+04  0.18713958592E+04  0.25500000920E-02 0.  1.
       -2    1    3    3    0  502  0.22142187424E+03  0.50377044382E+03 -0.20849527745E+04  0.21563488536E+04  0.25500000920E-02 0. -1.
</event>
<event>
 5   0  0.1879500E-08  0.3997848E+04  0.7818609E-02  0.8004981E-01
        1   -1    0    0  501    0  0.00000000000E+00  0.00000000000E+00  0.25114433602E+04  0.25114433602E+04  0.50400001928E-02 0. -1.
       -1   -1    0    0    0  501  0.00000000000E+00  0.00000000000E+00 -0.15909962723E+04  0.15909962723E+04  0.50400001928E-02 0.  1.
    10030    2    1    2    0    0  0.00000000000E+00  0.00000000000E+00  0.92044708794E+03  0.41024396325E+04  0.39978479332E+04 0.  0.
        4    1    3    3  502    0  0.13747541719E+04 -0.11357936292E+04 -0.46657698588E+03  0.18432774880E+04  0.12699999809E+01 0.  1.
       -4    1    3    3    0  502 -0.13747541719E+04  0.11357936292E+04  0.13870240738E+04  0.22591621445E+04  0.12699999809E+01 0. -1.
</event>
<event>
 5   0  0.1879500E-08  0.3979575E+04  0.7818609E-02  0.8008680E-01
       -1   -1    0    0    0  501  0.00000000000E+00  0.00000000000E+00  0.23679438739E+04  0.23679438739E+04  0.50400001928E-02 0. -1.
        1   -1    0    0  501    0  0.00000000000E+00  0.00000000000E+00 -0.16720221242E+04  0.16720221242E+04  0.50400001928E-02 0.  1.
    10030    2    1    2    0    0  0.00000000000E+00  0.00000000000E+00  0.69592174972E+03  0.40399659982E+04  0.39795751261E+04 0.  0.
        3    1    3    3  502    0 -0.80502259580E+03 -0.17334037703E+04 -0.21406906025E+03  0.19231681110E+04  0.10100000352E+00 0.  1.
       -3    1    3    3    0  502  0.80502259580E+03  0.17334037703E+04  0.90999080997E+03  0.21167978871E+04  0.10100000352E+00 0. -1.
</event>
<event>
 5   0  0.6161563E-08  0.4025774E+04  0.7818609E-02  0.7999367E-01
       -2   -1    0    0    0  501  0.00000000000E+00  0.00000000000E+00  0.25834470353E+04  0.25834470353E+04  0.25500000920E-02 0. -1.
        2   -1    0    0  501    0  0.00000000000E+00  0.00000000000E+00 -0.15683364102E+04  0.15683364102E+04  0.25500000920E-02 0.  1.
    10030    2    1    2    0    0  0.00000000000E+00  0.00000000000E+00  0.10151106251E+04  0.41517834455E+04  0.40257739873E+04 0.  0.
        1    1    3    3  502    0 -0.17255714983E+04 -0.99743273303E+03  0.21723914061E+03  0.20049094486E+04  0.50400001928E-02 0.  1.
       -1    1    3    3    0  502  0.17255714983E+04  0.99743273303E+03  0.79787148447E+03  0.21468739969E+04  0.50400001928E-02 0. -1.
</event>
<event>
 5   0  0.1879500E-08  0.4023851E+04  0.7818609E-02  0.7999752E-01
       -1   -1    0    0    0  501  0.00000000000E+00  0.00000000000E+00  0.14556536377E+04  0.14556536377E+04  0.50400001928E-02 0.  1.
        1   -1    0    0  501    0  0.00000000000E+00  0.00000000000E+00 -0.27807747220E+04  0.27807747220E+04  0.50400001928E-02 0. -1.
    10030    2    1    2    0    0  0.00000000000E+00  0.00000000000E+00 -0.13251210843E+04  0.42364283597E+04  0.40238513092E+04 0.  0.
        4    1    3    3  502    0  0.58918245904E+03  0.56668774271E+03  0.12729200053E+04  0.15128112640E+04  0.12699999809E+01 0.  1.
       -4    1    3    3    0  502 -0.58918245904E+03 -0.56668774271E+03 -0.25980410896E+04  0.27236170957E+04  0.12699999809E+01 0. -1.
</event>
<event>
 5   0  0.1879500E-08  0.4003153E+04  0.7818609E-02  0.8003911E-01
       -1   -1    0    0    0  501  0.00000000000E+00  0.00000000000E+00  0.28536164214E+04  0.28536164214E+04  0.50400001928E-02 0. -1.
        1   -1    0    0  501    0  0.00000000000E+00  0.00000000000E+00 -0.14039410309E+04  0.14039410309E+04  0.50400001928E-02 0.  1.
    10030    2    1    2    0    0  0.00000000000E+00  0.00000000000E+00  0.14496753905E+04  0.42575574522E+04  0.40031533472E+04 0.  0.
        4    1    3    3  502    0  0.37354824992E+03  0.11110867193E+04  0.24503669129E+04  0.27163121348E+04  0.12699999809E+01 0. -1.
       -4    1    3    3    0  502 -0.37354824992E+03 -0.11110867193E+04 -0.10006915224E+04  0.15412453175E+04  0.12699999809E+01 0.  1.
</event>
<event>
 5   0  0.1879500E-08  0.3909726E+04  0.7818609E-02  0.8023009E-01
        1   -1    0    0  501    0  0.00000000000E+00  0.00000000000E+00  0.20834810758E+04  0.20834810758E+04  0.50400001928E-02 0.  1.
       -1   -1    0    0    0  501  0.00000000000E+00  0.00000000000E+00 -0.18341847557E+04  0.18341847557E+04  0.50400001928E-02 0. -1.
    10030    2    1    2    0    0  0.00000000000E+00  0.00000000000E+00  0.24929632015E+03  0.39176658315E+04  0.39097259383E+04 0.  0.
        5    1    3    3  502    0  0.62539989555E+02  0.70730580031E+03  0.19496855713E+04  0.20749671473E+04  0.46999998093E+01 0.  1.
       -5    1    3    3    0  502 -0.62539989555E+02 -0.70730580031E+03 -0.17003892512E+04  0.18426986842E+04  0.46999998093E+01 0. -1.
</event>
<event>
 5   0  0.5951623E-08  0.3993617E+04  0.7818609E-02  0.8005835E-01
       -2   -1    0    0    0  501  0.00000000000E+00  0.00000000000E+00  0.22201251577E+04  0.22201251577E+04  0.25500000920E-02 0. -1.
        2   -1    0    0  501    0  0.00000000000E+00  0.00000000000E+00 -0.17959544567E+04  0.17959544567E+04  0.25500000920E-02 0.  1.
    10030    2    1    2    0    0  0.00000000000E+00  0.00000000000E+00  0.42417070096E+03  0.40160796144E+04  0.39936167425E+04 0.  0.
        2    1    3    3  502    0 -0.12822528464E+04 -0.84350860454E+03  0.14965970335E+04  0.21437074914E+04  0.25500000920E-02 0. -1.
       -2    1    3    3    0  502  0.12822528464E+04  0.84350860454E+03 -0.10724263326E+04  0.18723721230E+04  0.25500000920E-02 0.  1.
</event>
<event>
 5   0  0.5846812E-08  0.3998817E+04  0.7818609E-02  0.8004785E-01
       -2   -1    0    0    0  501  0.00000000000E+00  0.00000000000E+00  0.13081123342E+04  0.13081123342E+04  0.25500000920E-02 0. -1.
        2   -1    0    0  501    0  0.00000000000E+00  0.00000000000E+00 -0.30560333811E+04  0.30560333811E+04  0.25500000920E-02 0.  1.
    10030    2    1    2    0    0  0.00000000000E+00  0.00000000000E+00 -0.17479210470E+04  0.43641457153E+04  0.39988173049E+04 0.  0.
        4    1    3    3  502    0  0.75299759287E+03 -0.36635614782E+03 -0.28554344726E+04  0.29756898094E+04  0.12699999809E+01 0.  1.
       -4    1    3    3    0  502 -0.75299759287E+03  0.36635614782E+03  0.11075134256E+04  0.13884559059E+04  0.12699999809E+01 0. -1.
</event>
<event>
 5   0  0.5888700E-08  0.3989539E+04  0.7818609E-02  0.8006660E-01
        2   -1    0    0  501    0  0.00000000000E+00  0.00000000000E+00  0.19951203340E+04  0.19951203340E+04  0.25500000920E-02 0.  1.
       -2   -1    0    0    0  501  0.00000000000E+00  0.00000000000E+00 -0.19944190022E+04  0.19944190022E+04  0.25500000920E-02 0. -1.
    10030    2    1    2    0    0  0.00000000000E+00  0.00000000000E+00  0.70133181087E+00  0.39895393362E+04  0.39895392746E+04 0.  0.
        5    1    3    3  502    0 -0.51052522151E+03  0.27879948024E+03 -0.19077160982E+04  0.19944342439E+04  0.46999998093E+01 0. -1.
       -5    1    3    3    0  502  0.51052522151E+03 -0.27879948024E+03  0.19084174300E+04  0.19951050923E+04  0.46999998093E+01 0.  1.
</event>
<event>
 5   0  0.5945387E-08  0.4001846E+04  0.7818609E-02  0.8004174E-01
        2   -1    0    0  501    0  0.00000000000E+00  0.00000000000E+00  0.14847335362E+04  0.14847335363E+04  0.25500000920E-02 0.  1.
       -2   -1    0    0    0  501  0.00000000000E+00  0.00000000000E+00 -0.26965732704E+04  0.26965732704E+04  0.25500000920E-02 0. -1.
    10030    2    1    2    0    0  0.00000000000E+00  0.00000000000E+00 -0.12118397342E+04  0.41813068067E+04  0.40018459578E+04 0.  0.
        3    1    3    3  502    0 -0.14562850884E+04  0.10128689359E+04 -0.15731902964E+04  0.23709908180E+04  0.10100000352E+00 0.  1.
       -3    1    3    3    0  502  0.14562850884E+04 -0.10128689359E+04  0.36135056218E+03  0.18103159887E+04  0.10100000352E+00 0. -1.
</event>
<event>
 5   0  0.5888700E-08  0.3927706E+04  0.7818609E-02  0.8019291E-01
        2   -1    0    0  501    0  0.00000000000E+00  0.00000000000E+00  0.13253559802E+04  0.13253559802E+04  0.25500000920E-02 0. -1.
       -2   -1    0    0    0  501  0.00000000000E+00  0.00000000000E+00 -0.29099492208E+04  0.29099492208E+04  0.25500000920E-02 0.  1.
    10030    2    1    2    0    0  0.00000000000E+00  0.00000000000E+00 -0.15845932406E+04  0.42353052010E+04  0.39277059981E+04 0.  0.
        5    1    3    3  502    0 -0.22848103243E+03  0.18393532020E+04 -0.92410449661E+02  0.18557978244E+04  0.46999998093E+01 0. -1.
       -5    1    3    3    0  502  0.22848103243E+03 -0.18393532020E+04 -0.14921827909E+04  0.23795073766E+04  0.46999998093E+01 0.  1.
</event>
<event>
 5   0  0.5951623E-08  0.4011396E+04  0.7818609E-02  0.8002252E-01
       -2   -1    0    0    0  501  0.00000000000E+00  0.00000000000E+00  0.21909742434E+04  0.21909742434E+04  0.25500000920E-02 0.  1.
        2   -1    0    0  501    0  0.00000000000E+00  0.00000000000E+00 -0.18360891386E+04  0.18360891386E+04  0.25500000920E-02 0. -1.
    10030    2    1    2    0    0  0.00000000000E+00  0.00000000000E+00  0.35488510483E+03  0.40270633820E+04  0.40113957726E+04 0.  0.
        2    1    3    3  502    0 -0.27072920210E+03 -0.17860748536E+04  0.10523199853E+04  0.20906302961E+04  0.25500000920E-02 0.  1.
       -2    1    3    3    0  502  0.27072920210E+03  0.17860748536E+04 -0.69743488044E+03  0.19364330859E+04  0.25500000920E-02 0. -1.
</event>
<event>
 5   0  0.1879500E-08  0.4029675E+04  0.7818609E-02  0.7998587E-01
       -1   -1    0    0    0  501  0.00000000000E+00  0.00000000000E+00  0.17353122849E+04  0.17353122849E+04  0.50400001928E-02 0. -1.
        1   -1    0    0  501    0  0.00000000000E+00  0.00000000000E+00 -0.23393893090E+04  0.23393893090E+04  0.50400001928E-02 0.  1.
    10030    2    1    2    0    0  0.00000000000E+00  0.00000000000E+00 -0.60407702409E+03  0.40747015938E+04  0.40296754246E+04 0.  0.
        1    1    3    3  502    0  0.15583295227E+04 -0.78108191829E+03  0.71974289770E+03  0.18858710728E+04  0.50400001928E-02 0. -1.
       -1    1    3    3    0  502 -0.15583295227E+04  0.78108191829E+03 -0.13238199218E+04  0.21888305210E+04  0.50400001928E-02 0.  1.
</event>
<event>
 5   0  0.1879500E-08  0.4000530E+04  0.7818609E-02  0.8004440E-01
       -1   -1    0    0    0  501  0.00000000000E+00  0.00000000000E+00  0.18341222541E+04  0.18341222541E+04  0.50400001928E-02 0. -1.
        1   -1    0    0  501    0  0.00000000000E+00  0.00000000000E+00 -0.21814577474E+04  0.21814577474E+04  0.50400001928E-02 0.  1.
    10030    2    1    2    0    0  0.00000000000E+00  0.00000000000E+00 -0.34733549322E+03  0.40155800015E+04  0.40005300653E+04 0.  0.
        4    1    3    3  502    0  0.37255323234E+03 -0.64787986441E+03 -0.20360491407E+04  0.21688803438E+04  0.12699999809E+01 0.  1.
       -4    1    3    3    0  502 -0.37255323234E+03  0.64787986441E+03  0.16887136475E+04  0.18466996577E+04  0.12699999809E+01 0. -1.
</event>
<event>
 5   0  0.5846812E-08  0.3992869E+04  0.7818609E-02  0.8005987E-01
       -2   -1    0    0    0  501  0.00000000000E+00  0.00000000000E+00  0.25157859644E+04  0.25157859644E+04  0.25500000920E-02 0. -1.
        2   -1    0    0  501    0  0.00000000000E+00  0.00000000000E+00 -0.15842964753E+04  0.15842964753E+04  0.25500000920E-02 0.  1.
    10030    2    1    2    0    0  0.00000000000E+00  0.00000000000E+00  0.93148948911E+03  0.41000824397E+04  0.39928690617E+04 0.  0.
        4    1    3    3  502    0  0.28575709476E+03 -0.38049618120E+03 -0.15252121874E+04  0.15977197159E+04  0.12699999809E+01 0.  1.
       -4    1    3    3    0  502 -0.28575709476E+03  0.38049618120E+03  0.24567016765E+04  0.25023627238E+04  0.12699999809E+01 0. -1.
</event>
<event>
 5   0  0.5846812E-08  0.3972350E+04  0.7818609E-02  0.8010148E-01
       -2   -1    0    0    0  501  0.00000000000E+00  0.00000000000E+00  0.16938993656E+04  0.16938993656E+04  0.25500000920E-02 0.  1.
        2   -1    0    0  501    0  0.00000000000E+00  0.00000000000E+00 -0.23288817134E+04  0.23288817134E+04  0.25500000920E-02 0. -1.
    10030    2    1    2    0    0  0.00000000000E+00  0.00000000000E+00 -0.63498234781E+03  0.40227810790E+04  0.39723500636E+04 0.  0.
        4    1    3    3  502    0  0.36205120727E+03  0.57146600991E+03  0.15736306342E+04  0.17128833769E+04  0.12699999809E+01 0.  1.
       -4    1    3    3    0  502 -0.36205120727E+03 -0.57146600991E+03 -0.22086129820E+04  0.23098977021E+04  0.12699999809E+01 0. -1.
</event>
<event>
 5   0  0.1879500E-08  0.4000760E+04  0.7818609E-02  0.8004393E-01
       -1   -1    0    0    0  501  0.00000000000E+00  0.00000000000E+00  0.28599062668E+04  0.28599062668E+04  0.50400001928E-02 0.  1.
        1   -1    0    0  501    0  0.00000000000E+00  0.00000000000E+00 -0.13991789463E+04  0.13991789463E+04  0.50400001928E-02 0. -1.
    10030    2    1    2    0    0  0.00000000000E+00  0.00000000000E+00  0.14607273205E+04  0.42590852131E+04  0.40007602462E+04 0.  0.
        2    1    3    3  502    0 -0.16532732934E+03 -0.19797565522E+04  0.97946257400E+03  0.22149754097E+04  0.25500000920E-02 0. -1.
       -2    1    3    3    0  502  0.16532732934E+03  0.19797565522E+04  0.48126474651E+03  0.20441098033E+04  0.25500000920E-02 0.  1.
</event>
<event>
 5   0  0.1879500E-08  0.3971172E+04  0.7818609E-02  0.8010387E-01
       -1   -1    0    0    0  501  0.00000000000E+00  0.00000000000E+00  0.18904123858E+04  0.18904123858E+04  0.50400001928E-02 0.  1.
        1   -1    0    0  501    0  0.00000000000E+00  0.00000000000E+00 -0.20855514962E+04  0.20855514962E+04  0.50400001928E-02 0. -1.
    10030    2    1    2    0    0  0.00000000000E+00  0.00000000000E+00 -0.19513911038E+03  0.39759638820E+04  0.39711723103E+04 0.  0.
        2    1    3    3  502    0 -0.17236329139E+03 -0.91334828029E+03  0.16591523854E+04  0.19017625570E+04  0.25500000920E-02 0.  1.
       -2    1    3    3    0  502  0.17236329139E+03  0.91334828029E+03 -0.18542914957E+04  0.20742013250E+04  0.25500000920E-02 0. -1.
</event>
<event>
 5   0  0.5951623E-08  0.4011981E+04  0.7818609E-02  0.8002134E-01
        2   -1    0    0  501    0  0.00000000000E+00  0.00000000000E+00  0.13114697445E+04  0.13114697445E+04  0.25500000920E-02 0.  1.
       -2   -1    0    0    0  501  0.00000000000E+00  0.00000000000E+00 -0.30683121031E+04  0.30683121031E+04  0.25500000920E-02 0. -1.
    10030    2    1    2    0    0  0.00000000000E+00  0.00000000000E+00 -0.17568423586E+04  0.43797818477E+04  0.40119813011E+04 0.  0.
        2    1    3    3  502    0  0.90330449495E+03  0.17792192668E+04 -0.65358297524E+03  0.20997025778E+04  0.25500000920E-02 0. -1.
       -2    1    3    3    0  502 -0.90330449495E+03 -0.17792192668E+04 -0.11032593834E+04  0.22800792699E+04  0.25500000920E-02 0.  1.
</event>
<event>
 5   0  0.5945387E-08  0.4005874E+04  0.7818609E-02  0.8003363E-01
       -2   -1    0    0    0  501  0.00000000000E+00  0.00000000000E+00  0.18687006067E+04  0.18687006067E+04  0.25500000920E-02 0. -1.
        2   -1    0    0  501    0  0.00000000000E+00  0.00000000000E+00 -0.21468156180E+04  0.21468156180E+04  0.25500000920E-02 0.  1.
    10030    2    1    2    0    0  0.00000000000E+00  0.00000000000E+00 -0.27811501125E+03  0.40155162247E+04  0.40058735116E+04 0.  0.
        3    1    3    3  502    0 -0.13920472969E+04 -0.68378121991E+03 -0.14095480403E+04  0.20957523999E+04  0.10100000352E+00 0.  1.
       -3    1    3    3    0  502  0.13920472969E+04  0.68378121991E+03  0.11314330291E+04  0.19197638248E+04  0.10100000352E+00 0. -1.
</event>
<event>
 5   0  0.5951623E-08  0.3983606E+04  0.7818609E-02  0.8007862E-01
        2   -1    0    0  501    0  0.00000000000E+00  0.00000000000E+00  0.24039056686E+04  0.24039056686E+04  0.25500000920E-02 0. -1.
       -2   -1    0    0    0  501  0.00000000000E+00  0.00000000000E+00 -0.16503471250E+04  0.16503471250E+04  0.25500000920E-02 0.  1.
    10030    2    1    2    0    0  0.00000000000E+00  0.00000000000E+00  0.75355854360E+03  0.40542527936E+04  0.39836058083E+04 0.  0.
        2    1    3    3  502    0  0.47890883939E+03  0.73396755703E+03  0.21971351508E+04  0.23654735090E+04  0.25500000920E-02 0. -1.
       -2    1    3    3    0  502 -0.47890883939E+03 -0.73396755703E+03 -0.14435766072E+04  0.16887792846E+04  0.25500000920E-02 0.  1.
</event>
<event>
 5   0  0.6161563E-08  0.4012544E+04  0.7818609E-02  0.8002021E-01
       -2   -1    0    0    0  501  0.00000000000E+00  0.00000000000E+00  0.13281641583E+04  0.13281641583E+04  0.25500000920E-02 0.  1.
        2   -1    0    0  501    0  0.00000000000E+00  0.00000000000E+00 -0.30305941895E+04  0.30305941895E+04  0.25500000920E-02 0. -1.
    10030    2    1    2    0    0  0.00000000000E+00  0.00000000000E+00 -0.17024300312E+04  0.43587583478E+04  0.40125436226E+04 0.  0.
        1    1    3    3  502    0  0.10355094482E+04 -0.13303366306E+04 -0.20327451369E+04  0.26408574667E+04  0.50400001928E-02 0. -1.
       -1    1    3    3    0  502 -0.10355094482E+04  0.13303366306E+04  0.33031510573E+03  0.17179008810E+04  0.50400001928E-02 0.  1.
</event>
<event>
 5   0  0.1879500E-08  0.4030646E+04  0.7818609E-02  0.7998393E-01
       -1   -1    0    0    0  501  0.00000000000E+00  0.00000000000E+00  0.14630103593E+04  0.14630103593E+04  0.50400001928E-02 0.  1.
        1   -1    0    0  501    0  0.00000000000E+00  0.00000000000E+00 -0.27761441209E+04  0.27761441209E+04  0.50400001928E-02 0. -1.
    10030    2    1    2    0    0  0.00000000000E+00  0.00000000000E+00 -0.13131337616E+04  0.42391544803E+04  0.40306464037E+04 0.  0.
        5    1    3    3  502    0  0.14922167293E+04  0.34989669913E+02 -0.20807090494E+04  0.25607239763E+04  0.46999998093E+01 0. -1.
       -5    1    3    3    0  502 -0.14922167293E+04 -0.34989669913E+02  0.76757528783E+03  0.16784305040E+04  0.46999998093E+01 0.  1.
</event>
<event>
 5   0  0.5888700E-08  0.3889652E+04  0.7818609E-02  0.8027185E-01
        2   -1    0    0  501    0  0.00000000000E+00  0.00000000000E+00  0.23873186590E+04  0.23873186590E+04  0.25500000920E-02 0.  1.
       -2   -1    0    0    0  501  0.00000000000E+00  0.00000000000E+00 -0.15843501188E+04  0.15843501188E+04  0.25500000920E-02 0. -1.
    10030    2    1    2    0    0  0.00000000000E+00  0.00000000000E+00  0.80296854017E+03  0.39716687779E+04  0.38896522215E+04 0.  0.
        5    1    3    3  502    0  0.98945538029E+03  0.93440584612E+03  0.18200919683E+04  0.22726401163E+04  0.46999998093E+01 0.  1.
       -5    1    3    3    0  502 -0.98945538029E+03 -0.93440584612E+03 -0.10171234282E+04  0.16990286616E+04  0.46999998093E+01 0. -1.
</event>
<event>
 5   0  0.5846812E-08  0.3999367E+04  0.7818609E-02  0.8004674E-01
       -2   -1    0    0    0  501  0.00000000000E+00  0.00000000000E+00  0.16653782166E+04  0.16653782166E+04  0.25500000920E-02 0.  1.
        2   -1    0    0  501    0  0.00000000000E+00  0.00000000000E+00 -0.24010965402E+04  0.24010965402E+04  0.25500000920E-02 0. -1.
    10030    2    1    2    0    0  0.00000000000E+00  0.00000000000E+00 -0.73571832353E+03  0.40664747568E+04  0.39993668869E+04 0.  0.
        4    1    3    3  502    0  0.10125349136E+04 -0.16810542848E+04 -0.75844258603E+03  0.21039028563E+04  0.12699999809E+01 0. -1.
       -4    1    3    3    0  502 -0.10125349136E+04  0.16810542848E+04  0.22724262493E+02  0.19625719005E+04  0.12699999809E+01 0.  1.
</event>
<event>
 5   0  0.5951623E-08  0.3780201E+04  0.7818609E-02  0.8050417E-01
       -2   -1    0    0    0  501  0.00000000000E+00  0.00000000000E+00  0.13952523755E+04  0.13952523755E+04  0.25500000920E-02 0.  1.
        2   -1    0    0  501    0  0.00000000000E+00  0.00000000000E+00 -0.25604541056E+04  0.25604541056E+04  0.25500000920E-02 0. -1.
    10030    2    1    2    0    0  0.00000000000E+00  0.00000000000E+00 -0.11652017300E+04  0.39557064811E+04  0.37802008800E+04 0.  0.
        2    1    3    3  502    0 -0.41409157829E+03  0.15528305508E+04 -0.16236386106E+04  0.22845036425E+04  0.25500000920E-02 0. -1.
       -2    1    3    3    0  502  0.41409157829E+03 -0.15528305508E+04  0.45843688056E+03  0.16712028387E+04  0.25500000920E-02 0.  1.
</event>
<event>
 5   0  0.1879500E-08  0.3970556E+04  0.7818609E-02  0.8010513E-01
        1   -1    0    0  501    0  0.00000000000E+00  0.00000000000E+00  0.21382285625E+04  0.21382285625E+04  0.50400001928E-02 0. -1.
       -1   -1    0    0    0  501  0.00000000000E+00  0.00000000000E+00 -0.18432685797E+04  0.18432685797E+04  0.50400001928E-02 0.  1.
    10030    2    1    2    0    0  0.00000000000E+00  0.00000000000E+00  0.29495998277E+03  0.39814971422E+04  0.39705563971E+04 0.  0.
        5    1    3    3  502    0 -0.48511940949E+03 -0.41432333564E+03 -0.17376743593E+04  0.18510912827E+04  0.46999998093E+01 0.  1.
       -5    1    3    3    0  502  0.48511940949E+03  0.41432333564E+03  0.20326343420E+04  0.21304058595E+04  0.46999998093E+01 0. -1.
</event>
<event>
 5   0  0.1879500E-08  0.3947044E+04  0.7818609E-02  0.8015316E-01
       -1   -1    0    0    0  501  0.00000000000E+00  0.00000000000E+00  0.30011442385E+04  0.30011442385E+04  0.50400001928E-02 0. -1.
        1   -1    0    0  501    0  0.00000000000E+00  0.00000000000E+00 -0.12977677840E+04  0.12977677840E+04  0.50400001928E-02 0.  1.
    10030    2    1    2    0    0  0.00000000000E+00  0.00000000000E+00  0.17033764545E+04  0.42989120225E+04  0.39470436065E+04 0.  0.
        5    1    3    3  502    0 -0.12232933237E+04 -0.48851724075E+03 -0.74890283604E+03  0.15152469099E+04  0.46999998093E+01 0.  1.
       -5    1    3    3    0  502  0.12232933237E+04  0.48851724075E+03  0.24522792905E+04  0.27836651126E+04  0.46999998093E+01 0. -1.
</event>
<event>
 5   0  0.6161563E-08  0.3990773E+04  0.7818609E-02  0.8006411E-01
       -2   -1    0    0    0  501  0.00000000000E+00  0.00000000000E+00  0.15862341956E+04  0.15862341956E+04  0.25500000920E-02 0.  1.
        2   -1    0    0  501    0  0.00000000000E+00  0.00000000000E+00 -0.25100749951E+04  0.25100749951E+04  0.25500000920E-02 0. -1.
    10030    2    1    2    0    0  0.00000000000E+00  0.00000000000E+00 -0.92384079948E+03  0.40963091907E+04  0.39907727527E+04 0.  0.
        1    1    3    3  502    0 -0.91214428142E+03  0.15982854231E+04 -0.12537104114E+04  0.22267270330E+04  0.50400001928E-02 0.  1.
       -1    1    3    3    0  502  0.91214428142E+03 -0.15982854231E+04  0.32986961189E+03  0.18695821578E+04  0.50400001928E-02 0. -1.
</event>
<event>
 5   0  0.5888700E-08  0.4001914E+04  0.7818609E-02  0.8004160E-01
        2   -1    0    0  501    0  0.00000000000E+00  0.00000000000E+00  0.14559731817E+04  0.14559731817E+04  0.25500000920E-02 0. -1.
       -2   -1    0    0    0  501  0.00000000000E+00  0.00000000000E+00 -0.27499336260E+04  0.27499336260E+04  0.25500000920E-02 0.  1.
    10030    2    1    2    0    0  0.00000000000E+00  0.00000000000E+00 -0.12939604443E+04  0.42059068076E+04  0.40019143473E+04 0.  0.
        5    1    3    3  502    0  0.18451684956E+04  0.76868524427E+03 -0.55132579978E+03  0.20735250202E+04  0.46999998093E+01 0. -1.
       -5    1    3    3    0  502 -0.18451684956E+04 -0.76868524427E+03 -0.74263464450E+03  0.21323817874E+04  0.46999998093E+01 0.  1.
</event>
<event>
 5   0  0.5888700E-08  0.4004184E+04  0.7818609E-02  0.8003703E-01
        2   -1    0    0  501    0  0.00000000000E+00  0.00000000000E+00  0.18315638793E+04  0.18315638793E+04  0.25500000920E-02 0. -1.
       -2   -1    0    0    0  501  0.00000000000E+00  0.00000000000E+00 -0.21884975117E+04  0.21884975118E+04  0.25500000920E-02 0.  1.
    10030    2    1    2    0    0  0.00000000000E+00  0.00000000000E+00 -0.35693363243E+03  0.40200613911E+04  0.40041843077E+04 0.  0.
        5    1    3    3  502    0 -0.15379556874E+03 -0.10426418200E+04 -0.18874489886E+04  0.21617679839E+04  0.46999998093E+01 0.  1.
       -5    1    3    3    0  502  0.15379556874E+03  0.10426418200E+04  0.15305153561E+04  0.18582934072E+04  0.46999998093E+01 0. -1.
</event>
<event>
 5   0  0.1879500E-08  0.3998609E+04  0.7818609E-02  0.8004827E-01
        1   -1    0    0  501    0  0.00000000000E+00  0.00000000000E+00  0.14783985597E+04  0.14783985597E+04  0.50400001928E-02 0.  1.
       -1   -1    0    0    0  501  0.00000000000E+00  0.00000000000E+00 -0.27037482861E+04  0.27037482861E+04  0.50400001928E-02 0. -1.
    10030    2    1    2    0    0  0.00000000000E+00  0.00000000000E+00 -0.12253497264E+04  0.41821468458E+04  0.39986085440E+04 0.  0.
        4    1    3    3  502    0 -0.15233002650E+02 -0.37263575556E+03 -0.26670446547E+04  0.26929942915E+04  0.12699999809E+01 0. -1.
       -4    1    3    3    0  502  0.15233002650E+02  0.37263575556E+03  0.14416949284E+04  0.14891525543E+04  0.12699999809E+01 0.  1.
</event>
<event>
 5   0  0.1879500E-08  0.4006736E+04  0.7818609E-02  0.8003189E-01
       -1   -1    0    0    0  501  0.00000000000E+00  0.00000000000E+00  0.23265819992E+04  0.23265819992E+04  0.50400001928E-02 0.  1.
        1   -1    0    0  501    0  0.00000000000E+00  0.00000000000E+00 -0.17250556084E+04  0.17250556084E+04  0.50400001928E-02 0. -1.
    10030    2    1    2    0    0  0.00000000000E+00  0.00000000000E+00  0.60152639083E+03  0.40516376076E+04  0.40067359914E+04 0.  0.
        4    1    3    3  502    0 -0.19429487136E+03  0.85208635792E+03  0.21236519631E+04  0.22964539907E+04  0.12699999809E+01 0.  1.
       -4    1    3    3    0  502  0.19429487136E+03 -0.85208635792E+03 -0.15221255723E+04  0.17551836169E+04  0.12699999809E+01 0. -1.
</event>
<event>
 5   0  0.1879500E-08  0.4016895E+04  0.7818609E-02  0.8001147E-01
       -1   -1    0    0    0  501  0.00000000000E+00  0.00000000000E+00  0.18442906275E+04  0.18442906275E+04  0.50400001928E-02 0.  1.
        1   -1    0    0  501    0  0.00000000000E+00  0.00000000000E+00 -0.21872156646E+04  0.21872156646E+04  0.50400001928E-02 0. -1.
    10030    2    1    2    0    0  0.00000000000E+00  0.00000000000E+00 -0.34292503703E+03  0.40315062921E+04  0.40168949952E+04 0.  0.
        2    1    3    3  502    0  0.87596024519E+03  0.96382675978E+03 -0.17059427920E+04  0.21462779838E+04  0.25500000920E-02 0. -1.
       -2    1    3    3    0  502 -0.87596024519E+03 -0.96382675978E+03  0.13630177550E+04  0.18852283083E+04  0.25500000920E-02 0.  1.
</event>
<event>
 5   0  0.6161563E-08  0.4014279E+04  0.7818609E-02  0.8001672E-01
       -2   -1    0    0    0  501  0.00000000000E+00  0.00000000000E+00  0.16905580226E+04  0.16905580226E+04  0.25500000920E-02 0.  1.
        2   -1    0    0  501    0  0.00000000000E+00  0.00000000000E+00 -0.23830057834E+04  0.23830057834E+04  0.25500000920E-02 0. -1.
    10030    2    1    2    0    0  0.00000000000E+00  0.00000000000E+00 -0.69244776082E+03  0.40735638060E+04  0.40142792852E+04 0.  0.
        1    1    3    3  502    0  0.10033909224E+04  0.14586617170E+04  0.61332118687E+03  0.18736729240E+04  0.50400001928E-02 0.  1.
       -1    1    3    3    0  502 -0.10033909224E+04 -0.14586617170E+04 -0.13057689477E+04  0.21998908820E+04  0.50400001928E-02 0. -1.
</event>
<event>
 5   0  0.5888700E-08  0.4015763E+04  0.7818609E-02  0.8001374E-01
       -2   -1    0    0    0  501  0.00000000000E+00  0.00000000000E+00  0.18241969385E+04  0.18241969385E+04  0.25500000920E-02 0. -1.
        2   -1    0    0  501    0  0.00000000000E+00  0.00000000000E+00 -0.22100620962E+04  0.22100620962E+04  0.25500000920E-02 0.  1.
    10030    2    1    2    0    0  0.00000000000E+00  0.00000000000E+00 -0.38586515771E+03  0.40342590348E+04  0.40157631952E+04 0.  0.
        5    1    3    3  502    0  0.15367088099E+04  0.26639815950E+03  0.10774567008E+04  0.18956204731E+04  0.46999998093E+01 0. -1.
       -5    1    3    3    0  502 -0.15367088099E+04 -0.26639815950E+03 -0.14633218585E+04  0.21386385617E+04  0.46999998093E+01 0.  1.
</event>
<event>
 5   0  0.5945387E-08  0.3999262E+04  0.7818609E-02  0.8004695E-01
       -2   -1    0    0    0  501  0.00000000000E+00  0.00000000000E+00  0.16299099742E+04  0.16299099742E+04  0.25500000920E-02 0. -1.
        2   -1    0    0  501    0  0.00000000000E+00  0.00000000000E+00 -0.24532178436E+04  0.24532178436E+04  0.25500000920E-02 0.  1.
    10030    2    1    2    0    0  0.00000000000E+00  0.00000000000E+00 -0.82330786934E+03  0.40831278178E+04  0.39992620480E+04 0.  0.
        3    1    3    3  502    0  0.20329160714E+03 -0.23361094863E+03 -0.24285865778E+04  0.24482512797E+04  0.10100000352E+00 0.  1.
       -3    1    3    3    0  502 -0.20329160714E+03  0.23361094863E+03  0.16052787084E+04  0.16348765381E+04  0.10100000352E+00 0. -1.
</event>
<event>
 5   0  0.1879500E-08  0.4087530E+04  0.7818609E-02  0.7987118E-01
        1   -1    0    0  501    0  0.00000000000E+00  0.00000000000E+00  0.28394545799E+04  0.28394545799E+04  0.50400001928E-02 0. -1.
       -1   -1    0    0    0  501  0.00000000000E+00  0.00000000000E+00 -0.14710482554E+04  0.14710482554E+04  0.50400001928E-02 0.  1.
    10030    2    1    2    0    0  0.00000000000E+00  0.00000000000E+00  0.13684063245E+04  0.43105028353E+04  0.40875296726E+04 0.  0.
        1    1    3    3  502    0 -0.60338691551E+03  0.68059476577E+03  0.26142564763E+04  0.27679634985E+04  0.50400001928E-02 0. -1.
       -1    1    3    3    0  502  0.60338691551E+03 -0.68059476577E+03 -0.12458501518E+04  0.15425393368E+04  0.50400001928E-02 0.  1.
</event>
<event>
 5   0  0.6161563E-08  0.3998434E+04  0.7818609E-02  0.8004863E-01
        2   -1    0    0  501    0  0.00000000000E+00  0.00000000000E+00  0.26429231551E+04  0.26429231551E+04  0.25500000920E-02 0. -1.
       -2   -1    0    0    0  501  0.00000000000E+00  0.00000000000E+00 -0.15122907553E+04  0.15122907553E+04  0.25500000920E-02 0.  1.
    10030    2    1    2    0    0  0.00000000000E+00  0.00000000000E+00  0.11306323998E+04  0.41552139103E+04  0.39984338205E+04 0.  0.
        1    1    3    3  502    0 -0.15350516262E+04  0.11044545108E+04  0.12393344562E+04  0.22610071110E+04  0.50400001928E-02 0. -1.
       -1    1    3    3    0  502  0.15350516262E+04 -0.11044545108E+04 -0.10870205638E+03  0.18942067993E+04  0.50400001928E-02 0.  1.
</event>
<event>
 5   0  0.1879500E-08  0.3989340E+04  0.7818609E-02  0.8006700E-01
       -1   -1    0    0    0  501  0.00000000000E+00  0.00000000000E+00  0.20224239934E+04  0.20224239934E+04  0.50400001928E-02 0.  1.
        1   -1    0    0  501    0  0.00000000000E+00  0.00000000000E+00 -0.19672967766E+04  0.19672967766E+04  0.50400001928E-02 0. -1.
    10030    2    1    2    0    0  0.00000000000E+00  0.00000000000E+00  0.55127216717E+02  0.39897207700E+04  0.39893398968E+04 0.  0.
        4    1    3    3  502    0 -0.22506610754E+03  0.94369808700E+03 -0.17154412051E+04  0.19707767437E+04  0.12699999809E+01 0. -1.
       -4    1    3    3    0  502  0.22506610754E+03 -0.94369808700E+03  0.17705684219E+04  0.20189440263E+04  0.12699999809E+01 0.  1.
</event>
<event>
 5   0  0.5945387E-08  0.4000141E+04  0.7818609E-02  0.8004518E-01
        2   -1    0    0  501    0  0.00000000000E+00  0.00000000000E+00  0.15249768747E+04  0.15249768747E+04  0.25500000920E-02 0.  1.
       -2   -1    0    0    0  501  0.00000000000E+00  0.00000000000E+00 -0.26231753316E+04  0.26231753316E+04  0.25500000920E-02 0. -1.
    10030    2    1    2    0    0  0.00000000000E+00  0.00000000000E+00 -0.10981984569E+04  0.41481522063E+04  0.40001408570E+04 0.  0.
        3    1    3    3  502    0 -0.72103860766E+03  0.18435841016E+04 -0.84529470609E+03  0.21524920822E+04  0.10100000352E+00 0. -1.
       -3    1    3    3    0  502  0.72103860766E+03 -0.18435841016E+04 -0.25290375085E+03  0.19956601241E+04  0.10100000352E+00 0.  1.
</event>
<event>
 5   0  0.5846812E-08  0.3971807E+04  0.7818609E-02  0.8010258E-01
        2   -1    0    0  501    0  0.00000000000E+00  0.00000000000E+00  0.14877509651E+04  0.14877509651E+04  0.25500000920E-02 0. -1.
       -2   -1    0    0    0  501  0.00000000000E+00  0.00000000000E+00 -0.26508557562E+04  0.26508557562E+04  0.25500000920E-02 0.  1.
    10030    2    1    2    0    0  0.00000000000E+00  0.00000000000E+00 -0.11631047911E+04  0.41386067213E+04  0.39718072509E+04 0.  0.
        4    1    3    3  502    0 -0.11667147853E+04 -0.65286742961E+03  0.94856888479E+03  0.16392814929E+04  0.12699999809E+01 0. -1.
       -4    1    3    3    0  502  0.11667147853E+04  0.65286742961E+03 -0.21116736759E+04  0.24993252284E+04  0.12699999809E+01 0.  1.
</event>
<event>
 5   0  0.1879500E-08  0.4032821E+04  0.7818609E-02  0.7997958E-01
       -1   -1    0    0    0  501  0.00000000000E+00  0.00000000000E+00  0.18716837085E+04  0.18716837086E+04  0.50400001928E-02 0.  1.
        1   -1    0    0  501    0  0.00000000000E+00  0.00000000000E+00 -0.21723286363E+04  0.21723286363E+04  0.50400001928E-02 0. -1.
    10030    2    1    2    0    0  0.00000000000E+00  0.00000000000E+00 -0.30064492775E+03  0.40440123449E+04  0.40328214035E+04 0.  0.
        3    1    3    3  502    0  0.13491911129E+04 -0.14974849723E+04 -0.94183123276E+02  0.20178325927E+04  0.10100000352E+00 0.  1.
       -3    1    3    3    0  502 -0.13491911129E+04  0.14974849723E+04 -0.20646180448E+03  0.20261797522E+04  0.10100000352E+00 0. -1.
</event>
<event>
 5   0  0.6161563E-08  0.3842527E+04  0.7818609E-02  0.8037090E-01
        2   -1    0    0  501    0  0.00000000000E+00  0.00000000000E+00  0.24534155266E+04  0.24534155266E+04  0.25500000920E-02 0.  1.
       -2   -1    0    0    0  501  0.00000000000E+00  0.00000000000E+00 -0.15045369460E+04  0.15045369460E+04  0.25500000920E-02 0. -1.
    10030    2    1    2    0    0  0.00000000000E+00  0.00000000000E+00  0.94887858061E+03  0.39579524726E+04  0.38425274514E+04 0.  0.
        1    1    3    3  502    0 -0.27922652628E+03  0.33317070993E+03  0.24020941790E+04  0.24411117590E+04  0.50400001928E-02 0.  1.
       -1    1    3    3    0  502  0.27922652628E+03 -0.33317070993E+03 -0.14532155984E+04  0.15168407136E+04  0.50400001928E-02 0. -1.
</event>
<event>
 5   0  0.1879500E-08  0.4007222E+04  0.7818609E-02  0.8003091E-01
        1   -1    0    0  501    0  0.00000000000E+00  0.00000000000E+00  0.12831512226E+04  0.12831512227E+04  0.50400001928E-02 0. -1.
       -1   -1    0    0    0  501  0.00000000000E+00  0.00000000000E+00 -0.31285925405E+04  0.31285925405E+04  0.50400001928E-02 0.  1.
    10030    2    1    2    0    0  0.00000000000E+00  0.00000000000E+00 -0.18454413178E+04  0.44117437631E+04  0.40072221518E+04 0.  0.
        5    1    3    3  502    0  0.17053156711E+04 -0.50217387998E+03 -0.19402225676E+04  0.26314949830E+04  0.46999998093E+01 0.  1.
       -5    1    3    3    0  502 -0.17053156711E+04  0.50217387998E+03  0.94781249741E+02  0.17802487801E+04  0.46999998093E+01 0. -1.
</event>
<event>
 5   0  0.1879500E-08  0.3999698E+04  0.7818609E-02  0.8004607E-01
       -1   -1    0    0    0  501  0.00000000000E+00  0.00000000000E+00  0.19979392948E+04  0.19979392948E+04  0.50400001928E-02 0. -1.
        1   -1    0    0  501    0  0.00000000000E+00  0.00000000000E+00 -0.20017607709E+04  0.20017607709E+04  0.50400001928E-02 0.  1.
    10030    2    1    2    0    0  0.00000000000E+00  0.00000000000E+00 -0.38214761564E+01  0.39997000657E+04  0.39996982401E+04 0.  0.
        5    1    3    3  502    0  0.11911295416E+04 -0.10158000517E+03 -0.16051164881E+04  0.20013818009E+04  0.46999998093E+01 0.  1.
       -5    1    3    3    0  502 -0.11911295416E+04  0.10158000517E+03  0.16012950120E+04  0.19983182649E+04  0.46999998093E+01 0. -1.
</event>
<event>
 5   0  0.1879500E-08  0.3963164E+04  0.7818609E-02  0.8012019E-01
       -1   -1    0    0    0  501  0.00000000000E+00  0.00000000000E+00  0.20073183930E+04  0.20073183930E+04  0.50400001928E-02 0. -1.
        1   -1    0    0  501    0  0.00000000000E+00  0.00000000000E+00 -0.19561758737E+04  0.19561758737E+04  0.50400001928E-02 0.  1.
    10030    2    1    2    0    0  0.00000000000E+00  0.00000000000E+00  0.51142519243E+02  0.39634942667E+04  0.39631642970E+04 0.  0.
        1    1    3    3  502    0 -0.11142935767E+04 -0.10490943042E+04 -0.12332705187E+04  0.19655038047E+04  0.50400001928E-02 0.  1.
       -1    1    3    3    0  502  0.11142935767E+04  0.10490943042E+04  0.12844130379E+04  0.19979904620E+04  0.50400001928E-02 0. -1.
</event>
<event>
 5   0  0.1879500E-08  0.3974683E+04  0.7818609E-02  0.8009673E-01
        1   -1    0    0  501    0  0.00000000000E+00  0.00000000000E+00  0.23296117654E+04  0.23296117654E+04  0.50400001928E-02 0.  1.
       -1   -1    0    0    0  501  0.00000000000E+00  0.00000000000E+00 -0.16953581100E+04  0.16953581100E+04  0.50400001928E-02 0. -1.
    10030    2    1    2    0    0  0.00000000000E+00  0.00000000000E+00  0.63425365535E+03  0.40249698754E+04  0.39746829809E+04 0.  0.
        3    1    3    3  502    0  0.31376422134E+03 -0.34642555392E+03  0.22731621557E+04  0.23207164513E+04  0.10100000352E+00 0.  1.
       -3    1    3    3    0  502 -0.31376422134E+03  0.34642555392E+03 -0.16389085003E+04  0.17042534241E+04  0.10100000352E+00 0. -1.
</event>
<event>
 5   0  0.1879500E-08  0.4001857E+04  0.7818609E-02  0.8004172E-01
       -1   -1    0    0    0  501  0.00000000000E+00  0.00000000000E+00  0.14847279968E+04  0.14847279968E+04  0.50400001928E-02 0.  1.
        1   -1    0    0  501    0  0.00000000000E+00  0.00000000000E+00 -0.26965984692E+04  0.26965984692E+04  0.50400001928E-02 0. -1.
    10030    2    1    2    0    0  0.00000000000E+00  0.00000000000E+00 -0.12118704724E+04  0.41813264660E+04  0.40018571905E+04 0.  0.
        3    1    3    3  502    0 -0.42950758913E+02  0.62741360996E+03 -0.25906548142E+04  0.26658929052E+04  0.10100000352E+00 0. -1.
       -3    1    3    3    0  502  0.42950758913E+02 -0.62741360996E+03  0.13787843418E+04  0.15154335607E+04  0.10100000352E+00 0.  1.
</event>
<event>
 5   0  0.1879500E-08  0.4017936E+04  0.7818609E-02  0.8000938E-01
        1   -1    0    0  501    0  0.00000000000E+00  0.00000000000E+00  0.22097016504E+04  0.22097016504E+04  0.50400001928E-02 0.  1.
       -1   -1    0    0    0  501  0.00000000000E+00  0.00000000000E+00 -0.18264693635E+04  0.18264693635E+04  0.50400001928E-02 0. -1.
    10030    2    1    2    0    0  0.00000000000E+00  0.00000000000E+00  0.38323228696E+03  0.40361710139E+04  0.40179359711E+04 0.  0.
        4    1    3    3  502    0 -0.13925751730E+04 -0.16553860474E+03 -0.12534123118E+04  0.18808808252E+04  0.12699999809E+01 0. -1.
       -4    1    3    3    0  502  0.13925751730E+04  0.16553860474E+03  0.16366445988E+04  0.21552901888E+04  0.12699999809E+01 0.  1.
</event>
<event>
 5   0  0.1879500E-08  0.4001082E+04  0.7818609E-02  0.8004328E-01
        1   -1    0    0  501    0  0.00000000000E+00  0.00000000000E+00  0.24722656390E+04  0.24722656390E+04  0.50400001928E-02 0. -1.
       -1   -1    0    0    0  501  0.00000000000E+00  0.00000000000E+00 -0.16188246943E+04  0.16188246943E+04  0.50400001928E-02 0.  1.
    10030    2    1    2    0    0  0.00000000000E+00  0.00000000000E+00  0.85344094474E+03  0.40910903333E+04  0.40010821873E+04 0.  0.
        3    1    3    3  502    0  0.31175436953E+02 -0.35700990404E+03 -0.15857366891E+04  0.16257271717E+04  0.10100000352E+00 0.  1.
       -3    1    3    3    0  502 -0.31175436953E+02  0.35700990404E+03  0.24391776338E+04  0.24653631617E+04  0.10100000352E+00 0. -1.
</event>
<event>
 5   0  0.1879500E-08  0.3967552E+04  0.7818609E-02  0.8011124E-01
        1   -1    0    0  501    0  0.00000000000E+00  0.00000000000E+00  0.25680804857E+04  0.25680804857E+04  0.50400001928E-02 0.  1.
       -1   -1    0    0    0  501  0.00000000000E+00  0.00000000000E+00 -0.15324158711E+04  0.15324158711E+04  0.50400001928E-02 0. -1.
    10030    2    1    2    0    0  0.00000000000E+00  0.00000000000E+00  0.10356646146E+04  0.41004963568E+04  0.39675520385E+04 0.  0.
        1    1    3    3  502    0 -0.85791979759E+03  0.70772631173E+03 -0.11799114562E+04  0.16214481046E+04  0.50400001928E-02 0. -1.
       -1    1    3    3    0  502  0.85791979759E+03 -0.70772631173E+03  0.22155760707E+04  0.24790482522E+04  0.50400001928E-02 0.  1.
</event>
<event>
 5   0  0.1879500E-08  0.4003308E+04  0.7818609E-02  0.8003880E-01
        1   -1    0    0  501    0  0.00000000000E+00  0.00000000000E+00  0.12100256870E+04  0.12100256870E+04  0.50400001928E-02 0.  1.
       -1   -1    0    0    0  501  0.00000000000E+00  0.00000000000E+00 -0.33111845276E+04  0.33111845276E+04  0.50400001928E-02 0. -1.
    10030    2    1    2    0    0  0.00000000000E+00  0.00000000000E+00 -0.21011588407E+04  0.45212102146E+04  0.40033077987E+04 0.  0.
        5    1    3    3  502    0  0.19986460551E+04  0.97542362280E+02 -0.11069990063E+04  0.22868251913E+04  0.46999998093E+01 0.  1.
       -5    1    3    3    0  502 -0.19986460551E+04 -0.97542362280E+02 -0.99415983442E+03  0.22343850233E+04  0.46999998093E+01 0. -1.
</event>
<event>
 5   0  0.5945387E-08  0.3996503E+04  0.7818609E-02  0.8005252E-01
       -2   -1    0    0    0  501  0.00000000000E+00  0.00000000000E+00  0.15399220956E+04  0.15399220956E+04  0.25500000920E-02 0. -1.
        2   -1    0    0  501    0  0.00000000000E+00  0.00000000000E+00 -0.25929943620E+04  0.25929943620E+04  0.25500000920E-02 0.  1.
    10030    2    1    2    0    0  0.00000000000E+00  0.00000000000E+00 -0.10530722664E+04  0.41329164576E+04  0.39965031274E+04 0.  0.
        3    1    3    3  502    0 -0.28302530767E+03  0.17686702810E+04  0.38953975912E+03  0.18330409493E+04  0.10100000352E+00 0. -1.
       -3    1    3    3    0  502  0.28302530767E+03 -0.17686702810E+04 -0.14426120255E+04  0.22998755083E+04  0.10100000352E+00 0.  1.
</event>
<event>
 5   0  0.5951623E-08  0.4020180E+04  0.7818609E-02  0.8000488E-01
        2   -1    0    0  501    0  0.00000000000E+00  0.00000000000E+00  0.29315358519E+04  0.29315358519E+04  0.25500000920E-02 0. -1.
       -2   -1    0    0    0  501  0.00000000000E+00  0.00000000000E+00 -0.13782749428E+04  0.13782749428E+04  0.25500000920E-02 0.  1.
    10030    2    1    2    0    0  0.00000000000E+00  0.00000000000E+00  0.15532609091E+04  0.43098107947E+04  0.40201802987E+04 0.  0.
        2    1    3    3  502    0  0.63488151177E+02 -0.14941074499E+04  0.22165556091E+04  0.26738561265E+04  0.25500000920E-02 0. -1.
       -2    1    3    3    0  502 -0.63488151177E+02  0.14941074499E+04 -0.66329469995E+03  0.16359546682E+04  0.25500000920E-02 0.  1.
</event>
<event>
 5   0  0.1879500E-08  0.3999723E+04  0.7818609E-02  0.8004602E-01
       -3   -1    0    0    0  501  0.00000000000E+00  0.00000000000E+00  0.19546252081E+04  0.19546252107E+04  0.10100000352E+00 0. -1.
        3   -1    0    0  501    0  0.00000000000E+00  0.00000000000E+00 -0.20461448552E+04  0.20461448577E+04  0.10100000352E+00 0.  1.
    10030    2    1    2    0    0  0.00000000000E+00  0.00000000000E+00 -0.91519647143E+02  0.40007700684E+04  0.39997231523E+04 0.  0.
        2    1    3    3  502    0 -0.10654513437E+04  0.52070163361E+03  0.15649813825E+04  0.19635385111E+04  0.25500000920E-02 0. -1.
       -2    1    3    3    0  502  0.10654513437E+04 -0.52070163361E+03 -0.16565010296E+04  0.20372315573E+04  0.25500000920E-02 0.  1.
</event>
<event>
 5   0  0.5945387E-08  0.4002703E+04  0.7818609E-02  0.8004001E-01
       -2   -1    0    0    0  501  0.00000000000E+00  0.00000000000E+00  0.14067043278E+04  0.14067043278E+04  0.25500000920E-02 0. -1.
        2   -1    0    0  501    0  0.00000000000E+00  0.00000000000E+00 -0.28473702496E+04  0.28473702496E+04  0.25500000920E-02 0.  1.
    10030    2    1    2    0    0  0.00000000000E+00  0.00000000000E+00 -0.14406659218E+04  0.42540745774E+04  0.40027031131E+04 0.  0.
        3    1    3    3  502    0 -0.14745221559E+04 -0.39295098813E+03 -0.20965597856E+04  0.25931041267E+04  0.10100000352E+00 0.  1.
       -3    1    3    3    0  502  0.14745221559E+04  0.39295098813E+03  0.65589386380E+03  0.16609704507E+04  0.10100000352E+00 0. -1.
</event>
<event>
 5   0  0.6161563E-08  0.4003396E+04  0.7818609E-02  0.8003862E-01
        2   -1    0    0  501    0  0.00000000000E+00  0.00000000000E+00  0.27502924405E+04  0.27502924405E+04  0.25500000920E-02 0. -1.
       -2   -1    0    0    0  501  0.00000000000E+00  0.00000000000E+00 -0.14568615739E+04  0.14568615739E+04  0.25500000920E-02 0.  1.
    10030    2    1    2    0    0  0.00000000000E+00  0.00000000000E+00  0.12934308666E+04  0.42071540144E+04  0.40033962450E+04 0.  0.
        1    1    3    3  502    0 -0.14174427644E+04  0.10681997800E+04  0.16193484856E+04  0.24025994836E+04  0.50400001928E-02 0. -1.
       -1    1    3    3    0  502  0.14174427644E+04 -0.10681997800E+04 -0.32591761899E+03  0.18045545309E+04  0.50400001928E-02 0.  1.
</event>
<event>
 5   0  0.5846812E-08  0.3982731E+04  0.7818609E-02  0.8008039E-01
       -2   -1    0    0    0  501  0.00000000000E+00  0.00000000000E+00  0.15411042340E+04  0.15411042340E+04  0.25500000920E-02 0. -1.
        2   -1    0    0  501    0  0.00000000000E+00  0.00000000000E+00 -0.25731785501E+04  0.25731785501E+04  0.25500000920E-02 0.  1.
    10030    2    1    2    0    0  0.00000000000E+00  0.00000000000E+00 -0.10320743161E+04  0.41142827841E+04  0.39827309015E+04 0.  0.
        4    1    3    3  502    0  0.17016875147E+04 -0.37519180108E+03 -0.15117336632E+04  0.23069134285E+04  0.12699999809E+01 0.  1.
       -4    1    3    3    0  502 -0.17016875147E+04  0.37519180108E+03  0.47965934709E+03  0.18073693556E+04  0.12699999809E+01 0. -1.
</event>
<event>
 5   0  0.5951623E-08  0.4001706E+04  0.7818609E-02  0.8004202E-01
        2   -1    0    0  501    0  0.00000000000E+00  0.00000000000E+00  0.14779318871E+04  0.14779318871E+04  0.25500000920E-02 0.  1.
       -2   -1    0    0    0  501  0.00000000000E+00  0.00000000000E+00 -0.27087940590E+04  0.27087940590E+04  0.25500000920E-02 0. -1.
    10030    2    1    2    0    0  0.00000000000E+00  0.00000000000E+00 -0.12308621718E+04  0.41867259461E+04  0.40017061939E+04 0.  0.
        2    1    3    3  502    0  0.15132077668E+04 -0.32352545955E+03 -0.19425204114E+04  0.24835160594E+04  0.25500000920E-02 0. -1.
       -2    1    3    3    0  502 -0.15132077668E+04  0.32352545955E+03  0.71165823952E+03  0.17032098868E+04  0.25500000920E-02 0.  1.
</event>
<event>
 5   0  0.1879500E-08  0.4006632E+04  0.7818609E-02  0.8003210E-01
       -1   -1    0    0    0  501  0.00000000000E+00  0.00000000000E+00  0.26392354084E+04  0.26392354084E+04  0.50400001928E-02 0.  1.
        1   -1    0    0  501    0  0.00000000000E+00  0.00000000000E+00 -0.15206202776E+04  0.15206202776E+04  0.50400001928E-02 0. -1.
    10030    2    1    2    0    0  0.00000000000E+00  0.00000000000E+00  0.11186151308E+04  0.41598556860E+04  0.40066319419E+04 0.  0.
        5    1    3    3  502    0 -0.97877770018E+03 -0.16306654749E+04 -0.94189296184E+02  0.19041978340E+04  0.46999998093E+01 0. -1.
       -5    1    3    3    0  502  0.97877770018E+03  0.16306654749E+04  0.12128044269E+04  0.22556578520E+04  0.46999998093E+01 0.  1.
</event>
<event>
 5   0  0.5951623E-08  0.4070870E+04  0.7818609E-02  0.7990400E-01
       -2   -1    0    0    0  501  0.00000000000E+00  0.00000000000E+00  0.19419659421E+04  0.19419659421E+04  0.25500000920E-02 0. -1.
        2   -1    0    0  501    0  0.00000000000E+00  0.00000000000E+00 -0.21334028136E+04  0.21334028136E+04  0.25500000920E-02 0.  1.
    10030    2    1    2    0    0  0.00000000000E+00  0.00000000000E+00 -0.19143687158E+03  0.40753687557E+04  0.40708699831E+04 0.  0.
        2    1    3    3  502    0  0.85080530247E+02  0.78023691715E+03  0.17843844896E+04  0.19493681925E+04  0.25500000920E-02 0. -1.
       -2    1    3    3    0  502 -0.85080530247E+02 -0.78023691715E+03 -0.19758213611E+04  0.21260005632E+04  0.25500000920E-02 0.  1.
</event>
<event>
 5   0  0.1879500E-08  0.3997473E+04  0.7818609E-02  0.8005057E-01
       -1   -1    0    0    0  501  0.00000000000E+00  0.00000000000E+00  0.14199115916E+04  0.14199115917E+04  0.50400001928E-02 0.  1.
        1   -1    0    0  501    0  0.00000000000E+00  0.00000000000E+00 -0.28135185598E+04  0.28135185598E+04  0.50400001928E-02 0. -1.
    10030    2    1    2    0    0  0.00000000000E+00  0.00000000000E+00 -0.13936069681E+04  0.42334301514E+04  0.39974730100E+04 0.  0.
        5    1    3    3  502    0  0.18419319026E+04 -0.17235902286E+03 -0.14981058210E+04  0.23804965674E+04  0.46999998093E+01 0. -1.
       -5    1    3    3    0  502 -0.18419319026E+04  0.17235902286E+03  0.10449885291E+03  0.18529335840E+04  0.46999998093E+01 0.  1.
</event>
<event>
 5   0  0.1879500E-08  0.4044709E+04  0.7818609E-02  0.7995588E-01
        1   -1    0    0  501    0  0.00000000000E+00  0.00000000000E+00  0.15992635196E+04  0.15992635196E+04  0.50400001928E-02 0. -1.
       -1   -1    0    0    0  501  0.00000000000E+00  0.00000000000E+00 -0.25573754735E+04  0.25573754735E+04  0.50400001928E-02 0.  1.
    10030    2    1    2    0    0  0.00000000000E+00  0.00000000000E+00 -0.95811195391E+03  0.41566389930E+04  0.40447087908E+04 0.  0.
        4    1    3    3  502    0  0.25732498799E+03 -0.20037063379E+04 -0.57579081966E+03  0.21006170329E+04  0.12699999809E+01 0.  1.
       -4    1    3    3    0  502 -0.25732498799E+03  0.20037063379E+04 -0.38232113425E+03  0.20560219601E+04  0.12699999809E+01 0. -1.
</event>
<event>
 5   0  0.1879500E-08  0.3979385E+04  0.7818609E-02  0.8008718E-01
       -1   -1    0    0    0  501  0.00000000000E+00  0.00000000000E+00  0.15118602801E+04  0.15118602801E+04  0.50400001928E-02 0.  1.
        1   -1    0    0  501    0  0.00000000000E+00  0.00000000000E+00 -0.26185467069E+04  0.26185467069E+04  0.50400001928E-02 0. -1.
    10030    2    1    2    0    0  0.00000000000E+00  0.00000000000E+00 -0.11066864268E+04  0.41304069871E+04  0.39793852580E+04 0.  0.
        2    1    3    3  502    0  0.67247031891E+03  0.33140850073E+03 -0.24663375823E+04  0.25777643403E+04  0.25500000920E-02 0. -1.
       -2    1    3    3    0  502 -0.67247031891E+03 -0.33140850073E+03  0.13596511554E+04  0.15526426468E+04  0.25500000920E-02 0.  1.
</event>
<event>
 5   0  0.1879500E-08  0.3980724E+04  0.7818609E-02  0.8008446E-01
       -1   -1    0    0    0  501  0.00000000000E+00  0.00000000000E+00  0.18787169859E+04  0.18787169859E+04  0.50400001928E-02 0. -1.
        1   -1    0    0  501    0  0.00000000000E+00  0.00000000000E+00 -0.21086417380E+04  0.21086417380E+04  0.50400001928E-02 0.  1.
    10030    2    1    2    0    0  0.00000000000E+00  0.00000000000E+00 -0.22992475208E+03  0.39873587239E+04  0.39807240801E+04 0.  0.
        4    1    3    3  502    0  0.12271573255E+04  0.13217247947E+04  0.72826483830E+03  0.19450559946E+04  0.12699999809E+01 0. -1.
       -4    1    3    3    0  502 -0.12271573255E+04 -0.13217247947E+04 -0.95818959038E+03  0.20423027294E+04  0.12699999809E+01 0.  1.
</event>
<event>
 5   0  0.6161563E-08  0.3996094E+04  0.7818609E-02  0.8005335E-01
       -2   -1    0    0    0  501  0.00000000000E+00  0.00000000000E+00  0.25876437713E+04  0.25876437713E+04  0.25500000920E-02 0.  1.
        2   -1    0    0  501    0  0.00000000000E+00  0.00000000000E+00 -0.15427906937E+04  0.15427906937E+04  0.25500000920E-02 0. -1.
    10030    2    1    2    0    0  0.00000000000E+00  0.00000000000E+00  0.10448530775E+04  0.41304344650E+04  0.39960944579E+04 0.  0.
        1    1    3    3  502    0 -0.14679677850E+04  0.13547863487E+04  0.47836409408E+03  0.20540710005E+04  0.50400001928E-02 0.  1.
       -1    1    3    3    0  502  0.14679677850E+04 -0.13547863487E+04  0.56648898344E+03  0.20763634645E+04  0.50400001928E-02 0. -1.
</event>
<event>
 5   0  0.5846812E-08  0.3996323E+04  0.7818609E-02  0.8005289E-01
        2   -1    0    0  501    0  0.00000000000E+00  0.00000000000E+00  0.29047479328E+04  0.29047479328E+04  0.25500000920E-02 0. -1.
       -2   -1    0    0    0  501  0.00000000000E+00  0.00000000000E+00 -0.13745255856E+04  0.13745255856E+04  0.25500000920E-02 0.  1.
    10030    2    1    2    0    0  0.00000000000E+00  0.00000000000E+00  0.15302223472E+04  0.42792735184E+04  0.39963234871E+04 0.  0.
        4    1    3    3  502    0  0.17233915522E+04  0.75307799020E+03  0.42463138097E+02  0.18812255667E+04  0.12699999809E+01 0.  1.
       -4    1    3    3    0  502 -0.17233915522E+04 -0.75307799020E+03  0.14877592091E+04  0.23980479518E+04  0.12699999809E+01 0. -1.
</event>
<event>
 5   0  0.1879500E-08  0.4016445E+04  0.7818609E-02  0.8001237E-01
        1   -1    0    0  501    0  0.00000000000E+00  0.00000000000E+00  0.26368753896E+04  0.26368753897E+04  0.50400001928E-02 0.  1.
       -1   -1    0    0    0  501  0.00000000000E+00  0.00000000000E+00 -0.15294455848E+04  0.15294455848E+04  0.50400001928E-02 0. -1.
    10030    2    1    2    0    0  0.00000000000E+00  0.00000000000E+00  0.11074298048E+04  0.41663209745E+04  0.40164449069E+04 0.  0.
        3    1    3    3  502    0 -0.14545568374E+04 -0.73901018807E+03 -0.66091290966E+03  0.17603060915E+04  0.10100000352E+00 0. -1.
       -3    1    3    3    0  502  0.14545568374E+04  0.73901018807E+03  0.17683427145E+04  0.24060148830E+04  0.10100000352E+00 0.  1.
</event>
<event>
 5   0  0.5945387E-08  0.3838472E+04  0.7818609E-02  0.8037949E-01
        2   -1    0    0  501    0  0.00000000000E+00  0.00000000000E+00  0.34364212990E+04  0.34364212990E+04  0.25500000920E-02 0. -1.
       -2   -1    0    0    0  501  0.00000000000E+00  0.00000000000E+00 -0.10718902735E+04  0.10718902735E+04  0.25500000920E-02 0.  1.
    10030    2    1    2    0    0  0.00000000000E+00  0.00000000000E+00  0.23645310255E+04  0.45083115724E+04  0.38384718656E+04 0.  0.
        3    1    3    3  502    0 -0.51635975706E+03  0.14788418811E+04  0.24847856067E+04  0.29373049262E+04  0.10100000352E+00 0. -1.
       -3    1    3    3    0  502  0.51635975706E+03 -0.14788418811E+04 -0.12025458123E+03  0.15710066462E+04  0.10100000352E+00 0.  1.
</event>
<event>
 5   0  0.1879500E-08  0.3998706E+04  0.7818609E-02  0.8004808E-01
       -1   -1    0    0    0  501  0.00000000000E+00  0.00000000000E+00  0.19511507780E+04  0.19511507780E+04  0.50400001928E-02 0. -1.
        1   -1    0    0  501    0  0.00000000000E+00  0.00000000000E+00 -0.20487463569E+04  0.20487463569E+04  0.50400001928E-02 0.  1.
    10030    2    1    2    0    0  0.00000000000E+00  0.00000000000E+00 -0.97595578875E+02  0.39998971350E+04  0.39987063150E+04 0.  0.
        3    1    3    3  502    0 -0.19482625781E+04  0.18164776228E+03 -0.45963905127E+03  0.20099728980E+04  0.10100000352E+00 0.  1.
       -3    1    3    3    0  502  0.19482625781E+04 -0.18164776228E+03  0.36204347240E+03  0.19899242370E+04  0.10100000352E+00 0. -1.
</event>
<event>
 5   0  0.1879500E-08  0.4006423E+04  0.7818609E-02  0.8003252E-01
       -1   -1    0    0    0  501  0.00000000000E+00  0.00000000000E+00  0.18634321665E+04  0.18634321665E+04  0.50400001928E-02 0.  1.
        1   -1    0    0  501    0  0.00000000000E+00  0.00000000000E+00 -0.21534763521E+04  0.21534763521E+04  0.50400001928E-02 0. -1.
    10030    2    1    2    0    0  0.00000000000E+00  0.00000000000E+00 -0.29004418561E+03  0.40169085185E+04  0.40064233946E+04 0.  0.
        2    1    3    3  502    0 -0.11393369617E+04  0.15483717880E+04 -0.70980190676E+03  0.20492346506E+04  0.25500000920E-02 0. -1.
       -2    1    3    3    0  502  0.11393369617E+04 -0.15483717880E+04  0.41975772116E+03  0.19676738680E+04  0.25500000920E-02 0.  1.
</event>
<event>
 5   0  0.5951623E-08  0.3991981E+04  0.7818609E-02  0.8006166E-01
        2   -1    0    0  501    0  0.00000000000E+00  0.00000000000E+00  0.21310989773E+04  0.21310989773E+04  0.25500000920E-02 0. -1.
       -2   -1    0    0    0  501  0.00000000000E+00  0.00000000000E+00 -0.18694479377E+04  0.18694479377E+04  0.25500000920E-02 0.  1.
    10030    2    1    2    0    0  0.00000000000E+00  0.00000000000E+00  0.26165103956E+03  0.40005469150E+04  0.39919812565E+04 0.  0.
        2    1    3    3  502    0  0.93249655230E+03  0.17629223192E+04  0.21183004624E+03  0.20055714627E+04  0.25500000920E-02 0.  1.
       -2    1    3    3    0  502 -0.93249655230E+03 -0.17629223192E+04  0.49820993315E+02  0.19949754522E+04  0.25500000920E-02 0. -1.
</event>
<event>
 5   0  0.1879500E-08  0.3999116E+04  0.7818609E-02  0.8004725E-01
        1   -1    0    0  501    0  0.00000000000E+00  0.00000000000E+00  0.13041955531E+04  0.13041955531E+04  0.50400001928E-02 0.  1.
       -1   -1    0    0    0  501  0.00000000000E+00  0.00000000000E+00 -0.30656695067E+04  0.30656695067E+04  0.50400001928E-02 0. -1.
    10030    2    1    2    0    0  0.00000000000E+00  0.00000000000E+00 -0.17614739537E+04  0.43698650598E+04  0.39991161713E+04 0.  0.
        1    1    3    3  502    0  0.71462320496E+03  0.16703645017E+03  0.11517125865E+04  0.13656607861E+04  0.50400001928E-02 0.  1.
       -1    1    3    3    0  502 -0.71462320496E+03 -0.16703645017E+03 -0.29131865401E+04  0.30042042737E+04  0.50400001928E-02 0. -1.
</event>
<event>
 5   0  0.5846812E-08  0.4047129E+04  0.7818609E-02  0.7995106E-01
        2   -1    0    0  501    0  0.00000000000E+00  0.00000000000E+00  0.22566810479E+04  0.22566810479E+04  0.25500000920E-02 0. -1.
       -2   -1    0    0    0  501  0.00000000000E+00  0.00000000000E+00 -0.18145290108E+04  0.18145290108E+04  0.25500000920E-02 0.  1.
    10030    2    1    2    0    0  0.00000000000E+00  0.00000000000E+00  0.44215203713E+03  0.40712100587E+04  0.40471289723E+04 0.  0.
        4    1    3    3  502    0  0.11560937816E+04 -0.12133230264E+04  0.13618900433E+04  0.21595026514E+04  0.12699999809E+01 0.  1.
       -4    1    3    3    0  502 -0.11560937816E+04  0.12133230264E+04 -0.91973800621E+03  0.19117074073E+04  0.12699999809E+01 0. -1.
</event>
<event>
 5   0  0.1879500E-08  0.3985492E+04  0.7818609E-02  0.8007480E-01
       -1   -1    0    0    0  501  0.00000000000E+00  0.00000000000E+00  0.31114186491E+04  0.31114186491E+04  0.50400001928E-02 0.  1.
        1   -1    0    0  501    0  0.00000000000E+00  0.00000000000E+00 -0.12762782924E+04  0.12762782924E+04  0.50400001928E-02 0. -1.
    10030    2    1    2    0    0  0.00000000000E+00  0.00000000000E+00  0.18351403567E+04  0.43876969415E+04  0.39854917289E+04 0.  0.
        1    1    3    3  502    0  0.36785917045E+03  0.18503529018E+04  0.21099919281E+03  0.18983273927E+04  0.50400001928E-02 0. -1.
       -1    1    3    3    0  502 -0.36785917045E+03 -0.18503529018E+04  0.16241411639E+04  0.24893695488E+04  0.50400001928E-02 0.  1.
</event>
<event>
 5   0  0.5846812E-08  0.4002428E+04  0.7818609E-02  0.8004057E-01
        2   -1    0    0  501    0  0.00000000000E+00  0.00000000000E+00  0.18150918638E+04  0.18150918638E+04  0.25500000920E-02 0.  1.
       -2   -1    0    0    0  501  0.00000000000E+00  0.00000000000E+00 -0.22064211748E+04  0.22064211748E+04  0.25500000920E-02 0. -1.
    10030    2    1    2    0    0  0.00000000000E+00  0.00000000000E+00 -0.39132931103E+03  0.40215130386E+04  0.40024278245E+04 0.  0.
        4    1    3    3  502    0 -0.71772194713E+02 -0.19997683379E+04 -0.17042803056E+03  0.20083007692E+04  0.12699999809E+01 0. -1.
       -4    1    3    3    0  502  0.71772194713E+02  0.19997683379E+04 -0.22090128047E+03  0.20132122694E+04  0.12699999809E+01 0.  1.
</event>
<event>
 5   0  0.5888700E-08  0.4014509E+04  0.7818609E-02  0.8001626E-01
        2   -1    0    0  501    0  0.00000000000E+00  0.00000000000E+00  0.13709372563E+04  0.13709372563E+04  0.25500000920E-02 0.  1.
       -2   -1    0    0    0  501  0.00000000000E+00  0.00000000000E+00 -0.29389175802E+04  0.29389175802E+04  0.25500000920E-02 0. -1.
    10030    2    1    2    0    0  0.00000000000E+00  0.00000000000E+00 -0.15679803239E+04  0.43098548365E+04  0.40145094863E+04 0.  0.
        5    1    3    3  502    0  0.18103890843E+04  0.69238702316E+02 -0.17117100402E+04  0.24924437779E+04  0.46999998093E+01 0. -1.
       -5    1    3    3    0  502 -0.18103890843E+04 -0.69238702316E+02  0.14372971637E+03  0.18174110586E+04  0.46999998093E+01 0.  1.
</event>
<event>
 5   0  0.1879500E-08  0.3990747E+04  0.7818609E-02  0.8006416E-01
        1   -1    0    0  501    0  0.00000000000E+00  0.00000000000E+00  0.26023512565E+04  0.26023512565E+04  0.50400001928E-02 0. -1.
       -1   -1    0    0    0  501  0.00000000000E+00  0.00000000000E+00 -0.15299682519E+04  0.15299682519E+04  0.50400001928E-02 0.  1.
    10030    2    1    2    0    0  0.00000000000E+00  0.00000000000E+00  0.10723830046E+04  0.41323195084E+04  0.39907466984E+04 0.  0.
        4    1    3    3  502    0  0.10560453926E+03 -0.18967320453E+04  0.11683984826E+04  0.22302245172E+04  0.12699999809E+01 0. -1.
       -4    1    3    3    0  502 -0.10560453926E+03  0.18967320453E+04 -0.96015478017E+02  0.19020949911E+04  0.12699999809E+01 0.  1.
</event>
<event>
 5   0  0.5888700E-08  0.3995026E+04  0.7818609E-02  0.8005551E-01
        2   -1    0    0  501    0  0.00000000000E+00  0.00000000000E+00  0.16397001638E+04  0.16397001638E+04  0.25500000920E-02 0. -1.
       -2   -1    0    0    0  501  0.00000000000E+00  0.00000000000E+00 -0.24334070647E+04  0.24334070647E+04  0.25500000920E-02 0.  1.
    10030    2    1    2    0    0  0.00000000000E+00  0.00000000000E+00 -0.79370690090E+03  0.40731072286E+04  0.39950258886E+04 0.  0.
        5    1    3    3  502    0 -0.81282843374E+03 -0.16049377591E+04  0.48816802699E+03  0.18640937170E+04  0.46999998093E+01 0. -1.
       -5    1    3    3    0  502  0.81282843374E+03  0.16049377591E+04 -0.12818749279E+04  0.22090135115E+04  0.46999998093E+01 0.  1.
</event>
<event>
 5   0  0.1879500E-08  0.4005830E+04  0.7818609E-02  0.8003372E-01
        1   -1    0    0  501    0  0.00000000000E+00  0.00000000000E+00  0.25537952508E+04  0.25537952508E+04  0.50400001928E-02 0.  1.
       -1   -1    0    0    0  501  0.00000000000E+00  0.00000000000E+00 -0.15708650905E+04  0.15708650905E+04  0.50400001928E-02 0. -1.
    10030    2    1    2    0    0  0.00000000000E+00  0.00000000000E+00  0.98293016034E+03  0.41246603413E+04  0.40058296558E+04 0.  0.
        2    1    3    3  502    0  0.29956373668E+03 -0.49588158426E+03 -0.14827082751E+04  0.15918733640E+04  0.25500000920E-02 0. -1.
       -2    1    3    3    0  502 -0.29956373668E+03  0.49588158426E+03  0.24656384355E+04  0.25327869773E+04  0.25500000920E-02 0.  1.
</event>
<event>
 5   0  0.5951623E-08  0.3999363E+04  0.7818609E-02  0.8004675E-01
       -2   -1    0    0    0  501  0.00000000000E+00  0.00000000000E+00  0.17348660655E+04  0.17348660655E+04  0.25500000920E-02 0. -1.
        2   -1    0    0  501    0  0.00000000000E+00  0.00000000000E+00 -0.23049192133E+04  0.23049192133E+04  0.25500000920E-02 0.  1.
    10030    2    1    2    0    0  0.00000000000E+00  0.00000000000E+00 -0.57005314776E+03  0.40397852788E+04  0.39993630127E+04 0.  0.
        2    1    3    3  502    0  0.14567075945E+04 -0.81354557438E+03  0.82832632593E+03  0.18627876743E+04  0.25500000920E-02 0. -1.
       -2    1    3    3    0  502 -0.14567075945E+04  0.81354557438E+03 -0.13983794737E+04  0.21769976045E+04  0.25500000920E-02 0.  1.
</event>
<event>
 5   0  0.1879500E-08  0.4037819E+04  0.7818609E-02  0.7996960E-01
        1   -1    0    0  501    0  0.00000000000E+00  0.00000000000E+00  0.21230779527E+04  0.21230779527E+04  0.50400001928E-02 0.  1.
       -1   -1    0    0    0  501  0.00000000000E+00  0.00000000000E+00 -0.19198524655E+04  0.19198524655E+04  0.50400001928E-02 0. -1.
    10030    2    1    2    0    0  0.00000000000E+00  0.00000000000E+00  0.20322548718E+03  0.40429304182E+04  0.40378194323E+04 0.  0.
        5    1    3    3  502    0  0.58054606799E+03  0.16234145803E+04  0.11534021570E+04  0.20743353785E+04  0.46999998093E+01 0.  1.
       -5    1    3    3    0  502 -0.58054606799E+03 -0.16234145803E+04 -0.95017666979E+03  0.19685950397E+04  0.46999998093E+01 0. -1.
</event>
</LesHouchesEvents>
