<LesHouchesEvents version="3.0">
<header>
<!--
#*********************************************************************
#                                                                    *
#                        MadGraph5_aMC@NLO                           *
#                                                                    *
#                           Going Beyond                             *
#                                                                    *
#                   http://madgraph.hep.uiuc.edu                     *
#                   http://madgraph.phys.ucl.ac.be                   *
#                   http://amcatnlo.cern.ch                          *
#                                                                    *
#                     The MadGraph5_aMC@NLO team                     *
#                                                                    *
#....................................................................*
#                                                                    *
# This file contains all the information necessary to reproduce      *
# the events generated:                                              *
#                                                                    *
# 1. software version                                                *
# 2. proc_card          : code generation info including model       *
# 3. param_card         : model primary parameters in the LH format  *
# 4. run_card           : running parameters (collider and cuts)     *
# 5. pythia_card        : present only if pythia has been run        *
# 6. pgs_card           : present only if pgs has been run           *
# 7. delphes_cards      : present only if delphes has been run       *
#                                                                    *
#                                                                    *
#*********************************************************************
-->
<MGVersion>
#5.2.2.3
</MGVersion>
<MG5ProcCard>
#************************************************************
#*                     MadGraph5_aMC@NLO                    *
#*                                                          *
#*                *                       *                 *
#*                  *        * *        *                   *
#*                    * * * * 5 * * * *                     *
#*                  *        * *        *                   *
#*                *                       *                 *
#*                                                          *
#*                                                          *
#*         VERSION 2.2.3                 2015-02-10         *
#*                                                          *
#*    The MadGraph5_aMC@NLO Development Team - Find us at   *
#*    https://server06.fynu.ucl.ac.be/projects/madgraph     *
#*                                                          *
#************************************************************
#*                                                          *
#*               Command File for MadGraph5_aMC@NLO         *
#*                                                          *
#*     run as ./bin/mg5_aMC  filename                       *
#*                                                          *
#************************************************************
set group_subprocesses Auto
set ignore_six_quark_processes False
set loop_optimized_output True
set gauge unitary
set complex_mass_scheme False
import model sm
define p = g u c d s u~ c~ d~ s~
define j = g u c d s u~ c~ d~ s~
define l+ = e+ mu+
define l- = e- mu-
define vl = ve vm vt
define vl~ = ve~ vm~ vt~
import model Zprime_UFO
generate p p > zph, zph > j j
add process p p > zph, zph > b b~
output Dijet_signal
</MG5ProcCard>
<MGProcCard>
#*********************************************************************
#                        MadGraph/MadEvent                           *
#                   http://madgraph.hep.uiuc.edu                     *
#                                                                    *
#                          proc_card.dat                             *
#*********************************************************************
#                                                                    *
#            This Files is generated by MADGRAPH 5                   *
#                                                                    *
# WARNING: This Files is generated for MADEVENT (compatibility issue)*
#          This files is NOT a valid MG4 proc_card.dat               *
#          Running this in MG4 will NEVER reproduce the result of MG5*
#                                                                    *
#*********************************************************************
#*********************************************************************
# Process(es) requested : mg2 input                                  *
#*********************************************************************
# Begin PROCESS # This is TAG. Do not modify this line
p p > zph , zph > j j           #Process
# Be carefull the coupling are here in MG5 convention
          
end_coup           # End the couplings input

done               # this tells MG there are no more procs
# End PROCESS  # This is TAG. Do not modify this line
#*********************************************************************
# Model information                                                  *
#*********************************************************************
# Begin MODEL  # This is TAG. Do not modify this line
Zprime_UFO
# End   MODEL  # This is TAG. Do not modify this line
#*********************************************************************
# Start multiparticle definitions                                    *
#*********************************************************************
# Begin MULTIPARTICLES # This is TAG. Do not modify this line

# End  MULTIPARTICLES # This is TAG. Do not modify this line
</MGProcCard>
<MGRunCard>
#*********************************************************************
#                       MadGraph5_aMC@NLO                            *
#                                                                    *
#                     run_card.dat MadEvent                          *
#                                                                    *
#  This file is used to set the parameters of the run.               *
#                                                                    *
#  Some notation/conventions:                                        *
#                                                                    *
#   Lines starting with a '# ' are info or comments                  *
#                                                                    *
#   mind the format:   value    = variable     ! comment             *
#*********************************************************************
#
#*******************                                                 
# Running parameters
#*******************                                                 
#                                                                    
#*********************************************************************
# Tag name for the run (one word)                                    *
#*********************************************************************
  tag_1     = run_tag ! name of the run 
#*********************************************************************
# Run to generate the grid pack                                      *
#*********************************************************************
  .false.     = gridpack  !True = setting up the grid pack
#*********************************************************************
# Number of events and rnd seed                                      *
# Warning: Do not generate more than 1M events in a single run       *
# If you want to run Pythia, avoid more than 50k events in a run.    *
#*********************************************************************
  2000 = nevents ! Number of unweighted events requested 
 543 = iseed   ! rnd seed (0=assigned automatically=default))
#*********************************************************************
# Collider type and energy                                           *
# lpp: 0=No PDF, 1=proton, -1=antiproton, 2=photon from proton,      *
#                                         3=photon from electron     *
#*********************************************************************
        1     = lpp1    ! beam 1 type 
        1     = lpp2    ! beam 2 type
     4000     = ebeam1  ! beam 1 total energy in GeV
     4000     = ebeam2  ! beam 2 total energy in GeV
#*********************************************************************
# Beam polarization from -100 (left-handed) to 100 (right-handed)    *
#*********************************************************************
        0     = polbeam1 ! beam polarization for beam 1
        0     = polbeam2 ! beam polarization for beam 2
#*********************************************************************
# PDF CHOICE: this automatically fixes also alpha_s and its evol.    *
#*********************************************************************
 'nn23lo1'    = pdlabel     ! PDF set                                     
 230000    = lhaid     ! if pdlabel=lhapdf, this is the lhapdf number
#*********************************************************************
# Renormalization and factorization scales                           *
#*********************************************************************
 F        = fixed_ren_scale  ! if .true. use fixed ren scale
 F        = fixed_fac_scale  ! if .true. use fixed fac scale
 91.1880  = scale            ! fixed ren scale
 91.1880  = dsqrt_q2fact1    ! fixed fact scale for pdf1
 91.1880  = dsqrt_q2fact2    ! fixed fact scale for pdf2
 1        = scalefact        ! scale factor for event-by-event scales
#*********************************************************************
# Matching - Warning! ickkw > 1 is still beta
#*********************************************************************
 0        = ickkw            ! 0 no matching, 1 MLM, 2 CKKW matching
 1        = highestmult      ! for ickkw=2, highest mult group
 1        = ktscheme         ! for ickkw=1, 1 Durham kT, 2 Pythia pTE
 1        = alpsfact         ! scale factor for QCD emission vx
 F        = chcluster        ! cluster only according to channel diag
 T        = pdfwgt           ! for ickkw=1, perform pdf reweighting
 5        = asrwgtflavor     ! highest quark flavor for a_s reweight
 T        = clusinfo         ! include clustering tag in output
 3.0      = lhe_version       ! Change the way clustering information pass to shower.        
#*********************************************************************
#**********************************************************
#
#**********************************************************
# Automatic ptj and mjj cuts if xqcut > 0
# (turn off for VBF and single top processes)
#**********************************************************
   T  = auto_ptj_mjj  ! Automatic setting of ptj and mjj
#**********************************************************
#                                                                    
#**********************************
# BW cutoff (M+/-bwcutoff*Gamma)
#**********************************
  15  = bwcutoff      ! (M+/-bwcutoff*Gamma)
#**********************************************************
# Apply pt/E/eta/dr/mij cuts on decay products or not
# (note that etmiss/ptll/ptheavy/ht/sorted cuts always apply)
#**********************************************************
   T  = cut_decays    ! Cut decay products 
#*************************************************************
# Number of helicities to sum per event (0 = all helicities)
# 0 gives more stable result, but longer run time (needed for
# long decay chains e.g.).
# Use >=2 if most helicities contribute, e.g. pure QCD.
#*************************************************************
   0  = nhel          ! Number of helicities used per event
#*******************                                                 
# Standard Cuts
#*******************                                                 
#                                                                    
#*********************************************************************
# Minimum and maximum pt's (for max, -1 means no cut)                *
#*********************************************************************
 20  = ptj       ! minimum pt for the jets 
  0  = ptb       ! minimum pt for the b 
 10  = pta       ! minimum pt for the photons 
 10  = ptl       ! minimum pt for the charged leptons 
  0  = misset    ! minimum missing Et (sum of neutrino's momenta)
  0  = ptheavy   ! minimum pt for one heavy final state
 1.0 = ptonium   ! minimum pt for the quarkonium states
 -1  = ptjmax    ! maximum pt for the jets
 -1  = ptbmax    ! maximum pt for the b
 -1  = ptamax    ! maximum pt for the photons
 -1  = ptlmax    ! maximum pt for the charged leptons
 -1  = missetmax ! maximum missing Et (sum of neutrino's momenta)
#*********************************************************************
# Minimum and maximum E's (in the center of mass frame)              *
#*********************************************************************
  0  = ej     ! minimum E for the jets 
  0  = eb     ! minimum E for the b 
  0  = ea     ! minimum E for the photons 
  0  = el     ! minimum E for the charged leptons 
 -1   = ejmax ! maximum E for the jets
 -1   = ebmax ! maximum E for the b
 -1   = eamax ! maximum E for the photons
 -1   = elmax ! maximum E for the charged leptons
#*********************************************************************
# Maximum and minimum absolute rapidity (for max, -1 means no cut)   *
#*********************************************************************
   5  = etaj    ! max rap for the jets 
  -1  = etab    ! max rap for the b
 2.5  = etaa    ! max rap for the photons 
 2.5  = etal    ! max rap for the charged leptons 
 0.6  = etaonium ! max rap for the quarkonium states
   0  = etajmin ! min rap for the jets
   0  = etabmin ! min rap for the b
   0  = etaamin ! min rap for the photons
   0  = etalmin ! main rap for the charged leptons
#*********************************************************************
# Minimum and maximum DeltaR distance                                *
#*********************************************************************
 0.4 = drjj    ! min distance between jets 
 0   = drbb    ! min distance between b's 
 0.4 = drll    ! min distance between leptons 
 0.4 = draa    ! min distance between gammas 
 0   = drbj    ! min distance between b and jet 
 0.4 = draj    ! min distance between gamma and jet 
 0.4 = drjl    ! min distance between jet and lepton 
 0   = drab    ! min distance between gamma and b 
 0   = drbl    ! min distance between b and lepton 
 0.4 = dral    ! min distance between gamma and lepton 
 -1  = drjjmax ! max distance between jets
 -1  = drbbmax ! max distance between b's
 -1  = drllmax ! max distance between leptons
 -1  = draamax ! max distance between gammas
 -1  = drbjmax ! max distance between b and jet
 -1  = drajmax ! max distance between gamma and jet
 -1  = drjlmax ! max distance between jet and lepton
 -1  = drabmax ! max distance between gamma and b
 -1  = drblmax ! max distance between b and lepton
 -1  = dralmax ! maxdistance between gamma and lepton
#*********************************************************************
# Minimum and maximum invariant mass for pairs                       *
# WARNING: for four lepton final state mmll cut require to have      *
#          different lepton masses for each flavor!                  *           
#*********************************************************************
 0   = mmjj    ! min invariant mass of a jet pair 
 0   = mmbb    ! min invariant mass of a b pair 
 0   = mmaa    ! min invariant mass of gamma gamma pair
 0   = mmll    ! min invariant mass of l+l- (same flavour) lepton pair
 -1  = mmjjmax ! max invariant mass of a jet pair
 -1  = mmbbmax ! max invariant mass of a b pair
 -1  = mmaamax ! max invariant mass of gamma gamma pair
 -1  = mmllmax ! max invariant mass of l+l- (same flavour) lepton pair
#*********************************************************************
# Minimum and maximum invariant mass for all letpons                 *
#*********************************************************************
 0   = mmnl    ! min invariant mass for all letpons (l+- and vl) 
 -1  = mmnlmax ! max invariant mass for all letpons (l+- and vl) 
#*********************************************************************
# Minimum and maximum pt for 4-momenta sum of leptons                *
#*********************************************************************
 0   = ptllmin  ! Minimum pt for 4-momenta sum of leptons(l and vl)
 -1  = ptllmax  ! Maximum pt for 4-momenta sum of leptons(l and vl)
#*********************************************************************
# Inclusive cuts                                                     *
#*********************************************************************
 0  = xptj ! minimum pt for at least one jet  
 0  = xptb ! minimum pt for at least one b 
 0  = xpta ! minimum pt for at least one photon 
 0  = xptl ! minimum pt for at least one charged lepton 
#*********************************************************************
# Control the pt's of the jets sorted by pt                          *
#*********************************************************************
 0   = ptj1min ! minimum pt for the leading jet in pt
 0   = ptj2min ! minimum pt for the second jet in pt
 0   = ptj3min ! minimum pt for the third jet in pt
 0   = ptj4min ! minimum pt for the fourth jet in pt
 -1  = ptj1max ! maximum pt for the leading jet in pt 
 -1  = ptj2max ! maximum pt for the second jet in pt
 -1  = ptj3max ! maximum pt for the third jet in pt
 -1  = ptj4max ! maximum pt for the fourth jet in pt
 0   = cutuse  ! reject event if fails any (0) / all (1) jet pt cuts
#*********************************************************************
# Control the pt's of leptons sorted by pt                           *
#*********************************************************************
 0   = ptl1min ! minimum pt for the leading lepton in pt
 0   = ptl2min ! minimum pt for the second lepton in pt
 0   = ptl3min ! minimum pt for the third lepton in pt
 0   = ptl4min ! minimum pt for the fourth lepton in pt
 -1  = ptl1max ! maximum pt for the leading lepton in pt 
 -1  = ptl2max ! maximum pt for the second lepton in pt
 -1  = ptl3max ! maximum pt for the third lepton in pt
 -1  = ptl4max ! maximum pt for the fourth lepton in pt
#*********************************************************************
# Control the Ht(k)=Sum of k leading jets                            *
#*********************************************************************
 0   = htjmin ! minimum jet HT=Sum(jet pt)
 -1  = htjmax ! maximum jet HT=Sum(jet pt)
 0   = ihtmin  !inclusive Ht for all partons (including b)
 -1  = ihtmax  !inclusive Ht for all partons (including b)
 0   = ht2min ! minimum Ht for the two leading jets
 0   = ht3min ! minimum Ht for the three leading jets
 0   = ht4min ! minimum Ht for the four leading jets
 -1  = ht2max ! maximum Ht for the two leading jets
 -1  = ht3max ! maximum Ht for the three leading jets
 -1  = ht4max ! maximum Ht for the four leading jets
#***********************************************************************
# Photon-isolation cuts, according to hep-ph/9801442                   *
# When ptgmin=0, all the other parameters are ignored                  *
# When ptgmin>0, pta and draj are not going to be used                 *
#***********************************************************************
   0 = ptgmin ! Min photon transverse momentum
 0.4 = R0gamma ! Radius of isolation code
 1.0 = xn ! n parameter of eq.(3.4) in hep-ph/9801442
 1.0 = epsgamma ! epsilon_gamma parameter of eq.(3.4) in hep-ph/9801442
 .true. = isoEM ! isolate photons from EM energy (photons and leptons)
#*********************************************************************
# WBF cuts                                                           *
#*********************************************************************
 0   = xetamin ! minimum rapidity for two jets in the WBF case  
 0   = deltaeta ! minimum rapidity for two jets in the WBF case 
#*********************************************************************
# KT DURHAM CUT                                                      *
#*********************************************************************
 -1    =  ktdurham        
 0.4  =  dparameter 
#*********************************************************************
# maximal pdg code for quark to be considered as a light jet         *
# (otherwise b cuts are applied)                                     *
#*********************************************************************
 4 = maxjetflavor    ! Maximum jet pdg code
#*********************************************************************
# Jet measure cuts                                                   *
#*********************************************************************
 0   = xqcut   ! minimum kt jet measure between partons
#*********************************************************************
#
#*********************************************************************
# Store info for systematics studies                                 *
# WARNING: If use_syst is T, matched Pythia output is                *
#          meaningful ONLY if plotted taking matchscale              *
#          reweighting into account!                                 *
#*********************************************************************
   F  = use_syst      ! Enable systematics studies
#
#**************************************
# Parameter of the systematics study
#  will be used by SysCalc (if installed)
#**************************************                                  
#
0.5 1 2 = sys_scalefact  # factorization/renormalization scale factor
0.5 1 2 = sys_alpsfact  # \alpha_s emission scale factors
30 50 = sys_matchscale # variation of merging scale
# PDF sets and number of members (0 or none for all members).
CT10nlo.LHgrid = sys_pdf # matching scales
# MSTW2008nlo68cl.LHgrid 1  = sys_pdf
</MGRunCard>
<slha>
######################################################################
## PARAM_CARD AUTOMATICALY GENERATED BY MG5 FOLLOWING UFO MODEL   ####
######################################################################
##                                                                  ##
##  Width set on Auto will be computed following the information    ##
##        present in the decay.py files of the model.               ##
##        See  arXiv:1402.1178 for more details.                    ##
##                                                                  ##
######################################################################

###################################
## INFORMATION FOR CKMBLOCK
###################################
Block ckmblock 
    1 2.277360e-01 # cabi 

###################################
## INFORMATION FOR FRBLOCK
###################################
Block frblock 
    1 2.000000e-01 # gz 

###################################
## INFORMATION FOR MASS
###################################
Block mass 
    1 5.040000e-03 # MD 
    2 2.550000e-03 # MU 
    3 1.010000e-01 # MS 
    4 1.270000e+00 # MC 
    5 4.700000e+00 # MB 
    6 1.720000e+02 # MT 
   11 5.110000e-04 # Me 
   13 1.056600e-01 # MM 
   15 1.777000e+00 # MTA 
   23 9.118760e+01 # MZ 
   25 1.200000e+02 # MH 
  10030 1.000000e+03 # MZph 
  10031 3.000000e+02 # MZpl 
## Dependent parameters, given by model restrictions.
## Those values should be edited following the 
## analytical expression. MG5 ignores those values 
## but they are important for interfacing the output of MG5
## to external program such as Pythia.
  12 0.000000 # ve : 0.0 
  14 0.000000 # vm : 0.0 
  16 0.000000 # vt : 0.0 
  21 0.000000 # g : 0.0 
  22 0.000000 # a : 0.0 
  24 79.824360 # w+ : cmath.sqrt(MZ__exp__2/2. + cmath.sqrt(MZ__exp__4/4. - (aEW*cmath.pi*MZ__exp__2)/(Gf*sqrt__2))) 

###################################
## INFORMATION FOR SMINPUTS
###################################
Block sminputs 
    1 1.279000e+02 # aEWM1 
    2 1.166370e-05 # Gf 
    3 1.184000e-01 # aS 

###################################
## INFORMATION FOR YUKAWA
###################################
Block yukawa 
    1 5.040000e-03 # ymdo 
    2 2.550000e-03 # ymup 
    3 1.010000e-01 # yms 
    4 1.270000e+00 # ymc 
    5 4.700000e+00 # ymb 
    6 1.720000e+02 # ymt 
   11 5.110000e-04 # yme 
   13 1.056600e-01 # ymm 
   15 1.777000e+00 # ymtau 

###################################
## INFORMATION FOR DECAY
###################################
DECAY   6 1.508336e+00 # WT 
DECAY  23 2.495200e+00 # WZ 
DECAY  24 2.085000e+00 # WW 
DECAY  25 5.753088e-03 # WH 
## Dependent parameters, given by model restrictions.
## Those values should be edited following the 
## analytical expression. MG5 ignores those values 
## but they are important for interfacing the output of MG5
## to external program such as Pythia.
DECAY  1 0.000000 # d : 0.0 
DECAY  2 0.000000 # u : 0.0 
DECAY  3 0.000000 # s : 0.0 
DECAY  4 0.000000 # c : 0.0 
DECAY  5 0.000000 # b : 0.0 
DECAY  11 0.000000 # e- : 0.0 
DECAY  12 0.000000 # ve : 0.0 
DECAY  13 0.000000 # mu- : 0.0 
DECAY  14 0.000000 # vm : 0.0 
DECAY  15 0.000000 # ta- : 0.0 
DECAY  16 0.000000 # vt : 0.0 
DECAY  21 0.000000 # g : 0.0 
DECAY  22 0.000000 # a : 0.0 
DECAY  10030 0.308725 # zph : (gz__exp__2*MZph*(5 + cmath.sqrt(1 - (4*MT__exp__2)/MZph__exp__2)))/(144.*cmath.pi) 
DECAY  10031 0.132629 # zpl : (5*gz__exp__2*MZpl)/(144.*cmath.pi) 
#===========================================================
# QUANTUM NUMBERS OF NEW STATE(S) (NON SM PDG CODE)
#===========================================================

Block QNUMBERS 10030  # zph 
        1 0  # 3 times electric charge
        2 3  # number of spin states (2S+1)
        3 1  # colour rep (1: singlet, 3: triplet, 8: octet)
        4 0  # Particle/Antiparticle distinction (0=own anti)
Block QNUMBERS 10031  # zpl 
        1 0  # 3 times electric charge
        2 3  # number of spin states (2S+1)
        3 1  # colour rep (1: singlet, 3: triplet, 8: octet)
        4 0  # Particle/Antiparticle distinction (0=own anti)
</slha>
## END BANNER##
<MGGenerationInfo>
#  Number of Events        :         4081
#  Integrated weight (pb)  :  0.77204E-01
#  Max wgt                 :  0.25037E-04
#  Average wgt             :  0.18918E-04
</MGGenerationInfo>
</header>
<init>
     2212     2212  0.40000000000E+04  0.40000000000E+04 0 0  247000  247000 2   1
  0.77200416640E-01  0.16367240293E-03  0.25036800000E-04   0
</init>
<event>
 5   0  0.2403037E-04  0.9999998E+03  0.7818609E-02  0.9308545E-01
       -2   -1    0    0    0  501  0.00000000000E+00  0.00000000000E+00  0.93106355650E+03  0.93106355650E+03  0.25500000920E-02 0. -1.
        2   -1    0    0  501    0  0.00000000000E+00  0.00000000000E+00 -0.26851003570E+03  0.26851003571E+03  0.25500000920E-02 0.  1.
    10030    2    1    2    0    0  0.00000000000E+00  0.00000000000E+00  0.66255352080E+03  0.11995735922E+04  0.99999981760E+03 0.  0.
        1    1    3    3  502    0 -0.46987219024E+03  0.36118741786E+01  0.53628454935E+03  0.71301755847E+03  0.50400001928E-02 0. -1.
       -1    1    3    3    0  502  0.46987219024E+03 -0.36118741786E+01  0.12626897145E+03  0.48655603374E+03  0.50400001928E-02 0.  1.
</event>
<event>
 5   0  0.9650500E-05  0.1000201E+04  0.7818609E-02  0.9308325E-01
        3   -1    0    0  501    0  0.00000000000E+00  0.00000000000E+00  0.14069356331E+03  0.14069359956E+03  0.10100000352E+00 0. -1.
       -3   -1    0    0    0  501  0.00000000000E+00  0.00000000000E+00 -0.17776247894E+04  0.17776247923E+04  0.10100000352E+00 0.  1.
    10030    2    1    2    0    0  0.00000000000E+00  0.00000000000E+00 -0.16369312261E+04  0.19183183918E+04  0.10002007866E+04 0.  0.
        5    1    3    3  502    0  0.41592536391E+03 -0.21890375341E+03 -0.49092240569E+03  0.67966143043E+03  0.46999998093E+01 0. -1.
       -5    1    3    3    0  502 -0.41592536391E+03  0.21890375341E+03 -0.11460088204E+04  0.12386569614E+04  0.46999998093E+01 0.  1.
</event>
<event>
 5   0  0.2403037E-04  0.1000078E+04  0.7818609E-02  0.9308459E-01
        2   -1    0    0  501    0  0.00000000000E+00  0.00000000000E+00  0.32014670282E+04  0.32014670282E+04  0.25500000920E-02 0. -1.
       -2   -1    0    0    0  501  0.00000000000E+00  0.00000000000E+00 -0.78101408080E+02  0.78101408121E+02  0.25500000920E-02 0.  1.
    10030    2    1    2    0    0  0.00000000000E+00  0.00000000000E+00  0.31233656201E+04  0.32795684363E+04  0.10000781627E+04 0.  0.
        1    1    3    3  502    0  0.12000588213E+03  0.24592004278E+03  0.29341484045E+04  0.29468805437E+04  0.50400001928E-02 0. -1.
       -1    1    3    3    0  502 -0.12000588213E+03 -0.24592004278E+03  0.18921721563E+03  0.33268789263E+03  0.50400001928E-02 0.  1.
</event>
<event>
 5   0  0.2484904E-04  0.1000243E+04  0.7818609E-02  0.9308278E-01
        2   -1    0    0  501    0  0.00000000000E+00  0.00000000000E+00  0.10555358240E+04  0.10555358240E+04  0.25500000920E-02 0. -1.
       -2   -1    0    0    0  501  0.00000000000E+00  0.00000000000E+00 -0.23696188877E+03  0.23696188878E+03  0.25500000920E-02 0.  1.
    10030    2    1    2    0    0  0.00000000000E+00  0.00000000000E+00  0.81857393525E+03  0.12924977128E+04  0.10002434954E+04 0.  0.
        3    1    3    3  502    0 -0.46789351095E+03  0.83823157609E+02  0.20839055022E+03  0.51901569433E+03  0.10100000352E+00 0.  1.
       -3    1    3    3    0  502  0.46789351095E+03 -0.83823157609E+02  0.61018338503E+03  0.77348201848E+03  0.10100000352E+00 0. -1.
</event>
<event>
 5   0  0.2403037E-04  0.1000109E+04  0.7818609E-02  0.9308425E-01
        2   -1    0    0  501    0  0.00000000000E+00  0.00000000000E+00  0.37519985532E+03  0.37519985533E+03  0.25500000920E-02 0.  1.
       -2   -1    0    0    0  501  0.00000000000E+00  0.00000000000E+00 -0.66645710956E+03  0.66645710956E+03  0.25500000920E-02 0. -1.
    10030    2    1    2    0    0  0.00000000000E+00  0.00000000000E+00 -0.29125725423E+03  0.10416569649E+04  0.10001092162E+04 0.  0.
        1    1    3    3  502    0  0.48852762499E+03  0.32470443849E+02 -0.25154410300E+03  0.55044346293E+03  0.50400001928E-02 0. -1.
       -1    1    3    3    0  502 -0.48852762499E+03 -0.32470443849E+02 -0.39713151229E+02  0.49121350196E+03  0.50400001928E-02 0.  1.
</event>
<event>
 5   0  0.2484904E-04  0.9997709E+03  0.7818609E-02  0.9308796E-01
       -2   -1    0    0    0  501  0.00000000000E+00  0.00000000000E+00  0.52725902630E+03  0.52725902631E+03  0.25500000920E-02 0. -1.
        2   -1    0    0  501    0  0.00000000000E+00  0.00000000000E+00 -0.47393300077E+03  0.47393300077E+03  0.25500000920E-02 0.  1.
    10030    2    1    2    0    0  0.00000000000E+00  0.00000000000E+00  0.53326025536E+02  0.10011920271E+04  0.99977087880E+03 0.  0.
        3    1    3    3  502    0 -0.11851157514E+03 -0.91025594950E+01  0.51290196146E+03  0.52649433264E+03  0.10100000352E+00 0. -1.
       -3    1    3    3    0  502  0.11851157514E+03  0.91025594950E+01 -0.45957593592E+03  0.47469769444E+03  0.10100000352E+00 0.  1.
</event>
<event>
 5   0  0.1453863E-04  0.1000134E+04  0.7818609E-02  0.9308398E-01
        1   -1    0    0  501    0  0.00000000000E+00  0.00000000000E+00  0.58620375850E+03  0.58620375852E+03  0.50400001928E-02 0. -1.
       -1   -1    0    0    0  501  0.00000000000E+00  0.00000000000E+00 -0.42658728743E+03  0.42658728746E+03  0.50400001928E-02 0.  1.
    10030    2    1    2    0    0  0.00000000000E+00  0.00000000000E+00  0.15961647107E+03  0.10127910460E+04  0.10001341335E+04 0.  0.
        1    1    3    3  502    0 -0.52801505652E+02  0.43713180263E+03  0.31986276113E+03  0.54422825896E+03  0.50400001928E-02 0. -1.
       -1    1    3    3    0  502  0.52801505652E+02 -0.43713180263E+03 -0.16024629006E+03  0.46856278701E+03  0.50400001928E-02 0.  1.
</event>
<event>
 5   0  0.1506454E-04  0.1000144E+04  0.7818609E-02  0.9308387E-01
       -1   -1    0    0    0  501  0.00000000000E+00  0.00000000000E+00  0.35268498254E+03  0.35268498258E+03  0.50400001928E-02 0.  1.
        1   -1    0    0  501    0  0.00000000000E+00  0.00000000000E+00 -0.70905225963E+03  0.70905225965E+03  0.50400001928E-02 0. -1.
    10030    2    1    2    0    0  0.00000000000E+00  0.00000000000E+00 -0.35636727709E+03  0.10617372422E+04  0.10001441573E+04 0.  0.
        3    1    3    3  502    0 -0.24015217843E+03  0.20162464380E+03  0.23535281765E+03  0.39206699015E+03  0.10100000352E+00 0.  1.
       -3    1    3    3    0  502  0.24015217843E+03 -0.20162464380E+03 -0.59172009474E+03  0.66967025207E+03  0.10100000352E+00 0. -1.
</event>
<event>
 5   0  0.2403037E-04  0.9986814E+03  0.7818609E-02  0.9309992E-01
       -2   -1    0    0    0  501  0.00000000000E+00  0.00000000000E+00  0.12697766932E+03  0.12697766935E+03  0.25500000920E-02 0.  1.
        2   -1    0    0  501    0  0.00000000000E+00  0.00000000000E+00 -0.19636614746E+04  0.19636614746E+04  0.25500000920E-02 0. -1.
    10030    2    1    2    0    0  0.00000000000E+00  0.00000000000E+00 -0.18366838053E+04  0.20906391439E+04  0.99868144553E+03 0.  0.
        1    1    3    3  502    0 -0.46288649171E+03  0.23071911865E+02 -0.52925705498E+03  0.70349786609E+03  0.50400001928E-02 0. -1.
       -1    1    3    3    0  502  0.46288649171E+03 -0.23071911865E+02 -0.13074267503E+04  0.13871412778E+04  0.50400001928E-02 0.  1.
</event>
<event>
 5   0  0.9650500E-05  0.9996880E+03  0.7818609E-02  0.9308887E-01
        4   -1    0    0  501    0  0.00000000000E+00  0.00000000000E+00  0.11379599226E+04  0.11379606312E+04  0.12699999809E+01 0.  1.
       -4   -1    0    0    0  501  0.00000000000E+00  0.00000000000E+00 -0.21955169306E+03  0.21955536620E+03  0.12699999809E+01 0. -1.
    10030    2    1    2    0    0  0.00000000000E+00  0.00000000000E+00  0.91840822950E+03  0.13575159974E+04  0.99968795496E+03 0.  0.
        3    1    3    3  502    0  0.40153056181E+03  0.21950848070E+03  0.18614938988E+03  0.49402669029E+03  0.10100000352E+00 0.  1.
       -3    1    3    3    0  502 -0.40153056181E+03 -0.21950848070E+03  0.73225883962E+03  0.86348930716E+03  0.10100000352E+00 0. -1.
</event>
<event>
 5   0  0.2403037E-04  0.9986112E+03  0.7818609E-02  0.9310069E-01
        2   -1    0    0  501    0  0.00000000000E+00  0.00000000000E+00  0.83751381808E+03  0.83751381808E+03  0.25500000920E-02 0.  1.
       -2   -1    0    0    0  501  0.00000000000E+00  0.00000000000E+00 -0.29767401665E+03  0.29767401666E+03  0.25500000920E-02 0. -1.
    10030    2    1    2    0    0  0.00000000000E+00  0.00000000000E+00  0.53983980143E+03  0.11351878347E+04  0.99861124014E+03 0.  0.
        1    1    3    3  502    0 -0.31364947161E+03  0.26081042645E+03  0.59723767028E+03  0.72325023637E+03  0.50400001928E-02 0. -1.
       -1    1    3    3    0  502  0.31364947161E+03 -0.26081042645E+03 -0.57397868845E+02  0.41193759838E+03  0.50400001928E-02 0.  1.
</event>
<event>
 5   0  0.2473312E-04  0.9996545E+03  0.7818609E-02  0.9308924E-01
        2   -1    0    0  501    0  0.00000000000E+00  0.00000000000E+00  0.22721893414E+03  0.22721893415E+03  0.25500000920E-02 0.  1.
       -2   -1    0    0    0  501  0.00000000000E+00  0.00000000000E+00 -0.10995002099E+04  0.10995002099E+04  0.25500000920E-02 0. -1.
    10030    2    1    2    0    0  0.00000000000E+00  0.00000000000E+00 -0.87228127574E+03  0.13267191440E+04  0.99965447187E+03 0.  0.
        5    1    3    3  502    0 -0.35382831407E+03 -0.17514591505E+03 -0.84290406460E+03  0.93079531559E+03  0.46999998093E+01 0. -1.
       -5    1    3    3    0  502  0.35382831407E+03  0.17514591505E+03 -0.29377211141E+02  0.39592382845E+03  0.46999998093E+01 0.  1.
</event>
<event>
 5   0  0.2473312E-04  0.9998083E+03  0.7818609E-02  0.9308755E-01
       -2   -1    0    0    0  501  0.00000000000E+00  0.00000000000E+00  0.17063000835E+03  0.17063000836E+03  0.25500000920E-02 0.  1.
        2   -1    0    0  501    0  0.00000000000E+00  0.00000000000E+00 -0.14645967760E+04  0.14645967760E+04  0.25500000920E-02 0. -1.
    10030    2    1    2    0    0  0.00000000000E+00  0.00000000000E+00 -0.12939667677E+04  0.16352267844E+04  0.99980830189E+03 0.  0.
        5    1    3    3  502    0 -0.25533413349E+03 -0.98712636237E+02 -0.13310663102E+04  0.13589331537E+04  0.46999998093E+01 0. -1.
       -5    1    3    3    0  502  0.25533413349E+03  0.98712636237E+02  0.37099542505E+02  0.27629363063E+03  0.46999998093E+01 0.  1.
</event>
<event>
 5   0  0.1430675E-04  0.1000096E+04  0.7818609E-02  0.9308440E-01
        1   -1    0    0  501    0  0.00000000000E+00  0.00000000000E+00  0.46889182646E+03  0.46889182649E+03  0.50400001928E-02 0.  1.
       -1   -1    0    0    0  501  0.00000000000E+00  0.00000000000E+00 -0.53327411928E+03  0.53327411930E+03  0.50400001928E-02 0. -1.
    10030    2    1    2    0    0  0.00000000000E+00  0.00000000000E+00 -0.64382292818E+02  0.10021659458E+04  0.10000957471E+04 0.  0.
        5    1    3    3  502    0 -0.71629687979E+02 -0.15573084244E+03  0.43850757413E+03  0.47084380644E+03  0.46999998093E+01 0.  1.
       -5    1    3    3    0  502  0.71629687979E+02  0.15573084244E+03 -0.50288986695E+03  0.53132213936E+03  0.46999998093E+01 0. -1.
</event>
<event>
 5   0  0.9650500E-05  0.9996226E+03  0.7818609E-02  0.9308959E-01
       -3   -1    0    0    0  501  0.00000000000E+00  0.00000000000E+00  0.36188362425E+03  0.36188363834E+03  0.10100000352E+00 0. -1.
        3   -1    0    0  501    0  0.00000000000E+00  0.00000000000E+00 -0.69030847271E+03  0.69030848010E+03  0.10100000352E+00 0.  1.
    10030    2    1    2    0    0  0.00000000000E+00  0.00000000000E+00 -0.32842484847E+03  0.10521921184E+04  0.99962261530E+03 0.  0.
        4    1    3    3  502    0  0.41208354565E+03  0.25684478321E+03 -0.39545494676E+02  0.48718328205E+03  0.12699999809E+01 0. -1.
       -4    1    3    3    0  502 -0.41208354565E+03 -0.25684478321E+03 -0.28887935379E+03  0.56500883640E+03  0.12699999809E+01 0.  1.
</event>
<event>
 5   0  0.1453863E-04  0.1000003E+04  0.7818609E-02  0.9308541E-01
       -1   -1    0    0    0  501  0.00000000000E+00  0.00000000000E+00  0.64139056183E+03  0.64139056185E+03  0.50400001928E-02 0. -1.
        1   -1    0    0  501    0  0.00000000000E+00  0.00000000000E+00 -0.38978062068E+03  0.38978062071E+03  0.50400001928E-02 0.  1.
    10030    2    1    2    0    0  0.00000000000E+00  0.00000000000E+00  0.25160994115E+03  0.10311711826E+04  0.10000032226E+04 0.  0.
        1    1    3    3  502    0 -0.22873145305E+03 -0.31727333500E+03 -0.19538546891E+03  0.43721382435E+03  0.50400001928E-02 0.  1.
       -1    1    3    3    0  502  0.22873145305E+03  0.31727333500E+03  0.44699541006E+03  0.59395735820E+03  0.50400001928E-02 0. -1.
</event>
<event>
 5   0  0.1506454E-04  0.9994957E+03  0.7818609E-02  0.9309098E-01
        1   -1    0    0  501    0  0.00000000000E+00  0.00000000000E+00  0.13131417140E+04  0.13131417140E+04  0.50400001928E-02 0.  1.
       -1   -1    0    0    0  501  0.00000000000E+00  0.00000000000E+00 -0.19019113464E+03  0.19019113471E+03  0.50400001928E-02 0. -1.
    10030    2    1    2    0    0  0.00000000000E+00  0.00000000000E+00  0.11229505793E+04  0.15033328487E+04  0.99949569800E+03 0.  0.
        3    1    3    3  502    0 -0.22305490255E+03 -0.33627492746E+03  0.11805245653E+03  0.42044108872E+03  0.10100000352E+00 0. -1.
       -3    1    3    3    0  502  0.22305490255E+03  0.33627492746E+03  0.10048981228E+04  0.10828917600E+04  0.10100000352E+00 0.  1.
</event>
<event>
 5   0  0.1506454E-04  0.1000168E+04  0.7818609E-02  0.9308360E-01
        1   -1    0    0  501    0  0.00000000000E+00  0.00000000000E+00  0.36724530836E+03  0.36724530840E+03  0.50400001928E-02 0.  1.
       -1   -1    0    0    0  501  0.00000000000E+00  0.00000000000E+00 -0.68097313427E+03  0.68097313429E+03  0.50400001928E-02 0. -1.
    10030    2    1    2    0    0  0.00000000000E+00  0.00000000000E+00 -0.31372782591E+03  0.10482184427E+04  0.10001683632E+04 0.  0.
        3    1    3    3  502    0  0.33817476254E+03 -0.27409030378E+03  0.10112586775E+03  0.44689385314E+03  0.10100000352E+00 0.  1.
       -3    1    3    3    0  502 -0.33817476254E+03  0.27409030378E+03 -0.41485369365E+03  0.60132458954E+03  0.10100000352E+00 0. -1.
</event>
<event>
 5   0  0.2403037E-04  0.1000076E+04  0.7818609E-02  0.9308462E-01
       -2   -1    0    0    0  501  0.00000000000E+00  0.00000000000E+00  0.30037167999E+03  0.30037168000E+03  0.25500000920E-02 0.  1.
        2   -1    0    0  501    0  0.00000000000E+00  0.00000000000E+00 -0.83242824804E+03  0.83242824804E+03  0.25500000920E-02 0. -1.
    10030    2    1    2    0    0  0.00000000000E+00  0.00000000000E+00 -0.53205656804E+03  0.11327999280E+04  0.10000757398E+04 0.  0.
        1    1    3    3  502    0  0.27556708047E+03 -0.11829269063E+03 -0.71926611419E+03  0.77927794755E+03  0.50400001928E-02 0. -1.
       -1    1    3    3    0  502 -0.27556708047E+03  0.11829269063E+03  0.18720954614E+03  0.35352198049E+03  0.50400001928E-02 0.  1.
</event>
<event>
 5   0  0.1414165E-04  0.1000343E+04  0.7818609E-02  0.9308169E-01
       -1   -1    0    0    0  501  0.00000000000E+00  0.00000000000E+00  0.87863874186E+03  0.87863874187E+03  0.50400001928E-02 0.  1.
        1   -1    0    0  501    0  0.00000000000E+00  0.00000000000E+00 -0.28472631376E+03  0.28472631381E+03  0.50400001928E-02 0. -1.
    10030    2    1    2    0    0  0.00000000000E+00  0.00000000000E+00  0.59391242810E+03  0.11633650557E+04  0.10003430814E+04 0.  0.
        4    1    3    3  502    0 -0.29007304336E+03 -0.27132115071E+03  0.65049104947E+03  0.76216648814E+03  0.12699999809E+01 0.  1.
       -4    1    3    3    0  502  0.29007304336E+03  0.27132115071E+03 -0.56578621374E+02  0.40119856754E+03  0.12699999809E+01 0. -1.
</event>
<event>
 5   0  0.1453863E-04  0.1000373E+04  0.7818609E-02  0.9308136E-01
       -1   -1    0    0    0  501  0.00000000000E+00  0.00000000000E+00  0.94958786852E+03  0.94958786854E+03  0.50400001928E-02 0.  1.
        1   -1    0    0  501    0  0.00000000000E+00  0.00000000000E+00 -0.26346867129E+03  0.26346867133E+03  0.50400001928E-02 0. -1.
    10030    2    1    2    0    0  0.00000000000E+00  0.00000000000E+00  0.68611919724E+03  0.12130565399E+04  0.10003732384E+04 0.  0.
        1    1    3    3  502    0 -0.29135321256E+03  0.35831245310E+03  0.11008765500E+03  0.47475656954E+03  0.50400001928E-02 0. -1.
       -1    1    3    3    0  502  0.29135321256E+03 -0.35831245310E+03  0.57603154223E+03  0.73829997033E+03  0.50400001928E-02 0.  1.
</event>
<event>
 5   0  0.2503680E-04  0.1001430E+04  0.7818609E-02  0.9306977E-01
       -2   -1    0    0    0  501  0.00000000000E+00  0.00000000000E+00  0.49884567622E+03  0.49884567623E+03  0.25500000920E-02 0. -1.
        2   -1    0    0  501    0  0.00000000000E+00  0.00000000000E+00 -0.50259167447E+03  0.50259167448E+03  0.25500000920E-02 0.  1.
    10030    2    1    2    0    0  0.00000000000E+00  0.00000000000E+00 -0.37459982478E+01  0.10014373507E+04  0.10014303445E+04 0.  0.
        2    1    3    3  502    0  0.15418961517E+03 -0.90517970336E+02  0.46583503390E+03  0.49896915655E+03  0.25500000920E-02 0. -1.
       -2    1    3    3    0  502 -0.15418961517E+03  0.90517970336E+02 -0.46958103214E+03  0.50246819415E+03  0.25500000920E-02 0.  1.
</event>
<event>
 5   0  0.1506454E-04  0.9998004E+03  0.7818609E-02  0.9308764E-01
        1   -1    0    0  501    0  0.00000000000E+00  0.00000000000E+00  0.61580398954E+03  0.61580398956E+03  0.50400001928E-02 0. -1.
       -1   -1    0    0    0  501  0.00000000000E+00  0.00000000000E+00 -0.40581131258E+03  0.40581131261E+03  0.50400001928E-02 0.  1.
    10030    2    1    2    0    0  0.00000000000E+00  0.00000000000E+00  0.20999267696E+03  0.10216153022E+04  0.99980043071E+03 0.  0.
        3    1    3    3  502    0  0.13809317833E+03 -0.10733843477E+02  0.59580502808E+03  0.61169320985E+03  0.10100000352E+00 0. -1.
       -3    1    3    3    0  502 -0.13809317833E+03  0.10733843477E+02 -0.38581235112E+03  0.40992209232E+03  0.10100000352E+00 0.  1.
</event>
<event>
 5   0  0.9650500E-05  0.9996434E+03  0.7818609E-02  0.9308936E-01
       -3   -1    0    0    0  501  0.00000000000E+00  0.00000000000E+00  0.72314224933E+03  0.72314225638E+03  0.10100000352E+00 0.  1.
        3   -1    0    0  501    0  0.00000000000E+00  0.00000000000E+00 -0.34546690466E+03  0.34546691942E+03  0.10100000352E+00 0. -1.
    10030    2    1    2    0    0  0.00000000000E+00  0.00000000000E+00  0.37767534468E+03  0.10686091758E+04  0.99964338873E+03 0.  0.
        4    1    3    3  502    0 -0.17463186337E+02  0.48884554245E+03  0.79063309912E+02  0.49550736334E+03  0.12699999809E+01 0. -1.
       -4    1    3    3    0  502  0.17463186337E+02 -0.48884554245E+03  0.29861203476E+03  0.57310181247E+03  0.12699999809E+01 0.  1.
</event>
<event>
 5   0  0.2484904E-04  0.1000306E+04  0.7818609E-02  0.9308209E-01
        2   -1    0    0  501    0  0.00000000000E+00  0.00000000000E+00  0.13453735729E+04  0.13453735729E+04  0.25500000920E-02 0. -1.
       -2   -1    0    0    0  501  0.00000000000E+00  0.00000000000E+00 -0.18593574964E+03  0.18593574966E+03  0.25500000920E-02 0.  1.
    10030    2    1    2    0    0  0.00000000000E+00  0.00000000000E+00  0.11594378232E+04  0.15313093225E+04  0.10003060408E+04 0.  0.
        3    1    3    3  502    0 -0.45672980753E+03  0.19981039814E+03  0.51797606950E+03  0.71890578734E+03  0.10100000352E+00 0.  1.
       -3    1    3    3    0  502  0.45672980753E+03 -0.19981039814E+03  0.64146175374E+03  0.81240353520E+03  0.10100000352E+00 0. -1.
</event>
<event>
 5   0  0.1453863E-04  0.9999717E+03  0.7818609E-02  0.9308576E-01
       -1   -1    0    0    0  501  0.00000000000E+00  0.00000000000E+00  0.33475550168E+03  0.33475550172E+03  0.50400001928E-02 0.  1.
        1   -1    0    0  501    0  0.00000000000E+00  0.00000000000E+00 -0.74677147234E+03  0.74677147236E+03  0.50400001928E-02 0. -1.
    10030    2    1    2    0    0  0.00000000000E+00  0.00000000000E+00 -0.41201597066E+03  0.10815269741E+04  0.99997171739E+03 0.  0.
        1    1    3    3  502    0  0.18178745089E+03  0.29274516218E+03 -0.59782369256E+03  0.69002867672E+03  0.50400001928E-02 0. -1.
       -1    1    3    3    0  502 -0.18178745089E+03 -0.29274516218E+03  0.18580772191E+03  0.39149829735E+03  0.50400001928E-02 0.  1.
</event>
<event>
 5   0  0.2503680E-04  0.9994690E+03  0.7818609E-02  0.9309127E-01
       -2   -1    0    0    0  501  0.00000000000E+00  0.00000000000E+00  0.40457095701E+03  0.40457095702E+03  0.25500000920E-02 0.  1.
        2   -1    0    0  501    0  0.00000000000E+00  0.00000000000E+00 -0.61728248592E+03  0.61728248593E+03  0.25500000920E-02 0. -1.
    10030    2    1    2    0    0  0.00000000000E+00  0.00000000000E+00 -0.21271152891E+03  0.10218534429E+04  0.99946899118E+03 0.  0.
        2    1    3    3  502    0 -0.27640114472E+03  0.28446794159E+03 -0.41716251017E+03  0.57562501900E+03  0.25500000920E-02 0. -1.
       -2    1    3    3    0  502  0.27640114472E+03 -0.28446794159E+03  0.20445098126E+03  0.44622842395E+03  0.25500000920E-02 0.  1.
</event>
<event>
 5   0  0.1461334E-04  0.9999735E+03  0.7818609E-02  0.9308574E-01
        1   -1    0    0  501    0  0.00000000000E+00  0.00000000000E+00  0.13288091812E+04  0.13288091812E+04  0.50400001928E-02 0.  1.
       -1   -1    0    0    0  501  0.00000000000E+00  0.00000000000E+00 -0.18812838826E+03  0.18812838833E+03  0.50400001928E-02 0. -1.
    10030    2    1    2    0    0  0.00000000000E+00  0.00000000000E+00  0.11406807930E+04  0.15169375695E+04  0.99997345889E+03 0.  0.
        2    1    3    3  502    0  0.19555168240E+01  0.98984889919E+02  0.13137909378E+04  0.13175160192E+04  0.25500000920E-02 0.  1.
       -2    1    3    3    0  502 -0.19555168240E+01 -0.98984889919E+02 -0.17311014488E+03  0.19942155036E+03  0.25500000920E-02 0. -1.
</event>
<event>
 5   0  0.2484904E-04  0.1000314E+04  0.7818609E-02  0.9308201E-01
        2   -1    0    0  501    0  0.00000000000E+00  0.00000000000E+00  0.72344461791E+03  0.72344461792E+03  0.25500000920E-02 0. -1.
       -2   -1    0    0    0  501  0.00000000000E+00  0.00000000000E+00 -0.34578575961E+03  0.34578575961E+03  0.25500000920E-02 0.  1.
    10030    2    1    2    0    0  0.00000000000E+00  0.00000000000E+00  0.37765885831E+03  0.10692303775E+04  0.10003136443E+04 0.  0.
        3    1    3    3  502    0  0.26462894893E+03 -0.34272005478E+03  0.45641920586E+03  0.62912957191E+03  0.10100000352E+00 0. -1.
       -3    1    3    3    0  502 -0.26462894893E+03  0.34272005478E+03 -0.78760347557E+02  0.44010080563E+03  0.10100000352E+00 0.  1.
</event>
<event>
 5   0  0.2473312E-04  0.1003089E+04  0.7818609E-02  0.9305163E-01
        2   -1    0    0  501    0  0.00000000000E+00  0.00000000000E+00  0.10418980701E+04  0.10418980701E+04  0.25500000920E-02 0.  1.
       -2   -1    0    0    0  501  0.00000000000E+00  0.00000000000E+00 -0.24143134526E+03  0.24143134528E+03  0.25500000920E-02 0. -1.
    10030    2    1    2    0    0  0.00000000000E+00  0.00000000000E+00  0.80046672486E+03  0.12833294154E+04  0.10030889347E+04 0.  0.
        5    1    3    3  502    0 -0.74416097203E+01  0.49893891593E+03  0.46457655422E+03  0.68179827230E+03  0.46999998093E+01 0.  1.
       -5    1    3    3    0  502  0.74416097203E+01 -0.49893891593E+03  0.33589017064E+03  0.60153114310E+03  0.46999998093E+01 0. -1.
</event>
<event>
 5   0  0.1461334E-04  0.9997838E+03  0.7818609E-02  0.9308782E-01
       -1   -1    0    0    0  501  0.00000000000E+00  0.00000000000E+00  0.17786288243E+03  0.17786288250E+03  0.50400001928E-02 0. -1.
        1   -1    0    0  501    0  0.00000000000E+00  0.00000000000E+00 -0.14049694640E+04  0.14049694640E+04  0.50400001928E-02 0.  1.
    10030    2    1    2    0    0  0.00000000000E+00  0.00000000000E+00 -0.12271065815E+04  0.15828323465E+04  0.99978381393E+03 0.  0.
        2    1    3    3  502    0 -0.38343379877E+03  0.20621024993E+02 -0.10682558278E+03  0.39857045783E+03  0.25500000920E-02 0. -1.
       -2    1    3    3    0  502  0.38343379877E+03 -0.20621024993E+02 -0.11202809988E+04  0.11842618887E+04  0.25500000920E-02 0.  1.
</event>
<event>
 5   0  0.2484904E-04  0.9998098E+03  0.7818609E-02  0.9308753E-01
       -2   -1    0    0    0  501  0.00000000000E+00  0.00000000000E+00  0.39709263006E+03  0.39709263007E+03  0.25500000920E-02 0. -1.
        2   -1    0    0  501    0  0.00000000000E+00  0.00000000000E+00 -0.62933655990E+03  0.62933655991E+03  0.25500000920E-02 0.  1.
    10030    2    1    2    0    0  0.00000000000E+00  0.00000000000E+00 -0.23224392984E+03  0.10264291900E+04  0.99980980146E+03 0.  0.
        3    1    3    3  502    0  0.37977903973E+03 -0.25119647806E+03 -0.32794797815E+03  0.56114318688E+03  0.10100000352E+00 0.  1.
       -3    1    3    3    0  502 -0.37977903973E+03  0.25119647806E+03  0.95704048312E+02  0.46528600310E+03  0.10100000352E+00 0. -1.
</event>
<event>
 5   0  0.2403037E-04  0.9978951E+03  0.7818609E-02  0.9310856E-01
        2   -1    0    0  501    0  0.00000000000E+00  0.00000000000E+00  0.12671858016E+04  0.12671858016E+04  0.25500000920E-02 0. -1.
       -2   -1    0    0    0  501  0.00000000000E+00  0.00000000000E+00 -0.19645788505E+03  0.19645788507E+03  0.25500000920E-02 0.  1.
    10030    2    1    2    0    0  0.00000000000E+00  0.00000000000E+00  0.10707279165E+04  0.14636436866E+04  0.99789506975E+03 0.  0.
        1    1    3    3  502    0 -0.33965712613E+03 -0.34844175130E+03  0.37355736104E+03  0.61345229594E+03  0.50400001928E-02 0.  1.
       -1    1    3    3    0  502  0.33965712613E+03  0.34844175130E+03  0.69717055548E+03  0.85019139071E+03  0.50400001928E-02 0. -1.
</event>
<event>
 5   0  0.1506454E-04  0.9999920E+03  0.7818609E-02  0.9308554E-01
        1   -1    0    0  501    0  0.00000000000E+00  0.00000000000E+00  0.17106086874E+03  0.17106086881E+03  0.50400001928E-02 0.  1.
       -1   -1    0    0    0  501  0.00000000000E+00  0.00000000000E+00 -0.14614446645E+04  0.14614446645E+04  0.50400001928E-02 0. -1.
    10030    2    1    2    0    0  0.00000000000E+00  0.00000000000E+00 -0.12903837958E+04  0.16325055333E+04  0.99999198794E+03 0.  0.
        3    1    3    3  502    0 -0.15893073289E+03 -0.14606805347E+03  0.91074231367E+02  0.23428482648E+03  0.10100000352E+00 0.  1.
       -3    1    3    3    0  502  0.15893073289E+03  0.14606805347E+03 -0.13814580271E+04  0.13982207068E+04  0.10100000352E+00 0. -1.
</event>
<event>
 5   0  0.2484904E-04  0.1000158E+04  0.7818609E-02  0.9308371E-01
        2   -1    0    0  501    0  0.00000000000E+00  0.00000000000E+00  0.13576634013E+04  0.13576634013E+04  0.25500000920E-02 0.  1.
       -2   -1    0    0    0  501  0.00000000000E+00  0.00000000000E+00 -0.18419813708E+03  0.18419813710E+03  0.25500000920E-02 0. -1.
    10030    2    1    2    0    0  0.00000000000E+00  0.00000000000E+00  0.11734652642E+04  0.15418615384E+04  0.10001581261E+04 0.  0.
        3    1    3    3  502    0  0.63085090117E+02  0.43018198299E+03  0.20584760367E+03  0.48105042690E+03  0.10100000352E+00 0. -1.
       -3    1    3    3    0  502 -0.63085090117E+02 -0.43018198299E+03  0.96761766055E+03  0.10608111115E+04  0.10100000352E+00 0.  1.
</event>
<event>
 5   0  0.1414165E-04  0.9997595E+03  0.7818609E-02  0.9308809E-01
       -1   -1    0    0    0  501  0.00000000000E+00  0.00000000000E+00  0.81547685268E+03  0.81547685270E+03  0.50400001928E-02 0. -1.
        1   -1    0    0  501    0  0.00000000000E+00  0.00000000000E+00 -0.30642165298E+03  0.30642165302E+03  0.50400001928E-02 0.  1.
    10030    2    1    2    0    0  0.00000000000E+00  0.00000000000E+00  0.50905519970E+03  0.11218985057E+04  0.99975950148E+03 0.  0.
        4    1    3    3  502    0  0.11239310776E+03  0.45436324214E+03  0.57587892776E+02  0.47158895743E+03  0.12699999809E+01 0.  1.
       -4    1    3    3    0  502 -0.11239310776E+03 -0.45436324214E+03  0.45146730692E+03  0.65030954829E+03  0.12699999809E+01 0. -1.
</event>
<event>
 5   0  0.1453863E-04  0.9997336E+03  0.7818609E-02  0.9308837E-01
        1   -1    0    0  501    0  0.00000000000E+00  0.00000000000E+00  0.66707281446E+03  0.66707281448E+03  0.50400001928E-02 0.  1.
       -1   -1    0    0    0  501  0.00000000000E+00  0.00000000000E+00 -0.37457204625E+03  0.37457204628E+03  0.50400001928E-02 0. -1.
    10030    2    1    2    0    0  0.00000000000E+00  0.00000000000E+00  0.29250076821E+03  0.10416448608E+04  0.99973362279E+03 0.  0.
        1    1    3    3  502    0  0.18408268754E+02  0.34316973898E+03 -0.23195811316E+03  0.41461898220E+03  0.50400001928E-02 0. -1.
       -1    1    3    3    0  502 -0.18408268754E+02 -0.34316973898E+03  0.52445888137E+03  0.62702587856E+03  0.50400001928E-02 0.  1.
</event>
<event>
 5   0  0.1506454E-04  0.9996492E+03  0.7818609E-02  0.9308930E-01
        1   -1    0    0  501    0  0.00000000000E+00  0.00000000000E+00  0.55484364456E+03  0.55484364459E+03  0.50400001928E-02 0. -1.
       -1   -1    0    0    0  501  0.00000000000E+00  0.00000000000E+00 -0.45026128816E+03  0.45026128819E+03  0.50400001928E-02 0.  1.
    10030    2    1    2    0    0  0.00000000000E+00  0.00000000000E+00  0.10458235640E+03  0.10051049328E+04  0.99964916676E+03 0.  0.
        3    1    3    3  502    0  0.78726245697E+02  0.13550965895E+02 -0.44380122730E+03  0.45093346515E+03  0.10100000352E+00 0.  1.
       -3    1    3    3    0  502 -0.78726245697E+02 -0.13550965895E+02  0.54838358371E+03  0.55417146762E+03  0.10100000352E+00 0. -1.
</event>
<event>
 5   0  0.2353916E-04  0.9995528E+03  0.7818609E-02  0.9309035E-01
        2   -1    0    0  501    0  0.00000000000E+00  0.00000000000E+00  0.31492379494E+03  0.31492379495E+03  0.25500000920E-02 0. -1.
       -2   -1    0    0    0  501  0.00000000000E+00  0.00000000000E+00 -0.79313301476E+03  0.79313301477E+03  0.25500000920E-02 0.  1.
    10030    2    1    2    0    0  0.00000000000E+00  0.00000000000E+00 -0.47820921983E+03  0.11080568097E+04  0.99955281783E+03 0.  0.
        4    1    3    3  502    0 -0.19166236109E+03  0.40952329336E+03 -0.30816759045E+01  0.45216689185E+03  0.12699999809E+01 0. -1.
       -4    1    3    3    0  502  0.19166236109E+03 -0.40952329336E+03 -0.47512754392E+03  0.65588991786E+03  0.12699999809E+01 0.  1.
</event>
<event>
 5   0  0.2353916E-04  0.1000563E+04  0.7818609E-02  0.9307927E-01
       -2   -1    0    0    0  501  0.00000000000E+00  0.00000000000E+00  0.23228087030E+03  0.23228087032E+03  0.25500000920E-02 0.  1.
        2   -1    0    0  501    0  0.00000000000E+00  0.00000000000E+00 -0.10774964667E+04  0.10774964667E+04  0.25500000920E-02 0. -1.
    10030    2    1    2    0    0  0.00000000000E+00  0.00000000000E+00 -0.84521559641E+03  0.13097773370E+04  0.10005634753E+04 0.  0.
        4    1    3    3  502    0 -0.24026217573E+03  0.29267067439E+03  0.53864733696E+01  0.37869864500E+03  0.12699999809E+01 0.  1.
       -4    1    3    3    0  502  0.24026217573E+03 -0.29267067439E+03 -0.85060206978E+03  0.93107869203E+03  0.12699999809E+01 0. -1.
</event>
<event>
 5   0  0.9650500E-05  0.1000011E+04  0.7818609E-02  0.9308533E-01
       -4   -1    0    0    0  501  0.00000000000E+00  0.00000000000E+00  0.49190762678E+03  0.49190926621E+03  0.12699999809E+01 0. -1.
        4   -1    0    0  501    0  0.00000000000E+00  0.00000000000E+00 -0.50823309167E+03  0.50823467844E+03  0.12699999809E+01 0.  1.
    10030    2    1    2    0    0  0.00000000000E+00  0.00000000000E+00 -0.16325464895E+02  0.10001439447E+04  0.10000106946E+04 0.  0.
        4    1    3    3  502    0  0.92278619239E+02 -0.41765988540E+03 -0.26713470088E+03  0.50429920162E+03  0.12699999809E+01 0.  1.
       -4    1    3    3    0  502 -0.92278619239E+02  0.41765988540E+03  0.25080923598E+03  0.49584474303E+03  0.12699999809E+01 0. -1.
</event>
<event>
 5   0  0.1506454E-04  0.9996812E+03  0.7818609E-02  0.9308894E-01
       -1   -1    0    0    0  501  0.00000000000E+00  0.00000000000E+00  0.60494176363E+03  0.60494176365E+03  0.50400001928E-02 0.  1.
        1   -1    0    0  501    0  0.00000000000E+00  0.00000000000E+00 -0.41299949423E+03  0.41299949426E+03  0.50400001928E-02 0. -1.
    10030    2    1    2    0    0  0.00000000000E+00  0.00000000000E+00  0.19194226940E+03  0.10179412579E+04  0.99968123408E+03 0.  0.
        3    1    3    3  502    0 -0.33206114528E+03 -0.19096868693E+03  0.42293911816E+03  0.57062347609E+03  0.10100000352E+00 0.  1.
       -3    1    3    3    0  502  0.33206114528E+03  0.19096868693E+03 -0.23099684876E+03  0.44731778182E+03  0.10100000352E+00 0. -1.
</event>
<event>
 5   0  0.1430675E-04  0.1000043E+04  0.7818609E-02  0.9308497E-01
        1   -1    0    0  501    0  0.00000000000E+00  0.00000000000E+00  0.77083826029E+03  0.77083826031E+03  0.50400001928E-02 0. -1.
       -1   -1    0    0    0  501  0.00000000000E+00  0.00000000000E+00 -0.32435037168E+03  0.32435037172E+03  0.50400001928E-02 0.  1.
    10030    2    1    2    0    0  0.00000000000E+00  0.00000000000E+00  0.44648788861E+03  0.10951886320E+04  0.10000433516E+04 0.  0.
        5    1    3    3  502    0 -0.81414860566E+02  0.17287393249E+03  0.72924871012E+03  0.75388297982E+03  0.46999998093E+01 0. -1.
       -5    1    3    3    0  502  0.81414860566E+02 -0.17287393249E+03 -0.28276082151E+03  0.34130565222E+03  0.46999998093E+01 0.  1.
</event>
<event>
 5   0  0.2503680E-04  0.1000012E+04  0.7818609E-02  0.9308531E-01
        2   -1    0    0  501    0  0.00000000000E+00  0.00000000000E+00  0.11261692045E+04  0.11261692045E+04  0.25500000920E-02 0. -1.
       -2   -1    0    0    0  501  0.00000000000E+00  0.00000000000E+00 -0.22199690298E+03  0.22199690300E+03  0.25500000920E-02 0.  1.
    10030    2    1    2    0    0  0.00000000000E+00  0.00000000000E+00  0.90417230152E+03  0.13481661075E+04  0.10000121512E+04 0.  0.
        2    1    3    3  502    0  0.86369501170E+02 -0.44137603315E+03  0.15754217691E+03  0.47654174096E+03  0.25500000920E-02 0.  1.
       -2    1    3    3    0  502 -0.86369501170E+02  0.44137603315E+03  0.74663012461E+03  0.87162436654E+03  0.25500000920E-02 0. -1.
</event>
<event>
 5   0  0.2484904E-04  0.9998553E+03  0.7818609E-02  0.9308704E-01
       -2   -1    0    0    0  501  0.00000000000E+00  0.00000000000E+00  0.10826833863E+04  0.10826833863E+04  0.25500000920E-02 0.  1.
        2   -1    0    0  501    0  0.00000000000E+00  0.00000000000E+00 -0.23084093581E+03  0.23084093582E+03  0.25500000920E-02 0. -1.
    10030    2    1    2    0    0  0.00000000000E+00  0.00000000000E+00  0.85184245049E+03  0.13135243221E+04  0.99985528170E+03 0.  0.
        3    1    3    3  502    0 -0.67745303515E+02 -0.19237195119E+03 -0.17370162634E+03  0.26789673187E+03  0.10100000352E+00 0. -1.
       -3    1    3    3    0  502  0.67745303515E+02  0.19237195119E+03  0.10255440768E+04  0.10456275902E+04  0.10100000352E+00 0.  1.
</event>
<event>
 5   0  0.2403037E-04  0.9993844E+03  0.7818609E-02  0.9309220E-01
        2   -1    0    0  501    0  0.00000000000E+00  0.00000000000E+00  0.41738658290E+03  0.41738658291E+03  0.25500000920E-02 0. -1.
       -2   -1    0    0    0  501  0.00000000000E+00  0.00000000000E+00 -0.59822792595E+03  0.59822792596E+03  0.25500000920E-02 0.  1.
    10030    2    1    2    0    0  0.00000000000E+00  0.00000000000E+00 -0.18084134305E+03  0.10156145089E+04  0.99938443017E+03 0.  0.
        1    1    3    3  502    0 -0.42596779256E+03 -0.23874321491E+03 -0.19818729836E+03  0.52699628862E+03  0.50400001928E-02 0.  1.
       -1    1    3    3    0  502  0.42596779256E+03  0.23874321491E+03  0.17345955314E+02  0.48861822024E+03  0.50400001928E-02 0. -1.
</event>
<event>
 5   0  0.2503680E-04  0.9999350E+03  0.7818609E-02  0.9308616E-01
        2   -1    0    0  501    0  0.00000000000E+00  0.00000000000E+00  0.21133029550E+04  0.21133029550E+04  0.25500000920E-02 0.  1.
       -2   -1    0    0    0  501  0.00000000000E+00  0.00000000000E+00 -0.11828284570E+03  0.11828284572E+03  0.25500000920E-02 0. -1.
    10030    2    1    2    0    0  0.00000000000E+00  0.00000000000E+00  0.19950201093E+04  0.22315858007E+04  0.99993497263E+03 0.  0.
        2    1    3    3  502    0 -0.26552208657E+03  0.59269886479E+01  0.19428539400E+04  0.19609228796E+04  0.25500000920E-02 0.  1.
       -2    1    3    3    0  502  0.26552208657E+03 -0.59269886479E+01  0.52166169350E+02  0.27066292115E+03  0.25500000920E-02 0. -1.
</event>
<event>
 5   0  0.2484904E-04  0.1000693E+04  0.7818609E-02  0.9307785E-01
       -2   -1    0    0    0  501  0.00000000000E+00  0.00000000000E+00  0.14465883044E+03  0.14465883046E+03  0.25500000920E-02 0. -1.
        2   -1    0    0  501    0  0.00000000000E+00  0.00000000000E+00 -0.17306013397E+04  0.17306013397E+04  0.25500000920E-02 0.  1.
    10030    2    1    2    0    0  0.00000000000E+00  0.00000000000E+00 -0.15859425093E+04  0.18752601702E+04  0.10006932912E+04 0.  0.
        3    1    3    3  502    0 -0.20345931920E+03 -0.51413363538E+02  0.58202626281E+02  0.21777645517E+03  0.10100000352E+00 0. -1.
       -3    1    3    3    0  502  0.20345931920E+03  0.51413363538E+02 -0.16441451356E+04  0.16574837150E+04  0.10100000352E+00 0.  1.
</event>
<event>
 5   0  0.1506454E-04  0.9999234E+03  0.7818609E-02  0.9308629E-01
       -1   -1    0    0    0  501  0.00000000000E+00  0.00000000000E+00  0.19310165881E+03  0.19310165888E+03  0.50400001928E-02 0. -1.
        1   -1    0    0  501    0  0.00000000000E+00  0.00000000000E+00 -0.12944564010E+04  0.12944564010E+04  0.50400001928E-02 0.  1.
    10030    2    1    2    0    0  0.00000000000E+00  0.00000000000E+00 -0.11013547421E+04  0.14875580599E+04  0.99992335375E+03 0.  0.
        3    1    3    3  502    0  0.45701381048E+03 -0.13575760914E+03 -0.32668554197E+03  0.57794048564E+03  0.10100000352E+00 0. -1.
       -3    1    3    3    0  502 -0.45701381048E+03  0.13575760914E+03 -0.77466920018E+03  0.90961757421E+03  0.10100000352E+00 0.  1.
</event>
<event>
 5   0  0.2473312E-04  0.1000072E+04  0.7818609E-02  0.9308465E-01
        2   -1    0    0  501    0  0.00000000000E+00  0.00000000000E+00  0.94005879375E+03  0.94005879376E+03  0.25500000920E-02 0. -1.
       -2   -1    0    0    0  501  0.00000000000E+00  0.00000000000E+00 -0.26597928602E+03  0.26597928603E+03  0.25500000920E-02 0.  1.
    10030    2    1    2    0    0  0.00000000000E+00  0.00000000000E+00  0.67407950773E+03  0.12060380798E+04  0.10000723310E+04 0.  0.
        5    1    3    3  502    0 -0.49809036659E+03  0.14834069959E+02  0.28731692360E+03  0.57522792657E+03  0.46999998093E+01 0. -1.
       -5    1    3    3    0  502  0.49809036659E+03 -0.14834069959E+02  0.38676258414E+03  0.63081015322E+03  0.46999998093E+01 0.  1.
</event>
<event>
 5   0  0.1430675E-04  0.1000073E+04  0.7818609E-02  0.9308465E-01
       -1   -1    0    0    0  501  0.00000000000E+00  0.00000000000E+00  0.24096598766E+03  0.24096598771E+03  0.50400001928E-02 0. -1.
        1   -1    0    0  501    0  0.00000000000E+00  0.00000000000E+00 -0.10376423638E+04  0.10376423638E+04  0.50400001928E-02 0.  1.
    10030    2    1    2    0    0  0.00000000000E+00  0.00000000000E+00 -0.79667637610E+03  0.12786083515E+04  0.10000730315E+04 0.  0.
        5    1    3    3  502    0 -0.46320266273E+03  0.18688504717E+03 -0.42781896485E+03  0.65767308315E+03  0.46999998093E+01 0. -1.
       -5    1    3    3    0  502  0.46320266273E+03 -0.18688504717E+03 -0.36885741125E+03  0.62093526833E+03  0.46999998093E+01 0.  1.
</event>
<event>
 5   0  0.1506454E-04  0.1000049E+04  0.7818609E-02  0.9308491E-01
       -1   -1    0    0    0  501  0.00000000000E+00  0.00000000000E+00  0.77401467800E+03  0.77401467802E+03  0.50400001928E-02 0.  1.
        1   -1    0    0  501    0  0.00000000000E+00  0.00000000000E+00 -0.32302308350E+03  0.32302308354E+03  0.50400001928E-02 0. -1.
    10030    2    1    2    0    0  0.00000000000E+00  0.00000000000E+00  0.45099159450E+03  0.10970377616E+04  0.10000492148E+04 0.  0.
        3    1    3    3  502    0 -0.27064853737E+03 -0.18004607233E+03  0.64228810738E+03  0.71986196040E+03  0.10100000352E+00 0.  1.
       -3    1    3    3    0  502  0.27064853737E+03  0.18004607233E+03 -0.19129651288E+03  0.37717580116E+03  0.10100000352E+00 0. -1.
</event>
<event>
 5   0  0.2484904E-04  0.9998337E+03  0.7818609E-02  0.9308727E-01
       -2   -1    0    0    0  501  0.00000000000E+00  0.00000000000E+00  0.42049635389E+03  0.42049635390E+03  0.25500000920E-02 0. -1.
        2   -1    0    0  501    0  0.00000000000E+00  0.00000000000E+00 -0.59433776098E+03  0.59433776099E+03  0.25500000920E-02 0.  1.
    10030    2    1    2    0    0  0.00000000000E+00  0.00000000000E+00 -0.17384140709E+03  0.10148341149E+04  0.99983370913E+03 0.  0.
        3    1    3    3  502    0 -0.27819776669E+03 -0.32010370763E+03 -0.35557352703E+03  0.55343737167E+03  0.10100000352E+00 0.  1.
       -3    1    3    3    0  502  0.27819776669E+03  0.32010370763E+03  0.18173211994E+03  0.46139674322E+03  0.10100000352E+00 0. -1.
</event>
<event>
 5   0  0.1453863E-04  0.1000373E+04  0.7818609E-02  0.9308135E-01
       -1   -1    0    0    0  501  0.00000000000E+00  0.00000000000E+00  0.53854919687E+03  0.53854919690E+03  0.50400001928E-02 0. -1.
        1   -1    0    0  501    0  0.00000000000E+00  0.00000000000E+00 -0.46455682760E+03  0.46455682763E+03  0.50400001928E-02 0.  1.
    10030    2    1    2    0    0  0.00000000000E+00  0.00000000000E+00  0.73992369273E+02  0.10031060245E+04  0.10003733432E+04 0.  0.
        1    1    3    3  502    0  0.17742949160E+03 -0.20170246110E+03 -0.38608243334E+03  0.47034535468E+03  0.50400001928E-02 0.  1.
       -1    1    3    3    0  502 -0.17742949160E+03  0.20170246110E+03  0.46007480262E+03  0.53276066985E+03  0.50400001928E-02 0. -1.
</event>
<event>
 5   0  0.1506454E-04  0.9997440E+03  0.7818609E-02  0.9308826E-01
       -1   -1    0    0    0  501  0.00000000000E+00  0.00000000000E+00  0.18562487121E+03  0.18562487128E+03  0.50400001928E-02 0. -1.
        1   -1    0    0  501    0  0.00000000000E+00  0.00000000000E+00 -0.13461127031E+04  0.13461127031E+04  0.50400001928E-02 0.  1.
    10030    2    1    2    0    0  0.00000000000E+00  0.00000000000E+00 -0.11604878319E+04  0.15317375744E+04  0.99974396164E+03 0.  0.
        3    1    3    3  502    0 -0.55184903572E+02 -0.14287986767E+03  0.14878584105E+03  0.21353516541E+03  0.10100000352E+00 0. -1.
       -3    1    3    3    0  502  0.55184903572E+02  0.14287986767E+03 -0.13092736730E+04  0.13182024090E+04  0.10100000352E+00 0.  1.
</event>
<event>
 5   0  0.1461334E-04  0.1000081E+04  0.7818609E-02  0.9308456E-01
        1   -1    0    0  501    0  0.00000000000E+00  0.00000000000E+00  0.15594727167E+04  0.15594727167E+04  0.50400001928E-02 0. -1.
       -1   -1    0    0    0  501  0.00000000000E+00  0.00000000000E+00 -0.16033667928E+03  0.16033667936E+03  0.50400001928E-02 0.  1.
    10030    2    1    2    0    0  0.00000000000E+00  0.00000000000E+00  0.13991360374E+04  0.17198093961E+04  0.10000813505E+04 0.  0.
        2    1    3    3  502    0  0.19651015809E+03 -0.50680099909E+02  0.14854700792E+04  0.14992685120E+04  0.25500000920E-02 0. -1.
       -2    1    3    3    0  502 -0.19651015809E+03  0.50680099909E+02 -0.86334041825E+02  0.22054088406E+03  0.25500000920E-02 0.  1.
</event>
<event>
 5   0  0.1430675E-04  0.1000050E+04  0.7818609E-02  0.9308490E-01
       -1   -1    0    0    0  501  0.00000000000E+00  0.00000000000E+00  0.40298316705E+03  0.40298316708E+03  0.50400001928E-02 0.  1.
        1   -1    0    0  501    0  0.00000000000E+00  0.00000000000E+00 -0.62043553313E+03  0.62043553315E+03  0.50400001928E-02 0. -1.
    10030    2    1    2    0    0  0.00000000000E+00  0.00000000000E+00 -0.21745236608E+03  0.10234187002E+04  0.10000501510E+04 0.  0.
        5    1    3    3  502    0  0.18072937901E+03  0.17157288098E+03  0.33488040903E+03  0.41745339893E+03  0.46999998093E+01 0.  1.
       -5    1    3    3    0  502 -0.18072937901E+03 -0.17157288098E+03 -0.55233277511E+03  0.60596530131E+03  0.46999998093E+01 0. -1.
</event>
<event>
 5   0  0.2353916E-04  0.9990739E+03  0.7818609E-02  0.9309561E-01
        2   -1    0    0  501    0  0.00000000000E+00  0.00000000000E+00  0.12561415163E+04  0.12561415163E+04  0.25500000920E-02 0. -1.
       -2   -1    0    0    0  501  0.00000000000E+00  0.00000000000E+00 -0.19865369042E+03  0.19865369043E+03  0.25500000920E-02 0.  1.
    10030    2    1    2    0    0  0.00000000000E+00  0.00000000000E+00  0.10574878259E+04  0.14547952067E+04  0.99907386696E+03 0.  0.
        4    1    3    3  502    0  0.22442878352E+03  0.18665943759E+03 -0.61534304872E+02  0.29832550694E+03  0.12699999809E+01 0.  1.
       -4    1    3    3    0  502 -0.22442878352E+03 -0.18665943759E+03  0.11190221308E+04  0.11564696998E+04  0.12699999809E+01 0. -1.
</event>
<event>
 5   0  0.2403037E-04  0.1000214E+04  0.7818609E-02  0.9308311E-01
        2   -1    0    0  501    0  0.00000000000E+00  0.00000000000E+00  0.47155847500E+03  0.47155847501E+03  0.25500000920E-02 0. -1.
       -2   -1    0    0    0  501  0.00000000000E+00  0.00000000000E+00 -0.53038341586E+03  0.53038341587E+03  0.25500000920E-02 0.  1.
    10030    2    1    2    0    0  0.00000000000E+00  0.00000000000E+00 -0.58824940857E+02  0.10019418909E+04  0.10002135667E+04 0.  0.
        1    1    3    3  502    0 -0.25860648357E+03  0.80190123329E+02  0.39178885313E+03  0.47624182375E+03  0.50400001928E-02 0. -1.
       -1    1    3    3    0  502  0.25860648357E+03 -0.80190123329E+02 -0.45061379399E+03  0.52570006713E+03  0.50400001928E-02 0.  1.
</event>
<event>
 5   0  0.1414165E-04  0.9999212E+03  0.7818609E-02  0.9308631E-01
        1   -1    0    0  501    0  0.00000000000E+00  0.00000000000E+00  0.10920548873E+04  0.10920548873E+04  0.50400001928E-02 0. -1.
       -1   -1    0    0    0  501  0.00000000000E+00  0.00000000000E+00 -0.22889016727E+03  0.22889016732E+03  0.50400001928E-02 0.  1.
    10030    2    1    2    0    0  0.00000000000E+00  0.00000000000E+00  0.86316472006E+03  0.13209450547E+04  0.99992124863E+03 0.  0.
        4    1    3    3  502    0 -0.37512081465E+03 -0.16309248563E+03  0.51808367011E+02  0.41231117405E+03  0.12699999809E+01 0.  1.
       -4    1    3    3    0  502  0.37512081465E+03  0.16309248563E+03  0.81135635305E+03  0.90863388061E+03  0.12699999809E+01 0. -1.
</event>
<event>
 5   0  0.2503680E-04  0.1000197E+04  0.7818609E-02  0.9308328E-01
       -2   -1    0    0    0  501  0.00000000000E+00  0.00000000000E+00  0.14708430821E+03  0.14708430823E+03  0.25500000920E-02 0.  1.
        2   -1    0    0  501    0  0.00000000000E+00  0.00000000000E+00 -0.17003768202E+04  0.17003768202E+04  0.25500000920E-02 0. -1.
    10030    2    1    2    0    0  0.00000000000E+00  0.00000000000E+00 -0.15532925120E+04  0.18474611284E+04  0.10001974771E+04 0.  0.
        2    1    3    3  502    0  0.49979552374E+03  0.72307270855E+01 -0.80590389790E+03  0.94832955328E+03  0.25500000920E-02 0. -1.
       -2    1    3    3    0  502 -0.49979552374E+03 -0.72307270855E+01 -0.74738861408E+03  0.89913157514E+03  0.25500000920E-02 0.  1.
</event>
<event>
 5   0  0.1430675E-04  0.1000470E+04  0.7818609E-02  0.9308030E-01
        1   -1    0    0  501    0  0.00000000000E+00  0.00000000000E+00  0.42145509277E+03  0.42145509280E+03  0.50400001928E-02 0. -1.
       -1   -1    0    0    0  501  0.00000000000E+00  0.00000000000E+00 -0.59374024478E+03  0.59374024480E+03  0.50400001928E-02 0.  1.
    10030    2    1    2    0    0  0.00000000000E+00  0.00000000000E+00 -0.17228515201E+03  0.10151953376E+04  0.10004695897E+04 0.  0.
        5    1    3    3  502    0  0.57808576207E+02 -0.74725288909E+02  0.41229725234E+03  0.42300923698E+03  0.46999998093E+01 0. -1.
       -5    1    3    3    0  502 -0.57808576207E+02  0.74725288909E+02 -0.58458240435E+03  0.59218610062E+03  0.46999998093E+01 0.  1.
</event>
<event>
 5   0  0.2503680E-04  0.1000882E+04  0.7818609E-02  0.9307578E-01
        2   -1    0    0  501    0  0.00000000000E+00  0.00000000000E+00  0.19132783373E+04  0.19132783373E+04  0.25500000920E-02 0. -1.
       -2   -1    0    0    0  501  0.00000000000E+00  0.00000000000E+00 -0.13089645220E+03  0.13089645223E+03  0.25500000920E-02 0.  1.
    10030    2    1    2    0    0  0.00000000000E+00  0.00000000000E+00  0.17823818851E+04  0.20441747896E+04  0.10008823037E+04 0.  0.
        2    1    3    3  502    0 -0.23883388139E+03  0.10994828999E+03  0.17608463668E+04  0.17803679892E+04  0.25500000920E-02 0. -1.
       -2    1    3    3    0  502  0.23883388139E+03 -0.10994828999E+03  0.21535518309E+02  0.26380680037E+03  0.25500000920E-02 0.  1.
</event>
<event>
 5   0  0.1461334E-04  0.9981458E+03  0.7818609E-02  0.9310581E-01
        1   -1    0    0  501    0  0.00000000000E+00  0.00000000000E+00  0.46107573859E+03  0.46107573862E+03  0.50400001928E-02 0.  1.
       -1   -1    0    0    0  501  0.00000000000E+00  0.00000000000E+00 -0.54020135313E+03  0.54020135316E+03  0.50400001928E-02 0. -1.
    10030    2    1    2    0    0  0.00000000000E+00  0.00000000000E+00 -0.79125614540E+02  0.10012770918E+04  0.99814575671E+03 0.  0.
        2    1    3    3  502    0  0.41359093154E+03  0.27727909374E+03 -0.73322261508E+02  0.50330637639E+03  0.25500000920E-02 0.  1.
       -2    1    3    3    0  502 -0.41359093154E+03 -0.27727909374E+03 -0.58033530321E+01  0.49797071539E+03  0.25500000920E-02 0. -1.
</event>
<event>
 5   0  0.1461334E-04  0.9999132E+03  0.7818609E-02  0.9308640E-01
        1   -1    0    0  501    0  0.00000000000E+00  0.00000000000E+00  0.43804160753E+03  0.43804160755E+03  0.50400001928E-02 0. -1.
       -1   -1    0    0    0  501  0.00000000000E+00  0.00000000000E+00 -0.57062293268E+03  0.57062293271E+03  0.50400001928E-02 0.  1.
    10030    2    1    2    0    0  0.00000000000E+00  0.00000000000E+00 -0.13258132516E+03  0.10086645403E+04  0.99991316973E+03 0.  0.
        2    1    3    3  502    0  0.42719948118E+03 -0.95594563798E+02  0.17731591639E+03  0.47231202775E+03  0.25500000920E-02 0. -1.
       -2    1    3    3    0  502 -0.42719948118E+03  0.95594563798E+02 -0.30989724155E+03  0.53635251251E+03  0.25500000920E-02 0.  1.
</event>
<event>
 5   0  0.1461334E-04  0.1000135E+04  0.7818609E-02  0.9308397E-01
       -1   -1    0    0    0  501  0.00000000000E+00  0.00000000000E+00  0.20491686060E+03  0.20491686066E+03  0.50400001928E-02 0. -1.
        1   -1    0    0  501    0  0.00000000000E+00  0.00000000000E+00 -0.12203353720E+04  0.12203353720E+04  0.50400001928E-02 0.  1.
    10030    2    1    2    0    0  0.00000000000E+00  0.00000000000E+00 -0.10154185114E+04  0.14252522327E+04  0.10001345777E+04 0.  0.
        2    1    3    3  502    0  0.52346408035E+01 -0.49882547443E+03 -0.55734225070E+03  0.74798705859E+03  0.25500000920E-02 0. -1.
       -2    1    3    3    0  502 -0.52346408035E+01  0.49882547443E+03 -0.45807626072E+03  0.67726517409E+03  0.25500000920E-02 0.  1.
</event>
<event>
 5   0  0.2353916E-04  0.1000344E+04  0.7818609E-02  0.9308168E-01
        2   -1    0    0  501    0  0.00000000000E+00  0.00000000000E+00  0.15188461196E+04  0.15188461196E+04  0.25500000920E-02 0. -1.
       -2   -1    0    0    0  501  0.00000000000E+00  0.00000000000E+00 -0.16471183631E+03  0.16471183633E+03  0.25500000920E-02 0.  1.
    10030    2    1    2    0    0  0.00000000000E+00  0.00000000000E+00  0.13541342832E+04  0.16835579559E+04  0.10003438078E+04 0.  0.
        4    1    3    3  502    0 -0.34753321504E+03 -0.25643827125E+03  0.11015997981E+04  0.11832428536E+04  0.12699999809E+01 0. -1.
       -4    1    3    3    0  502  0.34753321504E+03  0.25643827125E+03  0.25253448517E+03  0.50031510233E+03  0.12699999809E+01 0.  1.
</event>
<event>
 5   0  0.1430675E-04  0.9991267E+03  0.7818609E-02  0.9309503E-01
        1   -1    0    0  501    0  0.00000000000E+00  0.00000000000E+00  0.31472870583E+03  0.31472870587E+03  0.50400001928E-02 0.  1.
       -1   -1    0    0    0  501  0.00000000000E+00  0.00000000000E+00 -0.79294820051E+03  0.79294820053E+03  0.50400001928E-02 0. -1.
    10030    2    1    2    0    0  0.00000000000E+00  0.00000000000E+00 -0.47821949468E+03  0.11076769064E+04  0.99912674065E+03 0.  0.
        5    1    3    3  502    0  0.22789640162E+03  0.60864217898E+02 -0.72729167857E+03  0.76460218324E+03  0.46999998093E+01 0. -1.
       -5    1    3    3    0  502 -0.22789640162E+03 -0.60864217898E+02  0.24907218389E+03  0.34307472317E+03  0.46999998093E+01 0.  1.
</event>
<event>
 5   0  0.2473312E-04  0.1000468E+04  0.7818609E-02  0.9308032E-01
       -2   -1    0    0    0  501  0.00000000000E+00  0.00000000000E+00  0.23287999166E+03  0.23287999167E+03  0.25500000920E-02 0. -1.
        2   -1    0    0  501    0  0.00000000000E+00  0.00000000000E+00 -0.10745187807E+04  0.10745187808E+04  0.25500000920E-02 0.  1.
    10030    2    1    2    0    0  0.00000000000E+00  0.00000000000E+00 -0.84163878909E+03  0.13073987724E+04  0.10004677400E+04 0.  0.
        5    1    3    3  502    0  0.27570575859E+03 -0.12806338510E+03  0.98286124719E+02  0.31952487889E+03  0.46999998093E+01 0. -1.
       -5    1    3    3    0  502 -0.27570575859E+03  0.12806338510E+03 -0.93992491381E+03  0.98787389353E+03  0.46999998093E+01 0.  1.
</event>
<event>
 5   0  0.2473312E-04  0.1000016E+04  0.7818609E-02  0.9308527E-01
       -2   -1    0    0    0  501  0.00000000000E+00  0.00000000000E+00  0.18075471578E+03  0.18075471580E+03  0.25500000920E-02 0. -1.
        2   -1    0    0  501    0  0.00000000000E+00  0.00000000000E+00 -0.13831341503E+04  0.13831341503E+04  0.25500000920E-02 0.  1.
    10030    2    1    2    0    0  0.00000000000E+00  0.00000000000E+00 -0.12023794345E+04  0.15638888661E+04  0.10000160403E+04 0.  0.
        5    1    3    3  502    0 -0.17712877472E+03 -0.29640839194E+03 -0.11666803361E+04  0.12167159218E+04  0.46999998093E+01 0.  1.
       -5    1    3    3    0  502  0.17712877472E+03  0.29640839194E+03 -0.35699098418E+02  0.34717294433E+03  0.46999998093E+01 0. -1.
</event>
<event>
 5   0  0.2353916E-04  0.9999359E+03  0.7818609E-02  0.9308615E-01
        2   -1    0    0  501    0  0.00000000000E+00  0.00000000000E+00  0.89949021495E+03  0.89949021496E+03  0.25500000920E-02 0.  1.
       -2   -1    0    0    0  501  0.00000000000E+00  0.00000000000E+00 -0.27789957841E+03  0.27789957842E+03  0.25500000920E-02 0. -1.
    10030    2    1    2    0    0  0.00000000000E+00  0.00000000000E+00  0.62159063654E+03  0.11773897934E+04  0.99993590101E+03 0.  0.
        4    1    3    3  502    0  0.35494125294E+03 -0.85159294681E+02 -0.91496404533E+02  0.37630918598E+03  0.12699999809E+01 0. -1.
       -4    1    3    3    0  502 -0.35494125294E+03  0.85159294681E+02  0.71308704107E+03  0.80108060740E+03  0.12699999809E+01 0.  1.
</event>
<event>
 5   0  0.1414165E-04  0.9999230E+03  0.7818609E-02  0.9308629E-01
       -1   -1    0    0    0  501  0.00000000000E+00  0.00000000000E+00  0.71039909085E+03  0.71039909087E+03  0.50400001928E-02 0. -1.
        1   -1    0    0  501    0  0.00000000000E+00  0.00000000000E+00 -0.35186068564E+03  0.35186068568E+03  0.50400001928E-02 0.  1.
    10030    2    1    2    0    0  0.00000000000E+00  0.00000000000E+00  0.35853840520E+03  0.10622597765E+04  0.99992301947E+03 0.  0.
        4    1    3    3  502    0 -0.13408498386E+03 -0.50033357887E+02 -0.32963318545E+03  0.35936300540E+03  0.12699999809E+01 0.  1.
       -4    1    3    3    0  502  0.13408498386E+03  0.50033357887E+02  0.68817159066E+03  0.70289677115E+03  0.12699999809E+01 0. -1.
</event>
<event>
 5   0  0.1461334E-04  0.9996063E+03  0.7818609E-02  0.9308977E-01
       -1   -1    0    0    0  501  0.00000000000E+00  0.00000000000E+00  0.46976886177E+03  0.46976886180E+03  0.50400001928E-02 0. -1.
        1   -1    0    0  501    0  0.00000000000E+00  0.00000000000E+00 -0.53175762336E+03  0.53175762338E+03  0.50400001928E-02 0.  1.
    10030    2    1    2    0    0  0.00000000000E+00  0.00000000000E+00 -0.61988761585E+02  0.10015264852E+04  0.99960626947E+03 0.  0.
        2    1    3    3  502    0  0.10246343725E+03 -0.26880754205E+03 -0.44049325041E+03  0.52610888065E+03  0.25500000920E-02 0.  1.
       -2    1    3    3    0  502 -0.10246343725E+03  0.26880754205E+03  0.37850448882E+03  0.47541760453E+03  0.25500000920E-02 0. -1.
</event>
<event>
 5   0  0.9650500E-05  0.9996781E+03  0.7818609E-02  0.9308898E-01
        3   -1    0    0  501    0  0.00000000000E+00  0.00000000000E+00  0.51856897992E+03  0.51856898976E+03  0.10100000352E+00 0. -1.
       -3   -1    0    0    0  501  0.00000000000E+00  0.00000000000E+00 -0.48178563212E+03  0.48178564270E+03  0.10100000352E+00 0.  1.
    10030    2    1    2    0    0  0.00000000000E+00  0.00000000000E+00  0.36783347805E+02  0.10003546325E+04  0.99967813620E+03 0.  0.
        1    1    3    3  502    0 -0.25009563283E+03 -0.20175140677E+03  0.40151841695E+03  0.51426500452E+03  0.50400001928E-02 0. -1.
       -1    1    3    3    0  502  0.25009563283E+03  0.20175140677E+03 -0.36473506915E+03  0.48608962794E+03  0.50400001928E-02 0.  1.
</event>
<event>
 5   0  0.2503680E-04  0.1001547E+04  0.7818609E-02  0.9306850E-01
        2   -1    0    0  501    0  0.00000000000E+00  0.00000000000E+00  0.22532794684E+04  0.22532794684E+04  0.25500000920E-02 0. -1.
       -2   -1    0    0    0  501  0.00000000000E+00  0.00000000000E+00 -0.11129283707E+03  0.11129283710E+03  0.25500000920E-02 0.  1.
    10030    2    1    2    0    0  0.00000000000E+00  0.00000000000E+00  0.21419866313E+04  0.23645723055E+04  0.10015465337E+04 0.  0.
        2    1    3    3  502    0  0.27584849194E+02 -0.14385183923E+03  0.22015752565E+04  0.22064423595E+04  0.25500000920E-02 0. -1.
       -2    1    3    3    0  502 -0.27584849194E+02  0.14385183923E+03 -0.59588625234E+02  0.15812994599E+03  0.25500000920E-02 0.  1.
</event>
<event>
 5   0  0.1461334E-04  0.1001360E+04  0.7818609E-02  0.9307055E-01
        1   -1    0    0  501    0  0.00000000000E+00  0.00000000000E+00  0.34283923639E+03  0.34283923643E+03  0.50400001928E-02 0.  1.
       -1   -1    0    0    0  501  0.00000000000E+00  0.00000000000E+00 -0.73118917477E+03  0.73118917478E+03  0.50400001928E-02 0. -1.
    10030    2    1    2    0    0  0.00000000000E+00  0.00000000000E+00 -0.38834993838E+03  0.10740284112E+04  0.10013597523E+04 0.  0.
        2    1    3    3  502    0 -0.20151407314E+03 -0.36220653747E+03 -0.49541029363E+03  0.64593564424E+03  0.25500000920E-02 0. -1.
       -2    1    3    3    0  502  0.20151407314E+03  0.36220653747E+03  0.10706035525E+03  0.42809276697E+03  0.25500000920E-02 0.  1.
</event>
<event>
 5   0  0.2484904E-04  0.1000043E+04  0.7818609E-02  0.9308498E-01
        2   -1    0    0  501    0  0.00000000000E+00  0.00000000000E+00  0.22578131411E+03  0.22578131412E+03  0.25500000920E-02 0. -1.
       -2   -1    0    0    0  501  0.00000000000E+00  0.00000000000E+00 -0.11073614362E+04  0.11073614362E+04  0.25500000920E-02 0.  1.
    10030    2    1    2    0    0  0.00000000000E+00  0.00000000000E+00 -0.88158012208E+03  0.13331427503E+04  0.10000430396E+04 0.  0.
        3    1    3    3  502    0  0.56570447544E+02  0.28493850375E+03  0.10174676993E+03  0.30780282950E+03  0.10100000352E+00 0. -1.
       -3    1    3    3    0  502 -0.56570447544E+02 -0.28493850375E+03 -0.98332689202E+03  0.10253399208E+04  0.10100000352E+00 0.  1.
</event>
<event>
 5   0  0.2473312E-04  0.9997670E+03  0.7818609E-02  0.9308800E-01
        2   -1    0    0  501    0  0.00000000000E+00  0.00000000000E+00  0.18852393289E+03  0.18852393291E+03  0.25500000920E-02 0. -1.
       -2   -1    0    0    0  501  0.00000000000E+00  0.00000000000E+00 -0.13254735854E+04  0.13254735854E+04  0.25500000920E-02 0.  1.
    10030    2    1    2    0    0  0.00000000000E+00  0.00000000000E+00 -0.11369496525E+04  0.15139975183E+04  0.99976695939E+03 0.  0.
        5    1    3    3  502    0  0.16643206117E+03  0.13470132899E+03  0.11553116699E+03  0.24333848763E+03  0.46999998093E+01 0. -1.
       -5    1    3    3    0  502 -0.16643206117E+03 -0.13470132899E+03 -0.12524808195E+04  0.12706590307E+04  0.46999998093E+01 0.  1.
</event>
<event>
 5   0  0.1430675E-04  0.1000370E+04  0.7818609E-02  0.9308139E-01
        1   -1    0    0  501    0  0.00000000000E+00  0.00000000000E+00  0.27161801978E+03  0.27161801983E+03  0.50400001928E-02 0.  1.
       -1   -1    0    0    0  501  0.00000000000E+00  0.00000000000E+00 -0.92109173421E+03  0.92109173423E+03  0.50400001928E-02 0. -1.
    10030    2    1    2    0    0  0.00000000000E+00  0.00000000000E+00 -0.64947371443E+03  0.11927097541E+04  0.10003701573E+04 0.  0.
        5    1    3    3  502    0 -0.66574468839E+02  0.37283680026E+03 -0.71423397009E+03  0.80845018001E+03  0.46999998093E+01 0. -1.
       -5    1    3    3    0  502  0.66574468839E+02 -0.37283680026E+03  0.64760255660E+02  0.38425957404E+03  0.46999998093E+01 0.  1.
</event>
<event>
 5   0  0.1506454E-04  0.1003349E+04  0.7818609E-02  0.9304879E-01
        1   -1    0    0  501    0  0.00000000000E+00  0.00000000000E+00  0.11303057612E+04  0.11303057613E+04  0.50400001928E-02 0. -1.
       -1   -1    0    0    0  501  0.00000000000E+00  0.00000000000E+00 -0.22266298784E+03  0.22266298790E+03  0.50400001928E-02 0.  1.
    10030    2    1    2    0    0  0.00000000000E+00  0.00000000000E+00  0.90764277340E+03  0.13529687492E+04  0.10033489084E+04 0.  0.
        3    1    3    3  502    0  0.99671550810E+02  0.13409950588E+03  0.10916840140E+04  0.11043962568E+04  0.10100000352E+00 0. -1.
       -3    1    3    3    0  502 -0.99671550810E+02 -0.13409950588E+03 -0.18404124057E+03  0.24857249234E+03  0.10100000352E+00 0.  1.
</event>
<event>
 5   0  0.2484904E-04  0.9997150E+03  0.7818609E-02  0.9308857E-01
        2   -1    0    0  501    0  0.00000000000E+00  0.00000000000E+00  0.10680294639E+04  0.10680294639E+04  0.25500000920E-02 0. -1.
       -2   -1    0    0    0  501  0.00000000000E+00  0.00000000000E+00 -0.23394251362E+03  0.23394251363E+03  0.25500000920E-02 0.  1.
    10030    2    1    2    0    0  0.00000000000E+00  0.00000000000E+00  0.83408695031E+03  0.13019719776E+04  0.99971495422E+03 0.  0.
        3    1    3    3  502    0 -0.38960683928E+03  0.31294584381E+03  0.40225761490E+03  0.64151367041E+03  0.10100000352E+00 0.  1.
       -3    1    3    3    0  502  0.38960683928E+03 -0.31294584381E+03  0.43182933541E+03  0.66045830716E+03  0.10100000352E+00 0. -1.
</event>
<event>
 5   0  0.2403037E-04  0.9999664E+03  0.7818609E-02  0.9308582E-01
        2   -1    0    0  501    0  0.00000000000E+00  0.00000000000E+00  0.14224712029E+04  0.14224712029E+04  0.25500000920E-02 0.  1.
       -2   -1    0    0    0  501  0.00000000000E+00  0.00000000000E+00 -0.17573867593E+03  0.17573867595E+03  0.25500000920E-02 0. -1.
    10030    2    1    2    0    0  0.00000000000E+00  0.00000000000E+00  0.12467325270E+04  0.15982098789E+04  0.99996641097E+03 0.  0.
        1    1    3    3  502    0 -0.40700171686E+03 -0.52809806299E+02  0.16696774644E+03  0.44307730877E+03  0.50400001928E-02 0. -1.
       -1    1    3    3    0  502  0.40700171686E+03  0.52809806299E+02  0.10797647806E+04  0.11551325701E+04  0.50400001928E-02 0.  1.
</event>
<event>
 5   0  0.2403037E-04  0.1000256E+04  0.7818609E-02  0.9308264E-01
        2   -1    0    0  501    0  0.00000000000E+00  0.00000000000E+00  0.11345657497E+04  0.11345657497E+04  0.25500000920E-02 0. -1.
       -2   -1    0    0    0  501  0.00000000000E+00  0.00000000000E+00 -0.22046159765E+03  0.22046159766E+03  0.25500000920E-02 0.  1.
    10030    2    1    2    0    0  0.00000000000E+00  0.00000000000E+00  0.91410415203E+03  0.13550273473E+04  0.10002563228E+04 0.  0.
        1    1    3    3  502    0  0.26813078323E+02  0.14665255124E+03  0.11037643097E+04  0.11137870368E+04  0.50400001928E-02 0. -1.
       -1    1    3    3    0  502 -0.26813078323E+02 -0.14665255124E+03 -0.18966015772E+03  0.24124031049E+03  0.50400001928E-02 0.  1.
</event>
<event>
 5   0  0.2503680E-04  0.1000229E+04  0.7818609E-02  0.9308294E-01
       -2   -1    0    0    0  501  0.00000000000E+00  0.00000000000E+00  0.22652842608E+03  0.22652842610E+03  0.25500000920E-02 0.  1.
        2   -1    0    0  501    0  0.00000000000E+00  0.00000000000E+00 -0.11041194944E+04  0.11041194944E+04  0.25500000920E-02 0. -1.
    10030    2    1    2    0    0  0.00000000000E+00  0.00000000000E+00 -0.87759106828E+03  0.13306479205E+04  0.10002288764E+04 0.  0.
        2    1    3    3  502    0  0.24675108659E+03 -0.15150132296E+03 -0.98126858223E+03  0.10230966621E+04  0.25500000920E-02 0. -1.
       -2    1    3    3    0  502 -0.24675108659E+03  0.15150132296E+03  0.10367751395E+03  0.30755125833E+03  0.25500000920E-02 0.  1.
</event>
<event>
 5   0  0.1453863E-04  0.9995436E+03  0.7818609E-02  0.9309045E-01
       -1   -1    0    0    0  501  0.00000000000E+00  0.00000000000E+00  0.44843401753E+03  0.44843401756E+03  0.50400001928E-02 0.  1.
        1   -1    0    0  501    0  0.00000000000E+00  0.00000000000E+00 -0.55698687560E+03  0.55698687562E+03  0.50400001928E-02 0. -1.
    10030    2    1    2    0    0  0.00000000000E+00  0.00000000000E+00 -0.10855285807E+03  0.10054208932E+04  0.99954362058E+03 0.  0.
        1    1    3    3  502    0 -0.33219678010E+03  0.37264281412E+03 -0.77962599850E+02  0.50526778507E+03  0.50400001928E-02 0. -1.
       -1    1    3    3    0  502  0.33219678010E+03 -0.37264281412E+03 -0.30590258217E+02  0.50015310811E+03  0.50400001928E-02 0.  1.
</event>
<event>
 5   0  0.2403037E-04  0.9964138E+03  0.7818609E-02  0.9312487E-01
       -2   -1    0    0    0  501  0.00000000000E+00  0.00000000000E+00  0.83358740070E+03  0.83358740070E+03  0.25500000920E-02 0. -1.
        2   -1    0    0  501    0  0.00000000000E+00  0.00000000000E+00 -0.29776136626E+03  0.29776136627E+03  0.25500000920E-02 0.  1.
    10030    2    1    2    0    0  0.00000000000E+00  0.00000000000E+00  0.53582603444E+03  0.11313487670E+04  0.99641381632E+03 0.  0.
        1    1    3    3  502    0 -0.33084767200E+03  0.47798049982E+01  0.69081275181E+03  0.76596689660E+03  0.50400001928E-02 0. -1.
       -1    1    3    3    0  502  0.33084767200E+03 -0.47798049982E+01 -0.15498671737E+03  0.36538187037E+03  0.50400001928E-02 0.  1.
</event>
<event>
 5   0  0.2353916E-04  0.1000041E+04  0.7818609E-02  0.9308500E-01
        2   -1    0    0  501    0  0.00000000000E+00  0.00000000000E+00  0.61195564913E+03  0.61195564914E+03  0.25500000920E-02 0. -1.
       -2   -1    0    0    0  501  0.00000000000E+00  0.00000000000E+00 -0.40855967492E+03  0.40855967493E+03  0.25500000920E-02 0.  1.
    10030    2    1    2    0    0  0.00000000000E+00  0.00000000000E+00  0.20339597421E+03  0.10205153241E+04  0.10000408013E+04 0.  0.
        4    1    3    3  502    0  0.41496146194E+03 -0.26485321618E+03  0.19111936118E+03  0.52807997892E+03  0.12699999809E+01 0.  1.
       -4    1    3    3    0  502 -0.41496146194E+03  0.26485321618E+03  0.12276613029E+02  0.49243534514E+03  0.12699999809E+01 0. -1.
</event>
<event>
 5   0  0.2484904E-04  0.1001854E+04  0.7818609E-02  0.9306514E-01
        2   -1    0    0  501    0  0.00000000000E+00  0.00000000000E+00  0.81147494565E+03  0.81147494565E+03  0.25500000920E-02 0. -1.
       -2   -1    0    0    0  501  0.00000000000E+00  0.00000000000E+00 -0.30922416517E+03  0.30922416518E+03  0.25500000920E-02 0.  1.
    10030    2    1    2    0    0  0.00000000000E+00  0.00000000000E+00  0.50225078048E+03  0.11206991108E+04  0.10018536073E+04 0.  0.
        3    1    3    3  502    0 -0.80380019490E+02  0.57694711016E+02  0.80043552406E+03  0.80652753554E+03  0.10100000352E+00 0. -1.
       -3    1    3    3    0  502  0.80380019490E+02 -0.57694711016E+02 -0.29818474358E+03  0.31417157529E+03  0.10100000352E+00 0.  1.
</event>
<event>
 5   0  0.1506454E-04  0.1000104E+04  0.7818609E-02  0.9308431E-01
       -1   -1    0    0    0  501  0.00000000000E+00  0.00000000000E+00  0.22723990997E+03  0.22723991003E+03  0.50400001928E-02 0.  1.
        1   -1    0    0  501    0  0.00000000000E+00  0.00000000000E+00 -0.11003878205E+04  0.11003878205E+04  0.50400001928E-02 0. -1.
    10030    2    1    2    0    0  0.00000000000E+00  0.00000000000E+00 -0.87314791055E+03  0.13276277306E+04  0.10001040532E+04 0.  0.
        3    1    3    3  502    0  0.23982670041E+02 -0.22672617431E+02 -0.10989404566E+04  0.10994359251E+04  0.10100000352E+00 0. -1.
       -3    1    3    3    0  502 -0.23982670041E+02  0.22672617431E+02  0.22579254603E+03  0.22819180548E+03  0.10100000352E+00 0.  1.
</event>
<event>
 5   0  0.9650500E-05  0.9999590E+03  0.7818609E-02  0.9308590E-01
        4   -1    0    0  501    0  0.00000000000E+00  0.00000000000E+00  0.15723997737E+04  0.15724002866E+04  0.12699999809E+01 0. -1.
       -4   -1    0    0    0  501  0.00000000000E+00  0.00000000000E+00 -0.15897652914E+03  0.15898160182E+03  0.12699999809E+01 0.  1.
    10030    2    1    2    0    0  0.00000000000E+00  0.00000000000E+00  0.14134232446E+04  0.17313818884E+04  0.99995898675E+03 0.  0.
        4    1    3    3  502    0  0.21044831952E+03 -0.35013093224E+03  0.20759133126E+03  0.45823131562E+03  0.12699999809E+01 0.  1.
       -4    1    3    3    0  502 -0.21044831952E+03  0.35013093224E+03  0.12058319133E+04  0.12731505728E+04  0.12699999809E+01 0. -1.
</event>
<event>
 5   0  0.2403037E-04  0.1000393E+04  0.7818609E-02  0.9308114E-01
        2   -1    0    0  501    0  0.00000000000E+00  0.00000000000E+00  0.87574805045E+03  0.87574805045E+03  0.25500000920E-02 0. -1.
       -2   -1    0    0    0  501  0.00000000000E+00  0.00000000000E+00 -0.28569458653E+03  0.28569458654E+03  0.25500000920E-02 0.  1.
    10030    2    1    2    0    0  0.00000000000E+00  0.00000000000E+00  0.59005346392E+03  0.11614426370E+04  0.10003928772E+04 0.  0.
        1    1    3    3  502    0 -0.62592085043E+02  0.26577274222E+03 -0.19154098039E+03  0.33352791009E+03  0.50400001928E-02 0.  1.
       -1    1    3    3    0  502  0.62592085043E+02 -0.26577274222E+03  0.78159444431E+03  0.82791472690E+03  0.50400001928E-02 0. -1.
</event>
<event>
 5   0  0.2353916E-04  0.9999088E+03  0.7818609E-02  0.9308645E-01
       -2   -1    0    0    0  501  0.00000000000E+00  0.00000000000E+00  0.30748442403E+03  0.30748442404E+03  0.25500000920E-02 0. -1.
        2   -1    0    0  501    0  0.00000000000E+00  0.00000000000E+00 -0.81290095166E+03  0.81290095166E+03  0.25500000920E-02 0.  1.
    10030    2    1    2    0    0  0.00000000000E+00  0.00000000000E+00 -0.50541652763E+03  0.11203853757E+04  0.99990875768E+03 0.  0.
        4    1    3    3  502    0  0.10758491879E+03  0.17761968979E+02  0.29399642244E+03  0.31356899018E+03  0.12699999809E+01 0. -1.
       -4    1    3    3    0  502 -0.10758491879E+03 -0.17761968979E+02 -0.79941295007E+03  0.80681638552E+03  0.12699999809E+01 0.  1.
</event>
<event>
 5   0  0.2484904E-04  0.1000072E+04  0.7818609E-02  0.9308466E-01
        2   -1    0    0  501    0  0.00000000000E+00  0.00000000000E+00  0.22515237949E+04  0.22515237949E+04  0.25500000920E-02 0.  1.
       -2   -1    0    0    0  501  0.00000000000E+00  0.00000000000E+00 -0.11105196316E+03  0.11105196319E+03  0.25500000920E-02 0. -1.
    10030    2    1    2    0    0  0.00000000000E+00  0.00000000000E+00  0.21404718317E+04  0.23625757581E+04  0.10000722725E+04 0.  0.
        3    1    3    3  502    0 -0.29176615125E+03 -0.18132282270E+03  0.21183182692E+03  0.40358169699E+03  0.10100000352E+00 0. -1.
       -3    1    3    3    0  502  0.29176615125E+03  0.18132282270E+03  0.19286400048E+04  0.19589940611E+04  0.10100000352E+00 0.  1.
</event>
<event>
 5   0  0.1453863E-04  0.9997740E+03  0.7818609E-02  0.9308793E-01
        1   -1    0    0  501    0  0.00000000000E+00  0.00000000000E+00  0.72649795423E+03  0.72649795424E+03  0.50400001928E-02 0.  1.
       -1   -1    0    0    0  501  0.00000000000E+00  0.00000000000E+00 -0.34396110120E+03  0.34396110124E+03  0.50400001928E-02 0. -1.
    10030    2    1    2    0    0  0.00000000000E+00  0.00000000000E+00  0.38253685302E+03  0.10704590555E+04  0.99977404725E+03 0.  0.
        1    1    3    3  502    0 -0.36556640068E+03 -0.27542225260E+03  0.40645222421E+03  0.61212712824E+03  0.50400001928E-02 0. -1.
       -1    1    3    3    0  502  0.36556640068E+03  0.27542225260E+03 -0.23915371192E+02  0.45833192725E+03  0.50400001928E-02 0.  1.
</event>
<event>
 5   0  0.2503680E-04  0.1000355E+04  0.7818609E-02  0.9308156E-01
       -2   -1    0    0    0  501  0.00000000000E+00  0.00000000000E+00  0.11582737177E+03  0.11582737180E+03  0.25500000920E-02 0. -1.
        2   -1    0    0  501    0  0.00000000000E+00  0.00000000000E+00 -0.21599158239E+04  0.21599158239E+04  0.25500000920E-02 0.  1.
    10030    2    1    2    0    0  0.00000000000E+00  0.00000000000E+00 -0.20440884522E+04  0.22757431958E+04  0.10003546834E+04 0.  0.
        2    1    3    3  502    0 -0.15823485616E+03  0.37074063838E+03 -0.34837691683E+03  0.53277890990E+03  0.25500000920E-02 0. -1.
       -2    1    3    3    0  502  0.15823485616E+03 -0.37074063838E+03 -0.16957115353E+04  0.17429642858E+04  0.25500000920E-02 0.  1.
</event>
<event>
 5   0  0.1414165E-04  0.1000261E+04  0.7818609E-02  0.9308258E-01
       -1   -1    0    0    0  501  0.00000000000E+00  0.00000000000E+00  0.87372084522E+03  0.87372084523E+03  0.50400001928E-02 0.  1.
        1   -1    0    0  501    0  0.00000000000E+00  0.00000000000E+00 -0.28628223941E+03  0.28628223946E+03  0.50400001928E-02 0. -1.
    10030    2    1    2    0    0  0.00000000000E+00  0.00000000000E+00  0.58743860580E+03  0.11600030847E+04  0.10002614863E+04 0.  0.
        4    1    3    3  502    0 -0.46896702623E+03 -0.44078761444E+02  0.98778836112E+02  0.48128149794E+03  0.12699999809E+01 0. -1.
       -4    1    3    3    0  502  0.46896702623E+03  0.44078761444E+02  0.48865976969E+03  0.67872158675E+03  0.12699999809E+01 0.  1.
</event>
<event>
 5   0  0.1461334E-04  0.9986602E+03  0.7818609E-02  0.9310015E-01
        1   -1    0    0  501    0  0.00000000000E+00  0.00000000000E+00  0.15506072916E+04  0.15506072916E+04  0.50400001928E-02 0.  1.
       -1   -1    0    0    0  501  0.00000000000E+00  0.00000000000E+00 -0.16079542452E+03  0.16079542460E+03  0.50400001928E-02 0. -1.
    10030    2    1    2    0    0  0.00000000000E+00  0.00000000000E+00  0.13898118671E+04  0.17114027162E+04  0.99866021808E+03 0.  0.
        2    1    3    3  502    0  0.30904546690E+03 -0.47245652207E+02  0.27686405555E+02  0.31385950571E+03  0.25500000920E-02 0. -1.
       -2    1    3    3    0  502 -0.30904546690E+03  0.47245652207E+02  0.13621254616E+04  0.13975432105E+04  0.25500000920E-02 0.  1.
</event>
<event>
 5   0  0.2473312E-04  0.9999740E+03  0.7818609E-02  0.9308573E-01
       -2   -1    0    0    0  501  0.00000000000E+00  0.00000000000E+00  0.29002711498E+03  0.29002711499E+03  0.25500000920E-02 0. -1.
        2   -1    0    0  501    0  0.00000000000E+00  0.00000000000E+00 -0.86194353143E+03  0.86194353143E+03  0.25500000920E-02 0.  1.
    10030    2    1    2    0    0  0.00000000000E+00  0.00000000000E+00 -0.57191641644E+03  0.11519706464E+04  0.99997399107E+03 0.  0.
        5    1    3    3  502    0 -0.49873028985E+02  0.42715104750E+03 -0.57970609621E+03  0.72182171232E+03  0.46999998093E+01 0. -1.
       -5    1    3    3    0  502  0.49873028985E+02 -0.42715104750E+03  0.77896797668E+01  0.43014893410E+03  0.46999998093E+01 0.  1.
</event>
<event>
 5   0  0.1453863E-04  0.9990611E+03  0.7818609E-02  0.9309575E-01
       -1   -1    0    0    0  501  0.00000000000E+00  0.00000000000E+00  0.28808268035E+03  0.28808268039E+03  0.50400001928E-02 0. -1.
        1   -1    0    0  501    0  0.00000000000E+00  0.00000000000E+00 -0.86617761262E+03  0.86617761263E+03  0.50400001928E-02 0.  1.
    10030    2    1    2    0    0  0.00000000000E+00  0.00000000000E+00 -0.57809493227E+03  0.11542602930E+04  0.99906109589E+03 0.  0.
        1    1    3    3  502    0  0.22288554479E+03  0.34823700988E+03  0.34828100551E+02  0.41492165253E+03  0.50400001928E-02 0. -1.
       -1    1    3    3    0  502 -0.22288554479E+03 -0.34823700988E+03 -0.61292303282E+03  0.73933864049E+03  0.50400001928E-02 0.  1.
</event>
<event>
 5   0  0.2353916E-04  0.1000004E+04  0.7818609E-02  0.9308540E-01
        2   -1    0    0  501    0  0.00000000000E+00  0.00000000000E+00  0.12007170843E+04  0.12007170843E+04  0.25500000920E-02 0. -1.
       -2   -1    0    0    0  501  0.00000000000E+00  0.00000000000E+00 -0.20821062730E+03  0.20821062732E+03  0.25500000920E-02 0.  1.
    10030    2    1    2    0    0  0.00000000000E+00  0.00000000000E+00  0.99250645696E+03  0.14089277116E+04  0.10000041147E+04 0.  0.
        4    1    3    3  502    0 -0.63663401458E+02 -0.70086734182E+02  0.11879682678E+04  0.11917362951E+04  0.12699999809E+01 0. -1.
       -4    1    3    3    0  502  0.63663401458E+02  0.70086734182E+02 -0.19546181081E+03  0.21719141645E+03  0.12699999809E+01 0.  1.
</event>
<event>
 5   0  0.1430675E-04  0.9999586E+03  0.7818609E-02  0.9308590E-01
       -1   -1    0    0    0  501  0.00000000000E+00  0.00000000000E+00  0.27607089029E+03  0.27607089033E+03  0.50400001928E-02 0.  1.
        1   -1    0    0  501    0  0.00000000000E+00  0.00000000000E+00 -0.90548947505E+03  0.90548947507E+03  0.50400001928E-02 0. -1.
    10030    2    1    2    0    0  0.00000000000E+00  0.00000000000E+00 -0.62941858477E+03  0.11815603654E+04  0.99995857026E+03 0.  0.
        5    1    3    3  502    0 -0.15788444759E+03 -0.19711683746E+03  0.19513102940E+03  0.31918764863E+03  0.46999998093E+01 0.  1.
       -5    1    3    3    0  502  0.15788444759E+03  0.19711683746E+03 -0.82454961417E+03  0.86237271677E+03  0.46999998093E+01 0. -1.
</event>
<event>
 5   0  0.2484904E-04  0.9983353E+03  0.7818609E-02  0.9310372E-01
       -2   -1    0    0    0  501  0.00000000000E+00  0.00000000000E+00  0.13713497370E+03  0.13713497372E+03  0.25500000920E-02 0. -1.
        2   -1    0    0  501    0  0.00000000000E+00  0.00000000000E+00 -0.18169570519E+04  0.18169570519E+04  0.25500000920E-02 0.  1.
    10030    2    1    2    0    0  0.00000000000E+00  0.00000000000E+00 -0.16798220782E+04  0.19540920256E+04  0.99833532952E+03 0.  0.
        3    1    3    3  502    0 -0.14402058706E+03 -0.47706214216E+03 -0.89657727428E+03  0.10257587611E+04  0.10100000352E+00 0. -1.
       -3    1    3    3    0  502  0.14402058706E+03  0.47706214216E+03 -0.78324480389E+03  0.92833326451E+03  0.10100000352E+00 0.  1.
</event>
<event>
 5   0  0.2484904E-04  0.1000147E+04  0.7818609E-02  0.9308384E-01
        2   -1    0    0  501    0  0.00000000000E+00  0.00000000000E+00  0.12747290036E+04  0.12747290036E+04  0.25500000920E-02 0. -1.
       -2   -1    0    0    0  501  0.00000000000E+00  0.00000000000E+00 -0.19617767558E+03  0.19617767559E+03  0.25500000920E-02 0.  1.
    10030    2    1    2    0    0  0.00000000000E+00  0.00000000000E+00  0.10785513281E+04  0.14709066792E+04  0.10001467351E+04 0.  0.
        3    1    3    3  502    0  0.41687373929E+03  0.21297844865E+03  0.28062705010E+03  0.54579765990E+03  0.10100000352E+00 0.  1.
       -3    1    3    3    0  502 -0.41687373929E+03 -0.21297844865E+03  0.79792427796E+03  0.92510901934E+03  0.10100000352E+00 0. -1.
</event>
<event>
 5   0  0.1506454E-04  0.1000705E+04  0.7818609E-02  0.9307772E-01
       -1   -1    0    0    0  501  0.00000000000E+00  0.00000000000E+00  0.17985634139E+03  0.17985634146E+03  0.50400001928E-02 0.  1.
        1   -1    0    0  501    0  0.00000000000E+00  0.00000000000E+00 -0.13919576023E+04  0.13919576023E+04  0.50400001928E-02 0. -1.
    10030    2    1    2    0    0  0.00000000000E+00  0.00000000000E+00 -0.12121012609E+04  0.15718139438E+04  0.10007045554E+04 0.  0.
        3    1    3    3  502    0 -0.39999948066E+03 -0.28806287484E+03 -0.74091748204E+03  0.88990928178E+03  0.10100000352E+00 0. -1.
       -3    1    3    3    0  502  0.39999948066E+03  0.28806287484E+03 -0.47118377889E+03  0.68190466202E+03  0.10100000352E+00 0.  1.
</event>
<event>
 5   0  0.2503680E-04  0.1000090E+04  0.7818609E-02  0.9308447E-01
       -2   -1    0    0    0  501  0.00000000000E+00  0.00000000000E+00  0.36993053531E+03  0.36993053532E+03  0.25500000920E-02 0. -1.
        2   -1    0    0  501    0  0.00000000000E+00  0.00000000000E+00 -0.67592361542E+03  0.67592361543E+03  0.25500000920E-02 0.  1.
    10030    2    1    2    0    0  0.00000000000E+00  0.00000000000E+00 -0.30599308011E+03  0.10458541507E+04  0.10000895658E+04 0.  0.
        2    1    3    3  502    0 -0.42695528217E+03  0.69931371906E+02  0.10920290388E+03  0.44621349595E+03  0.25500000920E-02 0. -1.
       -2    1    3    3    0  502  0.42695528217E+03 -0.69931371906E+02 -0.41519598400E+03  0.59964065479E+03  0.25500000920E-02 0.  1.
</event>
<event>
 5   0  0.2353916E-04  0.9996050E+03  0.7818609E-02  0.9308978E-01
        2   -1    0    0  501    0  0.00000000000E+00  0.00000000000E+00  0.64192351419E+03  0.64192351420E+03  0.25500000920E-02 0. -1.
       -2   -1    0    0    0  501  0.00000000000E+00  0.00000000000E+00 -0.38914685467E+03  0.38914685468E+03  0.25500000920E-02 0.  1.
    10030    2    1    2    0    0  0.00000000000E+00  0.00000000000E+00  0.25277665952E+03  0.10310703689E+04  0.99960495496E+03 0.  0.
        4    1    3    3  502    0  0.14287368060E+03 -0.28873243704E+03  0.52054460899E+03  0.61216632679E+03  0.12699999809E+01 0. -1.
       -4    1    3    3    0  502 -0.14287368060E+03  0.28873243704E+03 -0.26776794947E+03  0.41890404208E+03  0.12699999809E+01 0.  1.
</event>
<event>
 5   0  0.2353916E-04  0.9998076E+03  0.7818609E-02  0.9308756E-01
       -2   -1    0    0    0  501  0.00000000000E+00  0.00000000000E+00  0.15695138150E+03  0.15695138152E+03  0.25500000920E-02 0. -1.
        2   -1    0    0  501    0  0.00000000000E+00  0.00000000000E+00 -0.15922369387E+04  0.15922369387E+04  0.25500000920E-02 0.  1.
    10030    2    1    2    0    0  0.00000000000E+00  0.00000000000E+00 -0.14352855572E+04  0.17491883202E+04  0.99980755592E+03 0.  0.
        4    1    3    3  502    0 -0.10542540127E+03  0.15843022426E+03  0.91098735566E+02  0.21098635907E+03  0.12699999809E+01 0. -1.
       -4    1    3    3    0  502  0.10542540127E+03 -0.15843022426E+03 -0.15263842927E+04  0.15382019611E+04  0.12699999809E+01 0.  1.
</event>
<event>
 5   0  0.1461334E-04  0.9994712E+03  0.7818609E-02  0.9309125E-01
        1   -1    0    0  501    0  0.00000000000E+00  0.00000000000E+00  0.13658880448E+04  0.13658880448E+04  0.50400001928E-02 0.  1.
       -1   -1    0    0    0  501  0.00000000000E+00  0.00000000000E+00 -0.18283758889E+03  0.18283758896E+03  0.50400001928E-02 0. -1.
    10030    2    1    2    0    0  0.00000000000E+00  0.00000000000E+00  0.11830504559E+04  0.15487256337E+04  0.99947121392E+03 0.  0.
        2    1    3    3  502    0 -0.38032762978E+03 -0.24704846944E+03  0.26629191747E+03  0.52592151272E+03  0.25500000920E-02 0. -1.
       -2    1    3    3    0  502  0.38032762978E+03  0.24704846944E+03  0.91675853839E+03  0.10228041210E+04  0.25500000920E-02 0.  1.
</event>
<event>
 5   0  0.1506454E-04  0.1001231E+04  0.7818609E-02  0.9307195E-01
       -1   -1    0    0    0  501  0.00000000000E+00  0.00000000000E+00  0.16432535457E+03  0.16432535464E+03  0.50400001928E-02 0.  1.
        1   -1    0    0  501    0  0.00000000000E+00  0.00000000000E+00 -0.15251210678E+04  0.15251210678E+04  0.50400001928E-02 0. -1.
    10030    2    1    2    0    0  0.00000000000E+00  0.00000000000E+00 -0.13607957132E+04  0.16894464224E+04  0.10012313625E+04 0.  0.
        3    1    3    3  502    0  0.26190197225E+01  0.10226026853E+03 -0.15072980778E+04  0.15107652125E+04  0.10100000352E+00 0. -1.
       -3    1    3    3    0  502 -0.26190197225E+01 -0.10226026853E+03  0.14650236453E+03  0.17868120998E+03  0.10100000352E+00 0.  1.
</event>
<event>
 5   0  0.1453863E-04  0.1000127E+04  0.7818609E-02  0.9308405E-01
        1   -1    0    0  501    0  0.00000000000E+00  0.00000000000E+00  0.93898843560E+03  0.93898843562E+03  0.50400001928E-02 0.  1.
       -1   -1    0    0    0  501  0.00000000000E+00  0.00000000000E+00 -0.26631182122E+03  0.26631182127E+03  0.50400001928E-02 0. -1.
    10030    2    1    2    0    0  0.00000000000E+00  0.00000000000E+00  0.67267661438E+03  0.12053002569E+04  0.10001274327E+04 0.  0.
        1    1    3    3  502    0  0.37001769008E+03 -0.32859420947E+02  0.73978514481E+03  0.82781332016E+03  0.50400001928E-02 0.  1.
       -1    1    3    3    0  502 -0.37001769008E+03  0.32859420947E+02 -0.67108530430E+02  0.37748693673E+03  0.50400001928E-02 0. -1.
</event>
<event>
 5   0  0.1461334E-04  0.9997068E+03  0.7818609E-02  0.9308866E-01
        1   -1    0    0  501    0  0.00000000000E+00  0.00000000000E+00  0.10544371867E+04  0.10544371867E+04  0.50400001928E-02 0. -1.
       -1   -1    0    0    0  501  0.00000000000E+00  0.00000000000E+00 -0.23695428630E+03  0.23695428635E+03  0.50400001928E-02 0.  1.
    10030    2    1    2    0    0  0.00000000000E+00  0.00000000000E+00  0.81748290044E+03  0.12913914731E+04  0.99970677915E+03 0.  0.
        2    1    3    3  502    0  0.10733047053E+03  0.41155795961E+03  0.74794769195E+03  0.86042171865E+03  0.25500000920E-02 0. -1.
       -2    1    3    3    0  502 -0.10733047053E+03 -0.41155795961E+03  0.69535208487E+02  0.43096975445E+03  0.25500000920E-02 0.  1.
</event>
<event>
 5   0  0.1453863E-04  0.1000786E+04  0.7818609E-02  0.9307683E-01
       -1   -1    0    0    0  501  0.00000000000E+00  0.00000000000E+00  0.26208942215E+03  0.26208942220E+03  0.50400001928E-02 0. -1.
        1   -1    0    0  501    0  0.00000000000E+00  0.00000000000E+00 -0.95537378908E+03  0.95537378910E+03  0.50400001928E-02 0.  1.
    10030    2    1    2    0    0  0.00000000000E+00  0.00000000000E+00 -0.69328436693E+03  0.12174632113E+04  0.10007864195E+04 0.  0.
        1    1    3    3  502    0 -0.12778673275E+03  0.48070304027E+03 -0.28013918246E+03  0.57086147493E+03  0.50400001928E-02 0. -1.
       -1    1    3    3    0  502  0.12778673275E+03 -0.48070304027E+03 -0.41314518448E+03  0.64660173636E+03  0.50400001928E-02 0.  1.
</event>
<event>
 5   0  0.2503680E-04  0.9989503E+03  0.7818609E-02  0.9309697E-01
       -2   -1    0    0    0  501  0.00000000000E+00  0.00000000000E+00  0.47490132570E+03  0.47490132571E+03  0.25500000920E-02 0. -1.
        2   -1    0    0  501    0  0.00000000000E+00  0.00000000000E+00 -0.52532058959E+03  0.52532058959E+03  0.25500000920E-02 0.  1.
    10030    2    1    2    0    0  0.00000000000E+00  0.00000000000E+00 -0.50419263887E+02  0.10002219153E+04  0.99895033794E+03 0.  0.
        2    1    3    3  502    0  0.37507170264E+03 -0.31906479451E+03  0.58528870890E+02  0.49588986070E+03  0.25500000920E-02 0. -1.
       -2    1    3    3    0  502 -0.37507170264E+03  0.31906479451E+03 -0.10894813478E+03  0.50433205459E+03  0.25500000920E-02 0.  1.
</event>
<event>
 5   0  0.1414165E-04  0.1000231E+04  0.7818609E-02  0.9308291E-01
        1   -1    0    0  501    0  0.00000000000E+00  0.00000000000E+00  0.65025319051E+03  0.65025319053E+03  0.50400001928E-02 0.  1.
       -1   -1    0    0    0  501  0.00000000000E+00  0.00000000000E+00 -0.38464330915E+03  0.38464330919E+03  0.50400001928E-02 0. -1.
    10030    2    1    2    0    0  0.00000000000E+00  0.00000000000E+00  0.26560988136E+03  0.10348964997E+04  0.10002310513E+04 0.  0.
        4    1    3    3  502    0  0.32759887731E+03  0.11049777596E+03  0.50669175069E+03  0.61340763447E+03  0.12699999809E+01 0.  1.
       -4    1    3    3    0  502 -0.32759887731E+03 -0.11049777596E+03 -0.24108186933E+03  0.42148886525E+03  0.12699999809E+01 0. -1.
</event>
<event>
 5   0  0.2353916E-04  0.1000024E+04  0.7818609E-02  0.9308519E-01
       -2   -1    0    0    0  501  0.00000000000E+00  0.00000000000E+00  0.55170178902E+03  0.55170178902E+03  0.25500000920E-02 0. -1.
        2   -1    0    0  501    0  0.00000000000E+00  0.00000000000E+00 -0.45316485318E+03  0.45316485319E+03  0.25500000920E-02 0.  1.
    10030    2    1    2    0    0  0.00000000000E+00  0.00000000000E+00  0.98536935832E+02  0.10048666422E+04  0.10000237202E+04 0.  0.
        4    1    3    3  502    0  0.31039684306E+03 -0.17790542838E+03 -0.30172774995E+03  0.46801473227E+03  0.12699999809E+01 0.  1.
       -4    1    3    3    0  502 -0.31039684306E+03  0.17790542838E+03  0.40026468578E+03  0.53685190995E+03  0.12699999809E+01 0. -1.
</event>
<event>
 5   0  0.1414165E-04  0.9997642E+03  0.7818609E-02  0.9308803E-01
       -1   -1    0    0    0  501  0.00000000000E+00  0.00000000000E+00  0.45145427853E+03  0.45145427856E+03  0.50400001928E-02 0.  1.
        1   -1    0    0  501    0  0.00000000000E+00  0.00000000000E+00 -0.55350482186E+03  0.55350482188E+03  0.50400001928E-02 0. -1.
    10030    2    1    2    0    0  0.00000000000E+00  0.00000000000E+00 -0.10205054333E+03  0.10049591004E+04  0.99976421228E+03 0.  0.
        4    1    3    3  502    0 -0.72410401318E+02 -0.49219073228E+03 -0.10012088547E+03  0.50746506064E+03  0.12699999809E+01 0. -1.
       -4    1    3    3    0  502  0.72410401318E+02  0.49219073228E+03 -0.19296578559E+01  0.49749403980E+03  0.12699999809E+01 0.  1.
</event>
<event>
 5   0  0.1506454E-04  0.1000037E+04  0.7818609E-02  0.9308504E-01
       -1   -1    0    0    0  501  0.00000000000E+00  0.00000000000E+00  0.29734007396E+03  0.29734007400E+03  0.50400001928E-02 0. -1.
        1   -1    0    0  501    0  0.00000000000E+00  0.00000000000E+00 -0.84085042645E+03  0.84085042646E+03  0.50400001928E-02 0.  1.
    10030    2    1    2    0    0  0.00000000000E+00  0.00000000000E+00 -0.54351035249E+03  0.11381905005E+04  0.10000370554E+04 0.  0.
        3    1    3    3  502    0 -0.41866704309E+02  0.44763971401E+02 -0.83655878453E+03  0.83880107549E+03  0.10100000352E+00 0.  1.
       -3    1    3    3    0  502  0.41866704309E+02 -0.44763971401E+02  0.29304843204E+03  0.29938942498E+03  0.10100000352E+00 0. -1.
</event>
<event>
 5   0  0.2503680E-04  0.9998841E+03  0.7818609E-02  0.9308672E-01
        2   -1    0    0  501    0  0.00000000000E+00  0.00000000000E+00  0.21639917758E+04  0.21639917758E+04  0.25500000920E-02 0. -1.
       -2   -1    0    0    0  501  0.00000000000E+00  0.00000000000E+00 -0.11550045643E+03  0.11550045646E+03  0.25500000920E-02 0.  1.
    10030    2    1    2    0    0  0.00000000000E+00  0.00000000000E+00  0.20484913193E+04  0.22794922322E+04  0.99988406897E+03 0.  0.
        2    1    3    3  502    0 -0.15654462627E+02 -0.13026969961E+03  0.21240404269E+04  0.21280890470E+04  0.25500000920E-02 0. -1.
       -2    1    3    3    0  502  0.15654462627E+02  0.13026969961E+03 -0.75549107569E+02  0.15140318523E+03  0.25500000920E-02 0.  1.
</event>
<event>
 5   0  0.2403037E-04  0.9997373E+03  0.7818609E-02  0.9308833E-01
       -2   -1    0    0    0  501  0.00000000000E+00  0.00000000000E+00  0.17037824325E+03  0.17037824327E+03  0.25500000920E-02 0. -1.
        2   -1    0    0  501    0  0.00000000000E+00  0.00000000000E+00 -0.14665527503E+04  0.14665527503E+04  0.25500000920E-02 0.  1.
    10030    2    1    2    0    0  0.00000000000E+00  0.00000000000E+00 -0.12961745071E+04  0.16369309936E+04  0.99973732801E+03 0.  0.
        1    1    3    3  502    0  0.10410702730E+03  0.38219640574E+02 -0.14461553656E+04  0.14504014463E+04  0.50400001928E-02 0.  1.
       -1    1    3    3    0  502 -0.10410702730E+03 -0.38219640574E+02  0.14998085852E+03  0.18652954727E+03  0.50400001928E-02 0. -1.
</event>
<event>
 5   0  0.2473312E-04  0.9994443E+03  0.7818609E-02  0.9309154E-01
        2   -1    0    0  501    0  0.00000000000E+00  0.00000000000E+00  0.18784919404E+04  0.18784919404E+04  0.25500000920E-02 0. -1.
       -2   -1    0    0    0  501  0.00000000000E+00  0.00000000000E+00 -0.13293761165E+03  0.13293761168E+03  0.25500000920E-02 0.  1.
    10030    2    1    2    0    0  0.00000000000E+00  0.00000000000E+00  0.17455543287E+04  0.20114295521E+04  0.99944430979E+03 0.  0.
        5    1    3    3  502    0 -0.28538800544E+03 -0.34751212682E+03  0.43420261514E+03  0.62511198431E+03  0.46999998093E+01 0.  1.
       -5    1    3    3    0  502  0.28538800544E+03  0.34751212682E+03  0.13113517136E+04  0.13863175677E+04  0.46999998093E+01 0. -1.
</event>
<event>
 5   0  0.1414165E-04  0.1002936E+04  0.7818609E-02  0.9305331E-01
        1   -1    0    0  501    0  0.00000000000E+00  0.00000000000E+00  0.94762170017E+03  0.94762170018E+03  0.50400001928E-02 0.  1.
       -1   -1    0    0    0  501  0.00000000000E+00  0.00000000000E+00 -0.26536962354E+03  0.26536962359E+03  0.50400001928E-02 0. -1.
    10030    2    1    2    0    0  0.00000000000E+00  0.00000000000E+00  0.68225207663E+03  0.12129913238E+04  0.10029357185E+04 0.  0.
        4    1    3    3  502    0 -0.96870934916E+02  0.22417217554E+03  0.87084349363E+03  0.90443747468E+03  0.12699999809E+01 0.  1.
       -4    1    3    3    0  502  0.96870934916E+02 -0.22417217554E+03 -0.18859141700E+03  0.30855384908E+03  0.12699999809E+01 0. -1.
</event>
<event>
 5   0  0.1453863E-04  0.1000018E+04  0.7818609E-02  0.9308525E-01
       -1   -1    0    0    0  501  0.00000000000E+00  0.00000000000E+00  0.60968408929E+03  0.60968408931E+03  0.50400001928E-02 0. -1.
        1   -1    0    0  501    0  0.00000000000E+00  0.00000000000E+00 -0.41006355993E+03  0.41006355996E+03  0.50400001928E-02 0.  1.
    10030    2    1    2    0    0  0.00000000000E+00  0.00000000000E+00  0.19962052936E+03  0.10197476493E+04  0.10000184561E+04 0.  0.
        1    1    3    3  502    0  0.37316832022E+03  0.21848363700E+03  0.35579984518E+03  0.55998502186E+03  0.50400001928E-02 0. -1.
       -1    1    3    3    0  502 -0.37316832022E+03 -0.21848363700E+03 -0.15617931582E+03  0.45976262741E+03  0.50400001928E-02 0.  1.
</event>
<event>
 5   0  0.1506454E-04  0.9998880E+03  0.7818609E-02  0.9308668E-01
        1   -1    0    0  501    0  0.00000000000E+00  0.00000000000E+00  0.16765315859E+04  0.16765315859E+04  0.50400001928E-02 0. -1.
       -1   -1    0    0    0  501  0.00000000000E+00  0.00000000000E+00 -0.14908397713E+03  0.14908397722E+03  0.50400001928E-02 0.  1.
    10030    2    1    2    0    0  0.00000000000E+00  0.00000000000E+00  0.15274476087E+04  0.18256155631E+04  0.99988798711E+03 0.  0.
        3    1    3    3  502    0  0.21410349343E+03  0.23954284698E+03  0.64353903667E+02  0.32766219885E+03  0.10100000352E+00 0.  1.
       -3    1    3    3    0  502 -0.21410349343E+03 -0.23954284698E+03  0.14630937051E+04  0.14979533642E+04  0.10100000352E+00 0. -1.
</event>
<event>
 5   0  0.2484904E-04  0.1000392E+04  0.7818609E-02  0.9308115E-01
        2   -1    0    0  501    0  0.00000000000E+00  0.00000000000E+00  0.83711819184E+03  0.83711819185E+03  0.25500000920E-02 0.  1.
       -2   -1    0    0    0  501  0.00000000000E+00  0.00000000000E+00 -0.29887780224E+03  0.29887780225E+03  0.25500000920E-02 0. -1.
    10030    2    1    2    0    0  0.00000000000E+00  0.00000000000E+00  0.53824038960E+03  0.11359959941E+04  0.10003920140E+04 0.  0.
        3    1    3    3  502    0  0.10882166043E+03  0.86503089677E+01  0.82342611493E+03  0.83063081967E+03  0.10100000352E+00 0.  1.
       -3    1    3    3    0  502 -0.10882166043E+03 -0.86503089677E+01 -0.28518572533E+03  0.30536517443E+03  0.10100000352E+00 0. -1.
</event>
<event>
 5   0  0.2503680E-04  0.9998423E+03  0.7818609E-02  0.9308718E-01
        2   -1    0    0  501    0  0.00000000000E+00  0.00000000000E+00  0.14380563549E+04  0.14380563549E+04  0.25500000920E-02 0.  1.
       -2   -1    0    0    0  501  0.00000000000E+00  0.00000000000E+00 -0.17379093186E+03  0.17379093187E+03  0.25500000920E-02 0. -1.
    10030    2    1    2    0    0  0.00000000000E+00  0.00000000000E+00  0.12642654230E+04  0.16118472868E+04  0.99984229555E+03 0.  0.
        2    1    3    3  502    0 -0.19234385191E+03 -0.45936801595E+03  0.70251386887E+03  0.86112767195E+03  0.25500000920E-02 0. -1.
       -2    1    3    3    0  502  0.19234385191E+03  0.45936801595E+03  0.56175155416E+03  0.75071961480E+03  0.25500000920E-02 0.  1.
</event>
<event>
 5   0  0.9650500E-05  0.1000169E+04  0.7818609E-02  0.9308359E-01
       -4   -1    0    0    0  501  0.00000000000E+00  0.00000000000E+00  0.25472397915E+03  0.25472714510E+03  0.12699999809E+01 0.  1.
        4   -1    0    0  501    0  0.00000000000E+00  0.00000000000E+00 -0.98177707435E+03  0.98177789577E+03  0.12699999809E+01 0. -1.
    10030    2    1    2    0    0  0.00000000000E+00  0.00000000000E+00 -0.72705309520E+03  0.12365050409E+04  0.10001692421E+04 0.  0.
        4    1    3    3  502    0 -0.44659863592E+03  0.36783635035E+01 -0.64167701373E+03  0.78180232464E+03  0.12699999809E+01 0. -1.
       -4    1    3    3    0  502  0.44659863592E+03 -0.36783635035E+01 -0.85376081471E+02  0.45470271623E+03  0.12699999809E+01 0.  1.
</event>
<event>
 5   0  0.1461334E-04  0.1005912E+04  0.7818609E-02  0.9302085E-01
        1   -1    0    0  501    0  0.00000000000E+00  0.00000000000E+00  0.10152932922E+04  0.10152932922E+04  0.50400001928E-02 0.  1.
       -1   -1    0    0    0  501  0.00000000000E+00  0.00000000000E+00 -0.24915417087E+03  0.24915417092E+03  0.50400001928E-02 0. -1.
    10030    2    1    2    0    0  0.00000000000E+00  0.00000000000E+00  0.76613912137E+03  0.12644474632E+04  0.10059116432E+04 0.  0.
        2    1    3    3  502    0  0.24172644132E+03  0.42575172731E+03  0.23827592995E+03  0.54449207941E+03  0.25500000920E-02 0. -1.
       -2    1    3    3    0  502 -0.24172644132E+03 -0.42575172731E+03  0.52786319142E+03  0.71995538376E+03  0.25500000920E-02 0.  1.
</event>
<event>
 5   0  0.2353916E-04  0.1000078E+04  0.7818609E-02  0.9308459E-01
        2   -1    0    0  501    0  0.00000000000E+00  0.00000000000E+00  0.15705606757E+04  0.15705606757E+04  0.25500000920E-02 0.  1.
       -2   -1    0    0    0  501  0.00000000000E+00  0.00000000000E+00 -0.15920360462E+03  0.15920360464E+03  0.25500000920E-02 0. -1.
    10030    2    1    2    0    0  0.00000000000E+00  0.00000000000E+00  0.14113570711E+04  0.17297642803E+04  0.10000778387E+04 0.  0.
        4    1    3    3  502    0 -0.37182451317E+02  0.37667286412E+03  0.12708529258E+04  0.13260217770E+04  0.12699999809E+01 0.  1.
       -4    1    3    3    0  502  0.37182451317E+02 -0.37667286412E+03  0.14050414532E+03  0.40374250334E+03  0.12699999809E+01 0. -1.
</event>
<event>
 5   0  0.1506454E-04  0.1000215E+04  0.7818609E-02  0.9308309E-01
        1   -1    0    0  501    0  0.00000000000E+00  0.00000000000E+00  0.83255861271E+03  0.83255861272E+03  0.50400001928E-02 0.  1.
       -1   -1    0    0    0  501  0.00000000000E+00  0.00000000000E+00 -0.30040844165E+03  0.30040844170E+03  0.50400001928E-02 0. -1.
    10030    2    1    2    0    0  0.00000000000E+00  0.00000000000E+00  0.53215017105E+03  0.11329670544E+04  0.10002152478E+04 0.  0.
        3    1    3    3  502    0 -0.11307984825E+03  0.46186916646E+03  0.44154647868E+03  0.64890175068E+03  0.10100000352E+00 0. -1.
       -3    1    3    3    0  502  0.11307984825E+03 -0.46186916646E+03  0.90603692371E+02  0.48406530373E+03  0.10100000352E+00 0.  1.
</event>
<event>
 5   0  0.2403037E-04  0.1000389E+04  0.7818609E-02  0.9308119E-01
        2   -1    0    0  501    0  0.00000000000E+00  0.00000000000E+00  0.97049625628E+03  0.97049625628E+03  0.25500000920E-02 0. -1.
       -2   -1    0    0    0  501  0.00000000000E+00  0.00000000000E+00 -0.25780043101E+03  0.25780043103E+03  0.25500000920E-02 0.  1.
    10030    2    1    2    0    0  0.00000000000E+00  0.00000000000E+00  0.71269582527E+03  0.12282966873E+04  0.10003886308E+04 0.  0.
        1    1    3    3  502    0 -0.79579115516E+02  0.46324206432E+03  0.14629276120E+03  0.49226783136E+03  0.50400001928E-02 0.  1.
       -1    1    3    3    0  502  0.79579115516E+02 -0.46324206432E+03  0.56640306407E+03  0.73602885595E+03  0.50400001928E-02 0. -1.
</event>
<event>
 5   0  0.9650500E-05  0.1000051E+04  0.7818609E-02  0.9308489E-01
        4   -1    0    0  501    0  0.00000000000E+00  0.00000000000E+00  0.98812501467E+03  0.98812583082E+03  0.12699999809E+01 0. -1.
       -4   -1    0    0    0  501  0.00000000000E+00  0.00000000000E+00 -0.25302764501E+03  0.25303083219E+03  0.12699999809E+01 0.  1.
    10030    2    1    2    0    0  0.00000000000E+00  0.00000000000E+00  0.73509736967E+03  0.12411566630E+04  0.10000508583E+04 0.  0.
        1    1    3    3  502    0  0.15720715119E+03 -0.47385961329E+03  0.33314535051E+03  0.60020233762E+03  0.50400001928E-02 0. -1.
       -1    1    3    3    0  502 -0.15720715119E+03  0.47385961329E+03  0.40195201915E+03  0.64095432538E+03  0.50400001928E-02 0.  1.
</event>
<event>
 5   0  0.1414165E-04  0.1004517E+04  0.7818609E-02  0.9303604E-01
        1   -1    0    0  501    0  0.00000000000E+00  0.00000000000E+00  0.27271730378E+03  0.27271730382E+03  0.50400001928E-02 0. -1.
       -1   -1    0    0    0  501  0.00000000000E+00  0.00000000000E+00 -0.92500122029E+03  0.92500122030E+03  0.50400001928E-02 0.  1.
    10030    2    1    2    0    0  0.00000000000E+00  0.00000000000E+00 -0.65228391651E+03  0.11977185241E+04  0.10045174739E+04 0.  0.
        4    1    3    3  502    0  0.54753445303E+02 -0.31893542344E+03  0.13185095331E+03  0.34943387198E+03  0.12699999809E+01 0. -1.
       -4    1    3    3    0  502 -0.54753445303E+02  0.31893542344E+03 -0.78413486982E+03  0.84828465215E+03  0.12699999809E+01 0.  1.
</event>
<event>
 5   0  0.2353916E-04  0.1000116E+04  0.7818609E-02  0.9308417E-01
       -2   -1    0    0    0  501  0.00000000000E+00  0.00000000000E+00  0.41665492316E+03  0.41665492317E+03  0.25500000920E-02 0.  1.
        2   -1    0    0  501    0  0.00000000000E+00  0.00000000000E+00 -0.60015655935E+03  0.60015655936E+03  0.25500000920E-02 0. -1.
    10030    2    1    2    0    0  0.00000000000E+00  0.00000000000E+00 -0.18350163619E+03  0.10168114825E+04  0.10001163635E+04 0.  0.
        4    1    3    3  502    0 -0.39221576039E+02 -0.43246379753E+03 -0.34386880049E+03  0.55390489531E+03  0.12699999809E+01 0. -1.
       -4    1    3    3    0  502  0.39221576039E+02  0.43246379753E+03  0.16036716430E+03  0.46290658722E+03  0.12699999809E+01 0.  1.
</event>
<event>
 5   0  0.2503680E-04  0.1000304E+04  0.7818609E-02  0.9308211E-01
       -2   -1    0    0    0  501  0.00000000000E+00  0.00000000000E+00  0.27971685376E+03  0.27971685377E+03  0.25500000920E-02 0.  1.
        2   -1    0    0  501    0  0.00000000000E+00  0.00000000000E+00 -0.89430515394E+03  0.89430515394E+03  0.25500000920E-02 0. -1.
    10030    2    1    2    0    0  0.00000000000E+00  0.00000000000E+00 -0.61458830017E+03  0.11740220077E+04  0.10003044016E+04 0.  0.
        2    1    3    3  502    0 -0.36949411436E+03 -0.36158858036E+02 -0.70063622326E+03  0.79292148471E+03  0.25500000920E-02 0. -1.
       -2    1    3    3    0  502  0.36949411436E+03  0.36158858036E+02  0.86047923081E+02  0.38110052301E+03  0.25500000920E-02 0.  1.
</event>
<event>
 5   0  0.1430675E-04  0.1000101E+04  0.7818609E-02  0.9308434E-01
        1   -1    0    0  501    0  0.00000000000E+00  0.00000000000E+00  0.13508027198E+04  0.13508027199E+04  0.50400001928E-02 0.  1.
       -1   -1    0    0    0  501  0.00000000000E+00  0.00000000000E+00 -0.18511243275E+03  0.18511243282E+03  0.50400001928E-02 0. -1.
    10030    2    1    2    0    0  0.00000000000E+00  0.00000000000E+00  0.11656902871E+04  0.15359151527E+04  0.10001007503E+04 0.  0.
        5    1    3    3  502    0  0.41903666177E+02 -0.14423533473E+03  0.13153055281E+04  0.13238619533E+04  0.46999998093E+01 0.  1.
       -5    1    3    3    0  502 -0.41903666177E+02  0.14423533473E+03 -0.14961524103E+03  0.21205319939E+03  0.46999998093E+01 0. -1.
</event>
<event>
 5   0  0.2473312E-04  0.9994266E+03  0.7818609E-02  0.9309174E-01
       -2   -1    0    0    0  501  0.00000000000E+00  0.00000000000E+00  0.15927244017E+03  0.15927244019E+03  0.25500000920E-02 0. -1.
        2   -1    0    0  501    0  0.00000000000E+00  0.00000000000E+00 -0.15678378747E+04  0.15678378747E+04  0.25500000920E-02 0.  1.
    10030    2    1    2    0    0  0.00000000000E+00  0.00000000000E+00 -0.14085654345E+04  0.17271103149E+04  0.99942656379E+03 0.  0.
        5    1    3    3  502    0 -0.64213851864E+02  0.15418713760E+02 -0.15602252824E+04  0.15616293342E+04  0.46999998093E+01 0.  1.
       -5    1    3    3    0  502  0.64213851864E+02 -0.15418713760E+02  0.15165984790E+03  0.16548098068E+03  0.46999998093E+01 0. -1.
</event>
<event>
 5   0  0.2503680E-04  0.1000125E+04  0.7818609E-02  0.9308407E-01
       -2   -1    0    0    0  501  0.00000000000E+00  0.00000000000E+00  0.21180595226E+03  0.21180595228E+03  0.25500000920E-02 0. -1.
        2   -1    0    0  501    0  0.00000000000E+00  0.00000000000E+00 -0.11806218826E+04  0.11806218826E+04  0.25500000920E-02 0.  1.
    10030    2    1    2    0    0  0.00000000000E+00  0.00000000000E+00 -0.96881593036E+03  0.13924278349E+04  0.10001254764E+04 0.  0.
        2    1    3    3  502    0 -0.14335728764E+03 -0.41606989456E+03 -0.15377415747E+03  0.46616730966E+03  0.25500000920E-02 0. -1.
       -2    1    3    3    0  502  0.14335728764E+03  0.41606989456E+03 -0.81504177289E+03  0.92626052525E+03  0.25500000920E-02 0.  1.
</event>
<event>
 5   0  0.2473312E-04  0.1000070E+04  0.7818609E-02  0.9308468E-01
       -2   -1    0    0    0  501  0.00000000000E+00  0.00000000000E+00  0.55197328418E+03  0.55197328419E+03  0.25500000920E-02 0. -1.
        2   -1    0    0  501    0  0.00000000000E+00  0.00000000000E+00 -0.45298408563E+03  0.45298408564E+03  0.25500000920E-02 0.  1.
    10030    2    1    2    0    0  0.00000000000E+00  0.00000000000E+00  0.98989198550E+02  0.10049573698E+04  0.10000702244E+04 0.  0.
        5    1    3    3  502    0  0.26246379234E+02 -0.73048814039E+01  0.55120469149E+03  0.55189757712E+03  0.46999998093E+01 0. -1.
       -5    1    3    3    0  502 -0.26246379234E+02  0.73048814039E+01 -0.45221549294E+03  0.45305979271E+03  0.46999998093E+01 0.  1.
</event>
<event>
 5   0  0.1506454E-04  0.1000458E+04  0.7818609E-02  0.9308042E-01
        1   -1    0    0  501    0  0.00000000000E+00  0.00000000000E+00  0.26487629705E+03  0.26487629710E+03  0.50400001928E-02 0. -1.
       -1   -1    0    0    0  501  0.00000000000E+00  0.00000000000E+00 -0.94470184182E+03  0.94470184184E+03  0.50400001928E-02 0.  1.
    10030    2    1    2    0    0  0.00000000000E+00  0.00000000000E+00 -0.67982554477E+03  0.12095781389E+04  0.10004581465E+04 0.  0.
        3    1    3    3  502    0 -0.74354389813E+02 -0.43438060275E+03 -0.53769577106E+02  0.44396650882E+03  0.10100000352E+00 0.  1.
       -3    1    3    3    0  502  0.74354389813E+02  0.43438060275E+03 -0.62605596766E+03  0.76561163012E+03  0.10100000352E+00 0. -1.
</event>
<event>
 5   0  0.2403037E-04  0.9998754E+03  0.7818609E-02  0.9308681E-01
        2   -1    0    0  501    0  0.00000000000E+00  0.00000000000E+00  0.72106862475E+03  0.72106862475E+03  0.25500000920E-02 0.  1.
       -2   -1    0    0    0  501  0.00000000000E+00  0.00000000000E+00 -0.34662122568E+03  0.34662122569E+03  0.25500000920E-02 0. -1.
    10030    2    1    2    0    0  0.00000000000E+00  0.00000000000E+00  0.37444739906E+03  0.10676898504E+04  0.99987537327E+03 0.  0.
        1    1    3    3  502    0  0.14862774256E+03  0.28572145084E+03 -0.22108522802E+03  0.39064770754E+03  0.50400001928E-02 0. -1.
       -1    1    3    3    0  502 -0.14862774256E+03 -0.28572145084E+03  0.59553262708E+03  0.67704214291E+03  0.50400001928E-02 0.  1.
</event>
<event>
 5   0  0.1506454E-04  0.9999758E+03  0.7818609E-02  0.9308571E-01
       -1   -1    0    0    0  501  0.00000000000E+00  0.00000000000E+00  0.18111433674E+03  0.18111433681E+03  0.50400001928E-02 0. -1.
        1   -1    0    0  501    0  0.00000000000E+00  0.00000000000E+00 -0.13802768428E+04  0.13802768428E+04  0.50400001928E-02 0.  1.
    10030    2    1    2    0    0  0.00000000000E+00  0.00000000000E+00 -0.11991625061E+04  0.15613911796E+04  0.99997584963E+03 0.  0.
        3    1    3    3  502    0  0.13568820583E+02  0.46543419898E+02  0.17743557790E+03  0.18393965677E+03  0.10100000352E+00 0. -1.
       -3    1    3    3    0  502 -0.13568820583E+02 -0.46543419898E+02 -0.13765980840E+04  0.13774515229E+04  0.10100000352E+00 0.  1.
</event>
<event>
 5   0  0.2503680E-04  0.1000248E+04  0.7818609E-02  0.9308273E-01
       -2   -1    0    0    0  501  0.00000000000E+00  0.00000000000E+00  0.10047145066E+04  0.10047145066E+04  0.25500000920E-02 0. -1.
        2   -1    0    0  501    0  0.00000000000E+00  0.00000000000E+00 -0.24895022316E+03  0.24895022318E+03  0.25500000920E-02 0.  1.
    10030    2    1    2    0    0  0.00000000000E+00  0.00000000000E+00  0.75576428348E+03  0.12536647298E+04  0.10002477706E+04 0.  0.
        2    1    3    3  502    0  0.50677793791E+02  0.34113693057E+03 -0.76069623053E+02  0.35317025885E+03  0.25500000920E-02 0.  1.
       -2    1    3    3    0  502 -0.50677793791E+02 -0.34113693057E+03  0.83183390653E+03  0.90049447097E+03  0.25500000920E-02 0. -1.
</event>
<event>
 5   0  0.2484904E-04  0.9983223E+03  0.7818609E-02  0.9310387E-01
        2   -1    0    0  501    0  0.00000000000E+00  0.00000000000E+00  0.42020522099E+03  0.42020522100E+03  0.25500000920E-02 0.  1.
       -2   -1    0    0    0  501  0.00000000000E+00  0.00000000000E+00 -0.59295276026E+03  0.59295276026E+03  0.25500000920E-02 0. -1.
    10030    2    1    2    0    0  0.00000000000E+00  0.00000000000E+00 -0.17274753927E+03  0.10131579813E+04  0.99832228397E+03 0.  0.
        3    1    3    3  502    0 -0.28696678160E+03 -0.28644266912E+03  0.20909275297E+03  0.45620075184E+03  0.10100000352E+00 0.  1.
       -3    1    3    3    0  502  0.28696678160E+03  0.28644266912E+03 -0.38184029224E+03  0.55695722943E+03  0.10100000352E+00 0. -1.
</event>
<event>
 5   0  0.2403037E-04  0.9995080E+03  0.7818609E-02  0.9309085E-01
       -2   -1    0    0    0  501  0.00000000000E+00  0.00000000000E+00  0.39313341291E+03  0.39313341292E+03  0.25500000920E-02 0.  1.
        2   -1    0    0  501    0  0.00000000000E+00  0.00000000000E+00 -0.63529091204E+03  0.63529091205E+03  0.25500000920E-02 0. -1.
    10030    2    1    2    0    0  0.00000000000E+00  0.00000000000E+00 -0.24215749913E+03  0.10284243250E+04  0.99950804789E+03 0.  0.
        1    1    3    3  502    0  0.18790938425E+03 -0.28331584168E+02  0.35450698888E+03  0.40222856753E+03  0.50400001928E-02 0.  1.
       -1    1    3    3    0  502 -0.18790938425E+03  0.28331584168E+02 -0.59666448801E+03  0.62619575743E+03  0.50400001928E-02 0. -1.
</event>
<event>
 5   0  0.2473312E-04  0.9993460E+03  0.7818609E-02  0.9309262E-01
        2   -1    0    0  501    0  0.00000000000E+00  0.00000000000E+00  0.25970065365E+04  0.25970065365E+04  0.25500000920E-02 0. -1.
       -2   -1    0    0    0  501  0.00000000000E+00  0.00000000000E+00 -0.96138805036E+02  0.96138805070E+02  0.25500000920E-02 0.  1.
    10030    2    1    2    0    0  0.00000000000E+00  0.00000000000E+00  0.25008677315E+04  0.26931453416E+04  0.99934599642E+03 0.  0.
        5    1    3    3  502    0  0.15113844352E+02 -0.70880650272E+02 -0.81839055452E+02  0.10941762139E+03  0.46999998093E+01 0.  1.
       -5    1    3    3    0  502 -0.15113844352E+02  0.70880650272E+02  0.25827067870E+04  0.25837277202E+04  0.46999998093E+01 0. -1.
</event>
<event>
 5   0  0.1414165E-04  0.1001108E+04  0.7818609E-02  0.9307331E-01
       -1   -1    0    0    0  501  0.00000000000E+00  0.00000000000E+00  0.68833865526E+03  0.68833865528E+03  0.50400001928E-02 0. -1.
        1   -1    0    0  501    0  0.00000000000E+00  0.00000000000E+00 -0.36399845275E+03  0.36399845279E+03  0.50400001928E-02 0.  1.
    10030    2    1    2    0    0  0.00000000000E+00  0.00000000000E+00  0.32434020251E+03  0.10523371081E+04  0.10011077974E+04 0.  0.
        4    1    3    3  502    0  0.10253078004E+03  0.40220589728E+03  0.45625515342E+03  0.61680833538E+03  0.12699999809E+01 0. -1.
       -4    1    3    3    0  502 -0.10253078004E+03 -0.40220589728E+03 -0.13191495091E+03  0.43552877269E+03  0.12699999809E+01 0.  1.
</event>
<event>
 5   0  0.1430675E-04  0.1000143E+04  0.7818609E-02  0.9308388E-01
        1   -1    0    0  501    0  0.00000000000E+00  0.00000000000E+00  0.70411852584E+03  0.70411852586E+03  0.50400001928E-02 0. -1.
       -1   -1    0    0    0  501  0.00000000000E+00  0.00000000000E+00 -0.35515520245E+03  0.35515520248E+03  0.50400001928E-02 0.  1.
    10030    2    1    2    0    0  0.00000000000E+00  0.00000000000E+00  0.34896332339E+03  0.10592737283E+04  0.10001427051E+04 0.  0.
        5    1    3    3  502    0  0.28194989420E+03 -0.26572018310E+03 -0.16035238372E+03  0.41933034174E+03  0.46999998093E+01 0. -1.
       -5    1    3    3    0  502 -0.28194989420E+03  0.26572018310E+03  0.50931570711E+03  0.63994338660E+03  0.46999998093E+01 0.  1.
</event>
<event>
 5   0  0.9650500E-05  0.1000173E+04  0.7818609E-02  0.9308355E-01
       -3   -1    0    0    0  501  0.00000000000E+00  0.00000000000E+00  0.64912822244E+03  0.64912823030E+03  0.10100000352E+00 0. -1.
        3   -1    0    0  501    0  0.00000000000E+00  0.00000000000E+00 -0.38526531137E+03  0.38526532461E+03  0.10100000352E+00 0.  1.
    10030    2    1    2    0    0  0.00000000000E+00  0.00000000000E+00  0.26386291107E+03  0.10343935549E+04  0.10001731803E+04 0.  0.
        1    1    3    3  502    0 -0.24708842613E+03  0.33935603539E+03 -0.14916070418E+03  0.44549312540E+03  0.50400001928E-02 0.  1.
       -1    1    3    3    0  502  0.24708842613E+03 -0.33935603539E+03  0.41302361526E+03  0.58890042950E+03  0.50400001928E-02 0. -1.
</event>
<event>
 5   0  0.2353916E-04  0.1000184E+04  0.7818609E-02  0.9308343E-01
        2   -1    0    0  501    0  0.00000000000E+00  0.00000000000E+00  0.97620797476E+03  0.97620797476E+03  0.25500000920E-02 0.  1.
       -2   -1    0    0    0  501  0.00000000000E+00  0.00000000000E+00 -0.25618735317E+03  0.25618735318E+03  0.25500000920E-02 0. -1.
    10030    2    1    2    0    0  0.00000000000E+00  0.00000000000E+00  0.72002062159E+03  0.12323953279E+04  0.10001842574E+04 0.  0.
        4    1    3    3  502    0 -0.29830602679E+03 -0.12058185019E+03  0.83172974211E+03  0.89179731163E+03  0.12699999809E+01 0.  1.
       -4    1    3    3    0  502  0.29830602679E+03  0.12058185019E+03 -0.11170912053E+03  0.34059801632E+03  0.12699999809E+01 0. -1.
</event>
<event>
 5   0  0.1414165E-04  0.1000511E+04  0.7818609E-02  0.9307984E-01
        1   -1    0    0  501    0  0.00000000000E+00  0.00000000000E+00  0.40334622921E+03  0.40334622924E+03  0.50400001928E-02 0. -1.
       -1   -1    0    0    0  501  0.00000000000E+00  0.00000000000E+00 -0.62044861469E+03  0.62044861471E+03  0.50400001928E-02 0.  1.
    10030    2    1    2    0    0  0.00000000000E+00  0.00000000000E+00 -0.21710238548E+03  0.10237948439E+04  0.10005110877E+04 0.  0.
        4    1    3    3  502    0 -0.17044684427E+03  0.45259317064E+03  0.22336804506E+02  0.48414176702E+03  0.12699999809E+01 0.  1.
       -4    1    3    3    0  502  0.17044684427E+03 -0.45259317064E+03 -0.23943918999E+03  0.53965307693E+03  0.12699999809E+01 0. -1.
</event>
<event>
 5   0  0.9650500E-05  0.9991711E+03  0.7818609E-02  0.9309454E-01
       -3   -1    0    0    0  501  0.00000000000E+00  0.00000000000E+00  0.74161106975E+03  0.74161107663E+03  0.10100000352E+00 0.  1.
        3   -1    0    0  501    0  0.00000000000E+00  0.00000000000E+00 -0.33654531542E+03  0.33654533058E+03  0.10100000352E+00 0. -1.
    10030    2    1    2    0    0  0.00000000000E+00  0.00000000000E+00  0.40506575433E+03  0.10781564072E+04  0.99917114303E+03 0.  0.
        1    1    3    3  502    0  0.29856700838E+03 -0.39612491348E+03  0.13843564678E+03  0.51499673193E+03  0.50400001928E-02 0. -1.
       -1    1    3    3    0  502 -0.29856700838E+03  0.39612491348E+03  0.26663010755E+03  0.56315967527E+03  0.50400001928E-02 0.  1.
</event>
<event>
 5   0  0.1453863E-04  0.1000144E+04  0.7818609E-02  0.9308387E-01
        1   -1    0    0  501    0  0.00000000000E+00  0.00000000000E+00  0.58692625093E+03  0.58692625096E+03  0.50400001928E-02 0. -1.
       -1   -1    0    0    0  501  0.00000000000E+00  0.00000000000E+00 -0.42607045048E+03  0.42607045051E+03  0.50400001928E-02 0.  1.
    10030    2    1    2    0    0  0.00000000000E+00  0.00000000000E+00  0.16085580045E+03  0.10129967015E+04  0.10001438540E+04 0.  0.
        1    1    3    3  502    0  0.39522636586E+01 -0.16820603123E+03 -0.39654109224E+03  0.43075947719E+03  0.50400001928E-02 0.  1.
       -1    1    3    3    0  502 -0.39522636586E+01  0.16820603123E+03  0.55739689269E+03  0.58223722428E+03  0.50400001928E-02 0. -1.
</event>
<event>
 5   0  0.2403037E-04  0.9999807E+03  0.7818609E-02  0.9308566E-01
       -2   -1    0    0    0  501  0.00000000000E+00  0.00000000000E+00  0.22401670276E+03  0.22401670277E+03  0.25500000920E-02 0. -1.
        2   -1    0    0  501    0  0.00000000000E+00  0.00000000000E+00 -0.11159451407E+04  0.11159451407E+04  0.25500000920E-02 0.  1.
    10030    2    1    2    0    0  0.00000000000E+00  0.00000000000E+00 -0.89192843792E+03  0.13399618435E+04  0.99998070158E+03 0.  0.
        1    1    3    3  502    0 -0.14005233499E+02  0.49915758989E+03 -0.47975489222E+03  0.69247325057E+03  0.50400001928E-02 0. -1.
       -1    1    3    3    0  502  0.14005233499E+02 -0.49915758989E+03 -0.41217354570E+03  0.64748859288E+03  0.50400001928E-02 0.  1.
</event>
<event>
 5   0  0.1430675E-04  0.9996640E+03  0.7818609E-02  0.9308913E-01
        1   -1    0    0  501    0  0.00000000000E+00  0.00000000000E+00  0.17053185722E+04  0.17053185722E+04  0.50400001928E-02 0. -1.
       -1   -1    0    0    0  501  0.00000000000E+00  0.00000000000E+00 -0.14650167578E+03  0.14650167587E+03  0.50400001928E-02 0.  1.
    10030    2    1    2    0    0  0.00000000000E+00  0.00000000000E+00  0.15588168964E+04  0.18518202481E+04  0.99966400088E+03 0.  0.
        5    1    3    3  502    0 -0.12351745827E+03  0.35724834881E+03  0.13851515168E+04  0.14358097923E+04  0.46999998093E+01 0. -1.
       -5    1    3    3    0  502  0.12351745827E+03 -0.35724834881E+03  0.17366537962E+03  0.41601045576E+03  0.46999998093E+01 0.  1.
</event>
<event>
 5   0  0.2353916E-04  0.1000169E+04  0.7818609E-02  0.9308359E-01
       -2   -1    0    0    0  501  0.00000000000E+00  0.00000000000E+00  0.58861699366E+03  0.58861699366E+03  0.25500000920E-02 0.  1.
        2   -1    0    0  501    0  0.00000000000E+00  0.00000000000E+00 -0.42486794232E+03  0.42486794233E+03  0.25500000920E-02 0. -1.
    10030    2    1    2    0    0  0.00000000000E+00  0.00000000000E+00  0.16374905133E+03  0.10134849360E+04  0.10001689676E+04 0.  0.
        4    1    3    3  502    0  0.11523709495E+03 -0.56493875034E+02 -0.40789442268E+03  0.42761035876E+03  0.12699999809E+01 0. -1.
       -4    1    3    3    0  502 -0.11523709495E+03  0.56493875034E+02  0.57164347401E+03  0.58587457723E+03  0.12699999809E+01 0.  1.
</event>
<event>
 5   0  0.2403037E-04  0.9999255E+03  0.7818609E-02  0.9308626E-01
        2   -1    0    0  501    0  0.00000000000E+00  0.00000000000E+00  0.29135289577E+03  0.29135289578E+03  0.25500000920E-02 0.  1.
       -2   -1    0    0    0  501  0.00000000000E+00  0.00000000000E+00 -0.85793816335E+03  0.85793816335E+03  0.25500000920E-02 0. -1.
    10030    2    1    2    0    0  0.00000000000E+00  0.00000000000E+00 -0.56658526757E+03  0.11492910591E+04  0.99992553382E+03 0.  0.
        1    1    3    3  502    0 -0.37425295573E+02  0.26164745677E+03 -0.77107097244E+03  0.81511378896E+03  0.50400001928E-02 0. -1.
       -1    1    3    3    0  502  0.37425295573E+02 -0.26164745677E+03  0.20448570487E+03  0.33417727018E+03  0.50400001928E-02 0.  1.
</event>
<event>
 5   0  0.2484904E-04  0.1000021E+04  0.7818609E-02  0.9308522E-01
        2   -1    0    0  501    0  0.00000000000E+00  0.00000000000E+00  0.73164217734E+03  0.73164217735E+03  0.25500000920E-02 0. -1.
       -2   -1    0    0    0  501  0.00000000000E+00  0.00000000000E+00 -0.34171113470E+03  0.34171113471E+03  0.25500000920E-02 0.  1.
    10030    2    1    2    0    0  0.00000000000E+00  0.00000000000E+00  0.38993104264E+03  0.10733533121E+04  0.10000205570E+04 0.  0.
        3    1    3    3  502    0 -0.20206951801E+03 -0.17990352789E+02 -0.29555334751E+03  0.35847947546E+03  0.10100000352E+00 0.  1.
       -3    1    3    3    0  502  0.20206951801E+03  0.17990352789E+02  0.68548439015E+03  0.71487383659E+03  0.10100000352E+00 0. -1.
</event>
<event>
 5   0  0.2503680E-04  0.9999521E+03  0.7818609E-02  0.9308597E-01
        2   -1    0    0  501    0  0.00000000000E+00  0.00000000000E+00  0.19086932012E+03  0.19086932013E+03  0.25500000920E-02 0.  1.
       -2   -1    0    0    0  501  0.00000000000E+00  0.00000000000E+00 -0.13096711489E+04  0.13096711489E+04  0.25500000920E-02 0. -1.
    10030    2    1    2    0    0  0.00000000000E+00  0.00000000000E+00 -0.11188018288E+04  0.15005404691E+04  0.99995208242E+03 0.  0.
        2    1    3    3  502    0 -0.59803661118E+02  0.49427092975E+03 -0.62809900622E+03  0.80149147937E+03  0.25500000920E-02 0. -1.
       -2    1    3    3    0  502  0.59803661118E+02 -0.49427092975E+03 -0.49070282258E+03  0.69904898968E+03  0.25500000920E-02 0.  1.
</event>
<event>
 5   0  0.2403037E-04  0.1001157E+04  0.7818609E-02  0.9307277E-01
        2   -1    0    0  501    0  0.00000000000E+00  0.00000000000E+00  0.71094855533E+03  0.71094855534E+03  0.25500000920E-02 0. -1.
       -2   -1    0    0    0  501  0.00000000000E+00  0.00000000000E+00 -0.35245672942E+03  0.35245672943E+03  0.25500000920E-02 0.  1.
    10030    2    1    2    0    0  0.00000000000E+00  0.00000000000E+00  0.35849182591E+03  0.10634052848E+04  0.10011565364E+04 0.  0.
        1    1    3    3  502    0  0.33395010809E+03  0.36456701062E+03  0.26252235636E+03  0.55977653357E+03  0.50400001928E-02 0.  1.
       -1    1    3    3    0  502 -0.33395010809E+03 -0.36456701062E+03  0.95969469551E+02  0.50362875120E+03  0.50400001928E-02 0. -1.
</event>
<event>
 5   0  0.2484904E-04  0.1000361E+04  0.7818609E-02  0.9308149E-01
        2   -1    0    0  501    0  0.00000000000E+00  0.00000000000E+00  0.50358263433E+03  0.50358263434E+03  0.25500000920E-02 0. -1.
       -2   -1    0    0    0  501  0.00000000000E+00  0.00000000000E+00 -0.49680132474E+03  0.49680132475E+03  0.25500000920E-02 0.  1.
    10030    2    1    2    0    0  0.00000000000E+00  0.00000000000E+00  0.67813095889E+01  0.10003839591E+04  0.10003609746E+04 0.  0.
        3    1    3    3  502    0 -0.32305785109E+03  0.37685626048E+03  0.64983412225E+02  0.50060949879E+03  0.10100000352E+00 0.  1.
       -3    1    3    3    0  502  0.32305785109E+03 -0.37685626048E+03 -0.58202102636E+02  0.49977446030E+03  0.10100000352E+00 0. -1.
</event>
<event>
 5   0  0.2503680E-04  0.9999648E+03  0.7818609E-02  0.9308583E-01
       -2   -1    0    0    0  501  0.00000000000E+00  0.00000000000E+00  0.75493853642E+03  0.75493853642E+03  0.25500000920E-02 0.  1.
        2   -1    0    0  501    0  0.00000000000E+00  0.00000000000E+00 -0.33112948116E+03  0.33112948117E+03  0.25500000920E-02 0. -1.
    10030    2    1    2    0    0  0.00000000000E+00  0.00000000000E+00  0.42380905526E+03  0.10860680176E+04  0.99996481114E+03 0.  0.
        2    1    3    3  502    0  0.14345751535E+03  0.17726962269E+03  0.69516423338E+03  0.73161321012E+03  0.25500000920E-02 0.  1.
       -2    1    3    3    0  502 -0.14345751535E+03 -0.17726962269E+03 -0.27135517812E+03  0.35445480747E+03  0.25500000920E-02 0. -1.
</event>
<event>
 5   0  0.1506454E-04  0.1000030E+04  0.7818609E-02  0.9308512E-01
        1   -1    0    0  501    0  0.00000000000E+00  0.00000000000E+00  0.14910067167E+04  0.14910067167E+04  0.50400001928E-02 0.  1.
       -1   -1    0    0    0  501  0.00000000000E+00  0.00000000000E+00 -0.16768195670E+03  0.16768195678E+03  0.50400001928E-02 0. -1.
    10030    2    1    2    0    0  0.00000000000E+00  0.00000000000E+00  0.13233247600E+04  0.16586886735E+04  0.10000298471E+04 0.  0.
        3    1    3    3  502    0  0.25848099533E+03  0.18433964368E+03  0.20943606609E+02  0.31817003950E+03  0.10100000352E+00 0. -1.
       -3    1    3    3    0  502 -0.25848099533E+03 -0.18433964368E+03  0.13023811534E+04  0.13405186340E+04  0.10100000352E+00 0.  1.
</event>
<event>
 5   0  0.1453863E-04  0.9998656E+03  0.7818609E-02  0.9308692E-01
        1   -1    0    0  501    0  0.00000000000E+00  0.00000000000E+00  0.36302566862E+03  0.36302566865E+03  0.50400001928E-02 0.  1.
       -1   -1    0    0    0  501  0.00000000000E+00  0.00000000000E+00 -0.68847141942E+03  0.68847141944E+03  0.50400001928E-02 0. -1.
    10030    2    1    2    0    0  0.00000000000E+00  0.00000000000E+00 -0.32544575081E+03  0.10514970881E+04  0.99986558574E+03 0.  0.
        1    1    3    3  502    0 -0.16592746197E+02  0.49112233390E+03 -0.25942977226E+03  0.55568000939E+03  0.50400001928E-02 0. -1.
       -1    1    3    3    0  502  0.16592746197E+02 -0.49112233390E+03 -0.66015978546E+02  0.49581707870E+03  0.50400001928E-02 0.  1.
</event>
<event>
 5   0  0.2353916E-04  0.9974755E+03  0.7818609E-02  0.9311318E-01
       -2   -1    0    0    0  501  0.00000000000E+00  0.00000000000E+00  0.76514768377E+03  0.76514768377E+03  0.25500000920E-02 0. -1.
        2   -1    0    0  501    0  0.00000000000E+00  0.00000000000E+00 -0.32508669899E+03  0.32508669900E+03  0.25500000920E-02 0.  1.
    10030    2    1    2    0    0  0.00000000000E+00  0.00000000000E+00  0.44006098478E+03  0.10902343828E+04  0.99747548293E+03 0.  0.
        4    1    3    3  502    0  0.49091548364E+03 -0.86736797522E+02  0.20395056274E+03  0.53862670660E+03  0.12699999809E+01 0. -1.
       -4    1    3    3    0  502 -0.49091548364E+03  0.86736797522E+02  0.23611042204E+03  0.55160767617E+03  0.12699999809E+01 0.  1.
</event>
<event>
 5   0  0.2473312E-04  0.9998209E+03  0.7818609E-02  0.9308741E-01
        2   -1    0    0  501    0  0.00000000000E+00  0.00000000000E+00  0.22073140087E+03  0.22073140088E+03  0.25500000920E-02 0. -1.
       -2   -1    0    0    0  501  0.00000000000E+00  0.00000000000E+00 -0.11321925782E+04  0.11321925782E+04  0.25500000920E-02 0.  1.
    10030    2    1    2    0    0  0.00000000000E+00  0.00000000000E+00 -0.91146117731E+03  0.13529239791E+04  0.99982089165E+03 0.  0.
        5    1    3    3  502    0  0.48050541964E+02 -0.17805014067E+03  0.17298616681E+03  0.25289723423E+03  0.46999998093E+01 0. -1.
       -5    1    3    3    0  502 -0.48050541964E+02  0.17805014067E+03 -0.10844473441E+04  0.11000267448E+04  0.46999998093E+01 0.  1.
</event>
<event>
 5   0  0.2473312E-04  0.1000329E+04  0.7818609E-02  0.9308184E-01
        2   -1    0    0  501    0  0.00000000000E+00  0.00000000000E+00  0.14974763345E+04  0.14974763345E+04  0.25500000920E-02 0.  1.
       -2   -1    0    0    0  501  0.00000000000E+00  0.00000000000E+00 -0.16705739310E+03  0.16705739312E+03  0.25500000920E-02 0. -1.
    10030    2    1    2    0    0  0.00000000000E+00  0.00000000000E+00  0.13304189414E+04  0.16645337277E+04  0.10003289313E+04 0.  0.
        5    1    3    3  502    0 -0.33759413605E+03  0.19112534928E+03  0.11904699177E+04  0.12520940120E+04  0.46999998093E+01 0.  1.
       -5    1    3    3    0  502  0.33759413605E+03 -0.19112534928E+03  0.13994902370E+03  0.41243971567E+03  0.46999998093E+01 0. -1.
</event>
<event>
 5   0  0.1414165E-04  0.9997554E+03  0.7818609E-02  0.9308813E-01
       -1   -1    0    0    0  501  0.00000000000E+00  0.00000000000E+00  0.66847458998E+03  0.66847459000E+03  0.50400001928E-02 0. -1.
        1   -1    0    0  501    0  0.00000000000E+00  0.00000000000E+00 -0.37380288424E+03  0.37380288427E+03  0.50400001928E-02 0.  1.
    10030    2    1    2    0    0  0.00000000000E+00  0.00000000000E+00  0.29467170575E+03  0.10422774743E+04  0.99975542970E+03 0.  0.
        4    1    3    3  502    0 -0.33590419268E+03 -0.47369683661E+02 -0.23543203735E+03  0.41292295977E+03  0.12699999809E+01 0.  1.
       -4    1    3    3    0  502  0.33590419268E+03  0.47369683661E+02  0.53010374309E+03  0.62935451451E+03  0.12699999809E+01 0. -1.
</event>
<event>
 5   0  0.1430675E-04  0.9998323E+03  0.7818609E-02  0.9308729E-01
       -1   -1    0    0    0  501  0.00000000000E+00  0.00000000000E+00  0.21419373788E+03  0.21419373794E+03  0.50400001928E-02 0. -1.
        1   -1    0    0  501    0  0.00000000000E+00  0.00000000000E+00 -0.11667762249E+04  0.11667762249E+04  0.50400001928E-02 0.  1.
    10030    2    1    2    0    0  0.00000000000E+00  0.00000000000E+00 -0.95258248706E+03  0.13809699629E+04  0.99983230781E+03 0.  0.
        5    1    3    3  502    0  0.37222921869E+03  0.17522734126E+03 -0.86850107929E+03  0.96102831753E+03  0.46999998093E+01 0. -1.
       -5    1    3    3    0  502 -0.37222921869E+03 -0.17522734126E+03 -0.84081407769E+02  0.41994164535E+03  0.46999998093E+01 0.  1.
</event>
<event>
 5   0  0.2403037E-04  0.1000110E+04  0.7818609E-02  0.9308424E-01
       -2   -1    0    0    0  501  0.00000000000E+00  0.00000000000E+00  0.77417863556E+03  0.77417863556E+03  0.25500000920E-02 0. -1.
        2   -1    0    0  501    0  0.00000000000E+00  0.00000000000E+00 -0.32299375762E+03  0.32299375763E+03  0.25500000920E-02 0.  1.
    10030    2    1    2    0    0  0.00000000000E+00  0.00000000000E+00  0.45118487794E+03  0.10971723932E+04  0.10001097271E+04 0.  0.
        1    1    3    3  502    0 -0.86661817090E+02  0.39187664298E+03 -0.10164788494E+03  0.41401674651E+03  0.50400001928E-02 0.  1.
       -1    1    3    3    0  502  0.86661817090E+02 -0.39187664298E+03  0.55283276288E+03  0.68315564668E+03  0.50400001928E-02 0. -1.
</event>
<event>
 5   0  0.2353916E-04  0.9996326E+03  0.7818609E-02  0.9308948E-01
        2   -1    0    0  501    0  0.00000000000E+00  0.00000000000E+00  0.53931668540E+03  0.53931668540E+03  0.25500000920E-02 0.  1.
       -2   -1    0    0    0  501  0.00000000000E+00  0.00000000000E+00 -0.46320901345E+03  0.46320901346E+03  0.25500000920E-02 0. -1.
    10030    2    1    2    0    0  0.00000000000E+00  0.00000000000E+00  0.76107671946E+02  0.10025256989E+04  0.99963263209E+03 0.  0.
        4    1    3    3  502    0  0.91803669629E+02  0.61434239921E+02 -0.45081221047E+03  0.46415012830E+03  0.12699999809E+01 0. -1.
       -4    1    3    3    0  502 -0.91803669629E+02 -0.61434239921E+02  0.52691988242E+03  0.53837557056E+03  0.12699999809E+01 0.  1.
</event>
<event>
 5   0  0.2503680E-04  0.9942714E+03  0.7818609E-02  0.9314850E-01
       -2   -1    0    0    0  501  0.00000000000E+00  0.00000000000E+00  0.88716252325E+02  0.88716252362E+02  0.25500000920E-02 0. -1.
        2   -1    0    0  501    0  0.00000000000E+00  0.00000000000E+00 -0.27857791399E+04  0.27857791399E+04  0.25500000920E-02 0.  1.
    10030    2    1    2    0    0  0.00000000000E+00  0.00000000000E+00 -0.26970628876E+04  0.28744953923E+04  0.99427136166E+03 0.  0.
        2    1    3    3  502    0 -0.19655400472E+03  0.37850112399E+03 -0.20870101614E+04  0.21301427162E+04  0.25500000920E-02 0.  1.
       -2    1    3    3    0  502  0.19655400472E+03 -0.37850112399E+03 -0.61005272619E+03  0.74435267607E+03  0.25500000920E-02 0. -1.
</event>
<event>
 5   0  0.2503680E-04  0.9998365E+03  0.7818609E-02  0.9308724E-01
       -2   -1    0    0    0  501  0.00000000000E+00  0.00000000000E+00  0.30329635711E+03  0.30329635712E+03  0.25500000920E-02 0.  1.
        2   -1    0    0  501    0  0.00000000000E+00  0.00000000000E+00 -0.82400672268E+03  0.82400672268E+03  0.25500000920E-02 0. -1.
    10030    2    1    2    0    0  0.00000000000E+00  0.00000000000E+00 -0.52071036557E+03  0.11273030798E+04  0.99983646110E+03 0.  0.
        2    1    3    3  502    0 -0.39297077845E+03 -0.20970580628E+03 -0.51626175458E+03  0.68185684506E+03  0.25500000920E-02 0. -1.
       -2    1    3    3    0  502  0.39297077845E+03  0.20970580628E+03 -0.44486109827E+01  0.44544623475E+03  0.25500000920E-02 0.  1.
</event>
<event>
 5   0  0.9650500E-05  0.9997216E+03  0.7818609E-02  0.9308850E-01
       -4   -1    0    0    0  501  0.00000000000E+00  0.00000000000E+00  0.10847612597E+04  0.10847620031E+04  0.12699999809E+01 0.  1.
        4   -1    0    0  501    0  0.00000000000E+00  0.00000000000E+00 -0.23033459932E+03  0.23033810050E+03  0.12699999809E+01 0. -1.
    10030    2    1    2    0    0  0.00000000000E+00  0.00000000000E+00  0.85442666037E+03  0.13151001036E+04  0.99972164356E+03 0.  0.
        4    1    3    3  502    0  0.37530707529E+03 -0.16360094520E+03  0.49973568891E+02  0.41245562249E+03  0.12699999809E+01 0. -1.
       -4    1    3    3    0  502 -0.37530707529E+03  0.16360094520E+03  0.80445309148E+03  0.90264448114E+03  0.12699999809E+01 0.  1.
</event>
<event>
 5   0  0.1453863E-04  0.9998086E+03  0.7818609E-02  0.9308755E-01
       -1   -1    0    0    0  501  0.00000000000E+00  0.00000000000E+00  0.17463420455E+03  0.17463420462E+03  0.50400001928E-02 0.  1.
        1   -1    0    0  501    0  0.00000000000E+00  0.00000000000E+00 -0.14310157507E+04  0.14310157507E+04  0.50400001928E-02 0. -1.
    10030    2    1    2    0    0  0.00000000000E+00  0.00000000000E+00 -0.12563815461E+04  0.16056499553E+04  0.99980857643E+03 0.  0.
        1    1    3    3  502    0 -0.48277097595E+03 -0.66359470838E+02 -0.44912182505E+03  0.66270793593E+03  0.50400001928E-02 0.  1.
       -1    1    3    3    0  502  0.48277097595E+03  0.66359470838E+02 -0.80725972106E+03  0.94294201935E+03  0.50400001928E-02 0. -1.
</event>
<event>
 5   0  0.2473312E-04  0.9999825E+03  0.7818609E-02  0.9308564E-01
        2   -1    0    0  501    0  0.00000000000E+00  0.00000000000E+00  0.15382122050E+04  0.15382122050E+04  0.25500000920E-02 0. -1.
       -2   -1    0    0    0  501  0.00000000000E+00  0.00000000000E+00 -0.16252064683E+03  0.16252064685E+03  0.25500000920E-02 0.  1.
    10030    2    1    2    0    0  0.00000000000E+00  0.00000000000E+00  0.13756915581E+04  0.17007328518E+04  0.99998248492E+03 0.  0.
        5    1    3    3  502    0  0.24704030452E+03 -0.29292451912E+03  0.12340407868E+04  0.12921735330E+04  0.46999998093E+01 0. -1.
       -5    1    3    3    0  502 -0.24704030452E+03  0.29292451912E+03  0.14165077134E+03  0.40855931881E+03  0.46999998093E+01 0.  1.
</event>
<event>
 5   0  0.2403037E-04  0.9998940E+03  0.7818609E-02  0.9308661E-01
        2   -1    0    0  501    0  0.00000000000E+00  0.00000000000E+00  0.10224667407E+04  0.10224667407E+04  0.25500000920E-02 0. -1.
       -2   -1    0    0    0  501  0.00000000000E+00  0.00000000000E+00 -0.24445491983E+03  0.24445491984E+03  0.25500000920E-02 0.  1.
    10030    2    1    2    0    0  0.00000000000E+00  0.00000000000E+00  0.77801182082E+03  0.12669216605E+04  0.99989404464E+03 0.  0.
        1    1    3    3  502    0 -0.17839552740E+02  0.20551568299E+02  0.10215275423E+04  0.10218899825E+04  0.50400001928E-02 0. -1.
       -1    1    3    3    0  502  0.17839552740E+02 -0.20551568299E+02 -0.24351572147E+03  0.24503167802E+03  0.50400001928E-02 0.  1.
</event>
<event>
 5   0  0.1414165E-04  0.1000213E+04  0.7818609E-02  0.9308311E-01
        1   -1    0    0  501    0  0.00000000000E+00  0.00000000000E+00  0.86527253008E+03  0.86527253009E+03  0.50400001928E-02 0.  1.
       -1   -1    0    0    0  501  0.00000000000E+00  0.00000000000E+00 -0.28904928826E+03  0.28904928830E+03  0.50400001928E-02 0. -1.
    10030    2    1    2    0    0  0.00000000000E+00  0.00000000000E+00  0.57622324182E+03  0.11543218184E+04  0.10002127954E+04 0.  0.
        4    1    3    3  502    0 -0.25854048016E+03  0.24188904208E+03  0.69573309167E+03  0.78064052950E+03  0.12699999809E+01 0.  1.
       -4    1    3    3    0  502  0.25854048016E+03 -0.24188904208E+03 -0.11950984985E+03  0.37368128889E+03  0.12699999809E+01 0. -1.
</event>
<event>
 5   0  0.1506454E-04  0.1000260E+04  0.7818609E-02  0.9308260E-01
        1   -1    0    0  501    0  0.00000000000E+00  0.00000000000E+00  0.44395859409E+03  0.44395859412E+03  0.50400001928E-02 0. -1.
       -1   -1    0    0    0  501  0.00000000000E+00  0.00000000000E+00 -0.56340826288E+03  0.56340826290E+03  0.50400001928E-02 0.  1.
    10030    2    1    2    0    0  0.00000000000E+00  0.00000000000E+00 -0.11944966879E+03  0.10073668570E+04  0.10002598469E+04 0.  0.
        3    1    3    3  502    0  0.26988580176E+03 -0.15666540528E+03 -0.45333103183E+03  0.55035573025E+03  0.10100000352E+00 0.  1.
       -3    1    3    3    0  502 -0.26988580176E+03  0.15666540528E+03  0.33388136304E+03  0.45701112677E+03  0.10100000352E+00 0. -1.
</event>
<event>
 5   0  0.2473312E-04  0.1000004E+04  0.7818609E-02  0.9308540E-01
       -2   -1    0    0    0  501  0.00000000000E+00  0.00000000000E+00  0.18753977757E+03  0.18753977758E+03  0.25500000920E-02 0.  1.
        2   -1    0    0  501    0  0.00000000000E+00  0.00000000000E+00 -0.13330620741E+04  0.13330620741E+04  0.25500000920E-02 0. -1.
    10030    2    1    2    0    0  0.00000000000E+00  0.00000000000E+00 -0.11455222965E+04  0.15206018516E+04  0.10000043297E+04 0.  0.
        5    1    3    3  502    0 -0.98494494658E+02  0.13067560669E+03  0.14563409681E+03  0.21910878534E+03  0.46999998093E+01 0.  1.
       -5    1    3    3    0  502  0.98494494658E+02 -0.13067560669E+03 -0.12911563933E+04  0.13014930663E+04  0.46999998093E+01 0. -1.
</event>
<event>
 5   0  0.2473312E-04  0.1000032E+04  0.7818609E-02  0.9308510E-01
       -2   -1    0    0    0  501  0.00000000000E+00  0.00000000000E+00  0.15162376355E+03  0.15162376357E+03  0.25500000920E-02 0.  1.
        2   -1    0    0  501    0  0.00000000000E+00  0.00000000000E+00 -0.16489240122E+04  0.16489240122E+04  0.25500000920E-02 0. -1.
    10030    2    1    2    0    0  0.00000000000E+00  0.00000000000E+00 -0.14973002486E+04  0.18005477758E+04  0.10000321286E+04 0.  0.
        5    1    3    3  502    0 -0.21536261934E+03 -0.38335695712E+03 -0.11771907843E+04  0.12566399034E+04  0.46999998093E+01 0. -1.
       -5    1    3    3    0  502  0.21536261934E+03  0.38335695712E+03 -0.32010946437E+03  0.54390787231E+03  0.46999998093E+01 0.  1.
</event>
<event>
 5   0  0.2503680E-04  0.1000083E+04  0.7818609E-02  0.9308454E-01
        2   -1    0    0  501    0  0.00000000000E+00  0.00000000000E+00  0.82385960580E+03  0.82385960580E+03  0.25500000920E-02 0. -1.
       -2   -1    0    0    0  501  0.00000000000E+00  0.00000000000E+00 -0.30350022706E+03  0.30350022707E+03  0.25500000920E-02 0.  1.
    10030    2    1    2    0    0  0.00000000000E+00  0.00000000000E+00  0.52035937874E+03  0.11273598329E+04  0.10000831514E+04 0.  0.
        2    1    3    3  502    0 -0.40387053469E+03 -0.97600886876E+02 -0.53443963777E+02  0.41891956171E+03  0.25500000920E-02 0.  1.
       -2    1    3    3    0  502  0.40387053469E+03  0.97600886876E+02  0.57380334252E+03  0.70844027116E+03  0.25500000920E-02 0. -1.
</event>
<event>
 5   0  0.2353916E-04  0.9999249E+03  0.7818609E-02  0.9308627E-01
        2   -1    0    0  501    0  0.00000000000E+00  0.00000000000E+00  0.24039518381E+04  0.24039518381E+04  0.25500000920E-02 0. -1.
       -2   -1    0    0    0  501  0.00000000000E+00  0.00000000000E+00 -0.10397980392E+03  0.10397980395E+03  0.25500000920E-02 0.  1.
    10030    2    1    2    0    0  0.00000000000E+00  0.00000000000E+00  0.22999720342E+04  0.25079316421E+04  0.99992487880E+03 0.  0.
        4    1    3    3  502    0 -0.23478666953E+03 -0.43164489918E+03  0.13814778723E+04  0.14662621947E+04  0.12699999809E+01 0. -1.
       -4    1    3    3    0  502  0.23478666953E+03  0.43164489918E+03  0.91849416191E+03  0.10416694473E+04  0.12699999809E+01 0.  1.
</event>
<event>
 5   0  0.1453863E-04  0.1000730E+04  0.7818609E-02  0.9307745E-01
        1   -1    0    0  501    0  0.00000000000E+00  0.00000000000E+00  0.76773628800E+03  0.76773628802E+03  0.50400001928E-02 0.  1.
       -1   -1    0    0    0  501  0.00000000000E+00  0.00000000000E+00 -0.32610813270E+03  0.32610813274E+03  0.50400001928E-02 0. -1.
    10030    2    1    2    0    0  0.00000000000E+00  0.00000000000E+00  0.44162815530E+03  0.10938444208E+04  0.10007298283E+04 0.  0.
        1    1    3    3  502    0 -0.16241762404E+03 -0.38525803950E+03 -0.79648144617E+02  0.42561375514E+03  0.50400001928E-02 0. -1.
       -1    1    3    3    0  502  0.16241762404E+03  0.38525803950E+03  0.52127629991E+03  0.66823066562E+03  0.50400001928E-02 0.  1.
</event>
<event>
 5   0  0.1453863E-04  0.1000729E+04  0.7818609E-02  0.9307746E-01
        1   -1    0    0  501    0  0.00000000000E+00  0.00000000000E+00  0.43728840406E+03  0.43728840409E+03  0.50400001928E-02 0. -1.
       -1   -1    0    0    0  501  0.00000000000E+00  0.00000000000E+00 -0.57253861239E+03  0.57253861241E+03  0.50400001928E-02 0.  1.
    10030    2    1    2    0    0  0.00000000000E+00  0.00000000000E+00 -0.13525020833E+03  0.10098270165E+04  0.10007287267E+04 0.  0.
        1    1    3    3  502    0  0.12284376154E+02  0.30362717544E+03  0.33351152498E+03  0.45118766038E+03  0.50400001928E-02 0. -1.
       -1    1    3    3    0  502 -0.12284376154E+02 -0.30362717544E+03 -0.46876173331E+03  0.55863935611E+03  0.50400001928E-02 0.  1.
</event>
<event>
 5   0  0.1506454E-04  0.9998127E+03  0.7818609E-02  0.9308750E-01
       -1   -1    0    0    0  501  0.00000000000E+00  0.00000000000E+00  0.22121703438E+03  0.22121703443E+03  0.50400001928E-02 0. -1.
        1   -1    0    0  501    0  0.00000000000E+00  0.00000000000E+00 -0.11296886770E+04  0.11296886770E+04  0.50400001928E-02 0.  1.
    10030    2    1    2    0    0  0.00000000000E+00  0.00000000000E+00 -0.90847164262E+03  0.13509057114E+04  0.99981274035E+03 0.  0.
        3    1    3    3  502    0  0.30483221271E+03 -0.30908194684E+03 -0.11929002856E+03  0.45020489655E+03  0.10100000352E+00 0. -1.
       -3    1    3    3    0  502 -0.30483221271E+03  0.30908194684E+03 -0.78918161406E+03  0.90070081489E+03  0.10100000352E+00 0.  1.
</event>
<event>
 5   0  0.2403037E-04  0.1000067E+04  0.7818609E-02  0.9308471E-01
       -2   -1    0    0    0  501  0.00000000000E+00  0.00000000000E+00  0.14571786050E+03  0.14571786052E+03  0.25500000920E-02 0. -1.
        2   -1    0    0  501    0  0.00000000000E+00  0.00000000000E+00 -0.17158741895E+04  0.17158741895E+04  0.25500000920E-02 0.  1.
    10030    2    1    2    0    0  0.00000000000E+00  0.00000000000E+00 -0.15701563290E+04  0.18615920500E+04  0.10000670294E+04 0.  0.
        1    1    3    3  502    0 -0.96389166725E+02  0.28143576851E+03 -0.15332318353E+04  0.15618248378E+04  0.50400001928E-02 0.  1.
       -1    1    3    3    0  502  0.96389166725E+02 -0.28143576851E+03 -0.36924493728E+02  0.29976721222E+03  0.50400001928E-02 0. -1.
</event>
<event>
 5   0  0.9650500E-05  0.9924378E+03  0.7818609E-02  0.9316878E-01
       -3   -1    0    0    0  501  0.00000000000E+00  0.00000000000E+00  0.10556958136E+04  0.10556958184E+04  0.10100000352E+00 0.  1.
        3   -1    0    0  501    0  0.00000000000E+00  0.00000000000E+00 -0.23324254107E+03  0.23324256294E+03  0.10100000352E+00 0. -1.
    10030    2    1    2    0    0  0.00000000000E+00  0.00000000000E+00  0.82245327251E+03  0.12889383813E+04  0.99243778921E+03 0.  0.
        2    1    3    3  502    0 -0.46695014810E+03 -0.15357075932E+03  0.49937763618E+03  0.70071709159E+03  0.25500000920E-02 0.  1.
       -2    1    3    3    0  502  0.46695014810E+03  0.15357075932E+03  0.32307563633E+03  0.58822128976E+03  0.25500000920E-02 0. -1.
</event>
<event>
 5   0  0.2353916E-04  0.1000855E+04  0.7818609E-02  0.9307608E-01
       -2   -1    0    0    0  501  0.00000000000E+00  0.00000000000E+00  0.32668897623E+03  0.32668897624E+03  0.25500000920E-02 0.  1.
        2   -1    0    0  501    0  0.00000000000E+00  0.00000000000E+00 -0.76656227952E+03  0.76656227952E+03  0.25500000920E-02 0. -1.
    10030    2    1    2    0    0  0.00000000000E+00  0.00000000000E+00 -0.43987330328E+03  0.10932512558E+04  0.10008545275E+04 0.  0.
        4    1    3    3  502    0  0.21377747940E+03  0.32598310167E+03  0.12281458549E+03  0.40871851999E+03  0.12699999809E+01 0.  1.
       -4    1    3    3    0  502 -0.21377747940E+03 -0.32598310167E+03 -0.56268788878E+03  0.68453273577E+03  0.12699999809E+01 0. -1.
</event>
<event>
 5   0  0.1414165E-04  0.1000168E+04  0.7818609E-02  0.9308360E-01
        1   -1    0    0  501    0  0.00000000000E+00  0.00000000000E+00  0.29797907563E+04  0.29797907563E+04  0.50400001928E-02 0.  1.
       -1   -1    0    0    0  501  0.00000000000E+00  0.00000000000E+00 -0.83926764177E+02  0.83926764328E+02  0.50400001928E-02 0. -1.
    10030    2    1    2    0    0  0.00000000000E+00  0.00000000000E+00  0.28958639921E+04  0.30637175206E+04  0.10001683785E+04 0.  0.
        4    1    3    3  502    0  0.27305168740E+03  0.11089686399E+03  0.21035586166E+03  0.36208637073E+03  0.12699999809E+01 0. -1.
       -4    1    3    3    0  502 -0.27305168740E+03 -0.11089686399E+03  0.26855081305E+04  0.27016311499E+04  0.12699999809E+01 0.  1.
</event>
<event>
 5   0  0.1430675E-04  0.1000273E+04  0.7818609E-02  0.9308245E-01
        1   -1    0    0  501    0  0.00000000000E+00  0.00000000000E+00  0.11287779283E+04  0.11287779283E+04  0.50400001928E-02 0. -1.
       -1   -1    0    0    0  501  0.00000000000E+00  0.00000000000E+00 -0.22159948357E+03  0.22159948362E+03  0.50400001928E-02 0.  1.
    10030    2    1    2    0    0  0.00000000000E+00  0.00000000000E+00  0.90717844473E+03  0.13503774119E+04  0.10002731747E+04 0.  0.
        5    1    3    3  502    0  0.30360484268E+03  0.18464562778E+03  0.92867835197E+03  0.99435178874E+03  0.46999998093E+01 0. -1.
       -5    1    3    3    0  502 -0.30360484268E+03 -0.18464562778E+03 -0.21499907244E+02  0.35602562319E+03  0.46999998093E+01 0.  1.
</event>
<event>
 5   0  0.2403037E-04  0.9998256E+03  0.7818609E-02  0.9308736E-01
       -2   -1    0    0    0  501  0.00000000000E+00  0.00000000000E+00  0.40912228032E+03  0.40912228033E+03  0.25500000920E-02 0. -1.
        2   -1    0    0  501    0  0.00000000000E+00  0.00000000000E+00 -0.61085116931E+03  0.61085116932E+03  0.25500000920E-02 0.  1.
    10030    2    1    2    0    0  0.00000000000E+00  0.00000000000E+00 -0.20172888899E+03  0.10199734497E+04  0.99982563147E+03 0.  0.
        1    1    3    3  502    0 -0.13168432533E+03  0.78122714117E+02  0.38461281247E+03  0.41396972780E+03  0.50400001928E-02 0. -1.
       -1    1    3    3    0  502  0.13168432533E+03 -0.78122714117E+02 -0.58634170146E+03  0.60600372185E+03  0.50400001928E-02 0.  1.
</event>
<event>
 5   0  0.1506454E-04  0.9999305E+03  0.7818609E-02  0.9308621E-01
        1   -1    0    0  501    0  0.00000000000E+00  0.00000000000E+00  0.76423534367E+03  0.76423534369E+03  0.50400001928E-02 0. -1.
       -1   -1    0    0    0  501  0.00000000000E+00  0.00000000000E+00 -0.32707891051E+03  0.32707891055E+03  0.50400001928E-02 0.  1.
    10030    2    1    2    0    0  0.00000000000E+00  0.00000000000E+00  0.43715643316E+03  0.10913142542E+04  0.99993052481E+03 0.  0.
        3    1    3    3  502    0 -0.40062777304E+03  0.29569201890E+03  0.16941874553E+03  0.52596492669E+03  0.10100000352E+00 0.  1.
       -3    1    3    3    0  502  0.40062777304E+03 -0.29569201890E+03  0.26773768763E+03  0.56534932754E+03  0.10100000352E+00 0. -1.
</event>
<event>
 5   0  0.2503680E-04  0.9995187E+03  0.7818609E-02  0.9309073E-01
       -2   -1    0    0    0  501  0.00000000000E+00  0.00000000000E+00  0.13108169928E+03  0.13108169931E+03  0.25500000920E-02 0. -1.
        2   -1    0    0  501    0  0.00000000000E+00  0.00000000000E+00 -0.19053721034E+04  0.19053721034E+04  0.25500000920E-02 0.  1.
    10030    2    1    2    0    0  0.00000000000E+00  0.00000000000E+00 -0.17742904041E+04  0.20364538027E+04  0.99951871039E+03 0.  0.
        2    1    3    3  502    0 -0.44434498889E+03 -0.22852848006E+03 -0.86763707404E+03  0.10012301572E+04  0.25500000920E-02 0. -1.
       -2    1    3    3    0  502  0.44434498889E+03  0.22852848006E+03 -0.90665333005E+03  0.10352236455E+04  0.25500000920E-02 0.  1.
</event>
<event>
 5   0  0.2503680E-04  0.9999652E+03  0.7818609E-02  0.9308583E-01
        2   -1    0    0  501    0  0.00000000000E+00  0.00000000000E+00  0.63359644953E+03  0.63359644954E+03  0.25500000920E-02 0.  1.
       -2   -1    0    0    0  501  0.00000000000E+00  0.00000000000E+00 -0.39454548589E+03  0.39454548590E+03  0.25500000920E-02 0. -1.
    10030    2    1    2    0    0  0.00000000000E+00  0.00000000000E+00  0.23905096364E+03  0.10281419354E+04  0.99996523749E+03 0.  0.
        2    1    3    3  502    0 -0.27245943589E+03  0.15894919273E+03  0.51837842277E+03  0.60680736588E+03  0.25500000920E-02 0.  1.
       -2    1    3    3    0  502  0.27245943589E+03 -0.15894919273E+03 -0.27932745913E+03  0.42133456956E+03  0.25500000920E-02 0. -1.
</event>
<event>
 5   0  0.2353916E-04  0.9997039E+03  0.7818609E-02  0.9308870E-01
       -2   -1    0    0    0  501  0.00000000000E+00  0.00000000000E+00  0.40482088042E+03  0.40482088043E+03  0.25500000920E-02 0.  1.
        2   -1    0    0  501    0  0.00000000000E+00  0.00000000000E+00 -0.61719141038E+03  0.61719141039E+03  0.25500000920E-02 0. -1.
    10030    2    1    2    0    0  0.00000000000E+00  0.00000000000E+00 -0.21237052996E+03  0.10220122908E+04  0.99970389646E+03 0.  0.
        4    1    3    3  502    0  0.24285258966E+03  0.28697467338E+03  0.23058725955E+03  0.44102600901E+03  0.12699999809E+01 0.  1.
       -4    1    3    3    0  502 -0.24285258966E+03 -0.28697467338E+03 -0.44295778950E+03  0.58098628180E+03  0.12699999809E+01 0. -1.
</event>
<event>
 5   0  0.2484904E-04  0.9999894E+03  0.7818609E-02  0.9308556E-01
       -2   -1    0    0    0  501  0.00000000000E+00  0.00000000000E+00  0.36356731128E+03  0.36356731128E+03  0.25500000920E-02 0.  1.
        2   -1    0    0  501    0  0.00000000000E+00  0.00000000000E+00 -0.68761593806E+03  0.68761593807E+03  0.25500000920E-02 0. -1.
    10030    2    1    2    0    0  0.00000000000E+00  0.00000000000E+00 -0.32404862679E+03  0.10511832494E+04  0.99998935554E+03 0.  0.
        3    1    3    3  502    0  0.35256826524E+03  0.29965050852E+03 -0.36119683612E+03  0.58699060770E+03  0.10100000352E+00 0.  1.
       -3    1    3    3    0  502 -0.35256826524E+03 -0.29965050852E+03  0.37148209327E+02  0.46419264165E+03  0.10100000352E+00 0. -1.
</event>
<event>
 5   0  0.2403037E-04  0.9999626E+03  0.7818609E-02  0.9308586E-01
       -2   -1    0    0    0  501  0.00000000000E+00  0.00000000000E+00  0.15762362070E+03  0.15762362072E+03  0.25500000920E-02 0. -1.
        2   -1    0    0  501    0  0.00000000000E+00  0.00000000000E+00 -0.15859379464E+04  0.15859379464E+04  0.25500000920E-02 0.  1.
    10030    2    1    2    0    0  0.00000000000E+00  0.00000000000E+00 -0.14283143257E+04  0.17435615671E+04  0.99996256196E+03 0.  0.
        1    1    3    3  502    0 -0.29032170119E+03  0.15484354835E+03 -0.13705535112E+04  0.14094964142E+04  0.50400001928E-02 0.  1.
       -1    1    3    3    0  502  0.29032170119E+03 -0.15484354835E+03 -0.57760814488E+02  0.33406515288E+03  0.50400001928E-02 0. -1.
</event>
<event>
 5   0  0.2473312E-04  0.1004148E+04  0.7818609E-02  0.9304007E-01
       -2   -1    0    0    0  501  0.00000000000E+00  0.00000000000E+00  0.36083983298E+03  0.36083983299E+03  0.25500000920E-02 0. -1.
        2   -1    0    0  501    0  0.00000000000E+00  0.00000000000E+00 -0.69858795313E+03  0.69858795314E+03  0.25500000920E-02 0.  1.
    10030    2    1    2    0    0  0.00000000000E+00  0.00000000000E+00 -0.33774812015E+03  0.10594277861E+04  0.10041481172E+04 0.  0.
        5    1    3    3  502    0 -0.30912452109E+03 -0.19518928856E+03  0.19416086666E+03  0.41397748737E+03  0.46999998093E+01 0. -1.
       -5    1    3    3    0  502  0.30912452109E+03  0.19518928856E+03 -0.53190898681E+03  0.64545029875E+03  0.46999998093E+01 0.  1.
</event>
<event>
 5   0  0.1414165E-04  0.1000446E+04  0.7818609E-02  0.9308056E-01
        1   -1    0    0  501    0  0.00000000000E+00  0.00000000000E+00  0.58176528186E+03  0.58176528188E+03  0.50400001928E-02 0.  1.
       -1   -1    0    0    0  501  0.00000000000E+00  0.00000000000E+00 -0.43011007799E+03  0.43011007802E+03  0.50400001928E-02 0. -1.
    10030    2    1    2    0    0  0.00000000000E+00  0.00000000000E+00  0.15165520387E+03  0.10118753599E+04  0.10004461220E+04 0.  0.
        4    1    3    3  502    0  0.39976742515E+03  0.29977226626E+02 -0.22677060591E+03  0.46058565863E+03  0.12699999809E+01 0. -1.
       -4    1    3    3    0  502 -0.39976742515E+03 -0.29977226626E+02  0.37842580977E+03  0.55128970128E+03  0.12699999809E+01 0.  1.
</event>
<event>
 5   0  0.1430675E-04  0.9999700E+03  0.7818609E-02  0.9308578E-01
        1   -1    0    0  501    0  0.00000000000E+00  0.00000000000E+00  0.46063070394E+03  0.46063070397E+03  0.50400001928E-02 0.  1.
       -1   -1    0    0    0  501  0.00000000000E+00  0.00000000000E+00 -0.54270160999E+03  0.54270161001E+03  0.50400001928E-02 0. -1.
    10030    2    1    2    0    0  0.00000000000E+00  0.00000000000E+00 -0.82070906052E+02  0.10033323140E+04  0.99997004888E+03 0.  0.
        5    1    3    3  502    0  0.68304778085E+02  0.19474655396E+03  0.41587595150E+03  0.46429156790E+03  0.46999998093E+01 0.  1.
       -5    1    3    3    0  502 -0.68304778085E+02 -0.19474655396E+03 -0.49794685755E+03  0.53904074608E+03  0.46999998093E+01 0. -1.
</event>
<event>
 5   0  0.2353916E-04  0.1000038E+04  0.7818609E-02  0.9308503E-01
       -2   -1    0    0    0  501  0.00000000000E+00  0.00000000000E+00  0.23270209130E+03  0.23270209132E+03  0.25500000920E-02 0. -1.
        2   -1    0    0  501    0  0.00000000000E+00  0.00000000000E+00 -0.10744168811E+04  0.10744168811E+04  0.25500000920E-02 0.  1.
    10030    2    1    2    0    0  0.00000000000E+00  0.00000000000E+00 -0.84171478978E+03  0.13071189724E+04  0.10000381096E+04 0.  0.
        4    1    3    3  502    0 -0.61077301551E+02 -0.46052835799E+03 -0.17913568077E+03  0.49790361548E+03  0.12699999809E+01 0. -1.
       -4    1    3    3    0  502  0.61077301551E+02  0.46052835799E+03 -0.66257910901E+03  0.80921535693E+03  0.12699999809E+01 0.  1.
</event>
<event>
 5   0  0.2503680E-04  0.1000174E+04  0.7818609E-02  0.9308354E-01
        2   -1    0    0  501    0  0.00000000000E+00  0.00000000000E+00  0.90993724943E+03  0.90993724943E+03  0.25500000920E-02 0. -1.
       -2   -1    0    0    0  501  0.00000000000E+00  0.00000000000E+00 -0.27483969764E+03  0.27483969766E+03  0.25500000920E-02 0.  1.
    10030    2    1    2    0    0  0.00000000000E+00  0.00000000000E+00  0.63509755178E+03  0.11847769471E+04  0.10001737419E+04 0.  0.
        2    1    3    3  502    0  0.17665435946E+03 -0.29754469084E+03 -0.11012450771E+03  0.36313497900E+03  0.25500000920E-02 0.  1.
       -2    1    3    3    0  502 -0.17665435946E+03  0.29754469084E+03  0.74522205950E+03  0.82164196809E+03  0.25500000920E-02 0. -1.
</event>
<event>
 5   0  0.1430675E-04  0.1000054E+04  0.7818609E-02  0.9308486E-01
       -1   -1    0    0    0  501  0.00000000000E+00  0.00000000000E+00  0.83412458361E+03  0.83412458362E+03  0.50400001928E-02 0. -1.
        1   -1    0    0  501    0  0.00000000000E+00  0.00000000000E+00 -0.29974770935E+03  0.29974770940E+03  0.50400001928E-02 0.  1.
    10030    2    1    2    0    0  0.00000000000E+00  0.00000000000E+00  0.53437687425E+03  0.11338722930E+04  0.10000538651E+04 0.  0.
        5    1    3    3  502    0  0.30322187510E+03 -0.30947425297E+03 -0.15781007753E+02  0.43357692396E+03  0.46999998093E+01 0. -1.
       -5    1    3    3    0  502 -0.30322187510E+03  0.30947425297E+03  0.55015788200E+03  0.70029536905E+03  0.46999998093E+01 0.  1.
</event>
<event>
 5   0  0.1461334E-04  0.9998893E+03  0.7818609E-02  0.9308666E-01
        1   -1    0    0  501    0  0.00000000000E+00  0.00000000000E+00  0.16047744989E+04  0.16047744989E+04  0.50400001928E-02 0.  1.
       -1   -1    0    0    0  501  0.00000000000E+00  0.00000000000E+00 -0.15575063659E+03  0.15575063667E+03  0.50400001928E-02 0. -1.
    10030    2    1    2    0    0  0.00000000000E+00  0.00000000000E+00  0.14490238623E+04  0.17605251356E+04  0.99988929360E+03 0.  0.
        2    1    3    3  502    0 -0.15965283011E+03  0.30756858739E+03  0.90024083435E+02  0.35803882152E+03  0.25500000920E-02 0. -1.
       -2    1    3    3    0  502  0.15965283011E+03 -0.30756858739E+03  0.13589997789E+04  0.14024863141E+04  0.25500000920E-02 0.  1.
</event>
<event>
 5   0  0.2473312E-04  0.9995488E+03  0.7818609E-02  0.9309040E-01
        2   -1    0    0  501    0  0.00000000000E+00  0.00000000000E+00  0.15075931770E+04  0.15075931770E+04  0.25500000920E-02 0. -1.
       -2   -1    0    0    0  501  0.00000000000E+00  0.00000000000E+00 -0.16567761347E+03  0.16567761349E+03  0.25500000920E-02 0.  1.
    10030    2    1    2    0    0  0.00000000000E+00  0.00000000000E+00  0.13419155635E+04  0.16732707905E+04  0.99954877754E+03 0.  0.
        5    1    3    3  502    0  0.37698157464E+03  0.24895093835E+03  0.31324588134E+03  0.54976062927E+03  0.46999998093E+01 0.  1.
       -5    1    3    3    0  502 -0.37698157464E+03 -0.24895093835E+03  0.10286696822E+04  0.11235101612E+04  0.46999998093E+01 0. -1.
</event>
<event>
 5   0  0.1461334E-04  0.9996982E+03  0.7818609E-02  0.9308876E-01
        1   -1    0    0  501    0  0.00000000000E+00  0.00000000000E+00  0.47225594403E+03  0.47225594406E+03  0.50400001928E-02 0. -1.
       -1   -1    0    0    0  501  0.00000000000E+00  0.00000000000E+00 -0.52905449400E+03  0.52905449402E+03  0.50400001928E-02 0.  1.
    10030    2    1    2    0    0  0.00000000000E+00  0.00000000000E+00 -0.56798549971E+02  0.10013104381E+04  0.99969821353E+03 0.  0.
        2    1    3    3  502    0  0.48388532375E+03  0.12426625128E+03 -0.44612466981E+02  0.50157489965E+03  0.25500000920E-02 0. -1.
       -2    1    3    3    0  502 -0.48388532375E+03 -0.12426625128E+03 -0.12186082990E+02  0.49973553843E+03  0.25500000920E-02 0.  1.
</event>
<event>
 5   0  0.1506454E-04  0.1002238E+04  0.7818609E-02  0.9306094E-01
        1   -1    0    0  501    0  0.00000000000E+00  0.00000000000E+00  0.11060786922E+04  0.11060786922E+04  0.50400001928E-02 0. -1.
       -1   -1    0    0    0  501  0.00000000000E+00  0.00000000000E+00 -0.22703637855E+03  0.22703637861E+03  0.50400001928E-02 0.  1.
    10030    2    1    2    0    0  0.00000000000E+00  0.00000000000E+00  0.87904231362E+03  0.13331150708E+04  0.10022376978E+04 0.  0.
        3    1    3    3  502    0 -0.25170194550E+03  0.40778247542E+03  0.24457676512E+03  0.53801321626E+03  0.10100000352E+00 0.  1.
       -3    1    3    3    0  502  0.25170194550E+03 -0.40778247542E+03  0.63446554850E+03  0.79510185453E+03  0.10100000352E+00 0. -1.
</event>
<event>
 5   0  0.1453863E-04  0.9993857E+03  0.7818609E-02  0.9309219E-01
        1   -1    0    0  501    0  0.00000000000E+00  0.00000000000E+00  0.10410508806E+04  0.10410508806E+04  0.50400001928E-02 0. -1.
       -1   -1    0    0    0  501  0.00000000000E+00  0.00000000000E+00 -0.23984699826E+03  0.23984699831E+03  0.50400001928E-02 0.  1.
    10030    2    1    2    0    0  0.00000000000E+00  0.00000000000E+00  0.80120388233E+03  0.12808978789E+04  0.99938566887E+03 0.  0.
        1    1    3    3  502    0 -0.11739625052E+03  0.54635684311E+00 -0.22192084901E+03  0.25105983628E+03  0.50400001928E-02 0.  1.
       -1    1    3    3    0  502  0.11739625052E+03 -0.54635684311E+00  0.10231247313E+04  0.10298380426E+04  0.50400001928E-02 0. -1.
</event>
<event>
 5   0  0.2403037E-04  0.9999565E+03  0.7818609E-02  0.9308593E-01
       -2   -1    0    0    0  501  0.00000000000E+00  0.00000000000E+00  0.22295007219E+03  0.22295007220E+03  0.25500000920E-02 0.  1.
        2   -1    0    0  501    0  0.00000000000E+00  0.00000000000E+00 -0.11212297307E+04  0.11212297307E+04  0.25500000920E-02 0. -1.
    10030    2    1    2    0    0  0.00000000000E+00  0.00000000000E+00 -0.89827965852E+03  0.13441798029E+04  0.99995649787E+03 0.  0.
        1    1    3    3  502    0 -0.84847702023E+02  0.22894734556E+02 -0.11107658649E+04  0.11142370071E+04  0.50400001928E-02 0. -1.
       -1    1    3    3    0  502  0.84847702023E+02 -0.22894734556E+02  0.21248620637E+03  0.22994279578E+03  0.50400001928E-02 0.  1.
</event>
<event>
 5   0  0.9650500E-05  0.9990341E+03  0.7818609E-02  0.9309605E-01
        3   -1    0    0  501    0  0.00000000000E+00  0.00000000000E+00  0.49100496597E+03  0.49100497636E+03  0.10100000352E+00 0. -1.
       -3   -1    0    0    0  501  0.00000000000E+00  0.00000000000E+00 -0.50817670364E+03  0.50817671368E+03  0.10100000352E+00 0.  1.
    10030    2    1    2    0    0  0.00000000000E+00  0.00000000000E+00 -0.17171737673E+02  0.99918169004E+03  0.99903412411E+03 0.  0.
        4    1    3    3  502    0 -0.29579475893E+03 -0.11773272160E+02 -0.41099158382E+03  0.50650650955E+03  0.12699999809E+01 0.  1.
       -4    1    3    3    0  502  0.29579475893E+03  0.11773272160E+02  0.39381984615E+03  0.49267518049E+03  0.12699999809E+01 0. -1.
</event>
<event>
 5   0  0.2484904E-04  0.9984743E+03  0.7818609E-02  0.9310220E-01
       -2   -1    0    0    0  501  0.00000000000E+00  0.00000000000E+00  0.40220324760E+03  0.40220324761E+03  0.25500000920E-02 0.  1.
        2   -1    0    0  501    0  0.00000000000E+00  0.00000000000E+00 -0.61968104818E+03  0.61968104818E+03  0.25500000920E-02 0. -1.
    10030    2    1    2    0    0  0.00000000000E+00  0.00000000000E+00 -0.21747780058E+03  0.10218842958E+04  0.99847429623E+03 0.  0.
        3    1    3    3  502    0  0.10888916100E+03  0.40969210072E+03 -0.37861293987E+03  0.56837684261E+03  0.10100000352E+00 0. -1.
       -3    1    3    3    0  502 -0.10888916100E+03 -0.40969210072E+03  0.16113513929E+03  0.45350745318E+03  0.10100000352E+00 0.  1.
</event>
<event>
 5   0  0.2473312E-04  0.1000171E+04  0.7818609E-02  0.9308357E-01
        2   -1    0    0  501    0  0.00000000000E+00  0.00000000000E+00  0.10606311972E+04  0.10606311972E+04  0.25500000920E-02 0. -1.
       -2   -1    0    0    0  501  0.00000000000E+00  0.00000000000E+00 -0.23578935265E+03  0.23578935267E+03  0.25500000920E-02 0.  1.
    10030    2    1    2    0    0  0.00000000000E+00  0.00000000000E+00  0.82484184455E+03  0.12964205499E+04  0.10001710722E+04 0.  0.
        5    1    3    3  502    0  0.60859229717E+02  0.44391148254E+03  0.12461165026E+03  0.46509289777E+03  0.46999998093E+01 0.  1.
       -5    1    3    3    0  502 -0.60859229717E+02 -0.44391148254E+03  0.70023019429E+03  0.83132765211E+03  0.46999998093E+01 0. -1.
</event>
<event>
 5   0  0.2353916E-04  0.9989034E+03  0.7818609E-02  0.9309748E-01
       -2   -1    0    0    0  501  0.00000000000E+00  0.00000000000E+00  0.44277575702E+03  0.44277575703E+03  0.25500000920E-02 0. -1.
        2   -1    0    0  501    0  0.00000000000E+00  0.00000000000E+00 -0.56338221954E+03  0.56338221955E+03  0.25500000920E-02 0.  1.
    10030    2    1    2    0    0  0.00000000000E+00  0.00000000000E+00 -0.12060646252E+03  0.10061579766E+04  0.99890337622E+03 0.  0.
        4    1    3    3  502    0 -0.19541449850E+03 -0.29919371549E+03  0.29115299344E+03  0.46095052240E+03  0.12699999809E+01 0. -1.
       -4    1    3    3    0  502  0.19541449850E+03  0.29919371549E+03 -0.41175945596E+03  0.54520745418E+03  0.12699999809E+01 0.  1.
</event>
<event>
 5   0  0.2403037E-04  0.1001587E+04  0.7818609E-02  0.9306805E-01
       -2   -1    0    0    0  501  0.00000000000E+00  0.00000000000E+00  0.15349173649E+03  0.15349173652E+03  0.25500000920E-02 0. -1.
        2   -1    0    0  501    0  0.00000000000E+00  0.00000000000E+00 -0.16339273535E+04  0.16339273535E+04  0.25500000920E-02 0.  1.
    10030    2    1    2    0    0  0.00000000000E+00  0.00000000000E+00 -0.14804356170E+04  0.17874190900E+04  0.10015874337E+04 0.  0.
        1    1    3    3  502    0  0.15933042448E+03  0.43417335826E+02  0.10350293860E+03  0.19489511934E+03  0.50400001928E-02 0. -1.
       -1    1    3    3    0  502 -0.15933042448E+03 -0.43417335826E+02 -0.15839385556E+04  0.15925239707E+04  0.50400001928E-02 0.  1.
</event>
<event>
 5   0  0.1461334E-04  0.1000240E+04  0.7818609E-02  0.9308281E-01
        1   -1    0    0  501    0  0.00000000000E+00  0.00000000000E+00  0.26833679358E+03  0.26833679363E+03  0.50400001928E-02 0. -1.
       -1   -1    0    0    0  501  0.00000000000E+00  0.00000000000E+00 -0.93211272623E+03  0.93211272625E+03  0.50400001928E-02 0.  1.
    10030    2    1    2    0    0  0.00000000000E+00  0.00000000000E+00 -0.66377593265E+03  0.12004495199E+04  0.10002402516E+04 0.  0.
        2    1    3    3  502    0 -0.25786678064E+03  0.39560812924E+03 -0.13424699254E+03  0.49094126277E+03  0.25500000920E-02 0.  1.
       -2    1    3    3    0  502  0.25786678064E+03 -0.39560812924E+03 -0.52952894011E+03  0.70950825711E+03  0.25500000920E-02 0. -1.
</event>
<event>
 5   0  0.1506454E-04  0.1000622E+04  0.7818609E-02  0.9307862E-01
       -1   -1    0    0    0  501  0.00000000000E+00  0.00000000000E+00  0.18001037930E+03  0.18001037937E+03  0.50400001928E-02 0. -1.
        1   -1    0    0  501    0  0.00000000000E+00  0.00000000000E+00 -0.13905381743E+04  0.13905381743E+04  0.50400001928E-02 0.  1.
    10030    2    1    2    0    0  0.00000000000E+00  0.00000000000E+00 -0.12105277950E+04  0.15705485537E+04  0.10006224148E+04 0.  0.
        3    1    3    3  502    0  0.25601291098E+03 -0.42369070205E+03 -0.49148486677E+03  0.69757709686E+03  0.10100000352E+00 0. -1.
       -3    1    3    3    0  502 -0.25601291098E+03  0.42369070205E+03 -0.71904292821E+03  0.87297145681E+03  0.10100000352E+00 0.  1.
</event>
<event>
 5   0  0.9650500E-05  0.9987522E+03  0.7818609E-02  0.9309914E-01
       -3   -1    0    0    0  501  0.00000000000E+00  0.00000000000E+00  0.63119518364E+03  0.63119519172E+03  0.10100000352E+00 0.  1.
        3   -1    0    0  501    0  0.00000000000E+00  0.00000000000E+00 -0.39508611890E+03  0.39508613181E+03  0.10100000352E+00 0. -1.
    10030    2    1    2    0    0  0.00000000000E+00  0.00000000000E+00  0.23610906474E+03  0.10262813235E+04  0.99875215372E+03 0.  0.
        3    1    3    3  502    0  0.39253632434E+03  0.19675165768E+03  0.36247748840E+03  0.56937326994E+03  0.10100000352E+00 0.  1.
       -3    1    3    3    0  502 -0.39253632434E+03 -0.19675165768E+03 -0.12636842366E+03  0.45690805358E+03  0.10100000352E+00 0. -1.
</event>
<event>
 5   0  0.2484904E-04  0.9978595E+03  0.7818609E-02  0.9310896E-01
        2   -1    0    0  501    0  0.00000000000E+00  0.00000000000E+00  0.14231029614E+04  0.14231029614E+04  0.25500000920E-02 0.  1.
       -2   -1    0    0    0  501  0.00000000000E+00  0.00000000000E+00 -0.17492120437E+03  0.17492120439E+03  0.25500000920E-02 0. -1.
    10030    2    1    2    0    0  0.00000000000E+00  0.00000000000E+00  0.12481817571E+04  0.15980241658E+04  0.99785947702E+03 0.  0.
        3    1    3    3  502    0  0.78760899492E+02  0.29731030830E+03 -0.50458050681E+01  0.30760716679E+03  0.10100000352E+00 0. -1.
       -3    1    3    3    0  502 -0.78760899492E+02 -0.29731030830E+03  0.12532275621E+04  0.12904169990E+04  0.10100000352E+00 0.  1.
</event>
<event>
 5   0  0.2484904E-04  0.9999957E+03  0.7818609E-02  0.9308549E-01
       -2   -1    0    0    0  501  0.00000000000E+00  0.00000000000E+00  0.33384772803E+03  0.33384772804E+03  0.25500000920E-02 0. -1.
        2   -1    0    0  501    0  0.00000000000E+00  0.00000000000E+00 -0.74883800566E+03  0.74883800567E+03  0.25500000920E-02 0.  1.
    10030    2    1    2    0    0  0.00000000000E+00  0.00000000000E+00 -0.41499027764E+03  0.10826857337E+04  0.99999573371E+03 0.  0.
        3    1    3    3  502    0  0.42652049512E+03 -0.70897746597E+02 -0.47935959926E+03  0.64554772003E+03  0.10100000352E+00 0. -1.
       -3    1    3    3    0  502 -0.42652049512E+03  0.70897746597E+02  0.64369321630E+02  0.43713801367E+03  0.10100000352E+00 0.  1.
</event>
<event>
 5   0  0.1461334E-04  0.9999131E+03  0.7818609E-02  0.9308640E-01
        1   -1    0    0  501    0  0.00000000000E+00  0.00000000000E+00  0.41217381036E+03  0.41217381039E+03  0.50400001928E-02 0. -1.
       -1   -1    0    0    0  501  0.00000000000E+00  0.00000000000E+00 -0.60643479249E+03  0.60643479251E+03  0.50400001928E-02 0.  1.
    10030    2    1    2    0    0  0.00000000000E+00  0.00000000000E+00 -0.19426098212E+03  0.10186086029E+04  0.99991307459E+03 0.  0.
        2    1    3    3  502    0 -0.41005790121E+03  0.15639257500E+03  0.14682656924E+03  0.46277873904E+03  0.25500000920E-02 0. -1.
       -2    1    3    3    0  502  0.41005790121E+03 -0.15639257500E+03 -0.34108755136E+03  0.55582986387E+03  0.25500000920E-02 0.  1.
</event>
<event>
 5   0  0.1453863E-04  0.9998065E+03  0.7818609E-02  0.9308757E-01
       -1   -1    0    0    0  501  0.00000000000E+00  0.00000000000E+00  0.17582491002E+03  0.17582491009E+03  0.50400001928E-02 0. -1.
        1   -1    0    0  501    0  0.00000000000E+00  0.00000000000E+00 -0.14213187607E+04  0.14213187607E+04  0.50400001928E-02 0.  1.
    10030    2    1    2    0    0  0.00000000000E+00  0.00000000000E+00 -0.12454938506E+04  0.15971436708E+04  0.99980646782E+03 0.  0.
        1    1    3    3  502    0  0.30587778070E+03 -0.11267605212E+03 -0.17301483857E+02  0.32642985590E+03  0.50400001928E-02 0. -1.
       -1    1    3    3    0  502 -0.30587778070E+03  0.11267605212E+03 -0.12281923668E+04  0.12707138149E+04  0.50400001928E-02 0.  1.
</event>
<event>
 5   0  0.2473312E-04  0.9999032E+03  0.7818609E-02  0.9308651E-01
        2   -1    0    0  501    0  0.00000000000E+00  0.00000000000E+00  0.36833539097E+03  0.36833539098E+03  0.25500000920E-02 0. -1.
       -2   -1    0    0    0  501  0.00000000000E+00  0.00000000000E+00 -0.67859784203E+03  0.67859784204E+03  0.25500000920E-02 0.  1.
    10030    2    1    2    0    0  0.00000000000E+00  0.00000000000E+00 -0.31026245106E+03  0.10469332330E+04  0.99990319824E+03 0.  0.
        5    1    3    3  502    0 -0.33628954218E+03  0.29301036224E+03 -0.39154732974E+03  0.59352938427E+03  0.46999998093E+01 0.  1.
       -5    1    3    3    0  502  0.33628954218E+03 -0.29301036224E+03  0.81284878682E+02  0.45340384875E+03  0.46999998093E+01 0. -1.
</event>
<event>
 5   0  0.1414165E-04  0.1000249E+04  0.7818609E-02  0.9308272E-01
        1   -1    0    0  501    0  0.00000000000E+00  0.00000000000E+00  0.73650991528E+03  0.73650991529E+03  0.50400001928E-02 0. -1.
       -1   -1    0    0    0  501  0.00000000000E+00  0.00000000000E+00 -0.33960791442E+03  0.33960791446E+03  0.50400001928E-02 0.  1.
    10030    2    1    2    0    0  0.00000000000E+00  0.00000000000E+00  0.39690200085E+03  0.10761178298E+04  0.10002491616E+04 0.  0.
        4    1    3    3  502    0 -0.39575852733E+01 -0.23142814191E+03  0.67541578676E+03  0.71397671198E+03  0.12699999809E+01 0. -1.
       -4    1    3    3    0  502  0.39575852733E+01  0.23142814191E+03 -0.27851378590E+03  0.36214111778E+03  0.12699999809E+01 0.  1.
</event>
<event>
 5   0  0.1453863E-04  0.9995929E+03  0.7818609E-02  0.9308991E-01
        1   -1    0    0  501    0  0.00000000000E+00  0.00000000000E+00  0.85587621106E+03  0.85587621107E+03  0.50400001928E-02 0.  1.
       -1   -1    0    0    0  501  0.00000000000E+00  0.00000000000E+00 -0.29186051215E+03  0.29186051219E+03  0.50400001928E-02 0. -1.
    10030    2    1    2    0    0  0.00000000000E+00  0.00000000000E+00  0.56401569891E+03  0.11477367233E+04  0.99959285577E+03 0.  0.
        1    1    3    3  502    0 -0.18557089453E+03 -0.37701677340E+03  0.59269897673E+03  0.72654681981E+03  0.50400001928E-02 0.  1.
       -1    1    3    3    0  502  0.18557089453E+03  0.37701677340E+03 -0.28683277821E+02  0.42118990346E+03  0.50400001928E-02 0. -1.
</event>
<event>
 5   0  0.2353916E-04  0.1000113E+04  0.7818609E-02  0.9308420E-01
        2   -1    0    0  501    0  0.00000000000E+00  0.00000000000E+00  0.12450158452E+04  0.12450158452E+04  0.25500000920E-02 0. -1.
       -2   -1    0    0    0  501  0.00000000000E+00  0.00000000000E+00 -0.20084618614E+03  0.20084618615E+03  0.25500000920E-02 0.  1.
    10030    2    1    2    0    0  0.00000000000E+00  0.00000000000E+00  0.10441696591E+04  0.14458620314E+04  0.10001133620E+04 0.  0.
        4    1    3    3  502    0 -0.42859225801E+03 -0.22813781395E+03  0.69506722217E+03  0.84785508314E+03  0.12699999809E+01 0. -1.
       -4    1    3    3    0  502  0.42859225801E+03  0.22813781395E+03  0.34910243694E+03  0.59800694825E+03  0.12699999809E+01 0.  1.
</event>
<event>
 5   0  0.1453863E-04  0.1000451E+04  0.7818609E-02  0.9308050E-01
       -1   -1    0    0    0  501  0.00000000000E+00  0.00000000000E+00  0.15988653329E+03  0.15988653337E+03  0.50400001928E-02 0. -1.
        1   -1    0    0  501    0  0.00000000000E+00  0.00000000000E+00 -0.15650202069E+04  0.15650202069E+04  0.50400001928E-02 0.  1.
    10030    2    1    2    0    0  0.00000000000E+00  0.00000000000E+00 -0.14051336736E+04  0.17249067403E+04  0.10004512092E+04 0.  0.
        1    1    3    3  502    0 -0.46585254503E+03  0.64072392378E+02 -0.40844344935E+03  0.62285625671E+03  0.50400001928E-02 0.  1.
       -1    1    3    3    0  502  0.46585254503E+03 -0.64072392378E+02 -0.99669022430E+03  0.11020504836E+04  0.50400001928E-02 0. -1.
</event>
<event>
 5   0  0.1453863E-04  0.1001265E+04  0.7818609E-02  0.9307159E-01
       -1   -1    0    0    0  501  0.00000000000E+00  0.00000000000E+00  0.13660268444E+03  0.13660268453E+03  0.50400001928E-02 0. -1.
        1   -1    0    0  501    0  0.00000000000E+00  0.00000000000E+00 -0.18347565345E+04  0.18347565345E+04  0.50400001928E-02 0.  1.
    10030    2    1    2    0    0  0.00000000000E+00  0.00000000000E+00 -0.16981538500E+04  0.19713592190E+04  0.10012645365E+04 0.  0.
        1    1    3    3  502    0  0.23521850206E+03  0.11107077153E+03 -0.68972594570E+01  0.26021535738E+03  0.50400001928E-02 0. -1.
       -1    1    3    3    0  502 -0.23521850206E+03 -0.11107077153E+03 -0.16912565906E+04  0.17111438616E+04  0.50400001928E-02 0.  1.
</event>
<event>
 5   0  0.1453863E-04  0.9997786E+03  0.7818609E-02  0.9308788E-01
       -1   -1    0    0    0  501  0.00000000000E+00  0.00000000000E+00  0.61144111562E+03  0.61144111564E+03  0.50400001928E-02 0.  1.
        1   -1    0    0  501    0  0.00000000000E+00  0.00000000000E+00 -0.40868904879E+03  0.40868904882E+03  0.50400001928E-02 0. -1.
    10030    2    1    2    0    0  0.00000000000E+00  0.00000000000E+00  0.20275206683E+03  0.10201301645E+04  0.99977855139E+03 0.  0.
        1    1    3    3  502    0  0.10128590203E+03 -0.80577632412E+02 -0.39129613260E+03  0.41214591131E+03  0.50400001928E-02 0. -1.
       -1    1    3    3    0  502 -0.10128590203E+03  0.80577632412E+02  0.59404819943E+03  0.60798425314E+03  0.50400001928E-02 0.  1.
</event>
<event>
 5   0  0.1430675E-04  0.9981796E+03  0.7818609E-02  0.9310544E-01
       -1   -1    0    0    0  501  0.00000000000E+00  0.00000000000E+00  0.64592516546E+03  0.64592516548E+03  0.50400001928E-02 0.  1.
        1   -1    0    0  501    0  0.00000000000E+00  0.00000000000E+00 -0.38563388868E+03  0.38563388872E+03  0.50400001928E-02 0. -1.
    10030    2    1    2    0    0  0.00000000000E+00  0.00000000000E+00  0.26029127677E+03  0.10315590542E+04  0.99817960985E+03 0.  0.
        5    1    3    3  502    0  0.45251540769E+03  0.41400109798E+02  0.34340620853E+03  0.56959114928E+03  0.46999998093E+01 0.  1.
       -5    1    3    3    0  502 -0.45251540769E+03 -0.41400109798E+02 -0.83114931759E+02  0.46196790491E+03  0.46999998093E+01 0. -1.
</event>
<event>
 5   0  0.1430675E-04  0.1000476E+04  0.7818609E-02  0.9308023E-01
       -1   -1    0    0    0  501  0.00000000000E+00  0.00000000000E+00  0.15938088545E+03  0.15938088553E+03  0.50400001928E-02 0.  1.
        1   -1    0    0  501    0  0.00000000000E+00  0.00000000000E+00 -0.15700637653E+04  0.15700637653E+04  0.50400001928E-02 0. -1.
    10030    2    1    2    0    0  0.00000000000E+00  0.00000000000E+00 -0.14106828798E+04  0.17294446508E+04  0.10004761930E+04 0.  0.
        5    1    3    3  502    0 -0.23849885602E+03  0.17242040650E+03 -0.61454303327E+01  0.29439829689E+03  0.46999998093E+01 0.  1.
       -5    1    3    3    0  502  0.23849885602E+03 -0.17242040650E+03 -0.14045374495E+04  0.14350463539E+04  0.46999998093E+01 0. -1.
</event>
<event>
 5   0  0.1461334E-04  0.9993580E+03  0.7818609E-02  0.9309249E-01
        1   -1    0    0  501    0  0.00000000000E+00  0.00000000000E+00  0.42188664656E+03  0.42188664659E+03  0.50400001928E-02 0.  1.
       -1   -1    0    0    0  501  0.00000000000E+00  0.00000000000E+00 -0.59181560375E+03  0.59181560377E+03  0.50400001928E-02 0. -1.
    10030    2    1    2    0    0  0.00000000000E+00  0.00000000000E+00 -0.16992895719E+03  0.10137022504E+04  0.99935799486E+03 0.  0.
        2    1    3    3  502    0 -0.40651380251E+03 -0.10584400127E+03 -0.35944537185E+03  0.55286291211E+03  0.25500000920E-02 0. -1.
       -2    1    3    3    0  502  0.40651380251E+03  0.10584400127E+03  0.18951641466E+03  0.46083933824E+03  0.25500000920E-02 0.  1.
</event>
<event>
 5   0  0.1461334E-04  0.1001211E+04  0.7818609E-02  0.9307218E-01
        1   -1    0    0  501    0  0.00000000000E+00  0.00000000000E+00  0.93080988598E+03  0.93080988600E+03  0.50400001928E-02 0. -1.
       -1   -1    0    0    0  501  0.00000000000E+00  0.00000000000E+00 -0.26923401743E+03  0.26923401747E+03  0.50400001928E-02 0.  1.
    10030    2    1    2    0    0  0.00000000000E+00  0.00000000000E+00  0.66157586856E+03  0.12000439035E+04  0.10012106374E+04 0.  0.
        2    1    3    3  502    0  0.22492768323E+03  0.28651587971E+03  0.74238177229E+03  0.82693077573E+03  0.25500000920E-02 0. -1.
       -2    1    3    3    0  502 -0.22492768323E+03 -0.28651587971E+03 -0.80805903734E+02  0.37311312774E+03  0.25500000920E-02 0.  1.
</event>
<event>
 5   0  0.1461334E-04  0.9996649E+03  0.7818609E-02  0.9308912E-01
       -1   -1    0    0    0  501  0.00000000000E+00  0.00000000000E+00  0.57586875677E+03  0.57586875679E+03  0.50400001928E-02 0. -1.
        1   -1    0    0  501    0  0.00000000000E+00  0.00000000000E+00 -0.43383576209E+03  0.43383576212E+03  0.50400001928E-02 0.  1.
    10030    2    1    2    0    0  0.00000000000E+00  0.00000000000E+00  0.14203299468E+03  0.10097045189E+04  0.99966486581E+03 0.  0.
        2    1    3    3  502    0 -0.82752015284E+02  0.28492403927E+03  0.47730353242E+03  0.56200379559E+03  0.25500000920E-02 0. -1.
       -2    1    3    3    0  502  0.82752015284E+02 -0.28492403927E+03 -0.33527053774E+03  0.44770072333E+03  0.25500000920E-02 0.  1.
</event>
<event>
 5   0  0.2473312E-04  0.1000031E+04  0.7818609E-02  0.9308510E-01
       -2   -1    0    0    0  501  0.00000000000E+00  0.00000000000E+00  0.46976790354E+03  0.46976790355E+03  0.25500000920E-02 0.  1.
        2   -1    0    0  501    0  0.00000000000E+00  0.00000000000E+00 -0.53221118257E+03  0.53221118257E+03  0.25500000920E-02 0. -1.
    10030    2    1    2    0    0  0.00000000000E+00  0.00000000000E+00 -0.62443279021E+02  0.10019790861E+04  0.10000314625E+04 0.  0.
        5    1    3    3  502    0 -0.25525208406E+03 -0.42968113570E+03 -0.45883549098E+02  0.50190327242E+03  0.46999998093E+01 0. -1.
       -5    1    3    3    0  502  0.25525208406E+03  0.42968113570E+03 -0.16559729923E+02  0.50007581370E+03  0.46999998093E+01 0.  1.
</event>
<event>
 5   0  0.1453863E-04  0.9997397E+03  0.7818609E-02  0.9308830E-01
        1   -1    0    0  501    0  0.00000000000E+00  0.00000000000E+00  0.62624824321E+03  0.62624824323E+03  0.50400001928E-02 0. -1.
       -1   -1    0    0    0  501  0.00000000000E+00  0.00000000000E+00 -0.39899491714E+03  0.39899491717E+03  0.50400001928E-02 0.  1.
    10030    2    1    2    0    0  0.00000000000E+00  0.00000000000E+00  0.22725332608E+03  0.10252431604E+04  0.99973969799E+03 0.  0.
        1    1    3    3  502    0  0.71172047789E+02 -0.45837678169E+03 -0.77391301191E+02  0.47028092445E+03  0.50400001928E-02 0.  1.
       -1    1    3    3    0  502 -0.71172047789E+02  0.45837678169E+03  0.30464462727E+03  0.55496223595E+03  0.50400001928E-02 0. -1.
</event>
<event>
 5   0  0.1430675E-04  0.9992391E+03  0.7818609E-02  0.9309380E-01
       -1   -1    0    0    0  501  0.00000000000E+00  0.00000000000E+00  0.32358786683E+03  0.32358786687E+03  0.50400001928E-02 0.  1.
        1   -1    0    0  501    0  0.00000000000E+00  0.00000000000E+00 -0.77141238664E+03  0.77141238665E+03  0.50400001928E-02 0. -1.
    10030    2    1    2    0    0  0.00000000000E+00  0.00000000000E+00 -0.44782451981E+03  0.10950002535E+04  0.99923908784E+03 0.  0.
        5    1    3    3  502    0 -0.13112284735E+03 -0.22136073616E+03  0.24538605676E+03  0.35557022297E+03  0.46999998093E+01 0.  1.
       -5    1    3    3    0  502  0.13112284735E+03  0.22136073616E+03 -0.69321057657E+03  0.73943003055E+03  0.46999998093E+01 0. -1.
</event>
<event>
 5   0  0.2484904E-04  0.9998895E+03  0.7818609E-02  0.9308666E-01
        2   -1    0    0  501    0  0.00000000000E+00  0.00000000000E+00  0.14800720560E+04  0.14800720560E+04  0.25500000920E-02 0. -1.
       -2   -1    0    0    0  501  0.00000000000E+00  0.00000000000E+00 -0.16887338190E+03  0.16887338192E+03  0.25500000920E-02 0.  1.
    10030    2    1    2    0    0  0.00000000000E+00  0.00000000000E+00  0.13111986741E+04  0.16489454380E+04  0.99988954105E+03 0.  0.
        3    1    3    3  502    0 -0.17020659617E+03 -0.40682913193E+03  0.10439838909E+04  0.11333060499E+04  0.10100000352E+00 0. -1.
       -3    1    3    3    0  502  0.17020659617E+03  0.40682913193E+03  0.26721478321E+03  0.51563938808E+03  0.10100000352E+00 0.  1.
</event>
<event>
 5   0  0.1414165E-04  0.9999021E+03  0.7818609E-02  0.9308652E-01
        1   -1    0    0  501    0  0.00000000000E+00  0.00000000000E+00  0.66294637067E+03  0.66294637069E+03  0.50400001928E-02 0.  1.
       -1   -1    0    0    0  501  0.00000000000E+00  0.00000000000E+00 -0.37703058171E+03  0.37703058174E+03  0.50400001928E-02 0. -1.
    10030    2    1    2    0    0  0.00000000000E+00  0.00000000000E+00  0.28591578896E+03  0.10399769524E+04  0.99990210681E+03 0.  0.
        4    1    3    3  502    0  0.63172717330E+02 -0.35439859198E+03 -0.21787642870E+03  0.42078605644E+03  0.12699999809E+01 0. -1.
       -4    1    3    3    0  502 -0.63172717330E+02  0.35439859198E+03  0.50379221766E+03  0.61919089599E+03  0.12699999809E+01 0.  1.
</event>
<event>
 5   0  0.2353916E-04  0.1000206E+04  0.7818609E-02  0.9308319E-01
       -2   -1    0    0    0  501  0.00000000000E+00  0.00000000000E+00  0.22034123932E+03  0.22034123933E+03  0.25500000920E-02 0. -1.
        2   -1    0    0  501    0  0.00000000000E+00  0.00000000000E+00 -0.11350702095E+04  0.11350702095E+04  0.25500000920E-02 0.  1.
    10030    2    1    2    0    0  0.00000000000E+00  0.00000000000E+00 -0.91472897015E+03  0.13554114488E+04  0.10002055322E+04 0.  0.
        4    1    3    3  502    0  0.33796592456E+03  0.28967514936E+03 -0.76628874219E+03  0.88618999523E+03  0.12699999809E+01 0.  1.
       -4    1    3    3    0  502 -0.33796592456E+03 -0.28967514936E+03 -0.14844022796E+03  0.46922145358E+03  0.12699999809E+01 0. -1.
</event>
<event>
 5   0  0.2403037E-04  0.9986985E+03  0.7818609E-02  0.9309973E-01
        2   -1    0    0  501    0  0.00000000000E+00  0.00000000000E+00  0.10620321672E+04  0.10620321672E+04  0.25500000920E-02 0. -1.
       -2   -1    0    0    0  501  0.00000000000E+00  0.00000000000E+00 -0.23478540946E+03  0.23478540947E+03  0.25500000920E-02 0.  1.
    10030    2    1    2    0    0  0.00000000000E+00  0.00000000000E+00  0.82724675778E+03  0.12968175767E+04  0.99869846752E+03 0.  0.
        1    1    3    3  502    0  0.25427161305E+02 -0.49868496650E+03  0.41888528143E+03  0.65176538368E+03  0.50400001928E-02 0. -1.
       -1    1    3    3    0  502 -0.25427161305E+02  0.49868496650E+03  0.40836147635E+03  0.64505219303E+03  0.50400001928E-02 0.  1.
</event>
<event>
 5   0  0.1506454E-04  0.9997112E+03  0.7818609E-02  0.9308862E-01
        1   -1    0    0  501    0  0.00000000000E+00  0.00000000000E+00  0.10793690225E+04  0.10793690225E+04  0.50400001928E-02 0.  1.
       -1   -1    0    0    0  501  0.00000000000E+00  0.00000000000E+00 -0.23148302533E+03  0.23148302538E+03  0.50400001928E-02 0. -1.
    10030    2    1    2    0    0  0.00000000000E+00  0.00000000000E+00  0.84788599720E+03  0.13108520479E+04  0.99971117193E+03 0.  0.
        3    1    3    3  502    0  0.11170678139E+03  0.33803754368E+03 -0.36124904406E+02  0.35784466583E+03  0.10100000352E+00 0. -1.
       -3    1    3    3    0  502 -0.11170678139E+03 -0.33803754368E+03  0.88401090160E+03  0.95300738208E+03  0.10100000352E+00 0.  1.
</event>
<event>
 5   0  0.2484904E-04  0.1000148E+04  0.7818609E-02  0.9308383E-01
        2   -1    0    0  501    0  0.00000000000E+00  0.00000000000E+00  0.56455609641E+03  0.56455609642E+03  0.25500000920E-02 0. -1.
       -2   -1    0    0    0  501  0.00000000000E+00  0.00000000000E+00 -0.44295669706E+03  0.44295669707E+03  0.25500000920E-02 0.  1.
    10030    2    1    2    0    0  0.00000000000E+00  0.00000000000E+00  0.12159939935E+03  0.10075127935E+04  0.10001477966E+04 0.  0.
        3    1    3    3  502    0 -0.71495360023E+02  0.62290483957E+02  0.55541661248E+03  0.56345302779E+03  0.10100000352E+00 0. -1.
       -3    1    3    3    0  502  0.71495360023E+02 -0.62290483957E+02 -0.43381721314E+03  0.44405976570E+03  0.10100000352E+00 0.  1.
</event>
<event>
 5   0  0.1414165E-04  0.1000114E+04  0.7818609E-02  0.9308420E-01
        1   -1    0    0  501    0  0.00000000000E+00  0.00000000000E+00  0.16491451456E+04  0.16491451456E+04  0.50400001928E-02 0. -1.
       -1   -1    0    0    0  501  0.00000000000E+00  0.00000000000E+00 -0.15162825960E+03  0.15162825969E+03  0.50400001928E-02 0.  1.
    10030    2    1    2    0    0  0.00000000000E+00  0.00000000000E+00  0.14975168860E+04  0.18007734053E+04  0.10001140102E+04 0.  0.
        4    1    3    3  502    0 -0.44407128613E+03  0.79751755210E+02  0.36050423966E+03  0.57751586068E+03  0.12699999809E+01 0.  1.
       -4    1    3    3    0  502  0.44407128613E+03 -0.79751755210E+02  0.11370126463E+04  0.12232575446E+04  0.12699999809E+01 0. -1.
</event>
<event>
 5   0  0.2503680E-04  0.9994571E+03  0.7818609E-02  0.9309140E-01
       -2   -1    0    0    0  501  0.00000000000E+00  0.00000000000E+00  0.10283764048E+04  0.10283764049E+04  0.25500000920E-02 0. -1.
        2   -1    0    0  501    0  0.00000000000E+00  0.00000000000E+00 -0.24283777298E+03  0.24283777299E+03  0.25500000920E-02 0.  1.
    10030    2    1    2    0    0  0.00000000000E+00  0.00000000000E+00  0.78553863187E+03  0.12712141778E+04  0.99945712453E+03 0.  0.
        2    1    3    3  502    0 -0.40935692361E+03 -0.43368314679E+02  0.75313547274E+03  0.85829303966E+03  0.25500000920E-02 0. -1.
       -2    1    3    3    0  502  0.40935692361E+03  0.43368314679E+02  0.32403159130E+02  0.41292113818E+03  0.25500000920E-02 0.  1.
</event>
<event>
 5   0  0.1414165E-04  0.9999611E+03  0.7818609E-02  0.9308587E-01
        1   -1    0    0  501    0  0.00000000000E+00  0.00000000000E+00  0.73508878592E+03  0.73508878594E+03  0.50400001928E-02 0.  1.
       -1   -1    0    0    0  501  0.00000000000E+00  0.00000000000E+00 -0.34006851999E+03  0.34006852003E+03  0.50400001928E-02 0. -1.
    10030    2    1    2    0    0  0.00000000000E+00  0.00000000000E+00  0.39502026593E+03  0.10751573060E+04  0.99996111029E+03 0.  0.
        4    1    3    3  502    0  0.34071904054E+02  0.26236036963E+03  0.65365958593E+03  0.70517113198E+03  0.12699999809E+01 0.  1.
       -4    1    3    3    0  502 -0.34071904054E+02 -0.26236036963E+03 -0.25863931999E+03  0.36998617399E+03  0.12699999809E+01 0. -1.
</event>
<event>
 5   0  0.1414165E-04  0.9986704E+03  0.7818609E-02  0.9310004E-01
       -1   -1    0    0    0  501  0.00000000000E+00  0.00000000000E+00  0.48985856630E+03  0.48985856632E+03  0.50400001928E-02 0.  1.
        1   -1    0    0  501    0  0.00000000000E+00  0.00000000000E+00 -0.50899520434E+03  0.50899520437E+03  0.50400001928E-02 0. -1.
    10030    2    1    2    0    0  0.00000000000E+00  0.00000000000E+00 -0.19136638045E+02  0.99885377069E+03  0.99867043829E+03 0.  0.
        4    1    3    3  502    0 -0.51855431377E+02 -0.45872903229E+03 -0.19989969894E+03  0.50307336778E+03  0.12699999809E+01 0. -1.
       -4    1    3    3    0  502  0.51855431377E+02  0.45872903229E+03  0.18076306089E+03  0.49578040291E+03  0.12699999809E+01 0.  1.
</event>
<event>
 5   0  0.1461334E-04  0.1001213E+04  0.7818609E-02  0.9307216E-01
       -1   -1    0    0    0  501  0.00000000000E+00  0.00000000000E+00  0.19291446002E+03  0.19291446009E+03  0.50400001928E-02 0.  1.
        1   -1    0    0  501    0  0.00000000000E+00  0.00000000000E+00 -0.12990565474E+04  0.12990565474E+04  0.50400001928E-02 0. -1.
    10030    2    1    2    0    0  0.00000000000E+00  0.00000000000E+00 -0.11061420874E+04  0.14919710075E+04  0.10012128494E+04 0.  0.
        2    1    3    3  502    0  0.40085616028E+03 -0.15027015993E+03 -0.93976782592E+03  0.10326811458E+04  0.25500000920E-02 0. -1.
       -2    1    3    3    0  502 -0.40085616028E+03  0.15027015993E+03 -0.16637426147E+03  0.45928986173E+03  0.25500000920E-02 0.  1.
</event>
<event>
 5   0  0.2503680E-04  0.9998916E+03  0.7818609E-02  0.9308664E-01
       -2   -1    0    0    0  501  0.00000000000E+00  0.00000000000E+00  0.13596372166E+03  0.13596372169E+03  0.25500000920E-02 0. -1.
        2   -1    0    0  501    0  0.00000000000E+00  0.00000000000E+00 -0.18383273178E+04  0.18383273178E+04  0.25500000920E-02 0.  1.
    10030    2    1    2    0    0  0.00000000000E+00  0.00000000000E+00 -0.17023635961E+04  0.19742910395E+04  0.99989164169E+03 0.  0.
        2    1    3    3  502    0  0.53593868294E+01  0.22527459953E+03  0.30006080043E+02  0.22732736981E+03  0.25500000920E-02 0. -1.
       -2    1    3    3    0  502 -0.53593868294E+01 -0.22527459953E+03 -0.17323696761E+04  0.17469636696E+04  0.25500000920E-02 0.  1.
</event>
<event>
 5   0  0.2403037E-04  0.1000608E+04  0.7818609E-02  0.9307878E-01
       -2   -1    0    0    0  501  0.00000000000E+00  0.00000000000E+00  0.25607481607E+03  0.25607481609E+03  0.25500000920E-02 0. -1.
        2   -1    0    0  501    0  0.00000000000E+00  0.00000000000E+00 -0.97746495946E+03  0.97746495946E+03  0.25500000920E-02 0.  1.
    10030    2    1    2    0    0  0.00000000000E+00  0.00000000000E+00 -0.72139014339E+03  0.12335397755E+04  0.10006081345E+04 0.  0.
        1    1    3    3  502    0  0.41805933812E+03 -0.27452813668E+03 -0.37652342784E+03  0.62602651681E+03  0.50400001928E-02 0.  1.
       -1    1    3    3    0  502 -0.41805933812E+03  0.27452813668E+03 -0.34486671555E+03  0.60751325873E+03  0.50400001928E-02 0. -1.
</event>
<event>
 5   0  0.2473312E-04  0.1000155E+04  0.7818609E-02  0.9308375E-01
        2   -1    0    0  501    0  0.00000000000E+00  0.00000000000E+00  0.91322332701E+03  0.91322332701E+03  0.25500000920E-02 0. -1.
       -2   -1    0    0    0  501  0.00000000000E+00  0.00000000000E+00 -0.27384034998E+03  0.27384034999E+03  0.25500000920E-02 0.  1.
    10030    2    1    2    0    0  0.00000000000E+00  0.00000000000E+00  0.63938297703E+03  0.11870636770E+04  0.10001547790E+04 0.  0.
        5    1    3    3  502    0 -0.37177991209E+03 -0.69343962343E+02 -0.68595015482E+02  0.38439075730E+03  0.46999998093E+01 0.  1.
       -5    1    3    3    0  502  0.37177991209E+03  0.69343962343E+02  0.70797799251E+03  0.80267291971E+03  0.46999998093E+01 0. -1.
</event>
<event>
 5   0  0.2403037E-04  0.9997712E+03  0.7818609E-02  0.9308796E-01
       -2   -1    0    0    0  501  0.00000000000E+00  0.00000000000E+00  0.22859400245E+03  0.22859400247E+03  0.25500000920E-02 0.  1.
        2   -1    0    0  501    0  0.00000000000E+00  0.00000000000E+00 -0.10931416610E+04  0.10931416610E+04  0.25500000920E-02 0. -1.
    10030    2    1    2    0    0  0.00000000000E+00  0.00000000000E+00 -0.86454765850E+03  0.13217356634E+04  0.99977122891E+03 0.  0.
        1    1    3    3  502    0 -0.33298789476E+03  0.10298703935E+03 -0.90599600005E+03  0.97072963304E+03  0.50400001928E-02 0. -1.
       -1    1    3    3    0  502  0.33298789476E+03 -0.10298703935E+03  0.41448341542E+02  0.35100603039E+03  0.50400001928E-02 0.  1.
</event>
<event>
 5   0  0.1453863E-04  0.1000357E+04  0.7818609E-02  0.9308153E-01
        1   -1    0    0  501    0  0.00000000000E+00  0.00000000000E+00  0.21238671163E+04  0.21238671163E+04  0.50400001928E-02 0.  1.
       -1   -1    0    0    0  501  0.00000000000E+00  0.00000000000E+00 -0.11779387869E+03  0.11779387880E+03  0.50400001928E-02 0. -1.
    10030    2    1    2    0    0  0.00000000000E+00  0.00000000000E+00  0.20060732376E+04  0.22416609951E+04  0.10003570274E+04 0.  0.
        1    1    3    3  502    0 -0.20824761129E+03 -0.79269865582E+02  0.20065014725E+04  0.20188360355E+04  0.50400001928E-02 0.  1.
       -1    1    3    3    0  502  0.20824761129E+03  0.79269865582E+02 -0.42823488602E+00  0.22282495957E+03  0.50400001928E-02 0. -1.
</event>
<event>
 5   0  0.2473312E-04  0.9999484E+03  0.7818609E-02  0.9308601E-01
        2   -1    0    0  501    0  0.00000000000E+00  0.00000000000E+00  0.14248401797E+04  0.14248401797E+04  0.25500000920E-02 0. -1.
       -2   -1    0    0    0  501  0.00000000000E+00  0.00000000000E+00 -0.17544015886E+03  0.17544015887E+03  0.25500000920E-02 0.  1.
    10030    2    1    2    0    0  0.00000000000E+00  0.00000000000E+00  0.12494000208E+04  0.16002803386E+04  0.99994837364E+03 0.  0.
        5    1    3    3  502    0 -0.47093404619E+03 -0.10219578837E+02  0.89282066659E+03  0.10094722128E+04  0.46999998093E+01 0. -1.
       -5    1    3    3    0  502  0.47093404619E+03  0.10219578837E+02  0.35657935425E+03  0.59080812581E+03  0.46999998093E+01 0.  1.
</event>
<event>
 5   0  0.9650500E-05  0.1000164E+04  0.7818609E-02  0.9308365E-01
        3   -1    0    0  501    0  0.00000000000E+00  0.00000000000E+00  0.59574690319E+03  0.59574691175E+03  0.10100000352E+00 0.  1.
       -3   -1    0    0    0  501  0.00000000000E+00  0.00000000000E+00 -0.41977908205E+03  0.41977909420E+03  0.10100000352E+00 0. -1.
    10030    2    1    2    0    0  0.00000000000E+00  0.00000000000E+00  0.17596782114E+03  0.10155260060E+04  0.10001641839E+04 0.  0.
        2    1    3    3  502    0 -0.25253849370E+03  0.21001093240E+02 -0.34975885970E+03  0.43191202422E+03  0.25500000920E-02 0. -1.
       -2    1    3    3    0  502  0.25253849370E+03 -0.21001093240E+02  0.52572668084E+03  0.58361398173E+03  0.25500000920E-02 0.  1.
</event>
<event>
 5   0  0.2353916E-04  0.9995771E+03  0.7818609E-02  0.9309009E-01
        2   -1    0    0  501    0  0.00000000000E+00  0.00000000000E+00  0.45047883408E+03  0.45047883409E+03  0.25500000920E-02 0.  1.
       -2   -1    0    0    0  501  0.00000000000E+00  0.00000000000E+00 -0.55449577554E+03  0.55449577554E+03  0.25500000920E-02 0. -1.
    10030    2    1    2    0    0  0.00000000000E+00  0.00000000000E+00 -0.10401694146E+03  0.10049746096E+04  0.99957713154E+03 0.  0.
        4    1    3    3  502    0  0.14564296287E+03  0.95231978338E+01  0.42857307131E+03  0.45274612564E+03  0.12699999809E+01 0.  1.
       -4    1    3    3    0  502 -0.14564296287E+03 -0.95231978338E+01 -0.53259001277E+03  0.55222848399E+03  0.12699999809E+01 0. -1.
</event>
<event>
 5   0  0.2353916E-04  0.9999298E+03  0.7818609E-02  0.9308622E-01
        2   -1    0    0  501    0  0.00000000000E+00  0.00000000000E+00  0.12073839020E+04  0.12073839020E+04  0.25500000920E-02 0.  1.
       -2   -1    0    0    0  501  0.00000000000E+00  0.00000000000E+00 -0.20703016480E+03  0.20703016482E+03  0.25500000920E-02 0. -1.
    10030    2    1    2    0    0  0.00000000000E+00  0.00000000000E+00  0.10003537372E+04  0.14144140668E+04  0.99992977399E+03 0.  0.
        4    1    3    3  502    0  0.42547658105E+03  0.23371767751E+03  0.33097243763E+03  0.58753607649E+03  0.12699999809E+01 0. -1.
       -4    1    3    3    0  502 -0.42547658105E+03 -0.23371767751E+03  0.66938129956E+03  0.82687799034E+03  0.12699999809E+01 0.  1.
</event>
<event>
 5   0  0.9650500E-05  0.9968411E+03  0.7818609E-02  0.9312016E-01
       -4   -1    0    0    0  501  0.00000000000E+00  0.00000000000E+00  0.15398945617E+04  0.15398950854E+04  0.12699999809E+01 0.  1.
        4   -1    0    0  501    0  0.00000000000E+00  0.00000000000E+00 -0.16132165964E+03  0.16132665858E+03  0.12699999809E+01 0. -1.
    10030    2    1    2    0    0  0.00000000000E+00  0.00000000000E+00  0.13785729021E+04  0.17012217440E+04  0.99684109865E+03 0.  0.
        5    1    3    3  502    0  0.13184339798E+03  0.42308682849E+02  0.15063748739E+04  0.15127326456E+04  0.46999998093E+01 0.  1.
       -5    1    3    3    0  502 -0.13184339798E+03 -0.42308682849E+02 -0.12780197182E+03  0.18848909845E+03  0.46999998093E+01 0. -1.
</event>
<event>
 5   0  0.1453863E-04  0.1000327E+04  0.7818609E-02  0.9308187E-01
       -1   -1    0    0    0  501  0.00000000000E+00  0.00000000000E+00  0.35651978364E+03  0.35651978368E+03  0.50400001928E-02 0.  1.
        1   -1    0    0  501    0  0.00000000000E+00  0.00000000000E+00 -0.70168138518E+03  0.70168138520E+03  0.50400001928E-02 0. -1.
    10030    2    1    2    0    0  0.00000000000E+00  0.00000000000E+00 -0.34516160154E+03  0.10582011689E+04  0.10003265380E+04 0.  0.
        1    1    3    3  502    0  0.30545216397E+03  0.75709235526E+02 -0.58382741705E+03  0.66324005137E+03  0.50400001928E-02 0. -1.
       -1    1    3    3    0  502 -0.30545216397E+03 -0.75709235526E+02  0.23866581551E+03  0.39496111750E+03  0.50400001928E-02 0.  1.
</event>
<event>
 5   0  0.1430675E-04  0.1000242E+04  0.7818609E-02  0.9308279E-01
        1   -1    0    0  501    0  0.00000000000E+00  0.00000000000E+00  0.90276729981E+03  0.90276729982E+03  0.50400001928E-02 0. -1.
       -1   -1    0    0    0  501  0.00000000000E+00  0.00000000000E+00 -0.27706038191E+03  0.27706038195E+03  0.50400001928E-02 0.  1.
    10030    2    1    2    0    0  0.00000000000E+00  0.00000000000E+00  0.62570691790E+03  0.11798276818E+04  0.10002420765E+04 0.  0.
        5    1    3    3  502    0  0.11684575820E+03 -0.27412955702E+02  0.88550211088E+03  0.89361092189E+03  0.46999998093E+01 0. -1.
       -5    1    3    3    0  502 -0.11684575820E+03  0.27412955702E+02 -0.25979519297E+03  0.28621675989E+03  0.46999998093E+01 0.  1.
</event>
<event>
 5   0  0.2353916E-04  0.9991459E+03  0.7818609E-02  0.9309482E-01
       -2   -1    0    0    0  501  0.00000000000E+00  0.00000000000E+00  0.15021327770E+03  0.15021327772E+03  0.25500000920E-02 0.  1.
        2   -1    0    0  501    0  0.00000000000E+00  0.00000000000E+00 -0.16614586522E+04  0.16614586522E+04  0.25500000920E-02 0. -1.
    10030    2    1    2    0    0  0.00000000000E+00  0.00000000000E+00 -0.15112453745E+04  0.18116719299E+04  0.99914593513E+03 0.  0.
        4    1    3    3  502    0  0.11695725662E+03 -0.94253125196E+02 -0.16195397624E+04  0.16264911025E+04  0.12699999809E+01 0. -1.
       -4    1    3    3    0  502 -0.11695725662E+03  0.94253125196E+02  0.10829438794E+03  0.18518082742E+03  0.12699999809E+01 0.  1.
</event>
<event>
 5   0  0.2473312E-04  0.9996878E+03  0.7818609E-02  0.9308887E-01
       -2   -1    0    0    0  501  0.00000000000E+00  0.00000000000E+00  0.20394911292E+03  0.20394911293E+03  0.25500000920E-02 0.  1.
        2   -1    0    0  501    0  0.00000000000E+00  0.00000000000E+00 -0.12250308180E+04  0.12250308180E+04  0.25500000920E-02 0. -1.
    10030    2    1    2    0    0  0.00000000000E+00  0.00000000000E+00 -0.10210817051E+04  0.14289799310E+04  0.99968784858E+03 0.  0.
        5    1    3    3  502    0 -0.12089533593E+03  0.78743809622E+02 -0.11945859851E+04  0.12032763754E+04  0.46999998093E+01 0. -1.
       -5    1    3    3    0  502  0.12089533593E+03 -0.78743809622E+02  0.17350428001E+03  0.22570355554E+03  0.46999998093E+01 0.  1.
</event>
<event>
 5   0  0.2403037E-04  0.9999844E+03  0.7818609E-02  0.9308562E-01
       -2   -1    0    0    0  501  0.00000000000E+00  0.00000000000E+00  0.22171889182E+03  0.22171889184E+03  0.25500000920E-02 0.  1.
        2   -1    0    0  501    0  0.00000000000E+00  0.00000000000E+00 -0.11275187724E+04  0.11275187724E+04  0.25500000920E-02 0. -1.
    10030    2    1    2    0    0  0.00000000000E+00  0.00000000000E+00 -0.90579988060E+03  0.13492376643E+04  0.99998442536E+03 0.  0.
        1    1    3    3  502    0  0.81855498446E+02  0.44039810823E+02 -0.11157587272E+04  0.11196237604E+04  0.50400001928E-02 0. -1.
       -1    1    3    3    0  502 -0.81855498446E+02 -0.44039810823E+02  0.20995884658E+03  0.22961390386E+03  0.50400001928E-02 0.  1.
</event>
<event>
 5   0  0.2403037E-04  0.9999507E+03  0.7818609E-02  0.9308599E-01
       -2   -1    0    0    0  501  0.00000000000E+00  0.00000000000E+00  0.38653639987E+03  0.38653639988E+03  0.25500000920E-02 0. -1.
        2   -1    0    0  501    0  0.00000000000E+00  0.00000000000E+00 -0.64670583533E+03  0.64670583534E+03  0.25500000920E-02 0.  1.
    10030    2    1    2    0    0  0.00000000000E+00  0.00000000000E+00 -0.26016943546E+03  0.10332422352E+04  0.99995068953E+03 0.  0.
        1    1    3    3  502    0  0.16075165982E+03 -0.23940470167E+03  0.29194900358E+03  0.41035341844E+03  0.50400001928E-02 0. -1.
       -1    1    3    3    0  502 -0.16075165982E+03  0.23940470167E+03 -0.55211843903E+03  0.62288881677E+03  0.50400001928E-02 0.  1.
</event>
<event>
 5   0  0.1430675E-04  0.9999470E+03  0.7818609E-02  0.9308603E-01
       -1   -1    0    0    0  501  0.00000000000E+00  0.00000000000E+00  0.77908464113E+03  0.77908464114E+03  0.50400001928E-02 0. -1.
        1   -1    0    0  501    0  0.00000000000E+00  0.00000000000E+00 -0.32085537957E+03  0.32085537961E+03  0.50400001928E-02 0.  1.
    10030    2    1    2    0    0  0.00000000000E+00  0.00000000000E+00  0.45822926156E+03  0.10999400207E+04  0.99994699514E+03 0.  0.
        5    1    3    3  502    0  0.20344818139E+03 -0.20135548507E+02  0.73097770773E+03  0.75904354422E+03  0.46999998093E+01 0. -1.
       -5    1    3    3    0  502 -0.20344818139E+03  0.20135548507E+02 -0.27274844617E+03  0.34089647653E+03  0.46999998093E+01 0.  1.
</event>
<event>
 5   0  0.1430675E-04  0.1000177E+04  0.7818609E-02  0.9308351E-01
        1   -1    0    0  501    0  0.00000000000E+00  0.00000000000E+00  0.40657114500E+03  0.40657114503E+03  0.50400001928E-02 0.  1.
       -1   -1    0    0    0  501  0.00000000000E+00  0.00000000000E+00 -0.61511576131E+03  0.61511576133E+03  0.50400001928E-02 0. -1.
    10030    2    1    2    0    0  0.00000000000E+00  0.00000000000E+00 -0.20854461631E+03  0.10216869064E+04  0.10001766232E+04 0.  0.
        5    1    3    3  502    0 -0.17365712635E+03  0.14754058399E+03  0.35043143678E+03  0.41803026605E+03  0.46999998093E+01 0.  1.
       -5    1    3    3    0  502  0.17365712635E+03 -0.14754058399E+03 -0.55897605309E+03  0.60365664030E+03  0.46999998093E+01 0. -1.
</event>
<event>
 5   0  0.2353916E-04  0.9999921E+03  0.7818609E-02  0.9308553E-01
        2   -1    0    0  501    0  0.00000000000E+00  0.00000000000E+00  0.38860760007E+03  0.38860760008E+03  0.25500000920E-02 0.  1.
       -2   -1    0    0    0  501  0.00000000000E+00  0.00000000000E+00 -0.64331230644E+03  0.64331230644E+03  0.25500000920E-02 0. -1.
    10030    2    1    2    0    0  0.00000000000E+00  0.00000000000E+00 -0.25470470637E+03  0.10319199065E+04  0.99999210298E+03 0.  0.
        4    1    3    3  502    0 -0.15521067635E+03 -0.28216522850E+03 -0.52203868925E+03  0.61337881949E+03  0.12699999809E+01 0. -1.
       -4    1    3    3    0  502  0.15521067635E+03  0.28216522850E+03  0.26733398288E+03  0.41854108703E+03  0.12699999809E+01 0.  1.
</event>
<event>
 5   0  0.1414165E-04  0.9996301E+03  0.7818609E-02  0.9308951E-01
       -1   -1    0    0    0  501  0.00000000000E+00  0.00000000000E+00  0.28132074425E+03  0.28132074429E+03  0.50400001928E-02 0.  1.
        1   -1    0    0  501    0  0.00000000000E+00  0.00000000000E+00 -0.88800796809E+03  0.88800796811E+03  0.50400001928E-02 0. -1.
    10030    2    1    2    0    0  0.00000000000E+00  0.00000000000E+00 -0.60668722385E+03  0.11693287124E+04  0.99963005660E+03 0.  0.
        4    1    3    3  502    0 -0.28010039383E+03 -0.25749657213E+03 -0.68248481884E+03  0.78137561782E+03  0.12699999809E+01 0. -1.
       -4    1    3    3    0  502  0.28010039383E+03  0.25749657213E+03  0.75797594992E+02  0.38795309457E+03  0.12699999809E+01 0.  1.
</event>
<event>
 5   0  0.2353916E-04  0.1000105E+04  0.7818609E-02  0.9308430E-01
       -2   -1    0    0    0  501  0.00000000000E+00  0.00000000000E+00  0.48635694673E+03  0.48635694674E+03  0.25500000920E-02 0.  1.
        2   -1    0    0  501    0  0.00000000000E+00  0.00000000000E+00 -0.51413381641E+03  0.51413381641E+03  0.25500000920E-02 0. -1.
    10030    2    1    2    0    0  0.00000000000E+00  0.00000000000E+00 -0.27776869671E+02  0.10004907632E+04  0.10001051008E+04 0.  0.
        4    1    3    3  502    0 -0.41057582006E+03 -0.28539581604E+03 -0.19150162726E+02  0.50039146421E+03  0.12699999809E+01 0.  1.
       -4    1    3    3    0  502  0.41057582006E+03  0.28539581604E+03 -0.86267069453E+01  0.50009929894E+03  0.12699999809E+01 0. -1.
</event>
<event>
 5   0  0.1506454E-04  0.1001183E+04  0.7818609E-02  0.9307248E-01
        1   -1    0    0  501    0  0.00000000000E+00  0.00000000000E+00  0.46975627074E+03  0.46975627076E+03  0.50400001928E-02 0. -1.
       -1   -1    0    0    0  501  0.00000000000E+00  0.00000000000E+00 -0.53345126067E+03  0.53345126069E+03  0.50400001928E-02 0.  1.
    10030    2    1    2    0    0  0.00000000000E+00  0.00000000000E+00 -0.63694989935E+02  0.10032075315E+04  0.10011834494E+04 0.  0.
        3    1    3    3  502    0 -0.47205998645E+03 -0.86062070975E+02 -0.17477089576E+03  0.51067816389E+03  0.10100000352E+00 0.  1.
       -3    1    3    3    0  502  0.47205998645E+03  0.86062070975E+02  0.11107590582E+03  0.49252936757E+03  0.10100000352E+00 0. -1.
</event>
<event>
 5   0  0.1414165E-04  0.9997286E+03  0.7818609E-02  0.9308842E-01
        1   -1    0    0  501    0  0.00000000000E+00  0.00000000000E+00  0.18480351605E+04  0.18480351605E+04  0.50400001928E-02 0.  1.
       -1   -1    0    0    0  501  0.00000000000E+00  0.00000000000E+00 -0.13520540490E+03  0.13520540500E+03  0.50400001928E-02 0. -1.
    10030    2    1    2    0    0  0.00000000000E+00  0.00000000000E+00  0.17128297556E+04  0.19832405655E+04  0.99972864768E+03 0.  0.
        4    1    3    3  502    0 -0.41162137928E+03  0.16559805567E+03  0.13131489054E+04  0.13860795564E+04  0.12699999809E+01 0. -1.
       -4    1    3    3    0  502  0.41162137928E+03 -0.16559805567E+03  0.39968085023E+03  0.59716100916E+03  0.12699999809E+01 0.  1.
</event>
<event>
 5   0  0.1461334E-04  0.9995100E+03  0.7818609E-02  0.9309082E-01
       -1   -1    0    0    0  501  0.00000000000E+00  0.00000000000E+00  0.23560726228E+03  0.23560726233E+03  0.50400001928E-02 0. -1.
        1   -1    0    0  501    0  0.00000000000E+00  0.00000000000E+00 -0.10600482901E+04  0.10600482902E+04  0.50400001928E-02 0.  1.
    10030    2    1    2    0    0  0.00000000000E+00  0.00000000000E+00 -0.82444102787E+03  0.12956555525E+04  0.99951003110E+03 0.  0.
        2    1    3    3  502    0  0.11316198967E+03 -0.43217195198E+03 -0.12184895744E+03  0.46306090357E+03  0.25500000920E-02 0. -1.
       -2    1    3    3    0  502 -0.11316198967E+03  0.43217195198E+03 -0.70259207042E+03  0.83259464892E+03  0.25500000920E-02 0.  1.
</event>
<event>
 5   0  0.2403037E-04  0.1000197E+04  0.7818609E-02  0.9308329E-01
        2   -1    0    0  501    0  0.00000000000E+00  0.00000000000E+00  0.78886311872E+03  0.78886311872E+03  0.25500000920E-02 0.  1.
       -2   -1    0    0    0  501  0.00000000000E+00  0.00000000000E+00 -0.31703638522E+03  0.31703638523E+03  0.25500000920E-02 0. -1.
    10030    2    1    2    0    0  0.00000000000E+00  0.00000000000E+00  0.47182673349E+03  0.11058995040E+04  0.10001966039E+04 0.  0.
        1    1    3    3  502    0  0.41995575095E+03  0.15277847126E+03  0.48412414762E+03  0.65884769437E+03  0.50400001928E-02 0.  1.
       -1    1    3    3    0  502 -0.41995575095E+03 -0.15277847126E+03 -0.12297414133E+02  0.44705180959E+03  0.50400001928E-02 0. -1.
</event>
<event>
 5   0  0.1453863E-04  0.1000719E+04  0.7818609E-02  0.9307756E-01
        1   -1    0    0  501    0  0.00000000000E+00  0.00000000000E+00  0.53494137776E+03  0.53494137778E+03  0.50400001928E-02 0. -1.
       -1   -1    0    0    0  501  0.00000000000E+00  0.00000000000E+00 -0.46801328471E+03  0.46801328473E+03  0.50400001928E-02 0.  1.
    10030    2    1    2    0    0  0.00000000000E+00  0.00000000000E+00  0.66928093054E+02  0.10029546625E+04  0.10007190842E+04 0.  0.
        1    1    3    3  502    0 -0.79948813669E+02  0.22637928271E+03  0.47344393705E+03  0.53083759664E+03  0.50400001928E-02 0. -1.
       -1    1    3    3    0  502  0.79948813669E+02 -0.22637928271E+03 -0.40651584400E+03  0.47211706588E+03  0.50400001928E-02 0.  1.
</event>
<event>
 5   0  0.2403037E-04  0.1000149E+04  0.7818609E-02  0.9308381E-01
        2   -1    0    0  501    0  0.00000000000E+00  0.00000000000E+00  0.55445424835E+03  0.55445424836E+03  0.25500000920E-02 0. -1.
       -2   -1    0    0    0  501  0.00000000000E+00  0.00000000000E+00 -0.45102843276E+03  0.45102843277E+03  0.25500000920E-02 0.  1.
    10030    2    1    2    0    0  0.00000000000E+00  0.00000000000E+00  0.10342581559E+03  0.10054826811E+04  0.10001492502E+04 0.  0.
        1    1    3    3  502    0 -0.10601067778E+03  0.26630604013E+03  0.46367543031E+03  0.54511657057E+03  0.50400001928E-02 0. -1.
       -1    1    3    3    0  502  0.10601067778E+03 -0.26630604013E+03 -0.36024961472E+03  0.46036611055E+03  0.50400001928E-02 0.  1.
</event>
<event>
 5   0  0.2503680E-04  0.9997043E+03  0.7818609E-02  0.9308869E-01
        2   -1    0    0  501    0  0.00000000000E+00  0.00000000000E+00  0.92263154337E+03  0.92263154337E+03  0.25500000920E-02 0. -1.
       -2   -1    0    0    0  501  0.00000000000E+00  0.00000000000E+00 -0.27080384750E+03  0.27080384751E+03  0.25500000920E-02 0.  1.
    10030    2    1    2    0    0  0.00000000000E+00  0.00000000000E+00  0.65182769587E+03  0.11934353909E+04  0.99970429984E+03 0.  0.
        2    1    3    3  502    0 -0.49090158507E+03  0.20512747484E+02  0.43563224169E+03  0.65664342610E+03  0.25500000920E-02 0. -1.
       -2    1    3    3    0  502  0.49090158507E+03 -0.20512747484E+02  0.21619545418E+03  0.53679196478E+03  0.25500000920E-02 0.  1.
</event>
<event>
 5   0  0.2353916E-04  0.1000167E+04  0.7818609E-02  0.9308362E-01
        2   -1    0    0  501    0  0.00000000000E+00  0.00000000000E+00  0.11087494893E+04  0.11087494893E+04  0.25500000920E-02 0. -1.
       -2   -1    0    0    0  501  0.00000000000E+00  0.00000000000E+00 -0.22555437884E+03  0.22555437886E+03  0.25500000920E-02 0.  1.
    10030    2    1    2    0    0  0.00000000000E+00  0.00000000000E+00  0.88319511049E+03  0.13343038682E+04  0.10001665909E+04 0.  0.
        4    1    3    3  502    0 -0.41947461978E+03 -0.11920872555E+03  0.76813978653E+03  0.88329497985E+03  0.12699999809E+01 0.  1.
       -4    1    3    3    0  502  0.41947461978E+03  0.11920872555E+03  0.11505532396E+03  0.45100888834E+03  0.12699999809E+01 0. -1.
</event>
<event>
 5   0  0.1461334E-04  0.9998954E+03  0.7818609E-02  0.9308660E-01
        1   -1    0    0  501    0  0.00000000000E+00  0.00000000000E+00  0.93976674988E+03  0.93976674990E+03  0.50400001928E-02 0.  1.
       -1   -1    0    0    0  501  0.00000000000E+00  0.00000000000E+00 -0.26596781920E+03  0.26596781925E+03  0.50400001928E-02 0. -1.
    10030    2    1    2    0    0  0.00000000000E+00  0.00000000000E+00  0.67379893069E+03  0.12057345691E+04  0.99989542065E+03 0.  0.
        2    1    3    3  502    0 -0.38208516241E+03 -0.26967351158E+03  0.55001581469E+03  0.72196279031E+03  0.25500000920E-02 0. -1.
       -2    1    3    3    0  502  0.38208516241E+03  0.26967351158E+03  0.12378311600E+03  0.48377177883E+03  0.25500000920E-02 0.  1.
</event>
<event>
 5   0  0.1453863E-04  0.9999034E+03  0.7818609E-02  0.9308651E-01
        1   -1    0    0  501    0  0.00000000000E+00  0.00000000000E+00  0.90560878853E+02  0.90560878993E+02  0.50400001928E-02 0.  1.
       -1   -1    0    0    0  501  0.00000000000E+00  0.00000000000E+00 -0.27600407086E+04  0.27600407086E+04  0.50400001928E-02 0. -1.
    10030    2    1    2    0    0  0.00000000000E+00  0.00000000000E+00 -0.26694798298E+04  0.28506015876E+04  0.99990342024E+03 0.  0.
        1    1    3    3  502    0  0.30849879554E+03 -0.48020227787E+02 -0.24479489963E+04  0.24677787052E+04  0.50400001928E-02 0. -1.
       -1    1    3    3    0  502 -0.30849879554E+03  0.48020227787E+02 -0.22153083345E+03  0.38282288244E+03  0.50400001928E-02 0.  1.
</event>
<event>
 5   0  0.2353916E-04  0.9997868E+03  0.7818609E-02  0.9308779E-01
        2   -1    0    0  501    0  0.00000000000E+00  0.00000000000E+00  0.76620873653E+03  0.76620873654E+03  0.25500000920E-02 0. -1.
       -2   -1    0    0    0  501  0.00000000000E+00  0.00000000000E+00 -0.32614270724E+03  0.32614270725E+03  0.25500000920E-02 0.  1.
    10030    2    1    2    0    0  0.00000000000E+00  0.00000000000E+00  0.44006602929E+03  0.10923514438E+04  0.99978676057E+03 0.  0.
        4    1    3    3  502    0  0.77608469470E+02  0.49367204617E+03  0.23370626462E+03  0.55168414399E+03  0.12699999809E+01 0.  1.
       -4    1    3    3    0  502 -0.77608469470E+02 -0.49367204617E+03  0.20635976467E+03  0.54066729980E+03  0.12699999809E+01 0. -1.
</event>
<event>
 5   0  0.2484904E-04  0.9999366E+03  0.7818609E-02  0.9308614E-01
        2   -1    0    0  501    0  0.00000000000E+00  0.00000000000E+00  0.17282130694E+03  0.17282130696E+03  0.25500000920E-02 0.  1.
       -2   -1    0    0    0  501  0.00000000000E+00  0.00000000000E+00 -0.14463975357E+04  0.14463975357E+04  0.25500000920E-02 0. -1.
    10030    2    1    2    0    0  0.00000000000E+00  0.00000000000E+00 -0.12735762288E+04  0.16192188427E+04  0.99993662297E+03 0.  0.
        3    1    3    3  502    0  0.22833695384E+03 -0.86488170111E+02  0.69708192622E+02  0.25392363100E+03  0.10100000352E+00 0.  1.
       -3    1    3    3    0  502 -0.22833695384E+03  0.86488170111E+02 -0.13432844214E+04  0.13652952117E+04  0.10100000352E+00 0. -1.
</event>
<event>
 5   0  0.9650500E-05  0.9998937E+03  0.7818609E-02  0.9308661E-01
       -4   -1    0    0    0  501  0.00000000000E+00  0.00000000000E+00  0.13571512946E+03  0.13572107156E+03  0.12699999809E+01 0. -1.
        4   -1    0    0  501    0  0.00000000000E+00  0.00000000000E+00 -0.18416556352E+04  0.18416560731E+04  0.12699999809E+01 0.  1.
    10030    2    1    2    0    0  0.00000000000E+00  0.00000000000E+00 -0.17059405058E+04  0.19773771447E+04  0.99989367591E+03 0.  0.
        3    1    3    3  502    0  0.29268989281E+03  0.32324210027E+03 -0.13365459859E+04  0.14058833562E+04  0.10100000352E+00 0.  1.
       -3    1    3    3    0  502 -0.29268989281E+03 -0.32324210027E+03 -0.36939451993E+03  0.57149378850E+03  0.10100000352E+00 0. -1.
</event>
<event>
 5   0  0.9650500E-05  0.1000016E+04  0.7818609E-02  0.9308528E-01
       -3   -1    0    0    0  501  0.00000000000E+00  0.00000000000E+00  0.16345265887E+03  0.16345269007E+03  0.10100000352E+00 0.  1.
        3   -1    0    0  501    0  0.00000000000E+00  0.00000000000E+00 -0.15295421449E+04  0.15295421483E+04  0.10100000352E+00 0. -1.
    10030    2    1    2    0    0  0.00000000000E+00  0.00000000000E+00 -0.13660894861E+04  0.16929948383E+04  0.10000155192E+04 0.  0.
        4    1    3    3  502    0  0.28771712534E+03 -0.29487773448E+03 -0.11627022791E+04  0.12335364709E+04  0.12699999809E+01 0. -1.
       -4    1    3    3    0  502 -0.28771712534E+03  0.29487773448E+03 -0.20338720700E+03  0.45945836740E+03  0.12699999809E+01 0.  1.
</event>
<event>
 5   0  0.1506454E-04  0.9998989E+03  0.7818609E-02  0.9308656E-01
        1   -1    0    0  501    0  0.00000000000E+00  0.00000000000E+00  0.10760352784E+04  0.10760352784E+04  0.50400001928E-02 0.  1.
       -1   -1    0    0    0  501  0.00000000000E+00  0.00000000000E+00 -0.23228739898E+03  0.23228739903E+03  0.50400001928E-02 0. -1.
    10030    2    1    2    0    0  0.00000000000E+00  0.00000000000E+00  0.84374787941E+03  0.13083226774E+04  0.99989886702E+03 0.  0.
        3    1    3    3  502    0  0.60526509210E+02  0.73921315123E+02  0.10639796286E+04  0.10682604923E+04  0.10100000352E+00 0.  1.
       -3    1    3    3    0  502 -0.60526509210E+02 -0.73921315123E+02 -0.22023174922E+03  0.24006218509E+03  0.10100000352E+00 0. -1.
</event>
<event>
 5   0  0.2503680E-04  0.9995704E+03  0.7818609E-02  0.9309016E-01
        2   -1    0    0  501    0  0.00000000000E+00  0.00000000000E+00  0.84410670248E+03  0.84410670249E+03  0.25500000920E-02 0. -1.
       -2   -1    0    0    0  501  0.00000000000E+00  0.00000000000E+00 -0.29591665978E+03  0.29591665979E+03  0.25500000920E-02 0.  1.
    10030    2    1    2    0    0  0.00000000000E+00  0.00000000000E+00  0.54819004270E+03  0.11400233623E+04  0.99957037952E+03 0.  0.
        2    1    3    3  502    0  0.20649728968E+03 -0.23769297398E+03  0.71676431695E+03  0.78287302073E+03  0.25500000920E-02 0. -1.
       -2    1    3    3    0  502 -0.20649728968E+03  0.23769297398E+03 -0.16857427424E+03  0.35715034155E+03  0.25500000920E-02 0.  1.
</event>
<event>
 5   0  0.2353916E-04  0.9999926E+03  0.7818609E-02  0.9308553E-01
       -2   -1    0    0    0  501  0.00000000000E+00  0.00000000000E+00  0.12025436569E+03  0.12025436572E+03  0.25500000920E-02 0. -1.
        2   -1    0    0  501    0  0.00000000000E+00  0.00000000000E+00 -0.20788956941E+04  0.20788956941E+04  0.25500000920E-02 0.  1.
    10030    2    1    2    0    0  0.00000000000E+00  0.00000000000E+00 -0.19586413284E+04  0.21991500598E+04  0.99999256608E+03 0.  0.
        4    1    3    3  502    0 -0.46578238849E+03 -0.18371422353E+01 -0.13790494024E+04  0.14555876736E+04  0.12699999809E+01 0. -1.
       -4    1    3    3    0  502  0.46578238849E+03  0.18371422353E+01 -0.57959192598E+03  0.74356238614E+03  0.12699999809E+01 0.  1.
</event>
<event>
 5   0  0.1453863E-04  0.1000084E+04  0.7818609E-02  0.9308453E-01
       -1   -1    0    0    0  501  0.00000000000E+00  0.00000000000E+00  0.16199617054E+03  0.16199617062E+03  0.50400001928E-02 0. -1.
        1   -1    0    0  501    0  0.00000000000E+00  0.00000000000E+00 -0.15435057652E+04  0.15435057652E+04  0.50400001928E-02 0.  1.
    10030    2    1    2    0    0  0.00000000000E+00  0.00000000000E+00 -0.13815095946E+04  0.17055019358E+04  0.10000840430E+04 0.  0.
        1    1    3    3  502    0  0.96846002684E+02  0.80731371461E+02 -0.15159533551E+04  0.15211874564E+04  0.50400001928E-02 0.  1.
       -1    1    3    3    0  502 -0.96846002684E+02 -0.80731371461E+02  0.13444376047E+03  0.18431447943E+03  0.50400001928E-02 0. -1.
</event>
<event>
 5   0  0.1453863E-04  0.1005054E+04  0.7818609E-02  0.9303019E-01
        1   -1    0    0  501    0  0.00000000000E+00  0.00000000000E+00  0.97277771468E+03  0.97277771470E+03  0.50400001928E-02 0. -1.
       -1   -1    0    0    0  501  0.00000000000E+00  0.00000000000E+00 -0.25960036459E+03  0.25960036463E+03  0.50400001928E-02 0.  1.
    10030    2    1    2    0    0  0.00000000000E+00  0.00000000000E+00  0.71317735010E+03  0.12323780793E+04  0.10050541268E+04 0.  0.
        1    1    3    3  502    0  0.28350584847E+03  0.34748472507E+03  0.78561136148E+02  0.45529446780E+03  0.50400001928E-02 0. -1.
       -1    1    3    3    0  502 -0.28350584847E+03 -0.34748472507E+03  0.63461621395E+03  0.77708361153E+03  0.50400001928E-02 0.  1.
</event>
<event>
 5   0  0.2484904E-04  0.1000290E+04  0.7818609E-02  0.9308227E-01
        2   -1    0    0  501    0  0.00000000000E+00  0.00000000000E+00  0.38135155814E+03  0.38135155815E+03  0.25500000920E-02 0. -1.
       -2   -1    0    0    0  501  0.00000000000E+00  0.00000000000E+00 -0.65594315225E+03  0.65594315226E+03  0.25500000920E-02 0.  1.
    10030    2    1    2    0    0  0.00000000000E+00  0.00000000000E+00 -0.27459159411E+03  0.10372947104E+04  0.10002898443E+04 0.  0.
        3    1    3    3  502    0  0.11774621234E+02 -0.38219178020E+03 -0.47161301819E+03  0.60714746782E+03  0.10100000352E+00 0.  1.
       -3    1    3    3    0  502 -0.11774621234E+02  0.38219178020E+03  0.19702142408E+03  0.43014724259E+03  0.10100000352E+00 0. -1.
</event>
<event>
 5   0  0.1414165E-04  0.1000422E+04  0.7818609E-02  0.9308083E-01
        1   -1    0    0  501    0  0.00000000000E+00  0.00000000000E+00  0.88093832583E+03  0.88093832584E+03  0.50400001928E-02 0.  1.
       -1   -1    0    0    0  501  0.00000000000E+00  0.00000000000E+00 -0.28402764777E+03  0.28402764782E+03  0.50400001928E-02 0. -1.
    10030    2    1    2    0    0  0.00000000000E+00  0.00000000000E+00  0.59691067806E+03  0.11649659737E+04  0.10004215922E+04 0.  0.
        4    1    3    3  502    0  0.37732750754E+02  0.40838429582E+03  0.63192596922E+03  0.75334821764E+03  0.12699999809E+01 0.  1.
       -4    1    3    3    0  502 -0.37732750754E+02 -0.40838429582E+03 -0.35015291164E+02  0.41161775602E+03  0.12699999809E+01 0. -1.
</event>
<event>
 5   0  0.1453863E-04  0.9996624E+03  0.7818609E-02  0.9308915E-01
       -1   -1    0    0    0  501  0.00000000000E+00  0.00000000000E+00  0.25801129195E+03  0.25801129200E+03  0.50400001928E-02 0. -1.
        1   -1    0    0  501    0  0.00000000000E+00  0.00000000000E+00 -0.96829577026E+03  0.96829577027E+03  0.50400001928E-02 0.  1.
    10030    2    1    2    0    0  0.00000000000E+00  0.00000000000E+00 -0.71028447831E+03  0.12263070623E+04  0.99966242845E+03 0.  0.
        1    1    3    3  502    0  0.29233095440E+01  0.25341040137E+03  0.17335376470E+03  0.30704544456E+03  0.50400001928E-02 0. -1.
       -1    1    3    3    0  502 -0.29233095440E+01 -0.25341040137E+03 -0.88363824301E+03  0.91926161772E+03  0.50400001928E-02 0.  1.
</event>
<event>
 5   0  0.9650500E-05  0.9993248E+03  0.7818609E-02  0.9309286E-01
       -3   -1    0    0    0  501  0.00000000000E+00  0.00000000000E+00  0.10514688624E+03  0.10514693474E+03  0.10100000352E+00 0.  1.
        3   -1    0    0  501    0  0.00000000000E+00  0.00000000000E+00 -0.23744162529E+04  0.23744162550E+04  0.10100000352E+00 0. -1.
    10030    2    1    2    0    0  0.00000000000E+00  0.00000000000E+00 -0.22692693666E+04  0.24795631897E+04  0.99932484892E+03 0.  0.
        1    1    3    3  502    0  0.42075921827E+03  0.22919833682E+02 -0.46839144745E+03  0.63004300377E+03  0.50400001928E-02 0.  1.
       -1    1    3    3    0  502 -0.42075921827E+03 -0.22919833682E+02 -0.18008779192E+04  0.18495201860E+04  0.50400001928E-02 0. -1.
</event>
<event>
 5   0  0.1453863E-04  0.1000039E+04  0.7818609E-02  0.9308502E-01
       -1   -1    0    0    0  501  0.00000000000E+00  0.00000000000E+00  0.29690997253E+03  0.29690997257E+03  0.50400001928E-02 0. -1.
        1   -1    0    0  501    0  0.00000000000E+00  0.00000000000E+00 -0.84207164843E+03  0.84207164844E+03  0.50400001928E-02 0.  1.
    10030    2    1    2    0    0  0.00000000000E+00  0.00000000000E+00 -0.54516167590E+03  0.11389816210E+04  0.10000389393E+04 0.  0.
        1    1    3    3  502    0  0.11868707362E+02 -0.17634653910E+03  0.26014543107E+03  0.31450693696E+03  0.50400001928E-02 0. -1.
       -1    1    3    3    0  502 -0.11868707362E+02  0.17634653910E+03 -0.80530710697E+03  0.82447468405E+03  0.50400001928E-02 0.  1.
</event>
<event>
 5   0  0.1506454E-04  0.1000258E+04  0.7818609E-02  0.9308262E-01
        1   -1    0    0  501    0  0.00000000000E+00  0.00000000000E+00  0.92938564688E+03  0.92938564690E+03  0.50400001928E-02 0.  1.
       -1   -1    0    0    0  501  0.00000000000E+00  0.00000000000E+00 -0.26913348973E+03  0.26913348977E+03  0.50400001928E-02 0. -1.
    10030    2    1    2    0    0  0.00000000000E+00  0.00000000000E+00  0.66025215716E+03  0.11985191367E+04  0.10002575718E+04 0.  0.
        3    1    3    3  502    0  0.46009002473E+03  0.10787730786E+02  0.56471105284E+03  0.72849007501E+03  0.10100000352E+00 0.  1.
       -3    1    3    3    0  502 -0.46009002473E+03 -0.10787730786E+02  0.95541104319E+02  0.47002906166E+03  0.10100000352E+00 0. -1.
</event>
<event>
 5   0  0.2473312E-04  0.1002640E+04  0.7818609E-02  0.9305654E-01
        2   -1    0    0  501    0  0.00000000000E+00  0.00000000000E+00  0.94728647476E+03  0.94728647476E+03  0.25500000920E-02 0. -1.
       -2   -1    0    0    0  501  0.00000000000E+00  0.00000000000E+00 -0.26530685185E+03  0.26530685186E+03  0.25500000920E-02 0.  1.
    10030    2    1    2    0    0  0.00000000000E+00  0.00000000000E+00  0.68197962291E+03  0.12125933266E+04  0.10026397008E+04 0.  0.
        5    1    3    3  502    0  0.93411189534E+02  0.34416512260E+03 -0.85097443416E+02  0.36665916983E+03  0.46999998093E+01 0.  1.
       -5    1    3    3    0  502 -0.93411189534E+02 -0.34416512260E+03  0.76707706633E+03  0.84593415679E+03  0.46999998093E+01 0. -1.
</event>
<event>
 5   0  0.1414165E-04  0.9988010E+03  0.7818609E-02  0.9309861E-01
        1   -1    0    0  501    0  0.00000000000E+00  0.00000000000E+00  0.44706923932E+03  0.44706923935E+03  0.50400001928E-02 0. -1.
       -1   -1    0    0    0  501  0.00000000000E+00  0.00000000000E+00 -0.55785737135E+03  0.55785737137E+03  0.50400001928E-02 0.  1.
    10030    2    1    2    0    0  0.00000000000E+00  0.00000000000E+00 -0.11078813203E+03  0.10049266107E+04  0.99880102260E+03 0.  0.
        4    1    3    3  502    0  0.22497665522E+03 -0.82061049215E+02  0.38552955791E+03  0.45385368140E+03  0.12699999809E+01 0. -1.
       -4    1    3    3    0  502 -0.22497665522E+03  0.82061049215E+02 -0.49631768994E+03  0.55107292933E+03  0.12699999809E+01 0.  1.
</event>
<event>
 5   0  0.1453863E-04  0.9996464E+03  0.7818609E-02  0.9308933E-01
        1   -1    0    0  501    0  0.00000000000E+00  0.00000000000E+00  0.17582676969E+04  0.17582676969E+04  0.50400001928E-02 0.  1.
       -1   -1    0    0    0  501  0.00000000000E+00  0.00000000000E+00 -0.14208487034E+03  0.14208487043E+03  0.50400001928E-02 0. -1.
    10030    2    1    2    0    0  0.00000000000E+00  0.00000000000E+00  0.16161828265E+04  0.19003525673E+04  0.99964641313E+03 0.  0.
        1    1    3    3  502    0 -0.18230216909E+03  0.46204667755E+03  0.70221227548E+03  0.86012981168E+03  0.50400001928E-02 0.  1.
       -1    1    3    3    0  502  0.18230216909E+03 -0.46204667755E+03  0.91397055107E+03  0.10402227556E+04  0.50400001928E-02 0. -1.
</event>
<event>
 5   0  0.1453863E-04  0.9994479E+03  0.7818609E-02  0.9309151E-01
        1   -1    0    0  501    0  0.00000000000E+00  0.00000000000E+00  0.51750345976E+03  0.51750345978E+03  0.50400001928E-02 0.  1.
       -1   -1    0    0    0  501  0.00000000000E+00  0.00000000000E+00 -0.48255526319E+03  0.48255526322E+03  0.50400001928E-02 0. -1.
    10030    2    1    2    0    0  0.00000000000E+00  0.00000000000E+00  0.34948196566E+02  0.10000587230E+04  0.99944788409E+03 0.  0.
        1    1    3    3  502    0 -0.16835280494E+03 -0.42292628751E+03 -0.18884286776E+03  0.49281937901E+03  0.50400001928E-02 0. -1.
       -1    1    3    3    0  502  0.16835280494E+03  0.42292628751E+03  0.22379106432E+03  0.50723934399E+03  0.50400001928E-02 0.  1.
</event>
<event>
 5   0  0.2473312E-04  0.1000231E+04  0.7818609E-02  0.9308292E-01
        2   -1    0    0  501    0  0.00000000000E+00  0.00000000000E+00  0.55464292937E+03  0.55464292938E+03  0.25500000920E-02 0. -1.
       -2   -1    0    0    0  501  0.00000000000E+00  0.00000000000E+00 -0.45094835516E+03  0.45094835517E+03  0.25500000920E-02 0.  1.
    10030    2    1    2    0    0  0.00000000000E+00  0.00000000000E+00  0.10369457421E+03  0.10055912845E+04  0.10002306068E+04 0.  0.
        5    1    3    3  502    0 -0.11855936232E+03  0.20774665253E+02 -0.43614606429E+03  0.45247473797E+03  0.46999998093E+01 0.  1.
       -5    1    3    3    0  502  0.11855936232E+03 -0.20774665253E+02  0.53984063850E+03  0.55311654657E+03  0.46999998093E+01 0. -1.
</event>
<event>
 5   0  0.2353916E-04  0.1001180E+04  0.7818609E-02  0.9307252E-01
        2   -1    0    0  501    0  0.00000000000E+00  0.00000000000E+00  0.74074454048E+03  0.74074454048E+03  0.25500000920E-02 0. -1.
       -2   -1    0    0    0  501  0.00000000000E+00  0.00000000000E+00 -0.33829525525E+03  0.33829525526E+03  0.25500000920E-02 0.  1.
    10030    2    1    2    0    0  0.00000000000E+00  0.00000000000E+00  0.40244928523E+03  0.10790397957E+04  0.10011800306E+04 0.  0.
        4    1    3    3  502    0 -0.12516939579E+03  0.19641752937E+03  0.67878840562E+03  0.71763677163E+03  0.12699999809E+01 0. -1.
       -4    1    3    3    0  502  0.12516939579E+03 -0.19641752937E+03 -0.27633912039E+03  0.36140302412E+03  0.12699999809E+01 0.  1.
</event>
<event>
 5   0  0.1430675E-04  0.1000550E+04  0.7818609E-02  0.9307942E-01
        1   -1    0    0  501    0  0.00000000000E+00  0.00000000000E+00  0.98928128106E+03  0.98928128107E+03  0.50400001928E-02 0. -1.
       -1   -1    0    0    0  501  0.00000000000E+00  0.00000000000E+00 -0.25298669505E+03  0.25298669510E+03  0.50400001928E-02 0.  1.
    10030    2    1    2    0    0  0.00000000000E+00  0.00000000000E+00  0.73629458601E+03  0.12422679762E+04  0.10005498524E+04 0.  0.
        5    1    3    3  502    0  0.66571812094E+02  0.13558402608E+03  0.96026513204E+03  0.97208335451E+03  0.46999998093E+01 0. -1.
       -5    1    3    3    0  502 -0.66571812094E+02 -0.13558402608E+03 -0.22397054603E+03  0.27018462166E+03  0.46999998093E+01 0.  1.
</event>
<event>
 5   0  0.2353916E-04  0.1000392E+04  0.7818609E-02  0.9308115E-01
       -2   -1    0    0    0  501  0.00000000000E+00  0.00000000000E+00  0.37540607855E+03  0.37540607855E+03  0.25500000920E-02 0.  1.
        2   -1    0    0  501    0  0.00000000000E+00  0.00000000000E+00 -0.66646791647E+03  0.66646791647E+03  0.25500000920E-02 0. -1.
    10030    2    1    2    0    0  0.00000000000E+00  0.00000000000E+00 -0.29106183792E+03  0.10418739950E+04  0.10003921371E+04 0.  0.
        4    1    3    3  502    0 -0.24708246051E+03  0.37574635223E+02  0.30571690591E+03  0.39487470793E+03  0.12699999809E+01 0.  1.
       -4    1    3    3    0  502  0.24708246051E+03 -0.37574635223E+02 -0.59677874383E+03  0.64699928709E+03  0.12699999809E+01 0. -1.
</event>
<event>
 5   0  0.1506454E-04  0.1000891E+04  0.7818609E-02  0.9307569E-01
        1   -1    0    0  501    0  0.00000000000E+00  0.00000000000E+00  0.36284626139E+03  0.36284626143E+03  0.50400001928E-02 0.  1.
       -1   -1    0    0    0  501  0.00000000000E+00  0.00000000000E+00 -0.69022480694E+03  0.69022480696E+03  0.50400001928E-02 0. -1.
    10030    2    1    2    0    0  0.00000000000E+00  0.00000000000E+00 -0.32737854554E+03  0.10530710684E+04  0.10008905849E+04 0.  0.
        3    1    3    3  502    0  0.18840980373E+03  0.37141592983E+03 -0.45563975837E+03  0.61729704898E+03  0.10100000352E+00 0. -1.
       -3    1    3    3    0  502 -0.18840980373E+03 -0.37141592983E+03  0.12826121283E+03  0.43577401941E+03  0.10100000352E+00 0.  1.
</event>
<event>
 5   0  0.2503680E-04  0.9999139E+03  0.7818609E-02  0.9308639E-01
        2   -1    0    0  501    0  0.00000000000E+00  0.00000000000E+00  0.17073740802E+04  0.17073740802E+04  0.25500000920E-02 0. -1.
       -2   -1    0    0    0  501  0.00000000000E+00  0.00000000000E+00 -0.14639846508E+03  0.14639846511E+03  0.25500000920E-02 0.  1.
    10030    2    1    2    0    0  0.00000000000E+00  0.00000000000E+00  0.15609756151E+04  0.18537725453E+04  0.99991388565E+03 0.  0.
        2    1    3    3  502    0  0.12208550301E+03 -0.66855349755E+02  0.16707275099E+04  0.16765157083E+04  0.25500000920E-02 0. -1.
       -2    1    3    3    0  502 -0.12208550301E+03  0.66855349755E+02 -0.10975189481E+03  0.17725683698E+03  0.25500000920E-02 0.  1.
</event>
<event>
 5   0  0.2403037E-04  0.1000080E+04  0.7818609E-02  0.9308457E-01
        2   -1    0    0  501    0  0.00000000000E+00  0.00000000000E+00  0.79545159350E+03  0.79545159351E+03  0.25500000920E-02 0.  1.
       -2   -1    0    0    0  501  0.00000000000E+00  0.00000000000E+00 -0.31433722047E+03  0.31433722048E+03  0.25500000920E-02 0. -1.
    10030    2    1    2    0    0  0.00000000000E+00  0.00000000000E+00  0.48111437303E+03  0.11097888140E+04  0.10000800827E+04 0.  0.
        1    1    3    3  502    0  0.19664822162E+03  0.19813392719E+03 -0.21981781099E+03  0.35531316641E+03  0.50400001928E-02 0. -1.
       -1    1    3    3    0  502 -0.19664822162E+03 -0.19813392719E+03  0.70093218402E+03  0.75447564758E+03  0.50400001928E-02 0.  1.
</event>
<event>
 5   0  0.1414165E-04  0.1000404E+04  0.7818609E-02  0.9308102E-01
       -1   -1    0    0    0  501  0.00000000000E+00  0.00000000000E+00  0.23982930264E+03  0.23982930269E+03  0.50400001928E-02 0. -1.
        1   -1    0    0  501    0  0.00000000000E+00  0.00000000000E+00 -0.10432501246E+04  0.10432501246E+04  0.50400001928E-02 0.  1.
    10030    2    1    2    0    0  0.00000000000E+00  0.00000000000E+00 -0.80342082197E+03  0.12830794273E+04  0.10004038183E+04 0.  0.
        4    1    3    3  502    0  0.20600051751E+03  0.44991789928E+03 -0.30800432488E+03  0.58286414056E+03  0.12699999809E+01 0.  1.
       -4    1    3    3    0  502 -0.20600051751E+03 -0.44991789928E+03 -0.49541649708E+03  0.70021528674E+03  0.12699999809E+01 0. -1.
</event>
<event>
 5   0  0.2403037E-04  0.1000554E+04  0.7818609E-02  0.9307938E-01
       -2   -1    0    0    0  501  0.00000000000E+00  0.00000000000E+00  0.43013743513E+03  0.43013743514E+03  0.25500000920E-02 0. -1.
        2   -1    0    0  501    0  0.00000000000E+00  0.00000000000E+00 -0.58185331758E+03  0.58185331759E+03  0.25500000920E-02 0.  1.
    10030    2    1    2    0    0  0.00000000000E+00  0.00000000000E+00 -0.15171588246E+03  0.10119907527E+04  0.10005536341E+04 0.  0.
        1    1    3    3  502    0 -0.17775881813E+03  0.46453467350E+03 -0.13019572093E+03  0.51414160119E+03  0.50400001928E-02 0.  1.
       -1    1    3    3    0  502  0.17775881813E+03 -0.46453467350E+03 -0.21520161528E+02  0.49784915153E+03  0.50400001928E-02 0. -1.
</event>
<event>
 5   0  0.9650500E-05  0.1000368E+04  0.7818609E-02  0.9308141E-01
        4   -1    0    0  501    0  0.00000000000E+00  0.00000000000E+00  0.57842939712E+03  0.57843079132E+03  0.12699999809E+01 0. -1.
       -4   -1    0    0    0  501  0.00000000000E+00  0.00000000000E+00 -0.43252011189E+03  0.43252197643E+03  0.12699999809E+01 0.  1.
    10030    2    1    2    0    0  0.00000000000E+00  0.00000000000E+00  0.14590928522E+03  0.10109527678E+04  0.10003679219E+04 0.  0.
        4    1    3    3  502    0  0.49062672541E+03 -0.73406722606E+01  0.17100658298E+03  0.51962807225E+03  0.12699999809E+01 0. -1.
       -4    1    3    3    0  502 -0.49062672541E+03  0.73406722606E+01 -0.25097297752E+02  0.49132469550E+03  0.12699999809E+01 0.  1.
</event>
<event>
 5   0  0.2353916E-04  0.9971721E+03  0.7818609E-02  0.9311652E-01
       -2   -1    0    0    0  501  0.00000000000E+00  0.00000000000E+00  0.76356830130E+03  0.76356830130E+03  0.25500000920E-02 0. -1.
        2   -1    0    0  501    0  0.00000000000E+00  0.00000000000E+00 -0.32556098625E+03  0.32556098626E+03  0.25500000920E-02 0.  1.
    10030    2    1    2    0    0  0.00000000000E+00  0.00000000000E+00  0.43800731505E+03  0.10891292876E+04  0.99717209999E+03 0.  0.
        4    1    3    3  502    0  0.47072863598E+03  0.66346932149E+02  0.38319665179E+03  0.61059696280E+03  0.12699999809E+01 0.  1.
       -4    1    3    3    0  502 -0.47072863598E+03 -0.66346932149E+02  0.54810663257E+02  0.47853232477E+03  0.12699999809E+01 0. -1.
</event>
<event>
 5   0  0.2484904E-04  0.1001410E+04  0.7818609E-02  0.9307000E-01
       -2   -1    0    0    0  501  0.00000000000E+00  0.00000000000E+00  0.90770093276E+03  0.90770093276E+03  0.25500000920E-02 0. -1.
        2   -1    0    0  501    0  0.00000000000E+00  0.00000000000E+00 -0.27619842015E+03  0.27619842016E+03  0.25500000920E-02 0.  1.
    10030    2    1    2    0    0  0.00000000000E+00  0.00000000000E+00  0.63150251261E+03  0.11838993529E+04  0.10014101330E+04 0.  0.
        3    1    3    3  502    0 -0.13917413200E+03 -0.31900001587E+03 -0.10981147256E+03  0.36495070743E+03  0.10100000352E+00 0.  1.
       -3    1    3    3    0  502  0.13917413200E+03  0.31900001587E+03  0.74131398517E+03  0.81894864549E+03  0.10100000352E+00 0. -1.
</event>
<event>
 5   0  0.1461334E-04  0.9998826E+03  0.7818609E-02  0.9308674E-01
        1   -1    0    0  501    0  0.00000000000E+00  0.00000000000E+00  0.16604690484E+03  0.16604690492E+03  0.50400001928E-02 0.  1.
       -1   -1    0    0    0  501  0.00000000000E+00  0.00000000000E+00 -0.15052452395E+04  0.15052452395E+04  0.50400001928E-02 0. -1.
    10030    2    1    2    0    0  0.00000000000E+00  0.00000000000E+00 -0.13391983347E+04  0.16712921445E+04  0.99988261936E+03 0.  0.
        2    1    3    3  502    0  0.32627505012E+03  0.12721715253E+03 -0.12659755766E+04  0.13135196126E+04  0.25500000920E-02 0. -1.
       -2    1    3    3    0  502 -0.32627505012E+03 -0.12721715253E+03 -0.73222758109E+02  0.35777253184E+03  0.25500000920E-02 0.  1.
</event>
<event>
 5   0  0.1414165E-04  0.1000116E+04  0.7818609E-02  0.9308417E-01
        1   -1    0    0  501    0  0.00000000000E+00  0.00000000000E+00  0.54910951217E+03  0.54910951220E+03  0.50400001928E-02 0. -1.
       -1   -1    0    0    0  501  0.00000000000E+00  0.00000000000E+00 -0.45538853300E+03  0.45538853303E+03  0.50400001928E-02 0.  1.
    10030    2    1    2    0    0  0.00000000000E+00  0.00000000000E+00  0.93720979175E+02  0.10044980452E+04  0.10001163437E+04 0.  0.
        4    1    3    3  502    0  0.97684584917E+02  0.45073644932E+03  0.24097112208E+03  0.52035979807E+03  0.12699999809E+01 0.  1.
       -4    1    3    3    0  502 -0.97684584917E+02 -0.45073644932E+03 -0.14725014290E+03  0.48413824715E+03  0.12699999809E+01 0. -1.
</event>
<event>
 5   0  0.1506454E-04  0.9998254E+03  0.7818609E-02  0.9308736E-01
       -1   -1    0    0    0  501  0.00000000000E+00  0.00000000000E+00  0.17776326061E+03  0.17776326068E+03  0.50400001928E-02 0. -1.
        1   -1    0    0  501    0  0.00000000000E+00  0.00000000000E+00 -0.14058738691E+04  0.14058738691E+04  0.50400001928E-02 0.  1.
    10030    2    1    2    0    0  0.00000000000E+00  0.00000000000E+00 -0.12281106084E+04  0.15836371297E+04  0.99982543083E+03 0.  0.
        3    1    3    3  502    0  0.13568052273E+03 -0.47164687537E+03 -0.46335248895E+03  0.67494853027E+03  0.10100000352E+00 0. -1.
       -3    1    3    3    0  502 -0.13568052273E+03  0.47164687537E+03 -0.76475811949E+03  0.90868859948E+03  0.10100000352E+00 0.  1.
</event>
<event>
 5   0  0.1506454E-04  0.1000018E+04  0.7818609E-02  0.9308525E-01
       -1   -1    0    0    0  501  0.00000000000E+00  0.00000000000E+00  0.23891387849E+03  0.23891387855E+03  0.50400001928E-02 0. -1.
        1   -1    0    0  501    0  0.00000000000E+00  0.00000000000E+00 -0.10464403912E+04  0.10464403912E+04  0.50400001928E-02 0.  1.
    10030    2    1    2    0    0  0.00000000000E+00  0.00000000000E+00 -0.80752651274E+03  0.12853542698E+04  0.10000182649E+04 0.  0.
        3    1    3    3  502    0 -0.18967219621E+03 -0.51045956277E+02  0.18724840593E+03  0.27137281992E+03  0.10100000352E+00 0. -1.
       -3    1    3    3    0  502  0.18967219621E+03  0.51045956277E+02 -0.99477491867E+03  0.10139814499E+04  0.10100000352E+00 0.  1.
</event>
<event>
 5   0  0.2403037E-04  0.1000274E+04  0.7818609E-02  0.9308244E-01
        2   -1    0    0  501    0  0.00000000000E+00  0.00000000000E+00  0.16609718667E+04  0.16609718667E+04  0.25500000920E-02 0.  1.
       -2   -1    0    0    0  501  0.00000000000E+00  0.00000000000E+00 -0.15059675599E+03  0.15059675601E+03  0.25500000920E-02 0. -1.
    10030    2    1    2    0    0  0.00000000000E+00  0.00000000000E+00  0.15103751107E+04  0.18115686227E+04  0.10002739123E+04 0.  0.
        1    1    3    3  502    0  0.64606214993E+02 -0.25194483566E+03 -0.18475020313E+02  0.26075177782E+03  0.50400001928E-02 0. -1.
       -1    1    3    3    0  502 -0.64606214993E+02  0.25194483566E+03  0.15288501310E+04  0.15508168449E+04  0.50400001928E-02 0.  1.
</event>
<event>
 5   0  0.2473312E-04  0.9999282E+03  0.7818609E-02  0.9308624E-01
        2   -1    0    0  501    0  0.00000000000E+00  0.00000000000E+00  0.12703646553E+04  0.12703646553E+04  0.25500000920E-02 0. -1.
       -2   -1    0    0    0  501  0.00000000000E+00  0.00000000000E+00 -0.19676563483E+03  0.19676563484E+03  0.25500000920E-02 0.  1.
    10030    2    1    2    0    0  0.00000000000E+00  0.00000000000E+00  0.10735990205E+04  0.14671302901E+04  0.99992821316E+03 0.  0.
        5    1    3    3  502    0 -0.29547696998E+03  0.25914650575E+03  0.99016930163E+03  0.10653266575E+04  0.46999998093E+01 0. -1.
       -5    1    3    3    0  502  0.29547696998E+03 -0.25914650575E+03  0.83429718825E+02  0.40180363265E+03  0.46999998093E+01 0.  1.
</event>
<event>
 5   0  0.2503680E-04  0.1000304E+04  0.7818609E-02  0.9308211E-01
        2   -1    0    0  501    0  0.00000000000E+00  0.00000000000E+00  0.11479290189E+04  0.11479290189E+04  0.25500000920E-02 0.  1.
       -2   -1    0    0    0  501  0.00000000000E+00  0.00000000000E+00 -0.21791600832E+03  0.21791600834E+03  0.25500000920E-02 0. -1.
    10030    2    1    2    0    0  0.00000000000E+00  0.00000000000E+00  0.93001301061E+03  0.13658450273E+04  0.10003041731E+04 0.  0.
        2    1    3    3  502    0 -0.37243053246E+03 -0.13091132445E+02  0.92048780136E+03  0.99306277330E+03  0.25500000920E-02 0.  1.
       -2    1    3    3    0  502  0.37243053246E+03  0.13091132445E+02  0.95252092548E+01  0.37278225397E+03  0.25500000920E-02 0. -1.
</event>
<event>
 5   0  0.1453863E-04  0.1000419E+04  0.7818609E-02  0.9308085E-01
        1   -1    0    0  501    0  0.00000000000E+00  0.00000000000E+00  0.86037529856E+03  0.86037529857E+03  0.50400001928E-02 0.  1.
       -1   -1    0    0    0  501  0.00000000000E+00  0.00000000000E+00 -0.29081454614E+03  0.29081454618E+03  0.50400001928E-02 0. -1.
    10030    2    1    2    0    0  0.00000000000E+00  0.00000000000E+00  0.56956075242E+03  0.11511898448E+04  0.10004192161E+04 0.  0.
        1    1    3    3  502    0  0.40063223908E+03  0.79338725315E+02 -0.47550684114E+02  0.41117136562E+03  0.50400001928E-02 0. -1.
       -1    1    3    3    0  502 -0.40063223908E+03 -0.79338725315E+02  0.61711143653E+03  0.74001847913E+03  0.50400001928E-02 0.  1.
</event>
<event>
 5   0  0.2503680E-04  0.1000267E+04  0.7818609E-02  0.9308252E-01
       -2   -1    0    0    0  501  0.00000000000E+00  0.00000000000E+00  0.32222268676E+03  0.32222268677E+03  0.25500000920E-02 0. -1.
        2   -1    0    0  501    0  0.00000000000E+00  0.00000000000E+00 -0.77627481316E+03  0.77627481316E+03  0.25500000920E-02 0.  1.
    10030    2    1    2    0    0  0.00000000000E+00  0.00000000000E+00 -0.45405212640E+03  0.10984974999E+04  0.10002666764E+04 0.  0.
        2    1    3    3  502    0  0.16061970015E+02  0.13334324988E+03  0.30204756520E+03  0.33056185627E+03  0.25500000920E-02 0. -1.
       -2    1    3    3    0  502 -0.16061970015E+02 -0.13334324988E+03 -0.75609969160E+03  0.76793564367E+03  0.25500000920E-02 0.  1.
</event>
<event>
 5   0  0.1453863E-04  0.9990258E+03  0.7818609E-02  0.9309614E-01
        1   -1    0    0  501    0  0.00000000000E+00  0.00000000000E+00  0.78647673270E+03  0.78647673271E+03  0.50400001928E-02 0. -1.
       -1   -1    0    0    0  501  0.00000000000E+00  0.00000000000E+00 -0.31725429816E+03  0.31725429820E+03  0.50400001928E-02 0.  1.
    10030    2    1    2    0    0  0.00000000000E+00  0.00000000000E+00  0.46922243453E+03  0.11037310309E+04  0.99902577321E+03 0.  0.
        1    1    3    3  502    0  0.19667044368E+03 -0.61508818302E+02  0.73732955697E+03  0.76558309395E+03  0.50400001928E-02 0. -1.
       -1    1    3    3    0  502 -0.19667044368E+03  0.61508818302E+02 -0.26810712243E+03  0.33814793696E+03  0.50400001928E-02 0.  1.
</event>
<event>
 5   0  0.1430675E-04  0.1000089E+04  0.7818609E-02  0.9308447E-01
        1   -1    0    0  501    0  0.00000000000E+00  0.00000000000E+00  0.61203010285E+03  0.61203010287E+03  0.50400001928E-02 0. -1.
       -1   -1    0    0    0  501  0.00000000000E+00  0.00000000000E+00 -0.40854948910E+03  0.40854948914E+03  0.50400001928E-02 0.  1.
    10030    2    1    2    0    0  0.00000000000E+00  0.00000000000E+00  0.20348061375E+03  0.10205795920E+04  0.10000891678E+04 0.  0.
        5    1    3    3  502    0  0.72795413970E+02 -0.49274509182E+03  0.56959596779E+02  0.50136152971E+03  0.46999998093E+01 0.  1.
       -5    1    3    3    0  502 -0.72795413970E+02  0.49274509182E+03  0.14652101697E+03  0.51921806230E+03  0.46999998093E+01 0. -1.
</event>
<event>
 5   0  0.2353916E-04  0.1000005E+04  0.7818609E-02  0.9308540E-01
       -2   -1    0    0    0  501  0.00000000000E+00  0.00000000000E+00  0.14096505114E+03  0.14096505116E+03  0.25500000920E-02 0. -1.
        2   -1    0    0  501    0  0.00000000000E+00  0.00000000000E+00 -0.17735055341E+04  0.17735055341E+04  0.25500000920E-02 0.  1.
    10030    2    1    2    0    0  0.00000000000E+00  0.00000000000E+00 -0.16325404830E+04  0.19144705853E+04  0.10000045967E+04 0.  0.
        4    1    3    3  502    0  0.11219684930E+03  0.85952608730E+02 -0.17344631614E+04  0.17402126465E+04  0.12699999809E+01 0.  1.
       -4    1    3    3    0  502 -0.11219684930E+03 -0.85952608730E+02  0.10192267843E+03  0.17425793876E+03  0.12699999809E+01 0. -1.
</event>
<event>
 5   0  0.1453863E-04  0.1000545E+04  0.7818609E-02  0.9307947E-01
        1   -1    0    0  501    0  0.00000000000E+00  0.00000000000E+00  0.13663560952E+04  0.13663560952E+04  0.50400001928E-02 0.  1.
       -1   -1    0    0    0  501  0.00000000000E+00  0.00000000000E+00 -0.18316800252E+03  0.18316800258E+03  0.50400001928E-02 0. -1.
    10030    2    1    2    0    0  0.00000000000E+00  0.00000000000E+00  0.11831880926E+04  0.15495240978E+04  0.10005452848E+04 0.  0.
        1    1    3    3  502    0 -0.21714821679E+02  0.93029530818E+02  0.13520993327E+04  0.13554698937E+04  0.50400001928E-02 0.  1.
       -1    1    3    3    0  502  0.21714821679E+02 -0.93029530818E+02 -0.16891124006E+03  0.19405420410E+03  0.50400001928E-02 0. -1.
</event>
<event>
 5   0  0.1430675E-04  0.9990997E+03  0.7818609E-02  0.9309533E-01
       -1   -1    0    0    0  501  0.00000000000E+00  0.00000000000E+00  0.31889772239E+03  0.31889772243E+03  0.50400001928E-02 0. -1.
        1   -1    0    0  501    0  0.00000000000E+00  0.00000000000E+00 -0.78253943683E+03  0.78253943685E+03  0.50400001928E-02 0.  1.
    10030    2    1    2    0    0  0.00000000000E+00  0.00000000000E+00 -0.46364171445E+03  0.11014371593E+04  0.99909968295E+03 0.  0.
        5    1    3    3  502    0 -0.18769129355E+03  0.30646036060E+03 -0.61432103720E+03  0.71172916270E+03  0.46999998093E+01 0.  1.
       -5    1    3    3    0  502  0.18769129355E+03 -0.30646036060E+03  0.15067932276E+03  0.38970799658E+03  0.46999998093E+01 0. -1.
</event>
<event>
 5   0  0.1453863E-04  0.1000690E+04  0.7818609E-02  0.9307788E-01
        1   -1    0    0  501    0  0.00000000000E+00  0.00000000000E+00  0.26659314697E+03  0.26659314702E+03  0.50400001928E-02 0.  1.
       -1   -1    0    0    0  501  0.00000000000E+00  0.00000000000E+00 -0.93905285218E+03  0.93905285220E+03  0.50400001928E-02 0. -1.
    10030    2    1    2    0    0  0.00000000000E+00  0.00000000000E+00 -0.67245970521E+03  0.12056459992E+04  0.10006898722E+04 0.  0.
        1    1    3    3  502    0  0.41119157793E+02 -0.34473803025E+02  0.26311657662E+03  0.26853223484E+03  0.50400001928E-02 0.  1.
       -1    1    3    3    0  502 -0.41119157793E+02  0.34473803025E+02 -0.93557628183E+03  0.93711376437E+03  0.50400001928E-02 0. -1.
</event>
<event>
 5   0  0.1461334E-04  0.9995794E+03  0.7818609E-02  0.9309006E-01
       -1   -1    0    0    0  501  0.00000000000E+00  0.00000000000E+00  0.35289207915E+03  0.35289207919E+03  0.50400001928E-02 0.  1.
        1   -1    0    0  501    0  0.00000000000E+00  0.00000000000E+00 -0.70783603762E+03  0.70783603764E+03  0.50400001928E-02 0. -1.
    10030    2    1    2    0    0  0.00000000000E+00  0.00000000000E+00 -0.35494395847E+03  0.10607281168E+04  0.99957937363E+03 0.  0.
        2    1    3    3  502    0  0.45107790031E+03 -0.20225033315E+03 -0.25554775425E+03  0.55649000361E+03  0.25500000920E-02 0. -1.
       -2    1    3    3    0  502 -0.45107790031E+03  0.20225033315E+03 -0.99396204222E+02  0.50423811322E+03  0.25500000920E-02 0.  1.
</event>
<event>
 5   0  0.1461334E-04  0.1000533E+04  0.7818609E-02  0.9307960E-01
        1   -1    0    0  501    0  0.00000000000E+00  0.00000000000E+00  0.30053634235E+03  0.30053634239E+03  0.50400001928E-02 0.  1.
       -1   -1    0    0    0  501  0.00000000000E+00  0.00000000000E+00 -0.83273326045E+03  0.83273326047E+03  0.50400001928E-02 0. -1.
    10030    2    1    2    0    0  0.00000000000E+00  0.00000000000E+00 -0.53219691810E+03  0.11332696029E+04  0.10005330745E+04 0.  0.
        2    1    3    3  502    0 -0.42013883354E+03 -0.91038249999E+02 -0.55589716694E+03  0.70272773009E+03  0.25500000920E-02 0. -1.
       -2    1    3    3    0  502  0.42013883354E+03  0.91038249999E+02  0.23700248846E+02  0.43054187277E+03  0.25500000920E-02 0.  1.
</event>
<event>
 5   0  0.1430675E-04  0.9996793E+03  0.7818609E-02  0.9308897E-01
        1   -1    0    0  501    0  0.00000000000E+00  0.00000000000E+00  0.11536799523E+04  0.11536799523E+04  0.50400001928E-02 0. -1.
       -1   -1    0    0    0  501  0.00000000000E+00  0.00000000000E+00 -0.21655890572E+03  0.21655890578E+03  0.50400001928E-02 0.  1.
    10030    2    1    2    0    0  0.00000000000E+00  0.00000000000E+00  0.93712104653E+03  0.13702388580E+04  0.99967928470E+03 0.  0.
        5    1    3    3  502    0  0.31082757955E+03 -0.24684870229E+03  0.52204646995E+02  0.40036918113E+03  0.46999998093E+01 0.  1.
       -5    1    3    3    0  502 -0.31082757955E+03  0.24684870229E+03  0.88491639954E+03  0.96986967692E+03  0.46999998093E+01 0. -1.
</event>
<event>
 5   0  0.2403037E-04  0.9990109E+03  0.7818609E-02  0.9309630E-01
       -2   -1    0    0    0  501  0.00000000000E+00  0.00000000000E+00  0.32099261069E+03  0.32099261070E+03  0.25500000920E-02 0.  1.
        2   -1    0    0  501    0  0.00000000000E+00  0.00000000000E+00 -0.77729425370E+03  0.77729425370E+03  0.25500000920E-02 0. -1.
    10030    2    1    2    0    0  0.00000000000E+00  0.00000000000E+00 -0.45630164301E+03  0.10982868644E+04  0.99901093442E+03 0.  0.
        1    1    3    3  502    0  0.45958442129E+03  0.17416986082E+03 -0.32619091012E+03  0.58987582641E+03  0.50400001928E-02 0. -1.
       -1    1    3    3    0  502 -0.45958442129E+03 -0.17416986082E+03 -0.13011073289E+03  0.50841103799E+03  0.50400001928E-02 0.  1.
</event>
<event>
 5   0  0.1461334E-04  0.9993358E+03  0.7818609E-02  0.9309274E-01
        1   -1    0    0  501    0  0.00000000000E+00  0.00000000000E+00  0.49011540968E+03  0.49011540971E+03  0.50400001928E-02 0. -1.
       -1   -1    0    0    0  501  0.00000000000E+00  0.00000000000E+00 -0.50940656728E+03  0.50940656730E+03  0.50400001928E-02 0.  1.
    10030    2    1    2    0    0  0.00000000000E+00  0.00000000000E+00 -0.19291157599E+02  0.99952197701E+03  0.99933579630E+03 0.  0.
        2    1    3    3  502    0 -0.26613621211E+03  0.88130995432E+02  0.40404053620E+03  0.49177668778E+03  0.25500000920E-02 0. -1.
       -2    1    3    3    0  502  0.26613621211E+03 -0.88130995432E+02 -0.42333169380E+03  0.50774528922E+03  0.25500000920E-02 0.  1.
</event>
<event>
 5   0  0.2484904E-04  0.1000084E+04  0.7818609E-02  0.9308453E-01
       -2   -1    0    0    0  501  0.00000000000E+00  0.00000000000E+00  0.23484352630E+03  0.23484352631E+03  0.25500000920E-02 0. -1.
        2   -1    0    0  501    0  0.00000000000E+00  0.00000000000E+00 -0.10647173866E+04  0.10647173866E+04  0.25500000920E-02 0.  1.
    10030    2    1    2    0    0  0.00000000000E+00  0.00000000000E+00 -0.82987386028E+03  0.12995609129E+04  0.10000839677E+04 0.  0.
        3    1    3    3  502    0  0.41002534859E+03  0.27902512608E+03 -0.49779843768E+03  0.70269417403E+03  0.10100000352E+00 0.  1.
       -3    1    3    3    0  502 -0.41002534859E+03 -0.27902512608E+03 -0.33207542261E+03  0.59686673887E+03  0.10100000352E+00 0. -1.
</event>
<event>
 5   0  0.1414165E-04  0.1000109E+04  0.7818609E-02  0.9308426E-01
       -1   -1    0    0    0  501  0.00000000000E+00  0.00000000000E+00  0.35844477996E+03  0.35844477999E+03  0.50400001928E-02 0. -1.
        1   -1    0    0  501    0  0.00000000000E+00  0.00000000000E+00 -0.69760901677E+03  0.69760901679E+03  0.50400001928E-02 0.  1.
    10030    2    1    2    0    0  0.00000000000E+00  0.00000000000E+00 -0.33916423681E+03  0.10560537968E+04  0.10001086152E+04 0.  0.
        4    1    3    3  502    0 -0.44400862084E+03  0.24626571203E+01 -0.41245494773E+03  0.60602839609E+03  0.12699999809E+01 0. -1.
       -4    1    3    3    0  502  0.44400862084E+03 -0.24626571203E+01  0.73290710917E+02  0.45002540069E+03  0.12699999809E+01 0.  1.
</event>
<event>
 5   0  0.2403037E-04  0.9995490E+03  0.7818609E-02  0.9309040E-01
       -2   -1    0    0    0  501  0.00000000000E+00  0.00000000000E+00  0.50127371620E+03  0.50127371621E+03  0.25500000920E-02 0.  1.
        2   -1    0    0  501    0  0.00000000000E+00  0.00000000000E+00 -0.49827981074E+03  0.49827981075E+03  0.25500000920E-02 0. -1.
    10030    2    1    2    0    0  0.00000000000E+00  0.00000000000E+00  0.29939054606E+01  0.99955352695E+03  0.99954904320E+03 0.  0.
        1    1    3    3  502    0 -0.24740089145E+03 -0.23309579981E+03  0.36787779792E+03  0.50087416305E+03  0.50400001928E-02 0.  1.
       -1    1    3    3    0  502  0.24740089145E+03  0.23309579981E+03 -0.36488389246E+03  0.49867936390E+03  0.50400001928E-02 0. -1.
</event>
<event>
 5   0  0.1453863E-04  0.9999892E+03  0.7818609E-02  0.9308557E-01
       -1   -1    0    0    0  501  0.00000000000E+00  0.00000000000E+00  0.17354320565E+03  0.17354320572E+03  0.50400001928E-02 0. -1.
        1   -1    0    0  501    0  0.00000000000E+00  0.00000000000E+00 -0.14405323704E+04  0.14405323704E+04  0.50400001928E-02 0.  1.
    10030    2    1    2    0    0  0.00000000000E+00  0.00000000000E+00 -0.12669891647E+04  0.16140755761E+04  0.99998921087E+03 0.  0.
        1    1    3    3  502    0  0.29539061687E+03  0.83598450659E+02 -0.12704997869E+04  0.13070631301E+04  0.50400001928E-02 0.  1.
       -1    1    3    3    0  502 -0.29539061687E+03 -0.83598450659E+02  0.35106222303E+01  0.30701244597E+03  0.50400001928E-02 0. -1.
</event>
<event>
 5   0  0.2353916E-04  0.9993382E+03  0.7818609E-02  0.9309271E-01
        2   -1    0    0  501    0  0.00000000000E+00  0.00000000000E+00  0.78795702884E+03  0.78795702884E+03  0.25500000920E-02 0. -1.
       -2   -1    0    0    0  501  0.00000000000E+00  0.00000000000E+00 -0.31685639947E+03  0.31685639948E+03  0.25500000920E-02 0.  1.
    10030    2    1    2    0    0  0.00000000000E+00  0.00000000000E+00  0.47110062937E+03  0.11048134283E+04  0.99933823523E+03 0.  0.
        4    1    3    3  502    0  0.41472025712E+03 -0.19472820982E+03  0.15117700011E+02  0.45841261448E+03  0.12699999809E+01 0.  1.
       -4    1    3    3    0  502 -0.41472025712E+03  0.19472820982E+03  0.45598292936E+03  0.64640081384E+03  0.12699999809E+01 0. -1.
</event>
<event>
 5   0  0.9650500E-05  0.1001072E+04  0.7818609E-02  0.9307370E-01
        3   -1    0    0  501    0  0.00000000000E+00  0.00000000000E+00  0.40319061969E+03  0.40319063234E+03  0.10100000352E+00 0. -1.
       -3   -1    0    0    0  501  0.00000000000E+00  0.00000000000E+00 -0.62138455780E+03  0.62138456601E+03  0.10100000352E+00 0.  1.
    10030    2    1    2    0    0  0.00000000000E+00  0.00000000000E+00 -0.21819393812E+03  0.10245751983E+04  0.10010722963E+04 0.  0.
        4    1    3    3  502    0 -0.34374085704E+02  0.44501327885E+03  0.12275276352E+03  0.46291278873E+03  0.12699999809E+01 0.  1.
       -4    1    3    3    0  502  0.34374085704E+02 -0.44501327885E+03 -0.34094670164E+03  0.56166240962E+03  0.12699999809E+01 0. -1.
</event>
<event>
 5   0  0.2353916E-04  0.9993387E+03  0.7818609E-02  0.9309270E-01
       -2   -1    0    0    0  501  0.00000000000E+00  0.00000000000E+00  0.43511054307E+03  0.43511054308E+03  0.25500000920E-02 0. -1.
        2   -1    0    0  501    0  0.00000000000E+00  0.00000000000E+00 -0.57380701281E+03  0.57380701282E+03  0.25500000920E-02 0.  1.
    10030    2    1    2    0    0  0.00000000000E+00  0.00000000000E+00 -0.13869646974E+03  0.10089175559E+04  0.99933874331E+03 0.  0.
        4    1    3    3  502    0 -0.34998615329E+03  0.23015678592E+03  0.20566953234E+03  0.46665192921E+03  0.12699999809E+01 0. -1.
       -4    1    3    3    0  502  0.34998615329E+03 -0.23015678592E+03 -0.34436600208E+03  0.54226562669E+03  0.12699999809E+01 0.  1.
</event>
<event>
 5   0  0.2473312E-04  0.1000254E+04  0.7818609E-02  0.9308266E-01
       -2   -1    0    0    0  501  0.00000000000E+00  0.00000000000E+00  0.15499902482E+03  0.15499902485E+03  0.25500000920E-02 0.  1.
        2   -1    0    0  501    0  0.00000000000E+00  0.00000000000E+00 -0.16137324961E+04  0.16137324961E+04  0.25500000920E-02 0. -1.
    10030    2    1    2    0    0  0.00000000000E+00  0.00000000000E+00 -0.14587334713E+04  0.17687315209E+04  0.10002538943E+04 0.  0.
        5    1    3    3  502    0  0.14071472772E+03 -0.46816642467E+03 -0.91587182787E+03  0.10381828986E+04  0.46999998093E+01 0. -1.
       -5    1    3    3    0  502 -0.14071472772E+03  0.46816642467E+03 -0.54286164340E+03  0.73054862238E+03  0.46999998093E+01 0.  1.
</event>
<event>
 5   0  0.2503680E-04  0.1000622E+04  0.7818609E-02  0.9307863E-01
        2   -1    0    0  501    0  0.00000000000E+00  0.00000000000E+00  0.68506706878E+03  0.68506706878E+03  0.25500000920E-02 0. -1.
       -2   -1    0    0    0  501  0.00000000000E+00  0.00000000000E+00 -0.36538206072E+03  0.36538206073E+03  0.25500000920E-02 0.  1.
    10030    2    1    2    0    0  0.00000000000E+00  0.00000000000E+00  0.31968500806E+03  0.10504491295E+04  0.10006222411E+04 0.  0.
        2    1    3    3  502    0  0.26223099869E+03 -0.38015125828E+02 -0.28567308052E+03  0.38964003312E+03  0.25500000920E-02 0.  1.
       -2    1    3    3    0  502 -0.26223099869E+03  0.38015125828E+02  0.60535808858E+03  0.66080909640E+03  0.25500000920E-02 0. -1.
</event>
<event>
 5   0  0.2484904E-04  0.9991465E+03  0.7818609E-02  0.9309481E-01
       -2   -1    0    0    0  501  0.00000000000E+00  0.00000000000E+00  0.16469707703E+03  0.16469707705E+03  0.25500000920E-02 0.  1.
        2   -1    0    0  501    0  0.00000000000E+00  0.00000000000E+00 -0.15153482017E+04  0.15153482017E+04  0.25500000920E-02 0. -1.
    10030    2    1    2    0    0  0.00000000000E+00  0.00000000000E+00 -0.13506511246E+04  0.16800452787E+04  0.99914647479E+03 0.  0.
        3    1    3    3  502    0 -0.80116789767E+02 -0.47465706573E+02 -0.15006254251E+04  0.15035120119E+04  0.10100000352E+00 0. -1.
       -3    1    3    3    0  502  0.80116789767E+02  0.47465706573E+02  0.14997430045E+03  0.17653326683E+03  0.10100000352E+00 0.  1.
</event>
<event>
 5   0  0.2484904E-04  0.9999469E+03  0.7818609E-02  0.9308603E-01
       -2   -1    0    0    0  501  0.00000000000E+00  0.00000000000E+00  0.52065156568E+03  0.52065156569E+03  0.25500000920E-02 0.  1.
        2   -1    0    0  501    0  0.00000000000E+00  0.00000000000E+00 -0.48011659923E+03  0.48011659924E+03  0.25500000920E-02 0. -1.
    10030    2    1    2    0    0  0.00000000000E+00  0.00000000000E+00  0.40534966448E+02  0.10007681649E+04  0.99994691681E+03 0.  0.
        3    1    3    3  502    0  0.17448945442E+03  0.13441035781E+03 -0.42894492407E+03  0.48218924924E+03  0.10100000352E+00 0. -1.
       -3    1    3    3    0  502 -0.17448945442E+03 -0.13441035781E+03  0.46947989052E+03  0.51857891569E+03  0.10100000352E+00 0.  1.
</event>
<event>
 5   0  0.2503680E-04  0.9994840E+03  0.7818609E-02  0.9309111E-01
       -2   -1    0    0    0  501  0.00000000000E+00  0.00000000000E+00  0.18055205933E+03  0.18055205935E+03  0.25500000920E-02 0. -1.
        2   -1    0    0  501    0  0.00000000000E+00  0.00000000000E+00 -0.13832136010E+04  0.13832136010E+04  0.25500000920E-02 0.  1.
    10030    2    1    2    0    0  0.00000000000E+00  0.00000000000E+00 -0.12026615417E+04  0.15637656604E+04  0.99948399522E+03 0.  0.
        2    1    3    3  502    0  0.22756814250E+03  0.33977256641E+02 -0.12954095427E+04  0.13156852195E+04  0.25500000920E-02 0.  1.
       -2    1    3    3    0  502 -0.22756814250E+03 -0.33977256641E+02  0.92748001022E+02  0.24808044088E+03  0.25500000920E-02 0. -1.
</event>
<event>
 5   0  0.9650500E-05  0.1000339E+04  0.7818609E-02  0.9308173E-01
       -3   -1    0    0    0  501  0.00000000000E+00  0.00000000000E+00  0.54434159623E+03  0.54434160560E+03  0.10100000352E+00 0. -1.
        3   -1    0    0  501    0  0.00000000000E+00  0.00000000000E+00 -0.45958156897E+03  0.45958158007E+03  0.10100000352E+00 0.  1.
    10030    2    1    2    0    0  0.00000000000E+00  0.00000000000E+00  0.84760027260E+02  0.10039231857E+04  0.10003386929E+04 0.  0.
        2    1    3    3  502    0  0.32111187641E+03 -0.13986709874E+03 -0.31596208675E+03  0.47170720024E+03  0.25500000920E-02 0.  1.
       -2    1    3    3    0  502 -0.32111187641E+03  0.13986709874E+03  0.40072211401E+03  0.53221598543E+03  0.25500000920E-02 0. -1.
</event>
<event>
 5   0  0.2473312E-04  0.1000005E+04  0.7818609E-02  0.9308540E-01
        2   -1    0    0  501    0  0.00000000000E+00  0.00000000000E+00  0.91661142002E+03  0.91661142002E+03  0.25500000920E-02 0.  1.
       -2   -1    0    0    0  501  0.00000000000E+00  0.00000000000E+00 -0.27274621051E+03  0.27274621053E+03  0.25500000920E-02 0. -1.
    10030    2    1    2    0    0  0.00000000000E+00  0.00000000000E+00  0.64386520951E+03  0.11893576305E+04  0.10000045827E+04 0.  0.
        5    1    3    3  502    0  0.39852184611E+03 -0.26562723973E+03  0.49264798015E+03  0.68709651044E+03  0.46999998093E+01 0.  1.
       -5    1    3    3    0  502 -0.39852184611E+03  0.26562723973E+03  0.15121722936E+03  0.50226112011E+03  0.46999998093E+01 0. -1.
</event>
<event>
 5   0  0.2484904E-04  0.1000022E+04  0.7818609E-02  0.9308521E-01
        2   -1    0    0  501    0  0.00000000000E+00  0.00000000000E+00  0.95226420675E+03  0.95226420675E+03  0.25500000920E-02 0.  1.
       -2   -1    0    0    0  501  0.00000000000E+00  0.00000000000E+00 -0.26254361213E+03  0.26254361214E+03  0.25500000920E-02 0. -1.
    10030    2    1    2    0    0  0.00000000000E+00  0.00000000000E+00  0.68972059462E+03  0.12148078189E+04  0.10000217689E+04 0.  0.
        3    1    3    3  502    0  0.27627414627E+03 -0.30130486114E+03  0.69462210139E+03  0.80598504774E+03  0.10100000352E+00 0.  1.
       -3    1    3    3    0  502 -0.27627414627E+03  0.30130486114E+03 -0.49015067703E+01  0.40882277115E+03  0.10100000352E+00 0. -1.
</event>
<event>
 5   0  0.1414165E-04  0.1000548E+04  0.7818609E-02  0.9307944E-01
       -1   -1    0    0    0  501  0.00000000000E+00  0.00000000000E+00  0.20532273023E+03  0.20532273029E+03  0.50400001928E-02 0. -1.
        1   -1    0    0  501    0  0.00000000000E+00  0.00000000000E+00 -0.12189291531E+04  0.12189291532E+04  0.50400001928E-02 0.  1.
    10030    2    1    2    0    0  0.00000000000E+00  0.00000000000E+00 -0.10136064229E+04  0.14242518834E+04  0.10005475735E+04 0.  0.
        4    1    3    3  502    0  0.10981978892E+03  0.15466081753E+03  0.15214598290E+03  0.24316736527E+03  0.12699999809E+01 0. -1.
       -4    1    3    3    0  502 -0.10981978892E+03 -0.15466081753E+03 -0.11657524058E+04  0.11810845182E+04  0.12699999809E+01 0.  1.
</event>
<event>
 5   0  0.2403037E-04  0.9997620E+03  0.7818609E-02  0.9308806E-01
        2   -1    0    0  501    0  0.00000000000E+00  0.00000000000E+00  0.10555141272E+04  0.10555141272E+04  0.25500000920E-02 0.  1.
       -2   -1    0    0    0  501  0.00000000000E+00  0.00000000000E+00 -0.23673869221E+03  0.23673869222E+03  0.25500000920E-02 0. -1.
    10030    2    1    2    0    0  0.00000000000E+00  0.00000000000E+00  0.81877543503E+03  0.12922528195E+04  0.99976203989E+03 0.  0.
        1    1    3    3  502    0 -0.26529653645E+02 -0.45407289934E+03  0.67740320511E+03  0.81594186236E+03  0.50400001928E-02 0.  1.
       -1    1    3    3    0  502  0.26529653645E+02  0.45407289934E+03  0.14137222992E+03  0.47631095710E+03  0.50400001928E-02 0. -1.
</event>
<event>
 5   0  0.2503680E-04  0.9988512E+03  0.7818609E-02  0.9309806E-01
        2   -1    0    0  501    0  0.00000000000E+00  0.00000000000E+00  0.84702230935E+03  0.84702230935E+03  0.25500000920E-02 0. -1.
       -2   -1    0    0    0  501  0.00000000000E+00  0.00000000000E+00 -0.29447386656E+03  0.29447386657E+03  0.25500000920E-02 0.  1.
    10030    2    1    2    0    0  0.00000000000E+00  0.00000000000E+00  0.55254844279E+03  0.11414961759E+04  0.99885120915E+03 0.  0.
        2    1    3    3  502    0  0.12904843017E+03  0.36831676422E+03 -0.79862914745E+02  0.39835765500E+03  0.25500000920E-02 0.  1.
       -2    1    3    3    0  502 -0.12904843017E+03 -0.36831676422E+03  0.63241135753E+03  0.74313852093E+03  0.25500000920E-02 0. -1.
</event>
<event>
 5   0  0.1461334E-04  0.9999530E+03  0.7818609E-02  0.9308596E-01
       -1   -1    0    0    0  501  0.00000000000E+00  0.00000000000E+00  0.28425414336E+03  0.28425414340E+03  0.50400001928E-02 0.  1.
        1   -1    0    0  501    0  0.00000000000E+00  0.00000000000E+00 -0.87941198656E+03  0.87941198658E+03  0.50400001928E-02 0. -1.
    10030    2    1    2    0    0  0.00000000000E+00  0.00000000000E+00 -0.59515784320E+03  0.11636661300E+04  0.99995300077E+03 0.  0.
        2    1    3    3  502    0 -0.32279627248E+02  0.46106607247E+03 -0.51945810817E+03  0.69531332769E+03  0.25500000920E-02 0. -1.
       -2    1    3    3    0  502  0.32279627248E+02 -0.46106607247E+03 -0.75699735031E+02  0.46835280229E+03  0.25500000920E-02 0.  1.
</event>
<event>
 5   0  0.2473312E-04  0.1000433E+04  0.7818609E-02  0.9308069E-01
        2   -1    0    0  501    0  0.00000000000E+00  0.00000000000E+00  0.71308518895E+03  0.71308518895E+03  0.25500000920E-02 0.  1.
       -2   -1    0    0    0  501  0.00000000000E+00  0.00000000000E+00 -0.35089327360E+03  0.35089327360E+03  0.25500000920E-02 0. -1.
    10030    2    1    2    0    0  0.00000000000E+00  0.00000000000E+00  0.36219191535E+03  0.10639784626E+04  0.10004334987E+04 0.  0.
        5    1    3    3  502    0  0.15923557568E+03 -0.28157329496E+03  0.58684593117E+03  0.67011172645E+03  0.46999998093E+01 0. -1.
       -5    1    3    3    0  502 -0.15923557568E+03  0.28157329496E+03 -0.22465401582E+03  0.39386673611E+03  0.46999998093E+01 0.  1.
</event>
<event>
 5   0  0.1506454E-04  0.1000070E+04  0.7818609E-02  0.9308468E-01
       -1   -1    0    0    0  501  0.00000000000E+00  0.00000000000E+00  0.52866681510E+03  0.52866681512E+03  0.50400001928E-02 0. -1.
        1   -1    0    0  501    0  0.00000000000E+00  0.00000000000E+00 -0.47295346182E+03  0.47295346185E+03  0.50400001928E-02 0.  1.
    10030    2    1    2    0    0  0.00000000000E+00  0.00000000000E+00  0.55713353277E+02  0.10016202770E+04  0.10000695983E+04 0.  0.
        3    1    3    3  502    0  0.11150852783E+03 -0.83804575465E+02 -0.45307267277E+03  0.47405929551E+03  0.10100000352E+00 0.  1.
       -3    1    3    3    0  502 -0.11150852783E+03  0.83804575465E+02  0.50878602605E+03  0.52756098145E+03  0.10100000352E+00 0. -1.
</event>
<event>
 5   0  0.1506454E-04  0.1000022E+04  0.7818609E-02  0.9308521E-01
       -1   -1    0    0    0  501  0.00000000000E+00  0.00000000000E+00  0.74045479387E+03  0.74045479389E+03  0.50400001928E-02 0.  1.
        1   -1    0    0  501    0  0.00000000000E+00  0.00000000000E+00 -0.33764495462E+03  0.33764495466E+03  0.50400001928E-02 0. -1.
    10030    2    1    2    0    0  0.00000000000E+00  0.00000000000E+00  0.40280983925E+03  0.10780997485E+04  0.10000216504E+04 0.  0.
        3    1    3    3  502    0  0.15556175226E+03 -0.46932263350E+03  0.12110724401E+03  0.50904829617E+03  0.10100000352E+00 0.  1.
       -3    1    3    3    0  502 -0.15556175226E+03  0.46932263350E+03  0.28170259524E+03  0.56905145237E+03  0.10100000352E+00 0. -1.
</event>
<event>
 5   0  0.1414165E-04  0.9992531E+03  0.7818609E-02  0.9309364E-01
       -1   -1    0    0    0  501  0.00000000000E+00  0.00000000000E+00  0.41401378032E+03  0.41401378035E+03  0.50400001928E-02 0. -1.
        1   -1    0    0  501    0  0.00000000000E+00  0.00000000000E+00 -0.60294296343E+03  0.60294296345E+03  0.50400001928E-02 0.  1.
    10030    2    1    2    0    0  0.00000000000E+00  0.00000000000E+00 -0.18892918311E+03  0.10169567438E+04  0.99925311235E+03 0.  0.
        4    1    3    3  502    0  0.40909019931E+03 -0.63803724264E+02 -0.37906047619E+03  0.56135030410E+03  0.12699999809E+01 0.  1.
       -4    1    3    3    0  502 -0.40909019931E+03  0.63803724264E+02  0.19013129308E+03  0.45560643971E+03  0.12699999809E+01 0. -1.
</event>
<event>
 5   0  0.2353916E-04  0.1000431E+04  0.7818609E-02  0.9308072E-01
        2   -1    0    0  501    0  0.00000000000E+00  0.00000000000E+00  0.67732089776E+03  0.67732089776E+03  0.25500000920E-02 0. -1.
       -2   -1    0    0    0  501  0.00000000000E+00  0.00000000000E+00 -0.36941979850E+03  0.36941979851E+03  0.25500000920E-02 0.  1.
    10030    2    1    2    0    0  0.00000000000E+00  0.00000000000E+00  0.30790109925E+03  0.10467406963E+04  0.10004314061E+04 0.  0.
        4    1    3    3  502    0  0.22610337646E+03 -0.37156679735E+03  0.41242745872E+03  0.59940190468E+03  0.12699999809E+01 0. -1.
       -4    1    3    3    0  502 -0.22610337646E+03  0.37156679735E+03 -0.10452635946E+03  0.44733879159E+03  0.12699999809E+01 0.  1.
</event>
<event>
 5   0  0.2503680E-04  0.9999731E+03  0.7818609E-02  0.9308574E-01
        2   -1    0    0  501    0  0.00000000000E+00  0.00000000000E+00  0.12036374317E+04  0.12036374317E+04  0.25500000920E-02 0.  1.
       -2   -1    0    0    0  501  0.00000000000E+00  0.00000000000E+00 -0.20769258768E+03  0.20769258770E+03  0.25500000920E-02 0. -1.
    10030    2    1    2    0    0  0.00000000000E+00  0.00000000000E+00  0.99594484406E+03  0.14113300194E+04  0.99997314533E+03 0.  0.
        2    1    3    3  502    0 -0.16216451883E+03  0.23578202299E+03  0.10766265215E+04  0.11140085997E+04  0.25500000920E-02 0.  1.
       -2    1    3    3    0  502  0.16216451883E+03 -0.23578202299E+03 -0.80681677428E+02  0.29732141970E+03  0.25500000920E-02 0. -1.
</event>
<event>
 5   0  0.2353916E-04  0.9988163E+03  0.7818609E-02  0.9309844E-01
       -2   -1    0    0    0  501  0.00000000000E+00  0.00000000000E+00  0.23170049034E+03  0.23170049035E+03  0.25500000920E-02 0.  1.
        2   -1    0    0  501    0  0.00000000000E+00  0.00000000000E+00 -0.10764262171E+04  0.10764262171E+04  0.25500000920E-02 0. -1.
    10030    2    1    2    0    0  0.00000000000E+00  0.00000000000E+00 -0.84472572673E+03  0.13081267074E+04  0.99881626402E+03 0.  0.
        4    1    3    3  502    0 -0.43642755469E+03 -0.16840541655E+03 -0.19334729096E+03  0.50617603917E+03  0.12699999809E+01 0.  1.
       -4    1    3    3    0  502  0.43642755469E+03  0.16840541655E+03 -0.65137843577E+03  0.80195066824E+03  0.12699999809E+01 0. -1.
</event>
<event>
 5   0  0.2403037E-04  0.1000152E+04  0.7818609E-02  0.9308378E-01
        2   -1    0    0  501    0  0.00000000000E+00  0.00000000000E+00  0.11356847275E+04  0.11356847275E+04  0.25500000920E-02 0.  1.
       -2   -1    0    0    0  501  0.00000000000E+00  0.00000000000E+00 -0.22019833605E+03  0.22019833606E+03  0.25500000920E-02 0. -1.
    10030    2    1    2    0    0  0.00000000000E+00  0.00000000000E+00  0.91548639141E+03  0.13558830635E+04  0.10001517630E+04 0.  0.
        1    1    3    3  502    0 -0.25541206457E+03 -0.17698712128E+03 -0.73426547641E+02  0.31929801401E+03  0.50400001928E-02 0. -1.
       -1    1    3    3    0  502  0.25541206457E+03  0.17698712128E+03  0.98891293905E+03  0.10365850495E+04  0.50400001928E-02 0.  1.
</event>
<event>
 5   0  0.2484904E-04  0.9998494E+03  0.7818609E-02  0.9308710E-01
        2   -1    0    0  501    0  0.00000000000E+00  0.00000000000E+00  0.91375767604E+03  0.91375767605E+03  0.25500000920E-02 0.  1.
       -2   -1    0    0    0  501  0.00000000000E+00  0.00000000000E+00 -0.27351310441E+03  0.27351310442E+03  0.25500000920E-02 0. -1.
    10030    2    1    2    0    0  0.00000000000E+00  0.00000000000E+00  0.64024457164E+03  0.11872707805E+04  0.99984938598E+03 0.  0.
        3    1    3    3  502    0  0.11793551896E+03  0.87998021586E+02 -0.24721555984E+03  0.28769425031E+03  0.10100000352E+00 0. -1.
       -3    1    3    3    0  502 -0.11793551896E+03 -0.87998021586E+02  0.88746013148E+03  0.89957653015E+03  0.10100000352E+00 0.  1.
</event>
<event>
 5   0  0.1453863E-04  0.1000286E+04  0.7818609E-02  0.9308231E-01
       -1   -1    0    0    0  501  0.00000000000E+00  0.00000000000E+00  0.30550784933E+03  0.30550784938E+03  0.50400001928E-02 0.  1.
        1   -1    0    0  501    0  0.00000000000E+00  0.00000000000E+00 -0.81877755310E+03  0.81877755311E+03  0.50400001928E-02 0. -1.
    10030    2    1    2    0    0  0.00000000000E+00  0.00000000000E+00 -0.51326970376E+03  0.11242854025E+04  0.10002858979E+04 0.  0.
        1    1    3    3  502    0  0.36202335575E+03 -0.23880985498E+03  0.23347083392E+02  0.43432262579E+03  0.50400001928E-02 0.  1.
       -1    1    3    3    0  502 -0.36202335575E+03  0.23880985498E+03 -0.53661678716E+03  0.68996277670E+03  0.50400001928E-02 0. -1.
</event>
<event>
 5   0  0.2503680E-04  0.1000092E+04  0.7818609E-02  0.9308444E-01
       -2   -1    0    0    0  501  0.00000000000E+00  0.00000000000E+00  0.74791719519E+03  0.74791719520E+03  0.25500000920E-02 0.  1.
        2   -1    0    0  501    0  0.00000000000E+00  0.00000000000E+00 -0.33432301432E+03  0.33432301433E+03  0.25500000920E-02 0. -1.
    10030    2    1    2    0    0  0.00000000000E+00  0.00000000000E+00  0.41359418088E+03  0.10822402095E+04  0.10000918581E+04 0.  0.
        2    1    3    3  502    0  0.10359635460E+03  0.44012031095E+01  0.73615572529E+03  0.74342237467E+03  0.25500000920E-02 0.  1.
       -2    1    3    3    0  502 -0.10359635460E+03 -0.44012031095E+01 -0.32256154441E+03  0.33881783485E+03  0.25500000920E-02 0. -1.
</event>
<event>
 5   0  0.1461334E-04  0.1000418E+04  0.7818609E-02  0.9308086E-01
       -1   -1    0    0    0  501  0.00000000000E+00  0.00000000000E+00  0.10024937802E+04  0.10024937802E+04  0.50400001928E-02 0. -1.
        1   -1    0    0  501    0  0.00000000000E+00  0.00000000000E+00 -0.24958663338E+03  0.24958663343E+03  0.50400001928E-02 0.  1.
    10030    2    1    2    0    0  0.00000000000E+00  0.00000000000E+00  0.75290714680E+03  0.12520804136E+04  0.10004180079E+04 0.  0.
        2    1    3    3  502    0  0.28534904833E+02  0.36328096396E+03 -0.52415759201E+02  0.36815039235E+03  0.25500000920E-02 0.  1.
       -2    1    3    3    0  502 -0.28534904833E+02 -0.36328096396E+03  0.80532290600E+03  0.88393002127E+03  0.25500000920E-02 0. -1.
</event>
<event>
 5   0  0.2353916E-04  0.9990816E+03  0.7818609E-02  0.9309553E-01
        2   -1    0    0  501    0  0.00000000000E+00  0.00000000000E+00  0.22956638766E+04  0.22956638766E+04  0.25500000920E-02 0.  1.
       -2   -1    0    0    0  501  0.00000000000E+00  0.00000000000E+00 -0.10870102407E+03  0.10870102410E+03  0.25500000920E-02 0. -1.
    10030    2    1    2    0    0  0.00000000000E+00  0.00000000000E+00  0.21869628525E+04  0.24043649007E+04  0.99908160698E+03 0.  0.
        4    1    3    3  502    0 -0.71505485319E+01  0.17561777437E+03  0.22187879792E+04  0.22257390778E+04  0.12699999809E+01 0.  1.
       -4    1    3    3    0  502  0.71505485319E+01 -0.17561777437E+03 -0.31825126653E+02  0.17862582290E+03  0.12699999809E+01 0. -1.
</event>
<event>
 5   0  0.2353916E-04  0.9992125E+03  0.7818609E-02  0.9309409E-01
       -2   -1    0    0    0  501  0.00000000000E+00  0.00000000000E+00  0.47562515671E+03  0.47562515671E+03  0.25500000920E-02 0. -1.
        2   -1    0    0  501    0  0.00000000000E+00  0.00000000000E+00 -0.52479652505E+03  0.52479652506E+03  0.25500000920E-02 0.  1.
    10030    2    1    2    0    0  0.00000000000E+00  0.00000000000E+00 -0.49171368348E+02  0.10004216818E+04  0.99921254891E+03 0.  0.
        4    1    3    3  502    0  0.43625325428E+03  0.38235652500E+02  0.21617557303E+03  0.48837727043E+03  0.12699999809E+01 0. -1.
       -4    1    3    3    0  502 -0.43625325428E+03 -0.38235652500E+02 -0.26534694138E+03  0.51204441135E+03  0.12699999809E+01 0.  1.
</event>
<event>
 5   0  0.1414165E-04  0.1000587E+04  0.7818609E-02  0.9307902E-01
       -1   -1    0    0    0  501  0.00000000000E+00  0.00000000000E+00  0.21345559888E+03  0.21345559894E+03  0.50400001928E-02 0. -1.
        1   -1    0    0  501    0  0.00000000000E+00  0.00000000000E+00 -0.11725784034E+04  0.11725784035E+04  0.50400001928E-02 0.  1.
    10030    2    1    2    0    0  0.00000000000E+00  0.00000000000E+00 -0.95912280457E+03  0.13860340024E+04  0.10005866787E+04 0.  0.
        4    1    3    3  502    0 -0.24041454766E+03  0.32709280982E+03 -0.88461241404E+03  0.97330858259E+03  0.12699999809E+01 0.  1.
       -4    1    3    3    0  502  0.24041454766E+03 -0.32709280982E+03 -0.74510390528E+02  0.41272541981E+03  0.12699999809E+01 0. -1.
</event>
<event>
 5   0  0.1506454E-04  0.9999589E+03  0.7818609E-02  0.9308590E-01
       -1   -1    0    0    0  501  0.00000000000E+00  0.00000000000E+00  0.66616699017E+03  0.66616699019E+03  0.50400001928E-02 0. -1.
        1   -1    0    0  501    0  0.00000000000E+00  0.00000000000E+00 -0.37525043347E+03  0.37525043350E+03  0.50400001928E-02 0.  1.
    10030    2    1    2    0    0  0.00000000000E+00  0.00000000000E+00  0.29091655670E+03  0.10414174237E+04  0.99995890286E+03 0.  0.
        3    1    3    3  502    0  0.21483736393E+03 -0.35681081305E+03  0.43353150877E+03  0.60118102810E+03  0.10100000352E+00 0. -1.
       -3    1    3    3    0  502 -0.21483736393E+03  0.35681081305E+03 -0.14261495207E+03  0.44023639559E+03  0.10100000352E+00 0.  1.
</event>
<event>
 5   0  0.2484904E-04  0.9987126E+03  0.7818609E-02  0.9309958E-01
        2   -1    0    0  501    0  0.00000000000E+00  0.00000000000E+00  0.13350655736E+04  0.13350655736E+04  0.25500000920E-02 0. -1.
       -2   -1    0    0    0  501  0.00000000000E+00  0.00000000000E+00 -0.18677486754E+03  0.18677486755E+03  0.25500000920E-02 0.  1.
    10030    2    1    2    0    0  0.00000000000E+00  0.00000000000E+00  0.11482907061E+04  0.15218404412E+04  0.99871256261E+03 0.  0.
        3    1    3    3  502    0  0.21067868338E+03 -0.45262115067E+03  0.58977987697E+03  0.77271710680E+03  0.10100000352E+00 0.  1.
       -3    1    3    3    0  502 -0.21067868338E+03  0.45262115067E+03  0.55851082911E+03  0.74912333437E+03  0.10100000352E+00 0. -1.
</event>
<event>
 5   0  0.1430675E-04  0.1000256E+04  0.7818609E-02  0.9308264E-01
       -1   -1    0    0    0  501  0.00000000000E+00  0.00000000000E+00  0.18975687662E+03  0.18975687669E+03  0.50400001928E-02 0.  1.
        1   -1    0    0  501    0  0.00000000000E+00  0.00000000000E+00 -0.13181498866E+04  0.13181498867E+04  0.50400001928E-02 0. -1.
    10030    2    1    2    0    0  0.00000000000E+00  0.00000000000E+00 -0.11283930100E+04  0.15079067633E+04  0.10002559782E+04 0.  0.
        5    1    3    3  502    0 -0.19366032121E+03 -0.12896284627E+03 -0.12315536721E+04  0.12533484244E+04  0.46999998093E+01 0. -1.
       -5    1    3    3    0  502  0.19366032121E+03  0.12896284627E+03  0.10316066206E+03  0.25455833894E+03  0.46999998093E+01 0.  1.
</event>
<event>
 5   0  0.1414165E-04  0.9986872E+03  0.7818609E-02  0.9309986E-01
        1   -1    0    0  501    0  0.00000000000E+00  0.00000000000E+00  0.68677824514E+03  0.68677824515E+03  0.50400001928E-02 0.  1.
       -1   -1    0    0    0  501  0.00000000000E+00  0.00000000000E+00 -0.36306340331E+03  0.36306340335E+03  0.50400001928E-02 0. -1.
    10030    2    1    2    0    0  0.00000000000E+00  0.00000000000E+00  0.32371484182E+03  0.10498416485E+04  0.99868723238E+03 0.  0.
        4    1    3    3  502    0 -0.15903136995E+03  0.92323875460E+02 -0.32617189091E+03  0.37443876659E+03  0.12699999809E+01 0. -1.
       -4    1    3    3    0  502  0.15903136995E+03 -0.92323875460E+02  0.64988673273E+03  0.67540288191E+03  0.12699999809E+01 0.  1.
</event>
<event>
 5   0  0.2353916E-04  0.1000046E+04  0.7818609E-02  0.9308494E-01
        2   -1    0    0  501    0  0.00000000000E+00  0.00000000000E+00  0.45549878209E+03  0.45549878210E+03  0.25500000920E-02 0. -1.
       -2   -1    0    0    0  501  0.00000000000E+00  0.00000000000E+00 -0.54889955079E+03  0.54889955080E+03  0.25500000920E-02 0.  1.
    10030    2    1    2    0    0  0.00000000000E+00  0.00000000000E+00 -0.93400768698E+02  0.10043983329E+04  0.10000461527E+04 0.  0.
        4    1    3    3  502    0 -0.24913155023E+03  0.43115477738E+03 -0.92290581415E+02  0.50643867911E+03  0.12699999809E+01 0.  1.
       -4    1    3    3    0  502  0.24913155023E+03 -0.43115477738E+03 -0.11101872835E+01  0.49795965379E+03  0.12699999809E+01 0. -1.
</event>
<event>
 5   0  0.2403037E-04  0.9997151E+03  0.7818609E-02  0.9308857E-01
        2   -1    0    0  501    0  0.00000000000E+00  0.00000000000E+00  0.81206484169E+03  0.81206484170E+03  0.25500000920E-02 0. -1.
       -2   -1    0    0    0  501  0.00000000000E+00  0.00000000000E+00 -0.30768177222E+03  0.30768177223E+03  0.25500000920E-02 0.  1.
    10030    2    1    2    0    0  0.00000000000E+00  0.00000000000E+00  0.50438306948E+03  0.11197466139E+04  0.99971505871E+03 0.  0.
        1    1    3    3  502    0 -0.12030324522E+03  0.49992774932E+02  0.79271512955E+03  0.80334888124E+03  0.50400001928E-02 0. -1.
       -1    1    3    3    0  502  0.12030324522E+03 -0.49992774932E+02 -0.28833206007E+03  0.31639773268E+03  0.50400001928E-02 0.  1.
</event>
<event>
 5   0  0.1461334E-04  0.9998957E+03  0.7818609E-02  0.9308659E-01
       -1   -1    0    0    0  501  0.00000000000E+00  0.00000000000E+00  0.18834626917E+03  0.18834626924E+03  0.50400001928E-02 0. -1.
        1   -1    0    0  501    0  0.00000000000E+00  0.00000000000E+00 -0.13270655705E+04  0.13270655705E+04  0.50400001928E-02 0.  1.
    10030    2    1    2    0    0  0.00000000000E+00  0.00000000000E+00 -0.11387193014E+04  0.15154118398E+04  0.99989569298E+03 0.  0.
        2    1    3    3  502    0  0.32365678175E+03  0.73612952995E+02 -0.27406311637E+01  0.33193386433E+03  0.25500000920E-02 0. -1.
       -2    1    3    3    0  502 -0.32365678175E+03 -0.73612952995E+02 -0.11359786702E+04  0.11834779754E+04  0.25500000920E-02 0.  1.
</event>
<event>
 5   0  0.2503680E-04  0.9999327E+03  0.7818609E-02  0.9308619E-01
        2   -1    0    0  501    0  0.00000000000E+00  0.00000000000E+00  0.61190709362E+03  0.61190709363E+03  0.25500000920E-02 0.  1.
       -2   -1    0    0    0  501  0.00000000000E+00  0.00000000000E+00 -0.40850378482E+03  0.40850378483E+03  0.25500000920E-02 0. -1.
    10030    2    1    2    0    0  0.00000000000E+00  0.00000000000E+00  0.20340330880E+03  0.10204108785E+04  0.99993272516E+03 0.  0.
        2    1    3    3  502    0  0.41445801925E+03 -0.36149164875E+02  0.38466013315E+03  0.56660888616E+03  0.25500000920E-02 0.  1.
       -2    1    3    3    0  502 -0.41445801925E+03  0.36149164875E+02 -0.18125682435E+03  0.45380199230E+03  0.25500000920E-02 0. -1.
</event>
<event>
 5   0  0.9650500E-05  0.9991650E+03  0.7818609E-02  0.9309461E-01
        3   -1    0    0  501    0  0.00000000000E+00  0.00000000000E+00  0.17026317838E+04  0.17026317868E+04  0.10100000352E+00 0.  1.
       -3   -1    0    0    0  501  0.00000000000E+00  0.00000000000E+00 -0.14658637425E+03  0.14658640905E+03  0.10100000352E+00 0. -1.
    10030    2    1    2    0    0  0.00000000000E+00  0.00000000000E+00  0.15560454096E+04  0.18492181959E+04  0.99916496100E+03 0.  0.
        3    1    3    3  502    0  0.31027699581E+03 -0.73077687620E+02  0.14899546928E+04  0.15236722612E+04  0.10100000352E+00 0.  1.
       -3    1    3    3    0  502 -0.31027699581E+03  0.73077687620E+02  0.66090716733E+02  0.32554593470E+03  0.10100000352E+00 0. -1.
</event>
<event>
 5   0  0.2403037E-04  0.9999741E+03  0.7818609E-02  0.9308573E-01
       -2   -1    0    0    0  501  0.00000000000E+00  0.00000000000E+00  0.10098297521E+04  0.10098297521E+04  0.25500000920E-02 0.  1.
        2   -1    0    0  501    0  0.00000000000E+00  0.00000000000E+00 -0.24755364104E+03  0.24755364105E+03  0.25500000920E-02 0. -1.
    10030    2    1    2    0    0  0.00000000000E+00  0.00000000000E+00  0.76227611106E+03  0.12573833931E+04  0.99997406360E+03 0.  0.
        1    1    3    3  502    0  0.34333572720E+03 -0.43635498305E+02 -0.72584535099E+02  0.35362691222E+03  0.50400001928E-02 0. -1.
       -1    1    3    3    0  502 -0.34333572720E+03  0.43635498305E+02  0.83486064616E+03  0.90375648093E+03  0.50400001928E-02 0.  1.
</event>
<event>
 5   0  0.2484904E-04  0.9998169E+03  0.7818609E-02  0.9308746E-01
       -2   -1    0    0    0  501  0.00000000000E+00  0.00000000000E+00  0.21418613747E+03  0.21418613748E+03  0.25500000920E-02 0. -1.
        2   -1    0    0  501    0  0.00000000000E+00  0.00000000000E+00 -0.11667817277E+04  0.11667817277E+04  0.25500000920E-02 0.  1.
    10030    2    1    2    0    0  0.00000000000E+00  0.00000000000E+00 -0.95259559022E+03  0.13809678652E+04  0.99981692631E+03 0.  0.
        3    1    3    3  502    0 -0.33366208868E+03  0.12279475826E+03  0.90976777083E+01  0.35565674466E+03  0.10100000352E+00 0. -1.
       -3    1    3    3    0  502  0.33366208868E+03 -0.12279475826E+03 -0.96169326793E+03  0.10253111205E+04  0.10100000352E+00 0.  1.
</event>
<event>
 5   0  0.2503680E-04  0.1002888E+04  0.7818609E-02  0.9305383E-01
        2   -1    0    0  501    0  0.00000000000E+00  0.00000000000E+00  0.10908568061E+04  0.10908568061E+04  0.25500000920E-02 0.  1.
       -2   -1    0    0    0  501  0.00000000000E+00  0.00000000000E+00 -0.23050327190E+03  0.23050327191E+03  0.25500000920E-02 0. -1.
    10030    2    1    2    0    0  0.00000000000E+00  0.00000000000E+00  0.86035353419E+03  0.13213600780E+04  0.10028879558E+04 0.  0.
        2    1    3    3  502    0  0.29554829779E+03 -0.31428584698E+03  0.93434667433E+02  0.44142318360E+03  0.25500000920E-02 0. -1.
       -2    1    3    3    0  502 -0.29554829779E+03  0.31428584698E+03  0.76691886675E+03  0.87993689440E+03  0.25500000920E-02 0.  1.
</event>
<event>
 5   0  0.1430675E-04  0.9994402E+03  0.7818609E-02  0.9309159E-01
        1   -1    0    0  501    0  0.00000000000E+00  0.00000000000E+00  0.14238783174E+04  0.14238783174E+04  0.50400001928E-02 0.  1.
       -1   -1    0    0    0  501  0.00000000000E+00  0.00000000000E+00 -0.17538027527E+03  0.17538027535E+03  0.50400001928E-02 0. -1.
    10030    2    1    2    0    0  0.00000000000E+00  0.00000000000E+00  0.12484980422E+04  0.15992585928E+04  0.99944018597E+03 0.  0.
        5    1    3    3  502    0  0.11114939698E+03  0.28693397155E+03  0.12542564201E+04  0.12914590779E+04  0.46999998093E+01 0.  1.
       -5    1    3    3    0  502 -0.11114939698E+03 -0.28693397155E+03 -0.57583779158E+01  0.30779951493E+03  0.46999998093E+01 0. -1.
</event>
<event>
 5   0  0.2353916E-04  0.9997960E+03  0.7818609E-02  0.9308769E-01
       -2   -1    0    0    0  501  0.00000000000E+00  0.00000000000E+00  0.14341443952E+04  0.14341443952E+04  0.25500000920E-02 0.  1.
        2   -1    0    0  501    0  0.00000000000E+00  0.00000000000E+00 -0.17424883969E+03  0.17424883971E+03  0.25500000920E-02 0. -1.
    10030    2    1    2    0    0  0.00000000000E+00  0.00000000000E+00  0.12598955555E+04  0.16083932349E+04  0.99979597286E+03 0.  0.
        4    1    3    3  502    0 -0.42836198810E+03 -0.25699079949E+03  0.66039131981E+03  0.82804382254E+03  0.12699999809E+01 0.  1.
       -4    1    3    3    0  502  0.42836198810E+03  0.25699079949E+03  0.59950423573E+03  0.78034941240E+03  0.12699999809E+01 0. -1.
</event>
<event>
 5   0  0.1506454E-04  0.9999046E+03  0.7818609E-02  0.9308649E-01
        1   -1    0    0  501    0  0.00000000000E+00  0.00000000000E+00  0.38408783824E+03  0.38408783827E+03  0.50400001928E-02 0. -1.
       -1   -1    0    0    0  501  0.00000000000E+00  0.00000000000E+00 -0.65076855913E+03  0.65076855914E+03  0.50400001928E-02 0.  1.
    10030    2    1    2    0    0  0.00000000000E+00  0.00000000000E+00 -0.26668072088E+03  0.10348563974E+04  0.99990457364E+03 0.  0.
        3    1    3    3  502    0  0.14890380091E+02 -0.26208585758E+03  0.30702248976E+03  0.40394744656E+03  0.10100000352E+00 0. -1.
       -3    1    3    3    0  502 -0.14890380091E+02  0.26208585758E+03 -0.57370321065E+03  0.63090895086E+03  0.10100000352E+00 0.  1.
</event>
<event>
 5   0  0.1453863E-04  0.1000400E+04  0.7818609E-02  0.9308106E-01
       -1   -1    0    0    0  501  0.00000000000E+00  0.00000000000E+00  0.66744580960E+03  0.66744580961E+03  0.50400001928E-02 0.  1.
        1   -1    0    0  501    0  0.00000000000E+00  0.00000000000E+00 -0.37486188449E+03  0.37486188452E+03  0.50400001928E-02 0. -1.
    10030    2    1    2    0    0  0.00000000000E+00  0.00000000000E+00  0.29258392510E+03  0.10423076941E+04  0.10003999081E+04 0.  0.
        1    1    3    3  502    0  0.48502226783E+03 -0.11579087205E+03  0.18725653764E+03  0.53265292382E+03  0.50400001928E-02 0. -1.
       -1    1    3    3    0  502 -0.48502226783E+03  0.11579087205E+03  0.10532738747E+03  0.50965477032E+03  0.50400001928E-02 0.  1.
</event>
<event>
 5   0  0.2484904E-04  0.1000058E+04  0.7818609E-02  0.9308481E-01
       -2   -1    0    0    0  501  0.00000000000E+00  0.00000000000E+00  0.15690918833E+03  0.15690918835E+03  0.25500000920E-02 0. -1.
        2   -1    0    0  501    0  0.00000000000E+00  0.00000000000E+00 -0.15934624521E+04  0.15934624521E+04  0.25500000920E-02 0.  1.
    10030    2    1    2    0    0  0.00000000000E+00  0.00000000000E+00 -0.14365532638E+04  0.17503716404E+04  0.10000577984E+04 0.  0.
        3    1    3    3  502    0 -0.15336395332E+03  0.41217617064E+03 -0.11347497756E+04  0.12169908632E+04  0.10100000352E+00 0. -1.
       -3    1    3    3    0  502  0.15336395332E+03 -0.41217617064E+03 -0.30180348818E+03  0.53338077721E+03  0.10100000352E+00 0.  1.
</event>
<event>
 5   0  0.1430675E-04  0.9999615E+03  0.7818609E-02  0.9308587E-01
        1   -1    0    0  501    0  0.00000000000E+00  0.00000000000E+00  0.10099066898E+04  0.10099066898E+04  0.50400001928E-02 0. -1.
       -1   -1    0    0    0  501  0.00000000000E+00  0.00000000000E+00 -0.24752856972E+03  0.24752856977E+03  0.50400001928E-02 0.  1.
    10030    2    1    2    0    0  0.00000000000E+00  0.00000000000E+00  0.76237812008E+03  0.12574352596E+04  0.99996151628E+03 0.  0.
        5    1    3    3  502    0  0.20486613586E+03 -0.34097950092E+03  0.76202502683E+03  0.85961699913E+03  0.46999998093E+01 0. -1.
       -5    1    3    3    0  502 -0.20486613586E+03  0.34097950092E+03  0.35309324406E+00  0.39781826045E+03  0.46999998093E+01 0.  1.
</event>
<event>
 5   0  0.1506454E-04  0.9998815E+03  0.7818609E-02  0.9308675E-01
       -1   -1    0    0    0  501  0.00000000000E+00  0.00000000000E+00  0.45900367582E+03  0.45900367585E+03  0.50400001928E-02 0. -1.
        1   -1    0    0  501    0  0.00000000000E+00  0.00000000000E+00 -0.54452891854E+03  0.54452891856E+03  0.50400001928E-02 0.  1.
    10030    2    1    2    0    0  0.00000000000E+00  0.00000000000E+00 -0.85525242718E+02  0.10035325944E+04  0.99988154344E+03 0.  0.
        3    1    3    3  502    0  0.43209235135E+03  0.65217865426E+02 -0.28651482475E+03  0.52253987893E+03  0.10100000352E+00 0.  1.
       -3    1    3    3    0  502 -0.43209235135E+03 -0.65217865426E+02  0.20098958203E+03  0.48099271549E+03  0.10100000352E+00 0. -1.
</event>
<event>
 5   0  0.1414165E-04  0.9999330E+03  0.7818609E-02  0.9308618E-01
        1   -1    0    0  501    0  0.00000000000E+00  0.00000000000E+00  0.10952700132E+04  0.10952700132E+04  0.50400001928E-02 0. -1.
       -1   -1    0    0    0  501  0.00000000000E+00  0.00000000000E+00 -0.22822363917E+03  0.22822363922E+03  0.50400001928E-02 0.  1.
    10030    2    1    2    0    0  0.00000000000E+00  0.00000000000E+00  0.86704637402E+03  0.13234936524E+04  0.99993301441E+03 0.  0.
        4    1    3    3  502    0  0.17318981833E+02 -0.27591018029E+03 -0.11785413625E+03  0.30052884230E+03  0.12699999809E+01 0.  1.
       -4    1    3    3    0  502 -0.17318981833E+02  0.27591018029E+03  0.98490051027E+03  0.10229648101E+04  0.12699999809E+01 0. -1.
</event>
<event>
 5   0  0.1430675E-04  0.1000334E+04  0.7818609E-02  0.9308179E-01
       -1   -1    0    0    0  501  0.00000000000E+00  0.00000000000E+00  0.62761427846E+03  0.62761427848E+03  0.50400001928E-02 0.  1.
        1   -1    0    0  501    0  0.00000000000E+00  0.00000000000E+00 -0.39859990980E+03  0.39859990984E+03  0.50400001928E-02 0. -1.
    10030    2    1    2    0    0  0.00000000000E+00  0.00000000000E+00  0.22901436865E+03  0.10262141883E+04  0.10003339339E+04 0.  0.
        5    1    3    3  502    0  0.44135197519E+02  0.35500546084E+03 -0.24406115883E+03  0.43308744167E+03  0.46999998093E+01 0. -1.
       -5    1    3    3    0  502 -0.44135197519E+02 -0.35500546084E+03  0.47307552748E+03  0.59312674665E+03  0.46999998093E+01 0.  1.
</event>
<event>
 5   0  0.1414165E-04  0.1000301E+04  0.7818609E-02  0.9308215E-01
        1   -1    0    0  501    0  0.00000000000E+00  0.00000000000E+00  0.15774538423E+04  0.15774538423E+04  0.50400001928E-02 0. -1.
       -1   -1    0    0    0  501  0.00000000000E+00  0.00000000000E+00 -0.15857870129E+03  0.15857870137E+03  0.50400001928E-02 0.  1.
    10030    2    1    2    0    0  0.00000000000E+00  0.00000000000E+00  0.14188751410E+04  0.17360325436E+04  0.10003011181E+04 0.  0.
        4    1    3    3  502    0  0.31874948816E+03  0.36466787790E+03  0.92595988822E+03  0.10449819256E+04  0.12699999809E+01 0. -1.
       -4    1    3    3    0  502 -0.31874948816E+03 -0.36466787790E+03  0.49291525275E+03  0.69105061802E+03  0.12699999809E+01 0.  1.
</event>
<event>
 5   0  0.2403037E-04  0.9998830E+03  0.7818609E-02  0.9308673E-01
        2   -1    0    0  501    0  0.00000000000E+00  0.00000000000E+00  0.43244007656E+03  0.43244007656E+03  0.25500000920E-02 0. -1.
       -2   -1    0    0    0  501  0.00000000000E+00  0.00000000000E+00 -0.57797949426E+03  0.57797949427E+03  0.25500000920E-02 0.  1.
    10030    2    1    2    0    0  0.00000000000E+00  0.00000000000E+00 -0.14553941770E+03  0.10104195708E+04  0.99988298666E+03 0.  0.
        1    1    3    3  502    0  0.35821483867E+02 -0.43396847550E+02  0.42922966892E+03  0.43290249918E+03  0.50400001928E-02 0. -1.
       -1    1    3    3    0  502 -0.35821483867E+02  0.43396847550E+02 -0.57476908663E+03  0.57751707165E+03  0.50400001928E-02 0.  1.
</event>
<event>
 5   0  0.1414165E-04  0.1000399E+04  0.7818609E-02  0.9308108E-01
        1   -1    0    0  501    0  0.00000000000E+00  0.00000000000E+00  0.59136097645E+03  0.59136097647E+03  0.50400001928E-02 0.  1.
       -1   -1    0    0    0  501  0.00000000000E+00  0.00000000000E+00 -0.42309087921E+03  0.42309087924E+03  0.50400001928E-02 0. -1.
    10030    2    1    2    0    0  0.00000000000E+00  0.00000000000E+00  0.16827009724E+03  0.10144518557E+04  0.10003987914E+04 0.  0.
        4    1    3    3  502    0 -0.75697135870E+01  0.25108840715E+03 -0.35448606029E+03  0.43447056127E+03  0.12699999809E+01 0. -1.
       -4    1    3    3    0  502  0.75697135870E+01 -0.25108840715E+03  0.52275615753E+03  0.57998129444E+03  0.12699999809E+01 0.  1.
</event>
<event>
 5   0  0.2484904E-04  0.1000071E+04  0.7818609E-02  0.9308467E-01
       -2   -1    0    0    0  501  0.00000000000E+00  0.00000000000E+00  0.11280893773E+04  0.11280893773E+04  0.25500000920E-02 0.  1.
        2   -1    0    0  501    0  0.00000000000E+00  0.00000000000E+00 -0.22164500090E+03  0.22164500091E+03  0.25500000920E-02 0. -1.
    10030    2    1    2    0    0  0.00000000000E+00  0.00000000000E+00  0.90644437636E+03  0.13497343782E+04  0.10000707396E+04 0.  0.
        3    1    3    3  502    0  0.27642335642E+02  0.26744535506E+03 -0.11578186754E+03  0.29273976107E+03  0.10100000352E+00 0. -1.
       -3    1    3    3    0  502 -0.27642335642E+02 -0.26744535506E+03  0.10222262439E+04  0.10569946171E+04  0.10100000352E+00 0.  1.
</event>
<event>
 5   0  0.2353916E-04  0.1000848E+04  0.7818609E-02  0.9307615E-01
        2   -1    0    0  501    0  0.00000000000E+00  0.00000000000E+00  0.17443942888E+04  0.17443942888E+04  0.25500000920E-02 0.  1.
       -2   -1    0    0    0  501  0.00000000000E+00  0.00000000000E+00 -0.14355950480E+03  0.14355950483E+03  0.25500000920E-02 0. -1.
    10030    2    1    2    0    0  0.00000000000E+00  0.00000000000E+00  0.16008347840E+04  0.18879537936E+04  0.10008484007E+04 0.  0.
        4    1    3    3  502    0  0.22837499852E+03 -0.84885903233E+02  0.16249545531E+04  0.16431188846E+04  0.12699999809E+01 0.  1.
       -4    1    3    3    0  502 -0.22837499852E+03  0.84885903233E+02 -0.24119769073E+02  0.24483490902E+03  0.12699999809E+01 0. -1.
</event>
<event>
 5   0  0.1414165E-04  0.1000965E+04  0.7818609E-02  0.9307487E-01
       -1   -1    0    0    0  501  0.00000000000E+00  0.00000000000E+00  0.14546150695E+03  0.14546150704E+03  0.50400001928E-02 0. -1.
        1   -1    0    0  501    0  0.00000000000E+00  0.00000000000E+00 -0.17219861483E+04  0.17219861483E+04  0.50400001928E-02 0.  1.
    10030    2    1    2    0    0  0.00000000000E+00  0.00000000000E+00 -0.15765246414E+04  0.18674476554E+04  0.10009649348E+04 0.  0.
        4    1    3    3  502    0 -0.96989668080E+02 -0.13689523956E+03  0.91433045330E+02  0.19107306720E+03  0.12699999809E+01 0. -1.
       -4    1    3    3    0  502  0.96989668080E+02  0.13689523956E+03 -0.16679576867E+04  0.16763745882E+04  0.12699999809E+01 0.  1.
</event>
<event>
 5   0  0.1453863E-04  0.9998456E+03  0.7818609E-02  0.9308714E-01
       -1   -1    0    0    0  501  0.00000000000E+00  0.00000000000E+00  0.27491125564E+03  0.27491125569E+03  0.50400001928E-02 0.  1.
        1   -1    0    0  501    0  0.00000000000E+00  0.00000000000E+00 -0.90910348735E+03  0.90910348736E+03  0.50400001928E-02 0. -1.
    10030    2    1    2    0    0  0.00000000000E+00  0.00000000000E+00 -0.63419223171E+03  0.11840147431E+04  0.99984555058E+03 0.  0.
        1    1    3    3  502    0  0.17405129834E+03  0.35206227768E+03 -0.68339637414E+03  0.78820828848E+03  0.50400001928E-02 0. -1.
       -1    1    3    3    0  502 -0.17405129834E+03 -0.35206227768E+03  0.49204142432E+02  0.39580645457E+03  0.50400001928E-02 0.  1.
</event>
<event>
 5   0  0.2503680E-04  0.9998678E+03  0.7818609E-02  0.9308690E-01
        2   -1    0    0  501    0  0.00000000000E+00  0.00000000000E+00  0.97591622497E+03  0.97591622497E+03  0.25500000920E-02 0.  1.
       -2   -1    0    0    0  501  0.00000000000E+00  0.00000000000E+00 -0.25610178369E+03  0.25610178371E+03  0.25500000920E-02 0. -1.
    10030    2    1    2    0    0  0.00000000000E+00  0.00000000000E+00  0.71981444127E+03  0.12320180087E+04  0.99986776318E+03 0.  0.
        2    1    3    3  502    0 -0.51470613859E+02 -0.18920642414E+03 -0.20674276372E+03  0.28494010842E+03  0.25500000920E-02 0. -1.
       -2    1    3    3    0  502  0.51470613859E+02  0.18920642414E+03  0.92655720499E+03  0.94707790026E+03  0.25500000920E-02 0.  1.
</event>
<event>
 5   0  0.2484904E-04  0.1000461E+04  0.7818609E-02  0.9308039E-01
       -2   -1    0    0    0  501  0.00000000000E+00  0.00000000000E+00  0.15336695271E+03  0.15336695273E+03  0.25500000920E-02 0. -1.
        2   -1    0    0  501    0  0.00000000000E+00  0.00000000000E+00 -0.16315817542E+04  0.16315817542E+04  0.25500000920E-02 0.  1.
    10030    2    1    2    0    0  0.00000000000E+00  0.00000000000E+00 -0.14782148015E+04  0.17849487070E+04  0.10004613371E+04 0.  0.
        3    1    3    3  502    0  0.13907615687E+03 -0.24237465070E+03  0.11285841795E+01  0.27944397044E+03  0.10100000352E+00 0. -1.
       -3    1    3    3    0  502 -0.13907615687E+03  0.24237465070E+03 -0.14793433857E+04  0.15055047365E+04  0.10100000352E+00 0.  1.
</event>
<event>
 5   0  0.1414165E-04  0.9962753E+03  0.7818609E-02  0.9312639E-01
        1   -1    0    0  501    0  0.00000000000E+00  0.00000000000E+00  0.10599743385E+04  0.10599743385E+04  0.50400001928E-02 0. -1.
       -1   -1    0    0    0  501  0.00000000000E+00  0.00000000000E+00 -0.23410107596E+03  0.23410107601E+03  0.50400001928E-02 0.  1.
    10030    2    1    2    0    0  0.00000000000E+00  0.00000000000E+00  0.82587326258E+03  0.12940754146E+04  0.99627532978E+03 0.  0.
        4    1    3    3  502    0 -0.42285844075E+03 -0.88449440323E+02  0.90798357801E+02  0.44145047184E+03  0.12699999809E+01 0. -1.
       -4    1    3    3    0  502  0.42285844075E+03  0.88449440323E+02  0.73507490477E+03  0.85262494272E+03  0.12699999809E+01 0.  1.
</event>
<event>
 5   0  0.1461334E-04  0.1001905E+04  0.7818609E-02  0.9306457E-01
       -1   -1    0    0    0  501  0.00000000000E+00  0.00000000000E+00  0.42012487943E+03  0.42012487946E+03  0.50400001928E-02 0.  1.
        1   -1    0    0  501    0  0.00000000000E+00  0.00000000000E+00 -0.59733098706E+03  0.59733098708E+03  0.50400001928E-02 0. -1.
    10030    2    1    2    0    0  0.00000000000E+00  0.00000000000E+00 -0.17720610763E+03  0.10174558665E+04  0.10019054026E+04 0.  0.
        2    1    3    3  502    0  0.27288908356E+03  0.36123885536E+03  0.12918213458E+03  0.47079718187E+03  0.25500000920E-02 0.  1.
       -2    1    3    3    0  502 -0.27288908356E+03 -0.36123885536E+03 -0.30638824222E+03  0.54665868467E+03  0.25500000920E-02 0. -1.
</event>
<event>
 5   0  0.1453863E-04  0.1000184E+04  0.7818609E-02  0.9308343E-01
        1   -1    0    0  501    0  0.00000000000E+00  0.00000000000E+00  0.39865102232E+03  0.39865102235E+03  0.50400001928E-02 0.  1.
       -1   -1    0    0    0  501  0.00000000000E+00  0.00000000000E+00 -0.62734539954E+03  0.62734539956E+03  0.50400001928E-02 0. -1.
    10030    2    1    2    0    0  0.00000000000E+00  0.00000000000E+00 -0.22869437722E+03  0.10259964219E+04  0.10001837529E+04 0.  0.
        1    1    3    3  502    0 -0.26066589337E+03 -0.41184405958E+03  0.47755307274E+00  0.48740380124E+03  0.50400001928E-02 0. -1.
       -1    1    3    3    0  502  0.26066589337E+03  0.41184405958E+03 -0.22917193030E+03  0.53859262067E+03  0.50400001928E-02 0.  1.
</event>
<event>
 5   0  0.2503680E-04  0.9999590E+03  0.7818609E-02  0.9308590E-01
        2   -1    0    0  501    0  0.00000000000E+00  0.00000000000E+00  0.72942575104E+03  0.72942575105E+03  0.25500000920E-02 0. -1.
       -2   -1    0    0    0  501  0.00000000000E+00  0.00000000000E+00 -0.34270724869E+03  0.34270724870E+03  0.25500000920E-02 0.  1.
    10030    2    1    2    0    0  0.00000000000E+00  0.00000000000E+00  0.38671850235E+03  0.10721329998E+04  0.99995898371E+03 0.  0.
        2    1    3    3  502    0 -0.25769283314E+02  0.39087837289E+03 -0.13975758396E+03  0.41591121726E+03  0.25500000920E-02 0.  1.
       -2    1    3    3    0  502  0.25769283314E+02 -0.39087837289E+03  0.52647608631E+03  0.65622178250E+03  0.25500000920E-02 0. -1.
</event>
<event>
 5   0  0.9650500E-05  0.1000378E+04  0.7818609E-02  0.9308131E-01
        3   -1    0    0  501    0  0.00000000000E+00  0.00000000000E+00  0.11283806547E+04  0.11283806592E+04  0.10100000352E+00 0. -1.
       -3   -1    0    0    0  501  0.00000000000E+00  0.00000000000E+00 -0.22172378866E+03  0.22172381166E+03  0.10100000352E+00 0.  1.
    10030    2    1    2    0    0  0.00000000000E+00  0.00000000000E+00  0.90665686605E+03  0.13501044709E+04  0.10003776335E+04 0.  0.
        5    1    3    3  502    0  0.45359823509E+03  0.20958289298E+03  0.42344124568E+03  0.65498162299E+03  0.46999998093E+01 0. -1.
       -5    1    3    3    0  502 -0.45359823509E+03 -0.20958289298E+03  0.48321562037E+03  0.69512284790E+03  0.46999998093E+01 0.  1.
</event>
<event>
 5   0  0.1506454E-04  0.1000189E+04  0.7818609E-02  0.9308338E-01
       -1   -1    0    0    0  501  0.00000000000E+00  0.00000000000E+00  0.59356505697E+03  0.59356505699E+03  0.50400001928E-02 0. -1.
        1   -1    0    0  501    0  0.00000000000E+00  0.00000000000E+00 -0.42134287815E+03  0.42134287818E+03  0.50400001928E-02 0.  1.
    10030    2    1    2    0    0  0.00000000000E+00  0.00000000000E+00  0.17222217882E+03  0.10149079352E+04  0.10001888012E+04 0.  0.
        3    1    3    3  502    0 -0.33002572668E+03 -0.37275622105E+03  0.13403126343E+03  0.51558565765E+03  0.10100000352E+00 0. -1.
       -3    1    3    3    0  502  0.33002572668E+03  0.37275622105E+03  0.38190915389E+02  0.49932227751E+03  0.10100000352E+00 0.  1.
</event>
<event>
 5   0  0.1506454E-04  0.9998063E+03  0.7818609E-02  0.9308757E-01
        1   -1    0    0  501    0  0.00000000000E+00  0.00000000000E+00  0.16062164082E+04  0.16062164082E+04  0.50400001928E-02 0. -1.
       -1   -1    0    0    0  501  0.00000000000E+00  0.00000000000E+00 -0.15558499511E+03  0.15558499519E+03  0.50400001928E-02 0.  1.
    10030    2    1    2    0    0  0.00000000000E+00  0.00000000000E+00  0.14506314130E+04  0.17618014034E+04  0.99980632543E+03 0.  0.
        3    1    3    3  502    0  0.28960992293E+03 -0.16089060336E+03  0.13849868731E+04  0.14240605122E+04  0.10100000352E+00 0. -1.
       -3    1    3    3    0  502 -0.28960992293E+03  0.16089060336E+03  0.65644539972E+02  0.33774089113E+03  0.10100000352E+00 0.  1.
</event>
<event>
 5   0  0.2484904E-04  0.1000318E+04  0.7818609E-02  0.9308196E-01
       -2   -1    0    0    0  501  0.00000000000E+00  0.00000000000E+00  0.20407083878E+03  0.20407083880E+03  0.25500000920E-02 0.  1.
        2   -1    0    0  501    0  0.00000000000E+00  0.00000000000E+00 -0.12258433592E+04  0.12258433592E+04  0.25500000920E-02 0. -1.
    10030    2    1    2    0    0  0.00000000000E+00  0.00000000000E+00 -0.10217725204E+04  0.14299141980E+04  0.10003177146E+04 0.  0.
        3    1    3    3  502    0 -0.19414741712E+03  0.27772308645E+03 -0.10367557189E+04  0.10907271718E+04  0.10100000352E+00 0. -1.
       -3    1    3    3    0  502  0.19414741712E+03 -0.27772308645E+03  0.14983198507E+02  0.33918702623E+03  0.10100000352E+00 0.  1.
</event>
<event>
 5   0  0.2484904E-04  0.9992072E+03  0.7818609E-02  0.9309415E-01
       -2   -1    0    0    0  501  0.00000000000E+00  0.00000000000E+00  0.28199540021E+03  0.28199540022E+03  0.25500000920E-02 0. -1.
        2   -1    0    0  501    0  0.00000000000E+00  0.00000000000E+00 -0.88513410377E+03  0.88513410377E+03  0.25500000920E-02 0.  1.
    10030    2    1    2    0    0  0.00000000000E+00  0.00000000000E+00 -0.60313870355E+03  0.11671295040E+04  0.99920717740E+03 0.  0.
        3    1    3    3  502    0  0.49602066852E+03 -0.41811927181E+02 -0.35138654219E+03  0.60930883227E+03  0.10100000352E+00 0.  1.
       -3    1    3    3    0  502 -0.49602066852E+03  0.41811927181E+02 -0.25175216136E+03  0.55782067172E+03  0.10100000352E+00 0. -1.
</event>
<event>
 5   0  0.1453863E-04  0.9998513E+03  0.7818609E-02  0.9308708E-01
       -1   -1    0    0    0  501  0.00000000000E+00  0.00000000000E+00  0.21781172927E+03  0.21781172933E+03  0.50400001928E-02 0. -1.
        1   -1    0    0  501    0  0.00000000000E+00  0.00000000000E+00 -0.11474389714E+04  0.11474389715E+04  0.50400001928E-02 0.  1.
    10030    2    1    2    0    0  0.00000000000E+00  0.00000000000E+00 -0.92962724218E+03  0.13652507008E+04  0.99985132224E+03 0.  0.
        1    1    3    3  502    0 -0.88243252626E+02 -0.23258057111E+03  0.12730396808E+03  0.27944032280E+03  0.50400001928E-02 0. -1.
       -1    1    3    3    0  502  0.88243252626E+02  0.23258057111E+03 -0.10569312103E+04  0.10858103780E+04  0.50400001928E-02 0.  1.
</event>
<event>
 5   0  0.2403037E-04  0.9998185E+03  0.7818609E-02  0.9308744E-01
       -2   -1    0    0    0  501  0.00000000000E+00  0.00000000000E+00  0.40897844989E+03  0.40897844990E+03  0.25500000920E-02 0.  1.
        2   -1    0    0  501    0  0.00000000000E+00  0.00000000000E+00 -0.61105731493E+03  0.61105731493E+03  0.25500000920E-02 0. -1.
    10030    2    1    2    0    0  0.00000000000E+00  0.00000000000E+00 -0.20207886504E+03  0.10200357648E+04  0.99981853046E+03 0.  0.
        1    1    3    3  502    0  0.45622905083E+03 -0.14898697736E+03  0.41671958596E+02  0.48174538753E+03  0.50400001928E-02 0. -1.
       -1    1    3    3    0  502 -0.45622905083E+03  0.14898697736E+03 -0.24375082363E+03  0.53829037730E+03  0.50400001928E-02 0.  1.
</event>
<event>
 5   0  0.1461334E-04  0.1000063E+04  0.7818609E-02  0.9308476E-01
        1   -1    0    0  501    0  0.00000000000E+00  0.00000000000E+00  0.11161103746E+04  0.11161103746E+04  0.50400001928E-02 0. -1.
       -1   -1    0    0    0  501  0.00000000000E+00  0.00000000000E+00 -0.22402042037E+03  0.22402042043E+03  0.50400001928E-02 0.  1.
    10030    2    1    2    0    0  0.00000000000E+00  0.00000000000E+00  0.89208995418E+03  0.13401307950E+04  0.10000630287E+04 0.  0.
        2    1    3    3  502    0  0.38850693330E+03  0.19507672246E+03  0.11497229770E+03  0.44967899007E+03  0.25500000920E-02 0.  1.
       -2    1    3    3    0  502 -0.38850693330E+03 -0.19507672246E+03  0.77711765648E+03  0.89045180492E+03  0.25500000920E-02 0. -1.
</event>
<event>
 5   0  0.1453863E-04  0.9999142E+03  0.7818609E-02  0.9308639E-01
       -1   -1    0    0    0  501  0.00000000000E+00  0.00000000000E+00  0.13442167129E+03  0.13442167138E+03  0.50400001928E-02 0.  1.
        1   -1    0    0  501    0  0.00000000000E+00  0.00000000000E+00 -0.18595000106E+04  0.18595000107E+04  0.50400001928E-02 0. -1.
    10030    2    1    2    0    0  0.00000000000E+00  0.00000000000E+00 -0.17250783394E+04  0.19939216820E+04  0.99991419491E+03 0.  0.
        1    1    3    3  502    0 -0.27872515914E+02 -0.28308359932E+03 -0.42668950589E+02  0.28763490873E+03  0.50400001928E-02 0.  1.
       -1    1    3    3    0  502  0.27872515914E+02  0.28308359932E+03 -0.16824093888E+04  0.17062867733E+04  0.50400001928E-02 0. -1.
</event>
<event>
 5   0  0.2473312E-04  0.9999335E+03  0.7818609E-02  0.9308618E-01
        2   -1    0    0  501    0  0.00000000000E+00  0.00000000000E+00  0.10073013700E+04  0.10073013700E+04  0.25500000920E-02 0. -1.
       -2   -1    0    0    0  501  0.00000000000E+00  0.00000000000E+00 -0.24815487233E+03  0.24815487234E+03  0.25500000920E-02 0.  1.
    10030    2    1    2    0    0  0.00000000000E+00  0.00000000000E+00  0.75914649769E+03  0.12554562424E+04  0.99993348356E+03 0.  0.
        5    1    3    3  502    0  0.18564660518E+03  0.40155314526E+03  0.67196865239E+03  0.80453312565E+03  0.46999998093E+01 0. -1.
       -5    1    3    3    0  502 -0.18564660518E+03 -0.40155314526E+03  0.87177845304E+02  0.45092311672E+03  0.46999998093E+01 0.  1.
</event>
<event>
 5   0  0.2403037E-04  0.1001259E+04  0.7818609E-02  0.9307165E-01
       -2   -1    0    0    0  501  0.00000000000E+00  0.00000000000E+00  0.26718210447E+03  0.26718210448E+03  0.25500000920E-02 0.  1.
        2   -1    0    0  501    0  0.00000000000E+00  0.00000000000E+00 -0.93804868379E+03  0.93804868379E+03  0.25500000920E-02 0. -1.
    10030    2    1    2    0    0  0.00000000000E+00  0.00000000000E+00 -0.67086657932E+03  0.12052307883E+04  0.10012588505E+04 0.  0.
        1    1    3    3  502    0 -0.31079411480E+03  0.12949159380E+03  0.11054089007E+03  0.35437316922E+03  0.50400001928E-02 0.  1.
       -1    1    3    3    0  502  0.31079411480E+03 -0.12949159380E+03 -0.78140746939E+03  0.85085761905E+03  0.50400001928E-02 0. -1.
</event>
<event>
 5   0  0.1461334E-04  0.9999896E+03  0.7818609E-02  0.9308556E-01
        1   -1    0    0  501    0  0.00000000000E+00  0.00000000000E+00  0.40654345373E+03  0.40654345376E+03  0.50400001928E-02 0. -1.
       -1   -1    0    0    0  501  0.00000000000E+00  0.00000000000E+00 -0.61492766541E+03  0.61492766543E+03  0.50400001928E-02 0.  1.
    10030    2    1    2    0    0  0.00000000000E+00  0.00000000000E+00 -0.20838421168E+03  0.10214711192E+04  0.99998963378E+03 0.  0.
        2    1    3    3  502    0 -0.23852699809E+03  0.21009941446E+03 -0.49843366138E+03  0.59116242064E+03  0.25500000920E-02 0.  1.
       -2    1    3    3    0  502  0.23852699809E+03 -0.21009941446E+03  0.29004944970E+03  0.43030869855E+03  0.25500000920E-02 0. -1.
</event>
<event>
 5   0  0.1461334E-04  0.1000165E+04  0.7818609E-02  0.9308363E-01
       -1   -1    0    0    0  501  0.00000000000E+00  0.00000000000E+00  0.24723414619E+03  0.24723414624E+03  0.50400001928E-02 0. -1.
        1   -1    0    0  501    0  0.00000000000E+00  0.00000000000E+00 -0.10115218027E+04  0.10115218027E+04  0.50400001928E-02 0.  1.
    10030    2    1    2    0    0  0.00000000000E+00  0.00000000000E+00 -0.76428765650E+03  0.12587559489E+04  0.10001654449E+04 0.  0.
        2    1    3    3  502    0  0.35971330697E+03 -0.58029675648E+02  0.48937012288E+02  0.36763560443E+03  0.25500000920E-02 0. -1.
       -2    1    3    3    0  502 -0.35971330697E+03  0.58029675648E+02 -0.81322466879E+03  0.89112034451E+03  0.25500000920E-02 0.  1.
</event>
<event>
 5   0  0.2503680E-04  0.1000106E+04  0.7818609E-02  0.9308428E-01
       -2   -1    0    0    0  501  0.00000000000E+00  0.00000000000E+00  0.87101432475E+02  0.87101432513E+02  0.25500000920E-02 0.  1.
        2   -1    0    0  501    0  0.00000000000E+00  0.00000000000E+00 -0.28708261312E+04  0.28708261312E+04  0.25500000920E-02 0. -1.
    10030    2    1    2    0    0  0.00000000000E+00  0.00000000000E+00 -0.27837246987E+04  0.29579275637E+04  0.10001061313E+04 0.  0.
        2    1    3    3  502    0  0.39799942958E+03 -0.85537498720E+02 -0.53296778144E+03  0.67065256705E+03  0.25500000920E-02 0.  1.
       -2    1    3    3    0  502 -0.39799942958E+03  0.85537498720E+02 -0.22507569172E+04  0.22872749966E+04  0.25500000920E-02 0. -1.
</event>
<event>
 5   0  0.9650500E-05  0.9996741E+03  0.7818609E-02  0.9308902E-01
        3   -1    0    0  501    0  0.00000000000E+00  0.00000000000E+00  0.26857817876E+03  0.26857819775E+03  0.10100000352E+00 0. -1.
       -3   -1    0    0    0  501  0.00000000000E+00  0.00000000000E+00 -0.93022093595E+03  0.93022094144E+03  0.10100000352E+00 0.  1.
    10030    2    1    2    0    0  0.00000000000E+00  0.00000000000E+00 -0.66164275720E+03  0.11987991392E+04  0.99967406586E+03 0.  0.
        4    1    3    3  502    0 -0.46859257876E+03  0.12202352378E+03 -0.47947596830E+03  0.68144520124E+03  0.12699999809E+01 0.  1.
       -4    1    3    3    0  502  0.46859257876E+03 -0.12202352378E+03 -0.18216678890E+03  0.51735393794E+03  0.12699999809E+01 0. -1.
</event>
<event>
 5   0  0.1506454E-04  0.1000467E+04  0.7818609E-02  0.9308032E-01
        1   -1    0    0  501    0  0.00000000000E+00  0.00000000000E+00  0.10904520276E+04  0.10904520276E+04  0.50400001928E-02 0.  1.
       -1   -1    0    0    0  501  0.00000000000E+00  0.00000000000E+00 -0.22947701378E+03  0.22947701383E+03  0.50400001928E-02 0. -1.
    10030    2    1    2    0    0  0.00000000000E+00  0.00000000000E+00  0.86097501383E+03  0.13199290415E+04  0.10004672409E+04 0.  0.
        3    1    3    3  502    0  0.17985471740E+03  0.16606433421E+03 -0.14505433024E+03  0.28454499010E+03  0.10100000352E+00 0. -1.
       -3    1    3    3    0  502 -0.17985471740E+03 -0.16606433421E+03  0.10060293441E+04  0.10353840514E+04  0.10100000352E+00 0.  1.
</event>
<event>
 5   0  0.2473312E-04  0.1000024E+04  0.7818609E-02  0.9308518E-01
        2   -1    0    0  501    0  0.00000000000E+00  0.00000000000E+00  0.35216096048E+03  0.35216096049E+03  0.25500000920E-02 0. -1.
       -2   -1    0    0    0  501  0.00000000000E+00  0.00000000000E+00 -0.70993722549E+03  0.70993722549E+03  0.25500000920E-02 0.  1.
    10030    2    1    2    0    0  0.00000000000E+00  0.00000000000E+00 -0.35777626501E+03  0.10620981860E+04  0.10000243501E+04 0.  0.
        5    1    3    3  502    0  0.47611799428E+03 -0.11547030880E+02 -0.34054798465E+03  0.58550550659E+03  0.46999998093E+01 0.  1.
       -5    1    3    3    0  502 -0.47611799428E+03  0.11547030880E+02 -0.17228280358E+02  0.47659267939E+03  0.46999998093E+01 0. -1.
</event>
<event>
 5   0  0.1506454E-04  0.9999871E+03  0.7818609E-02  0.9308559E-01
       -1   -1    0    0    0  501  0.00000000000E+00  0.00000000000E+00  0.19420683306E+03  0.19420683313E+03  0.50400001928E-02 0.  1.
        1   -1    0    0  501    0  0.00000000000E+00  0.00000000000E+00 -0.12872541455E+04  0.12872541455E+04  0.50400001928E-02 0. -1.
    10030    2    1    2    0    0  0.00000000000E+00  0.00000000000E+00 -0.10930473124E+04  0.14814609786E+04  0.99998710192E+03 0.  0.
        3    1    3    3  502    0  0.27083886835E+03 -0.24579261172E+03 -0.41458782094E+02  0.36808496492E+03  0.10100000352E+00 0.  1.
       -3    1    3    3    0  502 -0.27083886835E+03  0.24579261172E+03 -0.10515885303E+04  0.11133760137E+04  0.10100000352E+00 0. -1.
</event>
<event>
 5   0  0.2503680E-04  0.1000153E+04  0.7818609E-02  0.9308377E-01
       -2   -1    0    0    0  501  0.00000000000E+00  0.00000000000E+00  0.47831671826E+03  0.47831671826E+03  0.25500000920E-02 0. -1.
        2   -1    0    0  501    0  0.00000000000E+00  0.00000000000E+00 -0.52282639726E+03  0.52282639726E+03  0.25500000920E-02 0.  1.
    10030    2    1    2    0    0  0.00000000000E+00  0.00000000000E+00 -0.44509679001E+02  0.10011431155E+04  0.10001532014E+04 0.  0.
        2    1    3    3  502    0  0.20069062860E+03  0.71942283009E+02  0.43054693304E+03  0.48044050833E+03  0.25500000920E-02 0. -1.
       -2    1    3    3    0  502 -0.20069062860E+03 -0.71942283009E+02 -0.47505661204E+03  0.52070260720E+03  0.25500000920E-02 0.  1.
</event>
<event>
 5   0  0.2503680E-04  0.9994967E+03  0.7818609E-02  0.9309097E-01
        2   -1    0    0  501    0  0.00000000000E+00  0.00000000000E+00  0.45378276910E+03  0.45378276911E+03  0.25500000920E-02 0.  1.
       -2   -1    0    0    0  501  0.00000000000E+00  0.00000000000E+00 -0.55036999559E+03  0.55036999560E+03  0.25500000920E-02 0. -1.
    10030    2    1    2    0    0  0.00000000000E+00  0.00000000000E+00 -0.96587226492E+02  0.10041527647E+04  0.99949671463E+03 0.  0.
        2    1    3    3  502    0 -0.30565270445E+03 -0.25471055690E+03  0.25551777149E+03  0.47285343933E+03  0.25500000920E-02 0.  1.
       -2    1    3    3    0  502  0.30565270445E+03  0.25471055690E+03 -0.35210499799E+03  0.53129932538E+03  0.25500000920E-02 0. -1.
</event>
<event>
 5   0  0.1453863E-04  0.9994760E+03  0.7818609E-02  0.9309120E-01
       -1   -1    0    0    0  501  0.00000000000E+00  0.00000000000E+00  0.36568570245E+03  0.36568570248E+03  0.50400001928E-02 0.  1.
        1   -1    0    0  501    0  0.00000000000E+00  0.00000000000E+00 -0.68293084814E+03  0.68293084816E+03  0.50400001928E-02 0. -1.
    10030    2    1    2    0    0  0.00000000000E+00  0.00000000000E+00 -0.31724514569E+03  0.10486165506E+04  0.99947595659E+03 0.  0.
        1    1    3    3  502    0 -0.59877235966E+02  0.22842938890E+02 -0.67860170267E+03  0.68162112213E+03  0.50400001928E-02 0. -1.
       -1    1    3    3    0  502  0.59877235966E+02 -0.22842938890E+02  0.36135655698E+03  0.36699542851E+03  0.50400001928E-02 0.  1.
</event>
<event>
 5   0  0.2484904E-04  0.1000099E+04  0.7818609E-02  0.9308436E-01
        2   -1    0    0  501    0  0.00000000000E+00  0.00000000000E+00  0.17189717495E+04  0.17189717495E+04  0.25500000920E-02 0.  1.
       -2   -1    0    0    0  501  0.00000000000E+00  0.00000000000E+00 -0.14546464971E+03  0.14546464974E+03  0.25500000920E-02 0. -1.
    10030    2    1    2    0    0  0.00000000000E+00  0.00000000000E+00  0.15735070998E+04  0.18644363992E+04  0.10000992419E+04 0.  0.
        3    1    3    3  502    0 -0.19221921506E+03  0.10322495523E+03  0.16255548017E+04  0.16401317147E+04  0.10100000352E+00 0.  1.
       -3    1    3    3    0  502  0.19221921506E+03 -0.10322495523E+03 -0.52047701935E+02  0.22430468452E+03  0.10100000352E+00 0. -1.
</event>
<event>
 5   0  0.2503680E-04  0.1000384E+04  0.7818609E-02  0.9308124E-01
       -2   -1    0    0    0  501  0.00000000000E+00  0.00000000000E+00  0.31257179151E+03  0.31257179152E+03  0.25500000920E-02 0.  1.
        2   -1    0    0  501    0  0.00000000000E+00  0.00000000000E+00 -0.80043063715E+03  0.80043063716E+03  0.25500000920E-02 0. -1.
    10030    2    1    2    0    0  0.00000000000E+00  0.00000000000E+00 -0.48785884564E+03  0.11130024287E+04  0.10003840028E+04 0.  0.
        2    1    3    3  502    0  0.65098897804E+02 -0.32171101295E+03  0.17599394725E+03  0.37243752741E+03  0.25500000920E-02 0.  1.
       -2    1    3    3    0  502 -0.65098897804E+02  0.32171101295E+03 -0.66385279289E+03  0.74056490127E+03  0.25500000920E-02 0. -1.
</event>
<event>
 5   0  0.1506454E-04  0.9994133E+03  0.7818609E-02  0.9309188E-01
       -1   -1    0    0    0  501  0.00000000000E+00  0.00000000000E+00  0.25432774781E+03  0.25432774786E+03  0.50400001928E-02 0.  1.
        1   -1    0    0  501    0  0.00000000000E+00  0.00000000000E+00 -0.98183051856E+03  0.98183051857E+03  0.50400001928E-02 0. -1.
    10030    2    1    2    0    0  0.00000000000E+00  0.00000000000E+00 -0.72750277074E+03  0.12361582664E+04  0.99941331702E+03 0.  0.
        3    1    3    3  502    0  0.31276700801E+03  0.40973250866E+02 -0.84312126646E+03  0.90019747209E+03  0.10100000352E+00 0. -1.
       -3    1    3    3    0  502 -0.31276700801E+03 -0.40973250866E+02  0.11561849572E+03  0.33596079435E+03  0.10100000352E+00 0.  1.
</event>
<event>
 5   0  0.1506454E-04  0.1000968E+04  0.7818609E-02  0.9307484E-01
       -1   -1    0    0    0  501  0.00000000000E+00  0.00000000000E+00  0.59492964773E+03  0.59492964775E+03  0.50400001928E-02 0. -1.
        1   -1    0    0  501    0  0.00000000000E+00  0.00000000000E+00 -0.42103160977E+03  0.42103160980E+03  0.50400001928E-02 0.  1.
    10030    2    1    2    0    0  0.00000000000E+00  0.00000000000E+00  0.17389803795E+03  0.10159612576E+04  0.10009679062E+04 0.  0.
        3    1    3    3  502    0 -0.91660328063E+02  0.37293517901E+03 -0.23879739290E+03  0.45222391416E+03  0.10100000352E+00 0. -1.
       -3    1    3    3    0  502  0.91660328063E+02 -0.37293517901E+03  0.41269543085E+03  0.56373734339E+03  0.10100000352E+00 0.  1.
</event>
<event>
 5   0  0.1414165E-04  0.1000746E+04  0.7818609E-02  0.9307727E-01
        1   -1    0    0  501    0  0.00000000000E+00  0.00000000000E+00  0.18612004054E+04  0.18612004054E+04  0.50400001928E-02 0.  1.
       -1   -1    0    0    0  501  0.00000000000E+00  0.00000000000E+00 -0.13452250932E+03  0.13452250941E+03  0.50400001928E-02 0. -1.
    10030    2    1    2    0    0  0.00000000000E+00  0.00000000000E+00  0.17266778961E+04  0.19957229148E+04  0.10007464194E+04 0.  0.
        4    1    3    3  502    0  0.23939167765E+03  0.38219744494E+03  0.12956256429E+04  0.13718712336E+04  0.12699999809E+01 0.  1.
       -4    1    3    3    0  502 -0.23939167765E+03 -0.38219744494E+03  0.43105225320E+03  0.62385168120E+03  0.12699999809E+01 0. -1.
</event>
<event>
 5   0  0.2484904E-04  0.9999268E+03  0.7818609E-02  0.9308625E-01
       -2   -1    0    0    0  501  0.00000000000E+00  0.00000000000E+00  0.98323347402E+03  0.98323347402E+03  0.25500000920E-02 0. -1.
        2   -1    0    0  501    0  0.00000000000E+00  0.00000000000E+00 -0.25422590092E+03  0.25422590093E+03  0.25500000920E-02 0.  1.
    10030    2    1    2    0    0  0.00000000000E+00  0.00000000000E+00  0.72900757310E+03  0.12374593750E+04  0.99992682884E+03 0.  0.
        3    1    3    3  502    0  0.39907480500E+03 -0.13742506298E+03  0.32856435209E+02  0.42335080424E+03  0.10100000352E+00 0.  1.
       -3    1    3    3    0  502 -0.39907480500E+03  0.13742506298E+03  0.69615113789E+03  0.81410857071E+03  0.10100000352E+00 0. -1.
</event>
<event>
 5   0  0.2503680E-04  0.1000319E+04  0.7818609E-02  0.9308195E-01
        2   -1    0    0  501    0  0.00000000000E+00  0.00000000000E+00  0.31492334122E+03  0.31492334123E+03  0.25500000920E-02 0. -1.
       -2   -1    0    0    0  501  0.00000000000E+00  0.00000000000E+00 -0.79435067061E+03  0.79435067062E+03  0.25500000920E-02 0.  1.
    10030    2    1    2    0    0  0.00000000000E+00  0.00000000000E+00 -0.47942732940E+03  0.11092740118E+04  0.10003190837E+04 0.  0.
        2    1    3    3  502    0 -0.13721445706E+03  0.85364024117E+02 -0.76460289708E+03  0.78149370699E+03  0.25500000920E-02 0.  1.
       -2    1    3    3    0  502  0.13721445706E+03 -0.85364024117E+02  0.28517556768E+03  0.32778030485E+03  0.25500000920E-02 0. -1.
</event>
<event>
 5   0  0.2353916E-04  0.9997592E+03  0.7818609E-02  0.9308809E-01
        2   -1    0    0  501    0  0.00000000000E+00  0.00000000000E+00  0.11190573139E+04  0.11190573139E+04  0.25500000920E-02 0. -1.
       -2   -1    0    0    0  501  0.00000000000E+00  0.00000000000E+00 -0.22329474348E+03  0.22329474350E+03  0.25500000920E-02 0.  1.
    10030    2    1    2    0    0  0.00000000000E+00  0.00000000000E+00  0.89576257041E+03  0.13423520574E+04  0.99975920273E+03 0.  0.
        4    1    3    3  502    0 -0.15878168471E+03 -0.52028781322E+02  0.10804501021E+04  0.10932944039E+04  0.12699999809E+01 0. -1.
       -4    1    3    3    0  502  0.15878168471E+03  0.52028781322E+02 -0.18468753173E+03  0.24905765349E+03  0.12699999809E+01 0.  1.
</event>
<event>
 5   0  0.1461334E-04  0.1000004E+04  0.7818609E-02  0.9308541E-01
       -1   -1    0    0    0  501  0.00000000000E+00  0.00000000000E+00  0.40805075449E+03  0.40805075452E+03  0.50400001928E-02 0.  1.
        1   -1    0    0  501    0  0.00000000000E+00  0.00000000000E+00 -0.61267364319E+03  0.61267364322E+03  0.50400001928E-02 0. -1.
    10030    2    1    2    0    0  0.00000000000E+00  0.00000000000E+00 -0.20462288871E+03  0.10207243977E+04  0.10000038848E+04 0.  0.
        2    1    3    3  502    0 -0.22783277939E+03 -0.44469927684E+03 -0.83581288466E+02  0.50660739629E+03  0.25500000920E-02 0.  1.
       -2    1    3    3    0  502  0.22783277939E+03  0.44469927684E+03 -0.12104160024E+03  0.51411700145E+03  0.25500000920E-02 0. -1.
</event>
<event>
 5   0  0.1430675E-04  0.1000446E+04  0.7818609E-02  0.9308055E-01
        1   -1    0    0  501    0  0.00000000000E+00  0.00000000000E+00  0.68158358558E+03  0.68158358560E+03  0.50400001928E-02 0. -1.
       -1   -1    0    0    0  501  0.00000000000E+00  0.00000000000E+00 -0.36712046811E+03  0.36712046815E+03  0.50400001928E-02 0.  1.
    10030    2    1    2    0    0  0.00000000000E+00  0.00000000000E+00  0.31446311747E+03  0.10487040537E+04  0.10004464704E+04 0.  0.
        5    1    3    3  502    0 -0.21982789747E+03 -0.17000255072E+03  0.59319698020E+03  0.65508008600E+03  0.46999998093E+01 0. -1.
       -5    1    3    3    0  502  0.21982789747E+03  0.17000255072E+03 -0.27873386273E+03  0.39362396775E+03  0.46999998093E+01 0.  1.
</event>
<event>
 5   0  0.2403037E-04  0.1000054E+04  0.7818609E-02  0.9308486E-01
       -2   -1    0    0    0  501  0.00000000000E+00  0.00000000000E+00  0.29134141441E+03  0.29134141442E+03  0.25500000920E-02 0. -1.
        2   -1    0    0  501    0  0.00000000000E+00  0.00000000000E+00 -0.85819242490E+03  0.85819242491E+03  0.25500000920E-02 0.  1.
    10030    2    1    2    0    0  0.00000000000E+00  0.00000000000E+00 -0.56685101049E+03  0.11495338393E+04  0.10000539884E+04 0.  0.
        1    1    3    3  502    0  0.94059878842E+02 -0.43527167339E+03 -0.22016554930E+02  0.44586255637E+03  0.50400001928E-02 0. -1.
       -1    1    3    3    0  502 -0.94059878842E+02  0.43527167339E+03 -0.54483445556E+03  0.70367128295E+03  0.50400001928E-02 0.  1.
</event>
<event>
 5   0  0.2503680E-04  0.1000146E+04  0.7818609E-02  0.9308385E-01
        2   -1    0    0  501    0  0.00000000000E+00  0.00000000000E+00  0.19659221850E+04  0.19659221850E+04  0.25500000920E-02 0.  1.
       -2   -1    0    0    0  501  0.00000000000E+00  0.00000000000E+00 -0.12720393542E+03  0.12720393544E+03  0.25500000920E-02 0. -1.
    10030    2    1    2    0    0  0.00000000000E+00  0.00000000000E+00  0.18387182496E+04  0.20931261205E+04  0.10001460667E+04 0.  0.
        2    1    3    3  502    0  0.11860691269E+03  0.25863746151E+03  0.58723517199E+02  0.29053293740E+03  0.25500000920E-02 0. -1.
       -2    1    3    3    0  502 -0.11860691269E+03 -0.25863746151E+03  0.17799947324E+04  0.18025931831E+04  0.25500000920E-02 0.  1.
</event>
<event>
 5   0  0.1453863E-04  0.1000046E+04  0.7818609E-02  0.9308495E-01
       -1   -1    0    0    0  501  0.00000000000E+00  0.00000000000E+00  0.31294707225E+03  0.31294707229E+03  0.50400001928E-02 0. -1.
        1   -1    0    0  501    0  0.00000000000E+00  0.00000000000E+00 -0.79893021403E+03  0.79893021404E+03  0.50400001928E-02 0.  1.
    10030    2    1    2    0    0  0.00000000000E+00  0.00000000000E+00 -0.48598314178E+03  0.11118772863E+04  0.10000457418E+04 0.  0.
        1    1    3    3  502    0  0.22634504146E+02 -0.48034005638E+03 -0.39537256839E+03  0.62254185273E+03  0.50400001928E-02 0. -1.
       -1    1    3    3    0  502 -0.22634504146E+02  0.48034005638E+03 -0.90610573395E+02  0.48933543360E+03  0.50400001928E-02 0.  1.
</event>
<event>
 5   0  0.1506454E-04  0.1000136E+04  0.7818609E-02  0.9308395E-01
        1   -1    0    0  501    0  0.00000000000E+00  0.00000000000E+00  0.53898079122E+03  0.53898079124E+03  0.50400001928E-02 0. -1.
       -1   -1    0    0    0  501  0.00000000000E+00  0.00000000000E+00 -0.46396504264E+03  0.46396504267E+03  0.50400001928E-02 0.  1.
    10030    2    1    2    0    0  0.00000000000E+00  0.00000000000E+00  0.75015748577E+02  0.10029458339E+04  0.10001364823E+04 0.  0.
        3    1    3    3  502    0  0.54617017887E+02  0.19273177711E+03  0.49698666958E+03  0.53583982354E+03  0.10100000352E+00 0. -1.
       -3    1    3    3    0  502 -0.54617017887E+02 -0.19273177711E+03 -0.42197092100E+03  0.46710601037E+03  0.10100000352E+00 0.  1.
</event>
<event>
 5   0  0.1414165E-04  0.1001089E+04  0.7818609E-02  0.9307351E-01
       -1   -1    0    0    0  501  0.00000000000E+00  0.00000000000E+00  0.40288251746E+03  0.40288251749E+03  0.50400001928E-02 0.  1.
        1   -1    0    0  501    0  0.00000000000E+00  0.00000000000E+00 -0.62188056549E+03  0.62188056551E+03  0.50400001928E-02 0. -1.
    10030    2    1    2    0    0  0.00000000000E+00  0.00000000000E+00 -0.21899804804E+03  0.10247630830E+04  0.10010890226E+04 0.  0.
        4    1    3    3  502    0 -0.40818750439E+03  0.28751731642E+03 -0.14583419790E+03  0.52014658719E+03  0.12699999809E+01 0. -1.
       -4    1    3    3    0  502  0.40818750439E+03 -0.28751731642E+03 -0.73163850133E+02  0.50461649582E+03  0.12699999809E+01 0.  1.
</event>
<event>
 5   0  0.9650500E-05  0.1000686E+04  0.7818609E-02  0.9307793E-01
        3   -1    0    0  501    0  0.00000000000E+00  0.00000000000E+00  0.52554592910E+03  0.52554593880E+03  0.10100000352E+00 0.  1.
       -3   -1    0    0    0  501  0.00000000000E+00  0.00000000000E+00 -0.47634858330E+03  0.47634859401E+03  0.10100000352E+00 0. -1.
    10030    2    1    2    0    0  0.00000000000E+00  0.00000000000E+00  0.49197345795E+02  0.10018945328E+04  0.10006859028E+04 0.  0.
        4    1    3    3  502    0  0.30210566740E+03  0.16314362573E+03  0.38898574440E+03  0.51884024433E+03  0.12699999809E+01 0.  1.
       -4    1    3    3    0  502 -0.30210566740E+03 -0.16314362573E+03 -0.33978839860E+03  0.48305428848E+03  0.12699999809E+01 0. -1.
</event>
<event>
 5   0  0.1453863E-04  0.9999992E+03  0.7818609E-02  0.9308546E-01
        1   -1    0    0  501    0  0.00000000000E+00  0.00000000000E+00  0.21903733354E+03  0.21903733360E+03  0.50400001928E-02 0.  1.
       -1   -1    0    0    0  501  0.00000000000E+00  0.00000000000E+00 -0.11413561923E+04  0.11413561923E+04  0.50400001928E-02 0. -1.
    10030    2    1    2    0    0  0.00000000000E+00  0.00000000000E+00 -0.92231885875E+03  0.13603935259E+04  0.99999923404E+03 0.  0.
        1    1    3    3  502    0 -0.30120271911E+03 -0.11266003112E+03 -0.98200449393E+03  0.10333190150E+04  0.50400001928E-02 0. -1.
       -1    1    3    3    0  502  0.30120271911E+03  0.11266003112E+03  0.59685635178E+02  0.32707451091E+03  0.50400001928E-02 0.  1.
</event>
<event>
 5   0  0.2484904E-04  0.1001818E+04  0.7818609E-02  0.9306553E-01
        2   -1    0    0  501    0  0.00000000000E+00  0.00000000000E+00  0.24518038715E+03  0.24518038717E+03  0.25500000920E-02 0.  1.
       -2   -1    0    0    0  501  0.00000000000E+00  0.00000000000E+00 -0.10233691240E+04  0.10233691240E+04  0.25500000920E-02 0. -1.
    10030    2    1    2    0    0  0.00000000000E+00  0.00000000000E+00 -0.77818873684E+03  0.12685495112E+04  0.10018184227E+04 0.  0.
        3    1    3    3  502    0  0.17386716662E+03 -0.25934242874E+03 -0.88507173877E+03  0.93853091582E+03  0.10100000352E+00 0. -1.
       -3    1    3    3    0  502 -0.17386716662E+03  0.25934242874E+03  0.10688300193E+03  0.33001859535E+03  0.10100000352E+00 0.  1.
</event>
<event>
 5   0  0.1461334E-04  0.1000324E+04  0.7818609E-02  0.9308190E-01
       -1   -1    0    0    0  501  0.00000000000E+00  0.00000000000E+00  0.32736494641E+03  0.32736494645E+03  0.50400001928E-02 0. -1.
        1   -1    0    0  501    0  0.00000000000E+00  0.00000000000E+00 -0.76416862797E+03  0.76416862798E+03  0.50400001928E-02 0.  1.
    10030    2    1    2    0    0  0.00000000000E+00  0.00000000000E+00 -0.43680368155E+03  0.10915335744E+04  0.10003239915E+04 0.  0.
        2    1    3    3  502    0 -0.64019535518E+02 -0.39214497973E+03  0.11308320349E+03  0.41311499243E+03  0.25500000920E-02 0.  1.
       -2    1    3    3    0  502  0.64019535518E+02  0.39214497973E+03 -0.54988688504E+03  0.67841858200E+03  0.25500000920E-02 0. -1.
</event>
<event>
 5   0  0.2403037E-04  0.1000394E+04  0.7818609E-02  0.9308112E-01
        2   -1    0    0  501    0  0.00000000000E+00  0.00000000000E+00  0.49849805986E+03  0.49849805987E+03  0.25500000920E-02 0. -1.
       -2   -1    0    0    0  501  0.00000000000E+00  0.00000000000E+00 -0.50190204771E+03  0.50190204772E+03  0.25500000920E-02 0.  1.
    10030    2    1    2    0    0  0.00000000000E+00  0.00000000000E+00 -0.34039878489E+01  0.10004001076E+04  0.10003943163E+04 0.  0.
        1    1    3    3  502    0  0.86980126715E+02 -0.10856718336E+03  0.47876391952E+03  0.49856520778E+03  0.50400001928E-02 0. -1.
       -1    1    3    3    0  502 -0.86980126715E+02  0.10856718336E+03 -0.48216790737E+03  0.50183489981E+03  0.50400001928E-02 0.  1.
</event>
<event>
 5   0  0.1461334E-04  0.1000054E+04  0.7818609E-02  0.9308486E-01
        1   -1    0    0  501    0  0.00000000000E+00  0.00000000000E+00  0.58936238053E+03  0.58936238055E+03  0.50400001928E-02 0.  1.
       -1   -1    0    0    0  501  0.00000000000E+00  0.00000000000E+00 -0.42423292492E+03  0.42423292495E+03  0.50400001928E-02 0. -1.
    10030    2    1    2    0    0  0.00000000000E+00  0.00000000000E+00  0.16512945560E+03  0.10135953055E+04  0.10000538517E+04 0.  0.
        2    1    3    3  502    0 -0.24217773991E+02  0.48206014542E+03 -0.49811770088E+02  0.48523159092E+03  0.25500000920E-02 0. -1.
       -2    1    3    3    0  502  0.24217773991E+02 -0.48206014542E+03  0.21494122569E+03  0.52836371458E+03  0.25500000920E-02 0.  1.
</event>
<event>
 5   0  0.1506454E-04  0.1000178E+04  0.7818609E-02  0.9308349E-01
        1   -1    0    0  501    0  0.00000000000E+00  0.00000000000E+00  0.12689416684E+04  0.12689416684E+04  0.50400001928E-02 0. -1.
       -1   -1    0    0    0  501  0.00000000000E+00  0.00000000000E+00 -0.19708484984E+03  0.19708484990E+03  0.50400001928E-02 0.  1.
    10030    2    1    2    0    0  0.00000000000E+00  0.00000000000E+00  0.10718568185E+04  0.14660265183E+04  0.10001783405E+04 0.  0.
        3    1    3    3  502    0  0.38119022839E+03 -0.20165526794E+03  0.16477326500E+03  0.46165038326E+03  0.10100000352E+00 0.  1.
       -3    1    3    3    0  502 -0.38119022839E+03  0.20165526794E+03  0.90708355353E+03  0.10043761350E+04  0.10100000352E+00 0. -1.
</event>
<event>
 5   0  0.2353916E-04  0.9997561E+03  0.7818609E-02  0.9308812E-01
        2   -1    0    0  501    0  0.00000000000E+00  0.00000000000E+00  0.15389425754E+04  0.15389425754E+04  0.25500000920E-02 0.  1.
       -2   -1    0    0    0  501  0.00000000000E+00  0.00000000000E+00 -0.16236998064E+03  0.16236998066E+03  0.25500000920E-02 0. -1.
    10030    2    1    2    0    0  0.00000000000E+00  0.00000000000E+00  0.13765725948E+04  0.17013125561E+04  0.99975612266E+03 0.  0.
        4    1    3    3  502    0  0.32628577006E+03 -0.25891328450E+03  0.21798725734E+03  0.47012610000E+03  0.12699999809E+01 0.  1.
       -4    1    3    3    0  502 -0.32628577006E+03  0.25891328450E+03  0.11585853374E+04  0.12311864561E+04  0.12699999809E+01 0. -1.
</event>
<event>
 5   0  0.1414165E-04  0.1000653E+04  0.7818609E-02  0.9307828E-01
        1   -1    0    0  501    0  0.00000000000E+00  0.00000000000E+00  0.71796788664E+03  0.71796788666E+03  0.50400001928E-02 0. -1.
       -1   -1    0    0    0  501  0.00000000000E+00  0.00000000000E+00 -0.34866017930E+03  0.34866017933E+03  0.50400001928E-02 0.  1.
    10030    2    1    2    0    0  0.00000000000E+00  0.00000000000E+00  0.36930770734E+03  0.10666280660E+04  0.10006534108E+04 0.  0.
        4    1    3    3  502    0 -0.14205480885E+03  0.13715421404E+03  0.67467449609E+03  0.70297804782E+03  0.12699999809E+01 0. -1.
       -4    1    3    3    0  502  0.14205480885E+03 -0.13715421404E+03 -0.30536678875E+03  0.36365001817E+03  0.12699999809E+01 0.  1.
</event>
<event>
 5   0  0.2503680E-04  0.1000250E+04  0.7818609E-02  0.9308271E-01
       -2   -1    0    0    0  501  0.00000000000E+00  0.00000000000E+00  0.84486397308E+03  0.84486397309E+03  0.25500000920E-02 0. -1.
        2   -1    0    0  501    0  0.00000000000E+00  0.00000000000E+00 -0.29605353115E+03  0.29605353116E+03  0.25500000920E-02 0.  1.
    10030    2    1    2    0    0  0.00000000000E+00  0.00000000000E+00  0.54881044194E+03  0.11409175042E+04  0.10002498939E+04 0.  0.
        2    1    3    3  502    0 -0.46241864992E+03 -0.85011491029E+02  0.79938252835E+02  0.47691517660E+03  0.25500000920E-02 0. -1.
       -2    1    3    3    0  502  0.46241864992E+03  0.85011491029E+02  0.46887218910E+03  0.66400232765E+03  0.25500000920E-02 0.  1.
</event>
<event>
 5   0  0.1506454E-04  0.1000022E+04  0.7818609E-02  0.9308521E-01
        1   -1    0    0  501    0  0.00000000000E+00  0.00000000000E+00  0.50526569182E+03  0.50526569184E+03  0.50400001928E-02 0.  1.
       -1   -1    0    0    0  501  0.00000000000E+00  0.00000000000E+00 -0.49481108391E+03  0.49481108393E+03  0.50400001928E-02 0. -1.
    10030    2    1    2    0    0  0.00000000000E+00  0.00000000000E+00  0.10454607909E+02  0.10000767758E+04  0.10000221291E+04 0.  0.
        3    1    3    3  502    0 -0.36494146847E+03 -0.12090842431E+03  0.32494765506E+03  0.50338068219E+03  0.10100000352E+00 0.  1.
       -3    1    3    3    0  502  0.36494146847E+03  0.12090842431E+03 -0.31449304715E+03  0.49669609358E+03  0.10100000352E+00 0. -1.
</event>
<event>
 5   0  0.2484904E-04  0.9998469E+03  0.7818609E-02  0.9308713E-01
        2   -1    0    0  501    0  0.00000000000E+00  0.00000000000E+00  0.11905016304E+04  0.11905016304E+04  0.25500000920E-02 0. -1.
       -2   -1    0    0    0  501  0.00000000000E+00  0.00000000000E+00 -0.20993119921E+03  0.20993119923E+03  0.25500000920E-02 0.  1.
    10030    2    1    2    0    0  0.00000000000E+00  0.00000000000E+00  0.98057043123E+03  0.14004328297E+04  0.99984685819E+03 0.  0.
        3    1    3    3  502    0  0.22677031702E+03  0.37932868584E+03  0.16297579319E+03  0.47103731057E+03  0.10100000352E+00 0.  1.
       -3    1    3    3    0  502 -0.22677031702E+03 -0.37932868584E+03  0.81759463804E+03  0.92939551911E+03  0.10100000352E+00 0. -1.
</event>
<event>
 5   0  0.1461334E-04  0.9988634E+03  0.7818609E-02  0.9309792E-01
       -1   -1    0    0    0  501  0.00000000000E+00  0.00000000000E+00  0.12037326653E+03  0.12037326663E+03  0.50400001928E-02 0. -1.
        1   -1    0    0  501    0  0.00000000000E+00  0.00000000000E+00 -0.20721545565E+04  0.20721545565E+04  0.50400001928E-02 0.  1.
    10030    2    1    2    0    0  0.00000000000E+00  0.00000000000E+00 -0.19517812900E+04  0.21925278232E+04  0.99886337973E+03 0.  0.
        2    1    3    3  502    0  0.15857606291E+03  0.46911698630E+03 -0.11183964549E+04  0.12231221300E+04  0.25500000920E-02 0.  1.
       -2    1    3    3    0  502 -0.15857606291E+03 -0.46911698630E+03 -0.83338483510E+03  0.96940569317E+03  0.25500000920E-02 0. -1.
</event>
<event>
 5   0  0.2503680E-04  0.1000690E+04  0.7818609E-02  0.9307788E-01
        2   -1    0    0  501    0  0.00000000000E+00  0.00000000000E+00  0.23266258873E+04  0.23266258873E+04  0.25500000920E-02 0.  1.
       -2   -1    0    0    0  501  0.00000000000E+00  0.00000000000E+00 -0.10760004881E+03  0.10760004884E+03  0.25500000920E-02 0. -1.
    10030    2    1    2    0    0  0.00000000000E+00  0.00000000000E+00  0.22190258385E+04  0.24342259362E+04  0.10006898802E+04 0.  0.
        2    1    3    3  502    0 -0.68960057005E+02 -0.36958976444E+03  0.19125962884E+04  0.19491989754E+04  0.25500000920E-02 0.  1.
       -2    1    3    3    0  502  0.68960057005E+02  0.36958976444E+03  0.30642955014E+03  0.48502696074E+03  0.25500000920E-02 0. -1.
</event>
<event>
 5   0  0.2403037E-04  0.9999287E+03  0.7818609E-02  0.9308623E-01
        2   -1    0    0  501    0  0.00000000000E+00  0.00000000000E+00  0.16350073198E+04  0.16350073198E+04  0.25500000920E-02 0. -1.
       -2   -1    0    0    0  501  0.00000000000E+00  0.00000000000E+00 -0.15288270401E+03  0.15288270403E+03  0.25500000920E-02 0.  1.
    10030    2    1    2    0    0  0.00000000000E+00  0.00000000000E+00  0.14821246157E+04  0.17878900238E+04  0.99992867774E+03 0.  0.
        1    1    3    3  502    0 -0.49288607187E+03 -0.37170885626E+02  0.60671107452E+03  0.78257056075E+03  0.50400001928E-02 0.  1.
       -1    1    3    3    0  502  0.49288607187E+03  0.37170885626E+02  0.87541354123E+03  0.10053194630E+04  0.50400001928E-02 0. -1.
</event>
<event>
 5   0  0.1453863E-04  0.9996760E+03  0.7818609E-02  0.9308900E-01
        1   -1    0    0  501    0  0.00000000000E+00  0.00000000000E+00  0.62073282019E+03  0.62073282021E+03  0.50400001928E-02 0. -1.
       -1   -1    0    0    0  501  0.00000000000E+00  0.00000000000E+00 -0.40248885523E+03  0.40248885527E+03  0.50400001928E-02 0.  1.
    10030    2    1    2    0    0  0.00000000000E+00  0.00000000000E+00  0.21824396495E+03  0.10232216755E+04  0.99967603198E+03 0.  0.
        1    1    3    3  502    0 -0.41747357452E+03  0.26586168458E+03  0.18056146564E+03  0.52684823588E+03  0.50400001928E-02 0.  1.
       -1    1    3    3    0  502  0.41747357452E+03 -0.26586168458E+03  0.37682499308E+02  0.49637343959E+03  0.50400001928E-02 0. -1.
</event>
<event>
 5   0  0.1461334E-04  0.9999701E+03  0.7818609E-02  0.9308578E-01
        1   -1    0    0  501    0  0.00000000000E+00  0.00000000000E+00  0.69674907559E+03  0.69674907561E+03  0.50400001928E-02 0.  1.
       -1   -1    0    0    0  501  0.00000000000E+00  0.00000000000E+00 -0.35878775073E+03  0.35878775077E+03  0.50400001928E-02 0. -1.
    10030    2    1    2    0    0  0.00000000000E+00  0.00000000000E+00  0.33796132486E+03  0.10555368264E+04  0.99997006692E+03 0.  0.
        2    1    3    3  502    0  0.41723495518E+03  0.14097859556E+01 -0.12182420110E+03  0.43465863767E+03  0.25500000920E-02 0. -1.
       -2    1    3    3    0  502 -0.41723495518E+03 -0.14097859556E+01  0.45978552595E+03  0.62087818870E+03  0.25500000920E-02 0.  1.
</event>
<event>
 5   0  0.2503680E-04  0.1000165E+04  0.7818609E-02  0.9308364E-01
       -2   -1    0    0    0  501  0.00000000000E+00  0.00000000000E+00  0.21698858709E+03  0.21698858710E+03  0.25500000920E-02 0.  1.
        2   -1    0    0  501    0  0.00000000000E+00  0.00000000000E+00 -0.11525139914E+04  0.11525139914E+04  0.25500000920E-02 0. -1.
    10030    2    1    2    0    0  0.00000000000E+00  0.00000000000E+00 -0.93552540435E+03  0.13695025785E+04  0.10001647517E+04 0.  0.
        2    1    3    3  502    0 -0.35722182497E+03  0.41033239564E+01 -0.94692770555E+03  0.10120752685E+04  0.25500000920E-02 0. -1.
       -2    1    3    3    0  502  0.35722182497E+03 -0.41033239564E+01  0.11402301200E+02  0.35742731007E+03  0.25500000920E-02 0.  1.
</event>
<event>
 5   0  0.2353916E-04  0.9998634E+03  0.7818609E-02  0.9308695E-01
        2   -1    0    0  501    0  0.00000000000E+00  0.00000000000E+00  0.45429187997E+03  0.45429187998E+03  0.25500000920E-02 0. -1.
       -2   -1    0    0    0  501  0.00000000000E+00  0.00000000000E+00 -0.55015667019E+03  0.55015667019E+03  0.25500000920E-02 0.  1.
    10030    2    1    2    0    0  0.00000000000E+00  0.00000000000E+00 -0.95864790216E+02  0.10044485502E+04  0.99986340664E+03 0.  0.
        4    1    3    3  502    0 -0.73987531912E+02 -0.48815091390E+03 -0.12680757631E+03  0.50975213970E+03  0.12699999809E+01 0.  1.
       -4    1    3    3    0  502  0.73987531912E+02  0.48815091390E+03  0.30942786097E+02  0.49469641047E+03  0.12699999809E+01 0. -1.
</event>
<event>
 5   0  0.2484904E-04  0.1001632E+04  0.7818609E-02  0.9306757E-01
       -2   -1    0    0    0  501  0.00000000000E+00  0.00000000000E+00  0.55424742985E+03  0.55424742985E+03  0.25500000920E-02 0.  1.
        2   -1    0    0  501    0  0.00000000000E+00  0.00000000000E+00 -0.45253518306E+03  0.45253518307E+03  0.25500000920E-02 0. -1.
    10030    2    1    2    0    0  0.00000000000E+00  0.00000000000E+00  0.10171224678E+03  0.10067826129E+04  0.10016315932E+04 0.  0.
        3    1    3    3  502    0  0.21952497161E+03 -0.12158600076E+03 -0.38478025627E+03  0.45938026139E+03  0.10100000352E+00 0. -1.
       -3    1    3    3    0  502 -0.21952497161E+03  0.12158600076E+03  0.48649250305E+03  0.54740235153E+03  0.10100000352E+00 0.  1.
</event>
<event>
 5   0  0.2473312E-04  0.1000832E+04  0.7818609E-02  0.9307633E-01
        2   -1    0    0  501    0  0.00000000000E+00  0.00000000000E+00  0.76296995176E+03  0.76296995176E+03  0.25500000920E-02 0. -1.
       -2   -1    0    0    0  501  0.00000000000E+00  0.00000000000E+00 -0.32821206262E+03  0.32821206263E+03  0.25500000920E-02 0.  1.
    10030    2    1    2    0    0  0.00000000000E+00  0.00000000000E+00  0.43475788914E+03  0.10911820144E+04  0.10008315375E+04 0.  0.
        5    1    3    3  502    0 -0.12997224584E+03 -0.20798022561E+03 -0.25816776034E+03  0.35611970095E+03  0.46999998093E+01 0.  1.
       -5    1    3    3    0  502  0.12997224584E+03  0.20798022561E+03  0.69292564948E+03  0.73506231344E+03  0.46999998093E+01 0. -1.
</event>
<event>
 5   0  0.1414165E-04  0.9998876E+03  0.7818609E-02  0.9308668E-01
       -1   -1    0    0    0  501  0.00000000000E+00  0.00000000000E+00  0.22884342971E+03  0.22884342977E+03  0.50400001928E-02 0.  1.
        1   -1    0    0  501    0  0.00000000000E+00  0.00000000000E+00 -0.10922043699E+04  0.10922043699E+04  0.50400001928E-02 0. -1.
    10030    2    1    2    0    0  0.00000000000E+00  0.00000000000E+00 -0.86336094015E+03  0.13210477996E+04  0.99988758166E+03 0.  0.
        4    1    3    3  502    0  0.16690727438E+03 -0.25389159481E+03  0.92858100951E+02  0.31771562752E+03  0.12699999809E+01 0.  1.
       -4    1    3    3    0  502 -0.16690727438E+03  0.25389159481E+03 -0.95621904110E+03  0.10033321721E+04  0.12699999809E+01 0. -1.
</event>
<event>
 5   0  0.1506454E-04  0.9999351E+03  0.7818609E-02  0.9308616E-01
        1   -1    0    0  501    0  0.00000000000E+00  0.00000000000E+00  0.18807197932E+04  0.18807197932E+04  0.50400001928E-02 0.  1.
       -1   -1    0    0    0  501  0.00000000000E+00  0.00000000000E+00 -0.13291056854E+03  0.13291056863E+03  0.50400001928E-02 0. -1.
    10030    2    1    2    0    0  0.00000000000E+00  0.00000000000E+00  0.17478092247E+04  0.20136303619E+04  0.99993507205E+03 0.  0.
        3    1    3    3  502    0 -0.24622612677E+03 -0.21344966840E+03  0.11032139514E+03  0.34403326419E+03  0.10100000352E+00 0. -1.
       -3    1    3    3    0  502  0.24622612677E+03  0.21344966840E+03  0.16374878295E+04  0.16695970977E+04  0.10100000352E+00 0.  1.
</event>
<event>
 5   0  0.1414165E-04  0.9997972E+03  0.7818609E-02  0.9308767E-01
        1   -1    0    0  501    0  0.00000000000E+00  0.00000000000E+00  0.78850265963E+03  0.78850265964E+03  0.50400001928E-02 0. -1.
       -1   -1    0    0    0  501  0.00000000000E+00  0.00000000000E+00 -0.31692804407E+03  0.31692804411E+03  0.50400001928E-02 0.  1.
    10030    2    1    2    0    0  0.00000000000E+00  0.00000000000E+00  0.47157461556E+03  0.11054307037E+04  0.99979719081E+03 0.  0.
        4    1    3    3  502    0 -0.31000732738E+03 -0.14222866719E+03 -0.16828904444E+03  0.38033715593E+03  0.12699999809E+01 0.  1.
       -4    1    3    3    0  502  0.31000732738E+03  0.14222866719E+03  0.63986366000E+03  0.72509354782E+03  0.12699999809E+01 0. -1.
</event>
<event>
 5   0  0.2353916E-04  0.1000152E+04  0.7818609E-02  0.9308378E-01
        2   -1    0    0  501    0  0.00000000000E+00  0.00000000000E+00  0.78504431591E+03  0.78504431591E+03  0.25500000920E-02 0.  1.
       -2   -1    0    0    0  501  0.00000000000E+00  0.00000000000E+00 -0.31855032332E+03  0.31855032333E+03  0.25500000920E-02 0. -1.
    10030    2    1    2    0    0  0.00000000000E+00  0.00000000000E+00  0.46649399259E+03  0.11035946392E+04  0.10001522297E+04 0.  0.
        4    1    3    3  502    0 -0.28474640572E+03 -0.16669380201E+03 -0.18139362551E+03  0.37652702356E+03  0.12699999809E+01 0. -1.
       -4    1    3    3    0  502  0.28474640572E+03  0.16669380201E+03  0.64788761810E+03  0.72706761569E+03  0.12699999809E+01 0.  1.
</event>
<event>
 5   0  0.2353916E-04  0.1000155E+04  0.7818609E-02  0.9308374E-01
       -2   -1    0    0    0  501  0.00000000000E+00  0.00000000000E+00  0.20896642659E+03  0.20896642660E+03  0.25500000920E-02 0. -1.
        2   -1    0    0  501    0  0.00000000000E+00  0.00000000000E+00 -0.11967364372E+04  0.11967364372E+04  0.25500000920E-02 0.  1.
    10030    2    1    2    0    0  0.00000000000E+00  0.00000000000E+00 -0.98777001057E+03  0.14057028638E+04  0.10001554616E+04 0.  0.
        4    1    3    3  502    0 -0.25484707800E+03  0.34198172900E+03 -0.12690125505E+03  0.44497649103E+03  0.12699999809E+01 0.  1.
       -4    1    3    3    0  502  0.25484707800E+03 -0.34198172900E+03 -0.86086875552E+03  0.96072637273E+03  0.12699999809E+01 0. -1.
</event>
<event>
 5   0  0.1430675E-04  0.9996590E+03  0.7818609E-02  0.9308919E-01
        1   -1    0    0  501    0  0.00000000000E+00  0.00000000000E+00  0.49086478290E+03  0.49086478292E+03  0.50400001928E-02 0.  1.
       -1   -1    0    0    0  501  0.00000000000E+00  0.00000000000E+00 -0.50895789070E+03  0.50895789072E+03  0.50400001928E-02 0. -1.
    10030    2    1    2    0    0  0.00000000000E+00  0.00000000000E+00 -0.18093107800E+02  0.99982267364E+03  0.99965895093E+03 0.  0.
        5    1    3    3  502    0  0.59444142362E+02 -0.43023043173E+03  0.23833093951E+03  0.49543471534E+03  0.46999998093E+01 0.  1.
       -5    1    3    3    0  502 -0.59444142362E+02  0.43023043173E+03 -0.25642404731E+03  0.50438795830E+03  0.46999998093E+01 0. -1.
</event>
<event>
 5   0  0.2503680E-04  0.1000116E+04  0.7818609E-02  0.9308418E-01
       -2   -1    0    0    0  501  0.00000000000E+00  0.00000000000E+00  0.18684578825E+03  0.18684578827E+03  0.25500000920E-02 0.  1.
        2   -1    0    0  501    0  0.00000000000E+00  0.00000000000E+00 -0.13383119958E+04  0.13383119958E+04  0.25500000920E-02 0. -1.
    10030    2    1    2    0    0  0.00000000000E+00  0.00000000000E+00 -0.11514662075E+04  0.15251577841E+04  0.10001159129E+04 0.  0.
        2    1    3    3  502    0 -0.10094888331E+03  0.89039955435E+02  0.15869871937E+03  0.20809631002E+03  0.25500000920E-02 0.  1.
       -2    1    3    3    0  502  0.10094888331E+03 -0.89039955435E+02 -0.13101649269E+04  0.13170614740E+04  0.25500000920E-02 0. -1.
</event>
<event>
 5   0  0.1461334E-04  0.9998287E+03  0.7818609E-02  0.9308733E-01
        1   -1    0    0  501    0  0.00000000000E+00  0.00000000000E+00  0.15571549333E+04  0.15571549333E+04  0.50400001928E-02 0. -1.
       -1   -1    0    0    0  501  0.00000000000E+00  0.00000000000E+00 -0.16049422131E+03  0.16049422139E+03  0.50400001928E-02 0.  1.
    10030    2    1    2    0    0  0.00000000000E+00  0.00000000000E+00  0.13966607120E+04  0.17176491547E+04  0.99982872243E+03 0.  0.
        2    1    3    3  502    0  0.27871696014E+03 -0.41219258682E+03  0.78122884287E+03  0.92623127643E+03  0.25500000920E-02 0. -1.
       -2    1    3    3    0  502 -0.27871696014E+03  0.41219258682E+03  0.61543186909E+03  0.79141787823E+03  0.25500000920E-02 0.  1.
</event>
<event>
 5   0  0.1506454E-04  0.9998863E+03  0.7818609E-02  0.9308670E-01
       -1   -1    0    0    0  501  0.00000000000E+00  0.00000000000E+00  0.22805487092E+03  0.22805487097E+03  0.50400001928E-02 0. -1.
        1   -1    0    0  501    0  0.00000000000E+00  0.00000000000E+00 -0.10959781015E+04  0.10959781015E+04  0.50400001928E-02 0.  1.
    10030    2    1    2    0    0  0.00000000000E+00  0.00000000000E+00 -0.86792323055E+03  0.13240329725E+04  0.99988628254E+03 0.  0.
        3    1    3    3  502    0  0.22656853651E+03  0.24166054355E+03  0.61873986870E+02  0.33698890263E+03  0.10100000352E+00 0. -1.
       -3    1    3    3    0  502 -0.22656853651E+03 -0.24166054355E+03 -0.92979721742E+03  0.98704406982E+03  0.10100000352E+00 0.  1.
</event>
<event>
 5   0  0.2473312E-04  0.9997607E+03  0.7818609E-02  0.9308807E-01
        2   -1    0    0  501    0  0.00000000000E+00  0.00000000000E+00  0.35438448722E+03  0.35438448722E+03  0.25500000920E-02 0. -1.
       -2   -1    0    0    0  501  0.00000000000E+00  0.00000000000E+00 -0.70511087274E+03  0.70511087274E+03  0.25500000920E-02 0.  1.
    10030    2    1    2    0    0  0.00000000000E+00  0.00000000000E+00 -0.35072638552E+03  0.10594953600E+04  0.99976068151E+03 0.  0.
        5    1    3    3  502    0  0.22919994523E+03  0.44274782910E+03 -0.21357313257E+03  0.54239637538E+03  0.46999998093E+01 0.  1.
       -5    1    3    3    0  502 -0.22919994523E+03 -0.44274782910E+03 -0.13715325295E+03  0.51709898459E+03  0.46999998093E+01 0. -1.
</event>
<event>
 5   0  0.2403037E-04  0.9993797E+03  0.7818609E-02  0.9309225E-01
       -2   -1    0    0    0  501  0.00000000000E+00  0.00000000000E+00  0.56606935325E+03  0.56606935326E+03  0.25500000920E-02 0. -1.
        2   -1    0    0  501    0  0.00000000000E+00  0.00000000000E+00 -0.44109428319E+03  0.44109428319E+03  0.25500000920E-02 0.  1.
    10030    2    1    2    0    0  0.00000000000E+00  0.00000000000E+00  0.12497507007E+03  0.10071636365E+04  0.99937971885E+03 0.  0.
        1    1    3    3  502    0 -0.25026761862E+03 -0.27371353114E+03 -0.27498926977E+03  0.46170561678E+03  0.50400001928E-02 0.  1.
       -1    1    3    3    0  502  0.25026761862E+03  0.27371353114E+03  0.39996433983E+03  0.54545801967E+03  0.50400001928E-02 0. -1.
</event>
<event>
 5   0  0.1414165E-04  0.9999009E+03  0.7818609E-02  0.9308653E-01
        1   -1    0    0  501    0  0.00000000000E+00  0.00000000000E+00  0.66599388051E+03  0.66599388053E+03  0.50400001928E-02 0.  1.
       -1   -1    0    0    0  501  0.00000000000E+00  0.00000000000E+00 -0.37530443432E+03  0.37530443435E+03  0.50400001928E-02 0. -1.
    10030    2    1    2    0    0  0.00000000000E+00  0.00000000000E+00  0.29068944619E+03  0.10412983149E+04  0.99990090832E+03 0.  0.
        4    1    3    3  502    0  0.34566713568E+02 -0.16040179641E+03  0.63715230516E+03  0.65794244950E+03  0.12699999809E+01 0.  1.
       -4    1    3    3    0  502 -0.34566713568E+02  0.16040179641E+03 -0.34646285897E+03  0.38335586539E+03  0.12699999809E+01 0. -1.
</event>
<event>
 5   0  0.1414165E-04  0.9992426E+03  0.7818609E-02  0.9309376E-01
       -1   -1    0    0    0  501  0.00000000000E+00  0.00000000000E+00  0.14793310500E+03  0.14793310509E+03  0.50400001928E-02 0. -1.
        1   -1    0    0  501    0  0.00000000000E+00  0.00000000000E+00 -0.16873940670E+04  0.16873940670E+04  0.50400001928E-02 0.  1.
    10030    2    1    2    0    0  0.00000000000E+00  0.00000000000E+00 -0.15394609620E+04  0.18353271721E+04  0.99924260072E+03 0.  0.
        4    1    3    3  502    0 -0.30963578251E+03  0.16340515739E+03 -0.14243969390E+04  0.14667937196E+04  0.12699999809E+01 0.  1.
       -4    1    3    3    0  502  0.30963578251E+03 -0.16340515739E+03 -0.11506402298E+03  0.36853345243E+03  0.12699999809E+01 0. -1.
</event>
<event>
 5   0  0.1506454E-04  0.1000799E+04  0.7818609E-02  0.9307669E-01
       -1   -1    0    0    0  501  0.00000000000E+00  0.00000000000E+00  0.14661746262E+03  0.14661746270E+03  0.50400001928E-02 0. -1.
        1   -1    0    0  501    0  0.00000000000E+00  0.00000000000E+00 -0.17078420345E+04  0.17078420345E+04  0.50400001928E-02 0.  1.
    10030    2    1    2    0    0  0.00000000000E+00  0.00000000000E+00 -0.15612245719E+04  0.18544594972E+04  0.10007986126E+04 0.  0.
        3    1    3    3  502    0  0.24442180829E+03  0.14289650587E+03 -0.15451500505E+04  0.15708755904E+04  0.10100000352E+00 0.  1.
       -3    1    3    3    0  502 -0.24442180829E+03 -0.14289650587E+03 -0.16074521372E+02  0.28358390680E+03  0.10100000352E+00 0. -1.
</event>
<event>
 5   0  0.2353916E-04  0.1000363E+04  0.7818609E-02  0.9308147E-01
       -2   -1    0    0    0  501  0.00000000000E+00  0.00000000000E+00  0.29567472678E+03  0.29567472679E+03  0.25500000920E-02 0. -1.
        2   -1    0    0  501    0  0.00000000000E+00  0.00000000000E+00 -0.84613771271E+03  0.84613771272E+03  0.25500000920E-02 0.  1.
    10030    2    1    2    0    0  0.00000000000E+00  0.00000000000E+00 -0.55046298593E+03  0.11418124395E+04  0.10003630082E+04 0.  0.
        4    1    3    3  502    0  0.49514346443E+03 -0.62432575837E+01 -0.35572956418E+03  0.60971400211E+03  0.12699999809E+01 0.  1.
       -4    1    3    3    0  502 -0.49514346443E+03  0.62432575837E+01 -0.19473342174E+03  0.53209843740E+03  0.12699999809E+01 0. -1.
</event>
<event>
 5   0  0.1430675E-04  0.1000651E+04  0.7818609E-02  0.9307831E-01
       -1   -1    0    0    0  501  0.00000000000E+00  0.00000000000E+00  0.22291970940E+03  0.22291970945E+03  0.50400001928E-02 0.  1.
        1   -1    0    0  501    0  0.00000000000E+00  0.00000000000E+00 -0.11229401232E+04  0.11229401232E+04  0.50400001928E-02 0. -1.
    10030    2    1    2    0    0  0.00000000000E+00  0.00000000000E+00 -0.90002041381E+03  0.13458598327E+04  0.10006507602E+04 0.  0.
        5    1    3    3  502    0  0.12057029207E+03 -0.47423161474E+03 -0.30977935090E+03  0.57915296425E+03  0.46999998093E+01 0.  1.
       -5    1    3    3    0  502 -0.12057029207E+03  0.47423161474E+03 -0.59024106291E+03  0.76670686842E+03  0.46999998093E+01 0. -1.
</event>
<event>
 5   0  0.2484904E-04  0.1002082E+04  0.7818609E-02  0.9306265E-01
       -2   -1    0    0    0  501  0.00000000000E+00  0.00000000000E+00  0.20917633246E+03  0.20917633248E+03  0.25500000920E-02 0. -1.
        2   -1    0    0  501    0  0.00000000000E+00  0.00000000000E+00 -0.12001447966E+04  0.12001447966E+04  0.25500000920E-02 0.  1.
    10030    2    1    2    0    0  0.00000000000E+00  0.00000000000E+00 -0.99096846412E+03  0.14093211291E+04  0.10020816074E+04 0.  0.
        3    1    3    3  502    0  0.33131716811E+03 -0.25834032527E+03 -0.11153341121E+03  0.43468437004E+03  0.10100000352E+00 0. -1.
       -3    1    3    3    0  502 -0.33131716811E+03  0.25834032527E+03 -0.87943505291E+03  0.97463675901E+03  0.10100000352E+00 0.  1.
</event>
<event>
 5   0  0.2484904E-04  0.9999524E+03  0.7818609E-02  0.9308597E-01
        2   -1    0    0  501    0  0.00000000000E+00  0.00000000000E+00  0.34589749342E+03  0.34589749343E+03  0.25500000920E-02 0.  1.
       -2   -1    0    0    0  501  0.00000000000E+00  0.00000000000E+00 -0.72268864903E+03  0.72268864904E+03  0.25500000920E-02 0. -1.
    10030    2    1    2    0    0  0.00000000000E+00  0.00000000000E+00 -0.37679115562E+03  0.10685861425E+04  0.99995238332E+03 0.  0.
        3    1    3    3  502    0  0.29161774686E+03 -0.10428689545E+03  0.23104890039E+03  0.38639393294E+03  0.10100000352E+00 0.  1.
       -3    1    3    3    0  502 -0.29161774686E+03  0.10428689545E+03 -0.60784005600E+03  0.68219220952E+03  0.10100000352E+00 0. -1.
</event>
<event>
 5   0  0.1430675E-04  0.9997729E+03  0.7818609E-02  0.9308794E-01
        1   -1    0    0  501    0  0.00000000000E+00  0.00000000000E+00  0.28155328766E+03  0.28155328770E+03  0.50400001928E-02 0. -1.
       -1   -1    0    0    0  501  0.00000000000E+00  0.00000000000E+00 -0.88752815282E+03  0.88752815284E+03  0.50400001928E-02 0.  1.
    10030    2    1    2    0    0  0.00000000000E+00  0.00000000000E+00 -0.60597486517E+03  0.11690814405E+04  0.99977291292E+03 0.  0.
        5    1    3    3  502    0  0.36037123089E+03  0.24609965825E+03 -0.58805857527E+03  0.73230283612E+03  0.46999998093E+01 0.  1.
       -5    1    3    3    0  502 -0.36037123089E+03 -0.24609965825E+03 -0.17916289899E+02  0.43677860442E+03  0.46999998093E+01 0. -1.
</event>
<event>
 5   0  0.9650500E-05  0.9997157E+03  0.7818609E-02  0.9308857E-01
        3   -1    0    0  501    0  0.00000000000E+00  0.00000000000E+00  0.42178218351E+03  0.42178219560E+03  0.10100000352E+00 0.  1.
       -3   -1    0    0    0  501  0.00000000000E+00  0.00000000000E+00 -0.59238605320E+03  0.59238606181E+03  0.10100000352E+00 0. -1.
    10030    2    1    2    0    0  0.00000000000E+00  0.00000000000E+00 -0.17060386969E+03  0.10141682574E+04  0.99971574659E+03 0.  0.
        3    1    3    3  502    0 -0.30479490224E+03  0.27360684430E+02  0.31564508023E+03  0.43963662991E+03  0.10100000352E+00 0.  1.
       -3    1    3    3    0  502  0.30479490224E+03 -0.27360684430E+02 -0.48624894993E+03  0.57453162749E+03  0.10100000352E+00 0. -1.
</event>
<event>
 5   0  0.1430675E-04  0.1000839E+04  0.7818609E-02  0.9307625E-01
        1   -1    0    0  501    0  0.00000000000E+00  0.00000000000E+00  0.33736100387E+03  0.33736100390E+03  0.50400001928E-02 0. -1.
       -1   -1    0    0    0  501  0.00000000000E+00  0.00000000000E+00 -0.74228945871E+03  0.74228945873E+03  0.50400001928E-02 0.  1.
    10030    2    1    2    0    0  0.00000000000E+00  0.00000000000E+00 -0.40492845485E+03  0.10796504626E+04  0.10008386823E+04 0.  0.
        5    1    3    3  502    0  0.28293478698E+03 -0.34180197265E+03  0.47089428925E+02  0.44622884993E+03  0.46999998093E+01 0. -1.
       -5    1    3    3    0  502 -0.28293478698E+03  0.34180197265E+03 -0.45201788377E+03  0.63342161270E+03  0.46999998093E+01 0.  1.
</event>
<event>
 5   0  0.2484904E-04  0.1000914E+04  0.7818609E-02  0.9307543E-01
        2   -1    0    0  501    0  0.00000000000E+00  0.00000000000E+00  0.32321039801E+03  0.32321039802E+03  0.25500000920E-02 0. -1.
       -2   -1    0    0    0  501  0.00000000000E+00  0.00000000000E+00 -0.77490490423E+03  0.77490490424E+03  0.25500000920E-02 0.  1.
    10030    2    1    2    0    0  0.00000000000E+00  0.00000000000E+00 -0.45169450622E+03  0.10981153023E+04  0.10009142271E+04 0.  0.
        3    1    3    3  502    0  0.12322803864E+03  0.36249473897E+03  0.12773916630E+03  0.40361477933E+03  0.10100000352E+00 0. -1.
       -3    1    3    3    0  502 -0.12322803864E+03 -0.36249473897E+03 -0.57943367252E+03  0.69450052292E+03  0.10100000352E+00 0.  1.
</event>
<event>
 5   0  0.9650500E-05  0.9993170E+03  0.7818609E-02  0.9309294E-01
       -3   -1    0    0    0  501  0.00000000000E+00  0.00000000000E+00  0.71220124013E+03  0.71220124729E+03  0.10100000352E+00 0.  1.
        3   -1    0    0  501    0  0.00000000000E+00  0.00000000000E+00 -0.35054499604E+03  0.35054501059E+03  0.10100000352E+00 0. -1.
    10030    2    1    2    0    0  0.00000000000E+00  0.00000000000E+00  0.36165624409E+03  0.10627462579E+04  0.99931695160E+03 0.  0.
        2    1    3    3  502    0 -0.49780700374E+02 -0.22247735720E+03 -0.29200992983E+03  0.37046469700E+03  0.25500000920E-02 0. -1.
       -2    1    3    3    0  502  0.49780700374E+02  0.22247735720E+03  0.65366617393E+03  0.69228156088E+03  0.25500000920E-02 0.  1.
</event>
<event>
 5   0  0.2503680E-04  0.1000182E+04  0.7818609E-02  0.9308345E-01
        2   -1    0    0  501    0  0.00000000000E+00  0.00000000000E+00  0.12232397020E+04  0.12232397020E+04  0.25500000920E-02 0.  1.
       -2   -1    0    0    0  501  0.00000000000E+00  0.00000000000E+00 -0.20444961188E+03  0.20444961190E+03  0.25500000920E-02 0. -1.
    10030    2    1    2    0    0  0.00000000000E+00  0.00000000000E+00  0.10187900902E+04  0.14276893139E+04  0.10001817481E+04 0.  0.
        2    1    3    3  502    0 -0.38556442984E+03  0.10198780382E+03  0.78723953720E+02  0.40652048236E+03  0.25500000920E-02 0. -1.
       -2    1    3    3    0  502  0.38556442984E+03 -0.10198780382E+03  0.94006613643E+03  0.10211688316E+04  0.25500000920E-02 0.  1.
</event>
<event>
 5   0  0.2403037E-04  0.9996296E+03  0.7818609E-02  0.9308951E-01
       -2   -1    0    0    0  501  0.00000000000E+00  0.00000000000E+00  0.80328940766E+03  0.80328940767E+03  0.25500000920E-02 0.  1.
        2   -1    0    0  501    0  0.00000000000E+00  0.00000000000E+00 -0.31098980496E+03  0.31098980497E+03  0.25500000920E-02 0. -1.
    10030    2    1    2    0    0  0.00000000000E+00  0.00000000000E+00  0.49229960270E+03  0.11142792126E+04  0.99962956384E+03 0.  0.
        1    1    3    3  502    0  0.23749400250E+03  0.78641264171E+02 -0.23617449265E+03  0.34404395164E+03  0.50400001928E-02 0. -1.
       -1    1    3    3    0  502 -0.23749400250E+03 -0.78641264171E+02  0.72847409535E+03  0.77023526100E+03  0.50400001928E-02 0.  1.
</event>
<event>
 5   0  0.1453863E-04  0.9995385E+03  0.7818609E-02  0.9309051E-01
        1   -1    0    0  501    0  0.00000000000E+00  0.00000000000E+00  0.13737828316E+04  0.13737828316E+04  0.50400001928E-02 0. -1.
       -1   -1    0    0    0  501  0.00000000000E+00  0.00000000000E+00 -0.18181132663E+03  0.18181132670E+03  0.50400001928E-02 0.  1.
    10030    2    1    2    0    0  0.00000000000E+00  0.00000000000E+00  0.11919715049E+04  0.15555941583E+04  0.99953845184E+03 0.  0.
        1    1    3    3  502    0 -0.31450806916E+03 -0.50464250645E+02 -0.33608957209E+01  0.31854868044E+03  0.50400001928E-02 0.  1.
       -1    1    3    3    0  502  0.31450806916E+03  0.50464250645E+02  0.11953324007E+04  0.12370454779E+04  0.50400001928E-02 0. -1.
</event>
<event>
 5   0  0.2353916E-04  0.1000707E+04  0.7818609E-02  0.9307769E-01
       -2   -1    0    0    0  501  0.00000000000E+00  0.00000000000E+00  0.14662228765E+03  0.14662228767E+03  0.25500000920E-02 0. -1.
        2   -1    0    0  501    0  0.00000000000E+00  0.00000000000E+00 -0.17074743393E+04  0.17074743393E+04  0.25500000920E-02 0.  1.
    10030    2    1    2    0    0  0.00000000000E+00  0.00000000000E+00 -0.15608520517E+04  0.18540966270E+04  0.10007073373E+04 0.  0.
        4    1    3    3  502    0 -0.26881298147E+02 -0.36084483134E+03 -0.14015348658E+03  0.38804150447E+03  0.12699999809E+01 0. -1.
       -4    1    3    3    0  502  0.26881298147E+02  0.36084483134E+03 -0.14206985651E+04  0.14660551225E+04  0.12699999809E+01 0.  1.
</event>
<event>
 5   0  0.2353916E-04  0.1000160E+04  0.7818609E-02  0.9308369E-01
        2   -1    0    0  501    0  0.00000000000E+00  0.00000000000E+00  0.40580263749E+03  0.40580263750E+03  0.25500000920E-02 0.  1.
       -2   -1    0    0    0  501  0.00000000000E+00  0.00000000000E+00 -0.61626002316E+03  0.61626002317E+03  0.25500000920E-02 0. -1.
    10030    2    1    2    0    0  0.00000000000E+00  0.00000000000E+00 -0.21045738567E+03  0.10220626607E+04  0.10001598728E+04 0.  0.
        4    1    3    3  502    0 -0.19580516094E+03 -0.38419177815E+03  0.15356686562E+03  0.45774160676E+03  0.12699999809E+01 0.  1.
       -4    1    3    3    0  502  0.19580516094E+03  0.38419177815E+03 -0.36402425129E+03  0.56432105390E+03  0.12699999809E+01 0. -1.
</event>
<event>
 5   0  0.2484904E-04  0.9988803E+03  0.7818609E-02  0.9309774E-01
        2   -1    0    0  501    0  0.00000000000E+00  0.00000000000E+00  0.35593614323E+03  0.35593614324E+03  0.25500000920E-02 0.  1.
       -2   -1    0    0    0  501  0.00000000000E+00  0.00000000000E+00 -0.70080110744E+03  0.70080110745E+03  0.25500000920E-02 0. -1.
    10030    2    1    2    0    0  0.00000000000E+00  0.00000000000E+00 -0.34486496421E+03  0.10567372507E+04  0.99888025982E+03 0.  0.
        3    1    3    3  502    0 -0.46315176881E+03 -0.33504327099E+02 -0.36695301934E+03  0.59185017487E+03  0.10100000352E+00 0. -1.
       -3    1    3    3    0  502  0.46315176881E+03  0.33504327099E+02  0.22088055131E+02  0.46488707582E+03  0.10100000352E+00 0.  1.
</event>
<event>
 5   0  0.1414165E-04  0.9999505E+03  0.7818609E-02  0.9308599E-01
        1   -1    0    0  501    0  0.00000000000E+00  0.00000000000E+00  0.11102075860E+04  0.11102075860E+04  0.50400001928E-02 0.  1.
       -1   -1    0    0    0  501  0.00000000000E+00  0.00000000000E+00 -0.22516083821E+03  0.22516083826E+03  0.50400001928E-02 0. -1.
    10030    2    1    2    0    0  0.00000000000E+00  0.00000000000E+00  0.88504674776E+03  0.13353684242E+04  0.99995054014E+03 0.  0.
        4    1    3    3  502    0 -0.18338407312E+03  0.45953791005E+03  0.53853404273E+03  0.73131753508E+03  0.12699999809E+01 0.  1.
       -4    1    3    3    0  502  0.18338407312E+03 -0.45953791005E+03  0.34651270503E+03  0.60405088916E+03  0.12699999809E+01 0. -1.
</event>
<event>
 5   0  0.1461334E-04  0.1000091E+04  0.7818609E-02  0.9308445E-01
       -1   -1    0    0    0  501  0.00000000000E+00  0.00000000000E+00  0.84320963930E+03  0.84320963932E+03  0.50400001928E-02 0. -1.
        1   -1    0    0  501    0  0.00000000000E+00  0.00000000000E+00 -0.29654030196E+03  0.29654030200E+03  0.50400001928E-02 0.  1.
    10030    2    1    2    0    0  0.00000000000E+00  0.00000000000E+00  0.54666933735E+03  0.11397499413E+04  0.10000912780E+04 0.  0.
        2    1    3    3  502    0  0.45029962312E+03  0.17478170588E+03  0.42072946729E+03  0.64057136990E+03  0.25500000920E-02 0. -1.
       -2    1    3    3    0  502 -0.45029962312E+03 -0.17478170588E+03  0.12593987006E+03  0.49917857142E+03  0.25500000920E-02 0.  1.
</event>
<event>
 5   0  0.2484904E-04  0.1001545E+04  0.7818609E-02  0.9306852E-01
        2   -1    0    0  501    0  0.00000000000E+00  0.00000000000E+00  0.14246875132E+04  0.14246875132E+04  0.25500000920E-02 0.  1.
       -2   -1    0    0    0  501  0.00000000000E+00  0.00000000000E+00 -0.17601960635E+03  0.17601960637E+03  0.25500000920E-02 0. -1.
    10030    2    1    2    0    0  0.00000000000E+00  0.00000000000E+00  0.12486679068E+04  0.16007071196E+04  0.10015446775E+04 0.  0.
        3    1    3    3  502    0 -0.22053696504E+03 -0.37187024959E+03  0.10281822204E+04  0.11153845633E+04  0.10100000352E+00 0.  1.
       -3    1    3    3    0  502  0.22053696504E+03  0.37187024959E+03  0.22048568640E+03  0.48532255624E+03  0.10100000352E+00 0. -1.
</event>
<event>
 5   0  0.2353916E-04  0.9999608E+03  0.7818609E-02  0.9308588E-01
       -2   -1    0    0    0  501  0.00000000000E+00  0.00000000000E+00  0.20930263038E+03  0.20930263039E+03  0.25500000920E-02 0. -1.
        2   -1    0    0  501    0  0.00000000000E+00  0.00000000000E+00 -0.11943490057E+04  0.11943490057E+04  0.25500000920E-02 0.  1.
    10030    2    1    2    0    0  0.00000000000E+00  0.00000000000E+00 -0.98504637535E+03  0.14036516361E+04  0.99996077623E+03 0.  0.
        4    1    3    3  502    0  0.10626989755E+03 -0.19173144016E+03 -0.11232930307E+04  0.11444837622E+04  0.12699999809E+01 0.  1.
       -4    1    3    3    0  502 -0.10626989755E+03  0.19173144016E+03  0.13824665532E+03  0.25916787393E+03  0.12699999809E+01 0. -1.
</event>
<event>
 5   0  0.2353916E-04  0.1000107E+04  0.7818609E-02  0.9308428E-01
        2   -1    0    0  501    0  0.00000000000E+00  0.00000000000E+00  0.65157088776E+03  0.65157088777E+03  0.25500000920E-02 0. -1.
       -2   -1    0    0    0  501  0.00000000000E+00  0.00000000000E+00 -0.38377016709E+03  0.38377016710E+03  0.25500000920E-02 0.  1.
    10030    2    1    2    0    0  0.00000000000E+00  0.00000000000E+00  0.26780072067E+03  0.10353410549E+04  0.10001069312E+04 0.  0.
        4    1    3    3  502    0 -0.28326582019E+02  0.96717510942E+02  0.64094682927E+03  0.64882287492E+03  0.12699999809E+01 0. -1.
       -4    1    3    3    0  502  0.28326582019E+02 -0.96717510942E+02 -0.37314610859E+03  0.38651817995E+03  0.12699999809E+01 0.  1.
</event>
<event>
 5   0  0.1506454E-04  0.9966729E+03  0.7818609E-02  0.9312201E-01
        1   -1    0    0  501    0  0.00000000000E+00  0.00000000000E+00  0.88046214544E+03  0.88046214546E+03  0.50400001928E-02 0.  1.
       -1   -1    0    0    0  501  0.00000000000E+00  0.00000000000E+00 -0.28205555611E+03  0.28205555616E+03  0.50400001928E-02 0. -1.
    10030    2    1    2    0    0  0.00000000000E+00  0.00000000000E+00  0.59840658933E+03  0.11625177016E+04  0.99667294556E+03 0.  0.
        3    1    3    3  502    0 -0.19953368594E+03  0.20340620405E+03  0.77607547199E+03  0.82672905120E+03  0.10100000352E+00 0.  1.
       -3    1    3    3    0  502  0.19953368594E+03 -0.20340620405E+03 -0.17766888267E+03  0.33578865041E+03  0.10100000352E+00 0. -1.
</event>
<event>
 5   0  0.1453863E-04  0.9998337E+03  0.7818609E-02  0.9308727E-01
        1   -1    0    0  501    0  0.00000000000E+00  0.00000000000E+00  0.22658294587E+03  0.22658294593E+03  0.50400001928E-02 0.  1.
       -1   -1    0    0    0  501  0.00000000000E+00  0.00000000000E+00 -0.11029817710E+04  0.11029817710E+04  0.50400001928E-02 0. -1.
    10030    2    1    2    0    0  0.00000000000E+00  0.00000000000E+00 -0.87639882508E+03  0.13295647169E+04  0.99983370408E+03 0.  0.
        1    1    3    3  502    0  0.33169376607E+03 -0.36684086555E+03 -0.34117165490E+03  0.60082532671E+03  0.50400001928E-02 0. -1.
       -1    1    3    3    0  502 -0.33169376607E+03  0.36684086555E+03 -0.53522717018E+03  0.72873939019E+03  0.50400001928E-02 0.  1.
</event>
<event>
 5   0  0.1461334E-04  0.9981266E+03  0.7818609E-02  0.9310602E-01
        1   -1    0    0  501    0  0.00000000000E+00  0.00000000000E+00  0.23247198805E+03  0.23247198810E+03  0.50400001928E-02 0. -1.
       -1   -1    0    0    0  501  0.00000000000E+00  0.00000000000E+00 -0.10713727788E+04  0.10713727788E+04  0.50400001928E-02 0.  1.
    10030    2    1    2    0    0  0.00000000000E+00  0.00000000000E+00 -0.83890079073E+03  0.13038447669E+04  0.99812656485E+03 0.  0.
        2    1    3    3  502    0  0.92904927380E+02 -0.43921748670E+03 -0.13468822160E+03  0.46870485724E+03  0.25500000920E-02 0.  1.
       -2    1    3    3    0  502 -0.92904927380E+02  0.43921748670E+03 -0.70421256913E+03  0.83513990964E+03  0.25500000920E-02 0. -1.
</event>
<event>
 5   0  0.2403037E-04  0.9981615E+03  0.7818609E-02  0.9310564E-01
       -2   -1    0    0    0  501  0.00000000000E+00  0.00000000000E+00  0.27465601290E+03  0.27465601291E+03  0.25500000920E-02 0. -1.
        2   -1    0    0  501    0  0.00000000000E+00  0.00000000000E+00 -0.90688567893E+03  0.90688567894E+03  0.25500000920E-02 0.  1.
    10030    2    1    2    0    0  0.00000000000E+00  0.00000000000E+00 -0.63222966603E+03  0.11815416918E+04  0.99816151948E+03 0.  0.
        1    1    3    3  502    0 -0.24928276504E+03 -0.26955014922E+03  0.84049107345E+02  0.37664762360E+03  0.50400001928E-02 0. -1.
       -1    1    3    3    0  502  0.24928276504E+03  0.26955014922E+03 -0.71627877338E+03  0.80489406825E+03  0.50400001928E-02 0.  1.
</event>
<event>
 5   0  0.2353916E-04  0.9993551E+03  0.7818609E-02  0.9309252E-01
       -2   -1    0    0    0  501  0.00000000000E+00  0.00000000000E+00  0.17796623370E+03  0.17796623371E+03  0.25500000920E-02 0. -1.
        2   -1    0    0  501    0  0.00000000000E+00  0.00000000000E+00 -0.14029495960E+04  0.14029495960E+04  0.25500000920E-02 0.  1.
    10030    2    1    2    0    0  0.00000000000E+00  0.00000000000E+00 -0.12249833623E+04  0.15809158298E+04  0.99935510343E+03 0.  0.
        4    1    3    3  502    0  0.14339891702E+03  0.25572819652E+03  0.27588412141E+02  0.29448750955E+03  0.12699999809E+01 0. -1.
       -4    1    3    3    0  502 -0.14339891702E+03 -0.25572819652E+03 -0.12525717745E+04  0.12864283202E+04  0.12699999809E+01 0.  1.
</event>
<event>
 5   0  0.1430675E-04  0.1001710E+04  0.7818609E-02  0.9306671E-01
        1   -1    0    0  501    0  0.00000000000E+00  0.00000000000E+00  0.26876369363E+03  0.26876369367E+03  0.50400001928E-02 0.  1.
       -1   -1    0    0    0  501  0.00000000000E+00  0.00000000000E+00 -0.93336892839E+03  0.93336892841E+03  0.50400001928E-02 0. -1.
    10030    2    1    2    0    0  0.00000000000E+00  0.00000000000E+00 -0.66460523477E+03  0.12021326221E+04  0.10017098996E+04 0.  0.
        5    1    3    3  502    0  0.10154962372E+03 -0.42276727045E+03 -0.33993621263E+02  0.43614464037E+03  0.46999998093E+01 0.  1.
       -5    1    3    3    0  502 -0.10154962372E+03  0.42276727045E+03 -0.63061161350E+03  0.76598798171E+03  0.46999998093E+01 0. -1.
</event>
<event>
 5   0  0.2403037E-04  0.1000152E+04  0.7818609E-02  0.9308378E-01
        2   -1    0    0  501    0  0.00000000000E+00  0.00000000000E+00  0.42566918205E+03  0.42566918205E+03  0.25500000920E-02 0.  1.
       -2   -1    0    0    0  501  0.00000000000E+00  0.00000000000E+00 -0.58748886264E+03  0.58748886265E+03  0.25500000920E-02 0. -1.
    10030    2    1    2    0    0  0.00000000000E+00  0.00000000000E+00 -0.16181968060E+03  0.10131580447E+04  0.10001517957E+04 0.  0.
        1    1    3    3  502    0 -0.29497503159E+03 -0.76340232550E+02 -0.48259867654E+03  0.57073600114E+03  0.50400001928E-02 0. -1.
       -1    1    3    3    0  502  0.29497503159E+03  0.76340232550E+02  0.32077899594E+03  0.44242204357E+03  0.50400001928E-02 0.  1.
</event>
<event>
 5   0  0.1453863E-04  0.9998985E+03  0.7818609E-02  0.9308656E-01
        1   -1    0    0  501    0  0.00000000000E+00  0.00000000000E+00  0.40552521891E+03  0.40552521894E+03  0.50400001928E-02 0. -1.
       -1   -1    0    0    0  501  0.00000000000E+00  0.00000000000E+00 -0.61635933421E+03  0.61635933423E+03  0.50400001928E-02 0.  1.
    10030    2    1    2    0    0  0.00000000000E+00  0.00000000000E+00 -0.21083411530E+03  0.10218845532E+04  0.99989850277E+03 0.  0.
        1    1    3    3  502    0  0.44675018896E+01 -0.31947126016E+03  0.28757352944E+03  0.42986088389E+03  0.50400001928E-02 0. -1.
       -1    1    3    3    0  502 -0.44675018896E+01  0.31947126016E+03 -0.49840764474E+03  0.59202366929E+03  0.50400001928E-02 0.  1.
</event>
<event>
 5   0  0.1430675E-04  0.1000330E+04  0.7818609E-02  0.9308183E-01
        1   -1    0    0  501    0  0.00000000000E+00  0.00000000000E+00  0.25719538386E+03  0.25719538391E+03  0.50400001928E-02 0.  1.
       -1   -1    0    0    0  501  0.00000000000E+00  0.00000000000E+00 -0.97266517164E+03  0.97266517165E+03  0.50400001928E-02 0. -1.
    10030    2    1    2    0    0  0.00000000000E+00  0.00000000000E+00 -0.71546978778E+03  0.12298605556E+04  0.10003299300E+04 0.  0.
        5    1    3    3  502    0  0.27964904085E+03 -0.13057995965E+03  0.12612738055E+03  0.33344402534E+03  0.46999998093E+01 0.  1.
       -5    1    3    3    0  502 -0.27964904085E+03  0.13057995965E+03 -0.84159716833E+03  0.89641653022E+03  0.46999998093E+01 0. -1.
</event>
<event>
 5   0  0.1430675E-04  0.1000214E+04  0.7818609E-02  0.9308310E-01
       -1   -1    0    0    0  501  0.00000000000E+00  0.00000000000E+00  0.43277907644E+03  0.43277907647E+03  0.50400001928E-02 0.  1.
        1   -1    0    0  501    0  0.00000000000E+00  0.00000000000E+00 -0.57790884730E+03  0.57790884732E+03  0.50400001928E-02 0. -1.
    10030    2    1    2    0    0  0.00000000000E+00  0.00000000000E+00 -0.14512977085E+03  0.10106879238E+04  0.10002136916E+04 0.  0.
        5    1    3    3  502    0 -0.28529352843E+03 -0.28374072501E+03 -0.37263180630E+03  0.54843208281E+03  0.46999998093E+01 0. -1.
       -5    1    3    3    0  502  0.28529352843E+03  0.28374072501E+03  0.22750203544E+03  0.46225584098E+03  0.46999998093E+01 0.  1.
</event>
<event>
 5   0  0.2473312E-04  0.9999110E+03  0.7818609E-02  0.9308642E-01
       -2   -1    0    0    0  501  0.00000000000E+00  0.00000000000E+00  0.97019010381E+03  0.97019010381E+03  0.25500000920E-02 0.  1.
        2   -1    0    0  501    0  0.00000000000E+00  0.00000000000E+00 -0.25763557416E+03  0.25763557417E+03  0.25500000920E-02 0. -1.
    10030    2    1    2    0    0  0.00000000000E+00  0.00000000000E+00  0.71255452965E+03  0.12278256780E+04  0.99991096493E+03 0.  0.
        5    1    3    3  502    0  0.14714862796E+03 -0.26164893323E+03  0.84717569013E+03  0.89880010175E+03  0.46999998093E+01 0.  1.
       -5    1    3    3    0  502 -0.14714862796E+03  0.26164893323E+03 -0.13462116047E+03  0.32902557623E+03  0.46999998093E+01 0. -1.
</event>
<event>
 5   0  0.2473312E-04  0.1000326E+04  0.7818609E-02  0.9308187E-01
        2   -1    0    0  501    0  0.00000000000E+00  0.00000000000E+00  0.57629020041E+03  0.57629020041E+03  0.25500000920E-02 0.  1.
       -2   -1    0    0    0  501  0.00000000000E+00  0.00000000000E+00 -0.43409214641E+03  0.43409214642E+03  0.25500000920E-02 0. -1.
    10030    2    1    2    0    0  0.00000000000E+00  0.00000000000E+00  0.14219805399E+03  0.10103823468E+04  0.10003260470E+04 0.  0.
        5    1    3    3  502    0  0.11632861749E+03  0.44245813821E+03 -0.13302019077E+03  0.47646407259E+03  0.46999998093E+01 0. -1.
       -5    1    3    3    0  502 -0.11632861749E+03 -0.44245813821E+03  0.27521824476E+03  0.53391827424E+03  0.46999998093E+01 0.  1.
</event>
<event>
 5   0  0.2353916E-04  0.1000664E+04  0.7818609E-02  0.9307817E-01
        2   -1    0    0  501    0  0.00000000000E+00  0.00000000000E+00  0.80684165474E+03  0.80684165474E+03  0.25500000920E-02 0. -1.
       -2   -1    0    0    0  501  0.00000000000E+00  0.00000000000E+00 -0.31026161465E+03  0.31026161466E+03  0.25500000920E-02 0.  1.
    10030    2    1    2    0    0  0.00000000000E+00  0.00000000000E+00  0.49658004009E+03  0.11171032694E+04  0.10006637689E+04 0.  0.
        4    1    3    3  502    0  0.37803268410E+03 -0.25945649029E+02 -0.11645219162E+03  0.39641469799E+03  0.12699999809E+01 0.  1.
       -4    1    3    3    0  502 -0.37803268410E+03  0.25945649029E+02  0.61303223171E+03  0.72068857141E+03  0.12699999809E+01 0. -1.
</event>
<event>
 5   0  0.1453863E-04  0.9991234E+03  0.7818609E-02  0.9309507E-01
        1   -1    0    0  501    0  0.00000000000E+00  0.00000000000E+00  0.28635310114E+03  0.28635310118E+03  0.50400001928E-02 0.  1.
       -1   -1    0    0    0  501  0.00000000000E+00  0.00000000000E+00 -0.87151804525E+03  0.87151804527E+03  0.50400001928E-02 0. -1.
    10030    2    1    2    0    0  0.00000000000E+00  0.00000000000E+00 -0.58516494412E+03  0.11578711464E+04  0.99912340577E+03 0.  0.
        1    1    3    3  502    0  0.20641084635E+03 -0.58125668053E+02  0.23030275924E+03  0.31467982413E+03  0.50400001928E-02 0.  1.
       -1    1    3    3    0  502 -0.20641084635E+03  0.58125668053E+02 -0.81546770336E+03  0.84319132232E+03  0.50400001928E-02 0. -1.
</event>
<event>
 5   0  0.2473312E-04  0.1002673E+04  0.7818609E-02  0.9305618E-01
        2   -1    0    0  501    0  0.00000000000E+00  0.00000000000E+00  0.97160309725E+03  0.97160309725E+03  0.25500000920E-02 0.  1.
       -2   -1    0    0    0  501  0.00000000000E+00  0.00000000000E+00 -0.25868391125E+03  0.25868391126E+03  0.25500000920E-02 0. -1.
    10030    2    1    2    0    0  0.00000000000E+00  0.00000000000E+00  0.71291918600E+03  0.12302870085E+04  0.10026726074E+04 0.  0.
        5    1    3    3  502    0  0.52725728801E+02  0.29868583899E+03 -0.13330367160E+03  0.33133848517E+03  0.46999998093E+01 0. -1.
       -5    1    3    3    0  502 -0.52725728801E+02 -0.29868583899E+03  0.84622285761E+03  0.89894852335E+03  0.46999998093E+01 0.  1.
</event>
<event>
 5   0  0.1430675E-04  0.9996642E+03  0.7818609E-02  0.9308913E-01
        1   -1    0    0  501    0  0.00000000000E+00  0.00000000000E+00  0.42935956442E+03  0.42935956445E+03  0.50400001928E-02 0.  1.
       -1   -1    0    0    0  501  0.00000000000E+00  0.00000000000E+00 -0.58187162603E+03  0.58187162605E+03  0.50400001928E-02 0. -1.
    10030    2    1    2    0    0  0.00000000000E+00  0.00000000000E+00 -0.15251206161E+03  0.10112311905E+04  0.99966423949E+03 0.  0.
        5    1    3    3  502    0  0.27367657557E+03 -0.17337159500E+03  0.30874400205E+03  0.44755058571E+03  0.46999998093E+01 0.  1.
       -5    1    3    3    0  502 -0.27367657557E+03  0.17337159500E+03 -0.46125606366E+03  0.56368060480E+03  0.46999998093E+01 0. -1.
</event>
<event>
 5   0  0.2484904E-04  0.9999498E+03  0.7818609E-02  0.9308600E-01
        2   -1    0    0  501    0  0.00000000000E+00  0.00000000000E+00  0.50856681379E+03  0.50856681380E+03  0.25500000920E-02 0. -1.
       -2   -1    0    0    0  501  0.00000000000E+00  0.00000000000E+00 -0.49152816571E+03  0.49152816571E+03  0.25500000920E-02 0.  1.
    10030    2    1    2    0    0  0.00000000000E+00  0.00000000000E+00  0.17038648084E+02  0.10000949795E+04  0.99994982500E+03 0.  0.
        3    1    3    3  502    0 -0.28476212236E+03 -0.41094413044E+03  0.11738215552E+02  0.50010233011E+03  0.10100000352E+00 0. -1.
       -3    1    3    3    0  502  0.28476212236E+03  0.41094413044E+03  0.53004325313E+01  0.49999264940E+03  0.10100000352E+00 0.  1.
</event>
<event>
 5   0  0.2473312E-04  0.1000734E+04  0.7818609E-02  0.9307741E-01
        2   -1    0    0  501    0  0.00000000000E+00  0.00000000000E+00  0.67754762328E+03  0.67754762328E+03  0.25500000920E-02 0. -1.
       -2   -1    0    0    0  501  0.00000000000E+00  0.00000000000E+00 -0.36951930794E+03  0.36951930795E+03  0.25500000920E-02 0.  1.
    10030    2    1    2    0    0  0.00000000000E+00  0.00000000000E+00  0.30802831534E+03  0.10470669312E+04  0.10007335886E+04 0.  0.
        5    1    3    3  502    0 -0.27055451389E+03  0.41977068343E+03  0.18605325938E+03  0.53295879482E+03  0.46999998093E+01 0.  1.
       -5    1    3    3    0  502  0.27055451389E+03 -0.41977068343E+03  0.12197505595E+03  0.51410813641E+03  0.46999998093E+01 0. -1.
</event>
<event>
 5   0  0.1414165E-04  0.1003816E+04  0.7818609E-02  0.9304369E-01
       -1   -1    0    0    0  501  0.00000000000E+00  0.00000000000E+00  0.23293137062E+03  0.23293137068E+03  0.50400001928E-02 0.  1.
        1   -1    0    0  501    0  0.00000000000E+00  0.00000000000E+00 -0.10814848501E+04  0.10814848501E+04  0.50400001928E-02 0. -1.
    10030    2    1    2    0    0  0.00000000000E+00  0.00000000000E+00 -0.84855347944E+03  0.13144162208E+04  0.10038162152E+04 0.  0.
        4    1    3    3  502    0 -0.17089710418E+03 -0.24865505307E+03 -0.94947460963E+03  0.99626241667E+03  0.12699999809E+01 0. -1.
       -4    1    3    3    0  502  0.17089710418E+03  0.24865505307E+03  0.10092113018E+03  0.31815380409E+03  0.12699999809E+01 0.  1.
</event>
<event>
 5   0  0.2484904E-04  0.1000150E+04  0.7818609E-02  0.9308380E-01
        2   -1    0    0  501    0  0.00000000000E+00  0.00000000000E+00  0.11420774482E+04  0.11420774482E+04  0.25500000920E-02 0. -1.
       -2   -1    0    0    0  501  0.00000000000E+00  0.00000000000E+00 -0.21896498383E+03  0.21896498384E+03  0.25500000920E-02 0.  1.
    10030    2    1    2    0    0  0.00000000000E+00  0.00000000000E+00  0.92311246434E+03  0.13610424320E+04  0.10001499287E+04 0.  0.
        3    1    3    3  502    0  0.28866465149E+03  0.40772085183E+03  0.49233001355E+03  0.70139320390E+03  0.10100000352E+00 0. -1.
       -3    1    3    3    0  502 -0.28866465149E+03 -0.40772085183E+03  0.43078245079E+03  0.65964922811E+03  0.10100000352E+00 0.  1.
</event>
<event>
 5   0  0.2503680E-04  0.9998100E+03  0.7818609E-02  0.9308753E-01
       -2   -1    0    0    0  501  0.00000000000E+00  0.00000000000E+00  0.95804866841E+03  0.95804866842E+03  0.25500000920E-02 0. -1.
        2   -1    0    0  501    0  0.00000000000E+00  0.00000000000E+00 -0.26084793647E+03  0.26084793648E+03  0.25500000920E-02 0.  1.
    10030    2    1    2    0    0  0.00000000000E+00  0.00000000000E+00  0.69720073195E+03  0.12188966049E+04  0.99981001835E+03 0.  0.
        2    1    3    3  502    0 -0.24161592036E+03 -0.28342754325E+03 -0.57930168250E+02  0.37691554710E+03  0.25500000920E-02 0.  1.
       -2    1    3    3    0  502  0.24161592036E+03  0.28342754325E+03  0.75513090020E+03  0.84198105779E+03  0.25500000920E-02 0. -1.
</event>
<event>
 5   0  0.2353916E-04  0.9999988E+03  0.7818609E-02  0.9308546E-01
        2   -1    0    0  501    0  0.00000000000E+00  0.00000000000E+00  0.84128550332E+03  0.84128550332E+03  0.25500000920E-02 0.  1.
       -2   -1    0    0    0  501  0.00000000000E+00  0.00000000000E+00 -0.29716357053E+03  0.29716357054E+03  0.25500000920E-02 0. -1.
    10030    2    1    2    0    0  0.00000000000E+00  0.00000000000E+00  0.54412193279E+03  0.11384490739E+04  0.99999880801E+03 0.  0.
        4    1    3    3  502    0  0.28555407358E+03 -0.33094973414E+03 -0.43010955628E+01  0.43713724137E+03  0.12699999809E+01 0. -1.
       -4    1    3    3    0  502 -0.28555407358E+03  0.33094973414E+03  0.54842302835E+03  0.70131183249E+03  0.12699999809E+01 0.  1.
</event>
<event>
 5   0  0.2484904E-04  0.1000101E+04  0.7818609E-02  0.9308434E-01
       -2   -1    0    0    0  501  0.00000000000E+00  0.00000000000E+00  0.12287401747E+03  0.12287401750E+03  0.25500000920E-02 0.  1.
        2   -1    0    0  501    0  0.00000000000E+00  0.00000000000E+00 -0.20350154402E+04  0.20350154402E+04  0.25500000920E-02 0. -1.
    10030    2    1    2    0    0  0.00000000000E+00  0.00000000000E+00 -0.19121414228E+04  0.21578894577E+04  0.10001010405E+04 0.  0.
        3    1    3    3  502    0 -0.33140490252E+03 -0.14103345245E+03 -0.20760167300E+03  0.41571397494E+03  0.10100000352E+00 0.  1.
       -3    1    3    3    0  502  0.33140490252E+03  0.14103345245E+03 -0.17045397498E+04  0.17421754828E+04  0.10100000352E+00 0. -1.
</event>
<event>
 5   0  0.2403037E-04  0.9990958E+03  0.7818609E-02  0.9309537E-01
        2   -1    0    0  501    0  0.00000000000E+00  0.00000000000E+00  0.23618913840E+04  0.23618913840E+04  0.25500000920E-02 0. -1.
       -2   -1    0    0    0  501  0.00000000000E+00  0.00000000000E+00 -0.10565604123E+03  0.10565604126E+03  0.25500000920E-02 0.  1.
    10030    2    1    2    0    0  0.00000000000E+00  0.00000000000E+00  0.22562353428E+04  0.24675474253E+04  0.99909577816E+03 0.  0.
        1    1    3    3  502    0 -0.78059791621E+02  0.28052475998E+03  0.12561602333E+03  0.31712277965E+03  0.50400001928E-02 0.  1.
       -1    1    3    3    0  502  0.78059791621E+02 -0.28052475998E+03  0.21306193195E+04  0.21504246457E+04  0.50400001928E-02 0. -1.
</event>
<event>
 5   0  0.2403037E-04  0.9998377E+03  0.7818609E-02  0.9308723E-01
       -2   -1    0    0    0  501  0.00000000000E+00  0.00000000000E+00  0.34603280362E+03  0.34603280363E+03  0.25500000920E-02 0.  1.
        2   -1    0    0  501    0  0.00000000000E+00  0.00000000000E+00 -0.72224041645E+03  0.72224041646E+03  0.25500000920E-02 0. -1.
    10030    2    1    2    0    0  0.00000000000E+00  0.00000000000E+00 -0.37620761283E+03  0.10682732201E+04  0.99983773924E+03 0.  0.
        1    1    3    3  502    0  0.35579809595E+03 -0.23926683128E+03 -0.46275480178E+03  0.63085886554E+03  0.50400001928E-02 0. -1.
       -1    1    3    3    0  502 -0.35579809595E+03  0.23926683128E+03  0.86547188951E+02  0.43741435455E+03  0.50400001928E-02 0.  1.
</event>
<event>
 5   0  0.1453863E-04  0.9997389E+03  0.7818609E-02  0.9308831E-01
        1   -1    0    0  501    0  0.00000000000E+00  0.00000000000E+00  0.39653733708E+03  0.39653733711E+03  0.50400001928E-02 0. -1.
       -1   -1    0    0    0  501  0.00000000000E+00  0.00000000000E+00 -0.63012841261E+03  0.63012841263E+03  0.50400001928E-02 0.  1.
    10030    2    1    2    0    0  0.00000000000E+00  0.00000000000E+00 -0.23359107553E+03  0.10266657497E+04  0.99973885147E+03 0.  0.
        1    1    3    3  502    0 -0.19157579250E+03  0.15071790663E+03  0.33136703232E+03  0.41136514411E+03  0.50400001928E-02 0. -1.
       -1    1    3    3    0  502  0.19157579250E+03 -0.15071790663E+03 -0.56495810785E+03  0.61530060564E+03  0.50400001928E-02 0.  1.
</event>
<event>
 5   0  0.1461334E-04  0.9985996E+03  0.7818609E-02  0.9310082E-01
        1   -1    0    0  501    0  0.00000000000E+00  0.00000000000E+00  0.89783873269E+03  0.89783873271E+03  0.50400001928E-02 0. -1.
       -1   -1    0    0    0  501  0.00000000000E+00  0.00000000000E+00 -0.27766712122E+03  0.27766712126E+03  0.50400001928E-02 0.  1.
    10030    2    1    2    0    0  0.00000000000E+00  0.00000000000E+00  0.62017161147E+03  0.11755058540E+04  0.99859961198E+03 0.  0.
        2    1    3    3  502    0  0.21112223770E+03 -0.36132830004E+03 -0.10501443137E+02  0.41861798812E+03  0.25500000920E-02 0.  1.
       -2    1    3    3    0  502 -0.21112223770E+03  0.36132830004E+03  0.63067305461E+03  0.75688786586E+03  0.25500000920E-02 0. -1.
</event>
<event>
 5   0  0.2403037E-04  0.9998198E+03  0.7818609E-02  0.9308742E-01
       -2   -1    0    0    0  501  0.00000000000E+00  0.00000000000E+00  0.44041718318E+03  0.44041718318E+03  0.25500000920E-02 0.  1.
        2   -1    0    0  501    0  0.00000000000E+00  0.00000000000E+00 -0.56743905237E+03  0.56743905237E+03  0.25500000920E-02 0. -1.
    10030    2    1    2    0    0  0.00000000000E+00  0.00000000000E+00 -0.12702186919E+03  0.10078562356E+04  0.99981980191E+03 0.  0.
        1    1    3    3  502    0  0.63501353360E+02 -0.16245714879E+03 -0.53576905688E+03  0.56344762792E+03  0.50400001928E-02 0. -1.
       -1    1    3    3    0  502 -0.63501353360E+02  0.16245714879E+03  0.40874718769E+03  0.44440860764E+03  0.50400001928E-02 0.  1.
</event>
<event>
 5   0  0.1506454E-04  0.9956483E+03  0.7818609E-02  0.9313331E-01
        1   -1    0    0  501    0  0.00000000000E+00  0.00000000000E+00  0.14242249388E+04  0.14242249388E+04  0.50400001928E-02 0.  1.
       -1   -1    0    0    0  501  0.00000000000E+00  0.00000000000E+00 -0.17400964378E+03  0.17400964385E+03  0.50400001928E-02 0. -1.
    10030    2    1    2    0    0  0.00000000000E+00  0.00000000000E+00  0.12502152950E+04  0.15982345827E+04  0.99564827992E+03 0.  0.
        3    1    3    3  502    0  0.32503528051E+03  0.27079452404E+03  0.20390556434E+03  0.46963293879E+03  0.10100000352E+00 0. -1.
       -3    1    3    3    0  502 -0.32503528051E+03 -0.27079452404E+03  0.10463097307E+04  0.11286016439E+04  0.10100000352E+00 0.  1.
</event>
<event>
 5   0  0.2473312E-04  0.1000804E+04  0.7818609E-02  0.9307664E-01
        2   -1    0    0  501    0  0.00000000000E+00  0.00000000000E+00  0.97473174916E+03  0.97473174917E+03  0.25500000920E-02 0. -1.
       -2   -1    0    0    0  501  0.00000000000E+00  0.00000000000E+00 -0.25689322495E+03  0.25689322497E+03  0.25500000920E-02 0.  1.
    10030    2    1    2    0    0  0.00000000000E+00  0.00000000000E+00  0.71783852421E+03  0.12316249741E+04  0.10008036421E+04 0.  0.
        5    1    3    3  502    0  0.34021678026E+02  0.49321138285E+03  0.45396507841E+03  0.67120885361E+03  0.46999998093E+01 0. -1.
       -5    1    3    3    0  502 -0.34021678026E+02 -0.49321138285E+03  0.26387344580E+03  0.56041612052E+03  0.46999998093E+01 0.  1.
</event>
<event>
 5   0  0.1506454E-04  0.9998329E+03  0.7818609E-02  0.9308728E-01
       -1   -1    0    0    0  501  0.00000000000E+00  0.00000000000E+00  0.58509547885E+03  0.58509547887E+03  0.50400001928E-02 0. -1.
        1   -1    0    0  501    0  0.00000000000E+00  0.00000000000E+00 -0.42713794191E+03  0.42713794194E+03  0.50400001928E-02 0.  1.
    10030    2    1    2    0    0  0.00000000000E+00  0.00000000000E+00  0.15795753694E+03  0.10122334208E+04  0.99983294340E+03 0.  0.
        3    1    3    3  502    0 -0.26707516531E+03 -0.33058140737E+03  0.34549892202E+03  0.54770678847E+03  0.10100000352E+00 0. -1.
       -3    1    3    3    0  502  0.26707516531E+03  0.33058140737E+03 -0.18754138508E+03  0.46452663233E+03  0.10100000352E+00 0.  1.
</event>
<event>
 5   0  0.2503680E-04  0.9994433E+03  0.7818609E-02  0.9309156E-01
       -2   -1    0    0    0  501  0.00000000000E+00  0.00000000000E+00  0.10781452828E+04  0.10781452829E+04  0.25500000920E-02 0.  1.
        2   -1    0    0  501    0  0.00000000000E+00  0.00000000000E+00 -0.23162160993E+03  0.23162160994E+03  0.25500000920E-02 0. -1.
    10030    2    1    2    0    0  0.00000000000E+00  0.00000000000E+00  0.84652367292E+03  0.13097668928E+04  0.99944333739E+03 0.  0.
        2    1    3    3  502    0 -0.35988467700E+03 -0.27256416714E+03  0.14245594086E+03  0.47339402303E+03  0.25500000920E-02 0. -1.
       -2    1    3    3    0  502  0.35988467700E+03  0.27256416714E+03  0.70406773205E+03  0.83637286976E+03  0.25500000920E-02 0.  1.
</event>
<event>
 5   0  0.1414165E-04  0.9996415E+03  0.7818609E-02  0.9308938E-01
       -1   -1    0    0    0  501  0.00000000000E+00  0.00000000000E+00  0.17497514114E+03  0.17497514121E+03  0.50400001928E-02 0. -1.
        1   -1    0    0  501    0  0.00000000000E+00  0.00000000000E+00 -0.14277501174E+04  0.14277501174E+04  0.50400001928E-02 0.  1.
    10030    2    1    2    0    0  0.00000000000E+00  0.00000000000E+00 -0.12527749763E+04  0.16027252586E+04  0.99964149248E+03 0.  0.
        4    1    3    3  502    0 -0.32030171636E+03  0.31096774026E+03 -0.98677367959E+03  0.10830595702E+04  0.12699999809E+01 0. -1.
       -4    1    3    3    0  502  0.32030171636E+03 -0.31096774026E+03 -0.26600129667E+03  0.51966568842E+03  0.12699999809E+01 0.  1.
</event>
<event>
 5   0  0.1430675E-04  0.9999003E+03  0.7818609E-02  0.9308654E-01
        1   -1    0    0  501    0  0.00000000000E+00  0.00000000000E+00  0.88886323879E+03  0.88886323880E+03  0.50400001928E-02 0. -1.
       -1   -1    0    0    0  501  0.00000000000E+00  0.00000000000E+00 -0.28120202129E+03  0.28120202133E+03  0.50400001928E-02 0.  1.
    10030    2    1    2    0    0  0.00000000000E+00  0.00000000000E+00  0.60766121750E+03  0.11700652601E+04  0.99990027389E+03 0.  0.
        5    1    3    3  502    0  0.10583825241E+02 -0.28199333288E+02  0.88777465608E+03  0.88829789470E+03  0.46999998093E+01 0. -1.
       -5    1    3    3    0  502 -0.10583825241E+02  0.28199333288E+02 -0.28011343858E+03  0.28176736544E+03  0.46999998093E+01 0.  1.
</event>
<event>
 5   0  0.1453863E-04  0.9999169E+03  0.7818609E-02  0.9308636E-01
       -1   -1    0    0    0  501  0.00000000000E+00  0.00000000000E+00  0.73374462452E+03  0.73374462454E+03  0.50400001928E-02 0.  1.
        1   -1    0    0  501    0  0.00000000000E+00  0.00000000000E+00 -0.34066140410E+03  0.34066140414E+03  0.50400001928E-02 0. -1.
    10030    2    1    2    0    0  0.00000000000E+00  0.00000000000E+00  0.39308322042E+03  0.10744060287E+04  0.99991694469E+03 0.  0.
        1    1    3    3  502    0 -0.18051435445E+03  0.40139273424E+03  0.45139620274E+03  0.63044436006E+03  0.50400001928E-02 0.  1.
       -1    1    3    3    0  502  0.18051435445E+03 -0.40139273424E+03 -0.58312982320E+02  0.44396166861E+03  0.50400001928E-02 0. -1.
</event>
<event>
 5   0  0.1461334E-04  0.9998601E+03  0.7818609E-02  0.9308698E-01
        1   -1    0    0  501    0  0.00000000000E+00  0.00000000000E+00  0.98867468928E+03  0.98867468929E+03  0.50400001928E-02 0. -1.
       -1   -1    0    0    0  501  0.00000000000E+00  0.00000000000E+00 -0.25279300179E+03  0.25279300184E+03  0.50400001928E-02 0.  1.
    10030    2    1    2    0    0  0.00000000000E+00  0.00000000000E+00  0.73588168749E+03  0.12414676911E+04  0.99986007528E+03 0.  0.
        2    1    3    3  502    0  0.45362451357E+03  0.41188905895E+02  0.62378622630E+03  0.77238654921E+03  0.25500000920E-02 0. -1.
       -2    1    3    3    0  502 -0.45362451357E+03 -0.41188905895E+02  0.11209546119E+03  0.46908114192E+03  0.25500000920E-02 0.  1.
</event>
<event>
 5   0  0.2484904E-04  0.1000238E+04  0.7818609E-02  0.9308284E-01
       -2   -1    0    0    0  501  0.00000000000E+00  0.00000000000E+00  0.11740001676E+03  0.11740001679E+03  0.25500000920E-02 0.  1.
        2   -1    0    0  501    0  0.00000000000E+00  0.00000000000E+00 -0.21304853345E+04  0.21304853345E+04  0.25500000920E-02 0. -1.
    10030    2    1    2    0    0  0.00000000000E+00  0.00000000000E+00 -0.20130853177E+04  0.22478853513E+04  0.10002379997E+04 0.  0.
        3    1    3    3  502    0 -0.25613211135E+03 -0.19511231696E+03 -0.14651909822E+03  0.35375179298E+03  0.10100000352E+00 0.  1.
       -3    1    3    3    0  502  0.25613211135E+03  0.19511231696E+03 -0.18665662195E+04  0.18941335583E+04  0.10100000352E+00 0. -1.
</event>
<event>
 5   0  0.2403037E-04  0.1000076E+04  0.7818609E-02  0.9308462E-01
       -2   -1    0    0    0  501  0.00000000000E+00  0.00000000000E+00  0.56881378657E+03  0.56881378657E+03  0.25500000920E-02 0.  1.
        2   -1    0    0  501    0  0.00000000000E+00  0.00000000000E+00 -0.43957760796E+03  0.43957760797E+03  0.25500000920E-02 0. -1.
    10030    2    1    2    0    0  0.00000000000E+00  0.00000000000E+00  0.12923617861E+03  0.10083913945E+04  0.10000756045E+04 0.  0.
        1    1    3    3  502    0  0.45032973580E+03  0.12854319758E+03  0.24133975236E+03  0.52684447485E+03  0.50400001928E-02 0.  1.
       -1    1    3    3    0  502 -0.45032973580E+03 -0.12854319758E+03 -0.11210357375E+03  0.48154691969E+03  0.50400001928E-02 0. -1.
</event>
<event>
 5   0  0.1461334E-04  0.9996955E+03  0.7818609E-02  0.9308879E-01
        1   -1    0    0  501    0  0.00000000000E+00  0.00000000000E+00  0.88343821652E+03  0.88343821653E+03  0.50400001928E-02 0. -1.
       -1   -1    0    0    0  501  0.00000000000E+00  0.00000000000E+00 -0.28281296523E+03  0.28281296527E+03  0.50400001928E-02 0.  1.
    10030    2    1    2    0    0  0.00000000000E+00  0.00000000000E+00  0.60062525129E+03  0.11662511818E+04  0.99969551693E+03 0.  0.
        2    1    3    3  502    0 -0.22966824801E+03 -0.11079282012E+03 -0.20122668443E+03  0.32483031211E+03  0.25500000920E-02 0.  1.
       -2    1    3    3    0  502  0.22966824801E+03  0.11079282012E+03  0.80185193572E+03  0.84142086969E+03  0.25500000920E-02 0. -1.
</event>
<event>
 5   0  0.1461334E-04  0.9999468E+03  0.7818609E-02  0.9308603E-01
        1   -1    0    0  501    0  0.00000000000E+00  0.00000000000E+00  0.71201971617E+03  0.71201971619E+03  0.50400001928E-02 0. -1.
       -1   -1    0    0    0  501  0.00000000000E+00  0.00000000000E+00 -0.35107653283E+03  0.35107653287E+03  0.50400001928E-02 0.  1.
    10030    2    1    2    0    0  0.00000000000E+00  0.00000000000E+00  0.36094318334E+03  0.10630962491E+04  0.99994682517E+03 0.  0.
        2    1    3    3  502    0  0.15827879906E+03 -0.24538258226E+03 -0.25100163120E+03  0.38505403359E+03  0.25500000920E-02 0.  1.
       -2    1    3    3    0  502 -0.15827879906E+03  0.24538258226E+03  0.61194481454E+03  0.67804221547E+03  0.25500000920E-02 0. -1.
</event>
<event>
 5   0  0.1506454E-04  0.1000272E+04  0.7818609E-02  0.9308246E-01
        1   -1    0    0  501    0  0.00000000000E+00  0.00000000000E+00  0.51821847257E+03  0.51821847259E+03  0.50400001928E-02 0.  1.
       -1   -1    0    0    0  501  0.00000000000E+00  0.00000000000E+00 -0.48268494166E+03  0.48268494168E+03  0.50400001928E-02 0. -1.
    10030    2    1    2    0    0  0.00000000000E+00  0.00000000000E+00  0.35533530909E+02  0.10009034143E+04  0.10002724693E+04 0.  0.
        3    1    3    3  502    0  0.48644412792E+02 -0.51367498379E+01  0.51581918886E+03  0.51813329452E+03  0.10100000352E+00 0.  1.
       -3    1    3    3    0  502 -0.48644412792E+02  0.51367498379E+01 -0.48028565795E+03  0.48277011975E+03  0.10100000352E+00 0. -1.
</event>
<event>
 5   0  0.1414165E-04  0.1000001E+04  0.7818609E-02  0.9308544E-01
       -1   -1    0    0    0  501  0.00000000000E+00  0.00000000000E+00  0.13891713638E+03  0.13891713647E+03  0.50400001928E-02 0. -1.
        1   -1    0    0  501    0  0.00000000000E+00  0.00000000000E+00 -0.17996363677E+04  0.17996363677E+04  0.50400001928E-02 0.  1.
    10030    2    1    2    0    0  0.00000000000E+00  0.00000000000E+00 -0.16607192313E+04  0.19385535042E+04  0.10000006616E+04 0.  0.
        4    1    3    3  502    0 -0.40073692066E+03  0.13060031713E+03 -0.13517984375E+04  0.14159827509E+04  0.12699999809E+01 0.  1.
       -4    1    3    3    0  502  0.40073692066E+03 -0.13060031713E+03 -0.30892079387E+03  0.52257075329E+03  0.12699999809E+01 0. -1.
</event>
<event>
 5   0  0.2503680E-04  0.9999938E+03  0.7818609E-02  0.9308552E-01
       -2   -1    0    0    0  501  0.00000000000E+00  0.00000000000E+00  0.33563608563E+03  0.33563608564E+03  0.25500000920E-02 0. -1.
        2   -1    0    0  501    0  0.00000000000E+00  0.00000000000E+00 -0.74484508839E+03  0.74484508839E+03  0.25500000920E-02 0.  1.
    10030    2    1    2    0    0  0.00000000000E+00  0.00000000000E+00 -0.40920900276E+03  0.10804811740E+04  0.99999377973E+03 0.  0.
        2    1    3    3  502    0  0.30446047123E+03 -0.25996633822E+03  0.11903402593E+03  0.41766945649E+03  0.25500000920E-02 0. -1.
       -2    1    3    3    0  502 -0.30446047123E+03  0.25996633822E+03 -0.52824302868E+03  0.66281171754E+03  0.25500000920E-02 0.  1.
</event>
<event>
 5   0  0.2403037E-04  0.1000005E+04  0.7818609E-02  0.9308540E-01
        2   -1    0    0  501    0  0.00000000000E+00  0.00000000000E+00  0.53188033945E+03  0.53188033945E+03  0.25500000920E-02 0.  1.
       -2   -1    0    0    0  501  0.00000000000E+00  0.00000000000E+00 -0.47003491152E+03  0.47003491153E+03  0.25500000920E-02 0. -1.
    10030    2    1    2    0    0  0.00000000000E+00  0.00000000000E+00  0.61845427927E+02  0.10019152510E+04  0.10000046566E+04 0.  0.
        1    1    3    3  502    0 -0.32738006870E+03  0.36038929208E+03 -0.83067137395E+02  0.49392135059E+03  0.50400001928E-02 0. -1.
       -1    1    3    3    0  502  0.32738006870E+03 -0.36038929208E+03  0.14491256532E+03  0.50799390040E+03  0.50400001928E-02 0.  1.
</event>
<event>
 5   0  0.9650500E-05  0.9995587E+03  0.7818609E-02  0.9309029E-01
        3   -1    0    0  501    0  0.00000000000E+00  0.00000000000E+00  0.14407447728E+04  0.14407447764E+04  0.10100000352E+00 0. -1.
       -3   -1    0    0    0  501  0.00000000000E+00  0.00000000000E+00 -0.17336824327E+03  0.17336827269E+03  0.10100000352E+00 0.  1.
    10030    2    1    2    0    0  0.00000000000E+00  0.00000000000E+00  0.12673765296E+04  0.16141130491E+04  0.99955873638E+03 0.  0.
        1    1    3    3  502    0  0.29501207466E+02 -0.44590692401E+03  0.99504896966E+03  0.10907913449E+04  0.50400001928E-02 0.  1.
       -1    1    3    3    0  502 -0.29501207466E+02  0.44590692401E+03  0.27232755991E+03  0.52332170415E+03  0.50400001928E-02 0. -1.
</event>
<event>
 5   0  0.1453863E-04  0.9981711E+03  0.7818609E-02  0.9310553E-01
       -1   -1    0    0    0  501  0.00000000000E+00  0.00000000000E+00  0.55820128879E+03  0.55820128882E+03  0.50400001928E-02 0.  1.
        1   -1    0    0  501    0  0.00000000000E+00  0.00000000000E+00 -0.44623044430E+03  0.44623044433E+03  0.50400001928E-02 0. -1.
    10030    2    1    2    0    0  0.00000000000E+00  0.00000000000E+00  0.11197084450E+03  0.10044317331E+04  0.99817114591E+03 0.  0.
        1    1    3    3  502    0  0.22380931076E+03 -0.21488538580E+03  0.44935938800E+03  0.54606794103E+03  0.50400001928E-02 0.  1.
       -1    1    3    3    0  502 -0.22380931076E+03  0.21488538580E+03 -0.33738854350E+03  0.45836379212E+03  0.50400001928E-02 0. -1.
</event>
<event>
 5   0  0.2503680E-04  0.9998543E+03  0.7818609E-02  0.9308705E-01
       -2   -1    0    0    0  501  0.00000000000E+00  0.00000000000E+00  0.31156392343E+03  0.31156392344E+03  0.25500000920E-02 0.  1.
        2   -1    0    0  501    0  0.00000000000E+00  0.00000000000E+00 -0.80216975876E+03  0.80216975876E+03  0.25500000920E-02 0. -1.
    10030    2    1    2    0    0  0.00000000000E+00  0.00000000000E+00 -0.49060583532E+03  0.11137336822E+04  0.99985430400E+03 0.  0.
        2    1    3    3  502    0  0.17041330039E+03  0.30230286985E+03  0.15554402688E+03  0.38029154918E+03  0.25500000920E-02 0.  1.
       -2    1    3    3    0  502 -0.17041330039E+03 -0.30230286985E+03 -0.64614986220E+03  0.73344213303E+03  0.25500000920E-02 0. -1.
</event>
<event>
 5   0  0.1453863E-04  0.9998343E+03  0.7818609E-02  0.9308727E-01
       -1   -1    0    0    0  501  0.00000000000E+00  0.00000000000E+00  0.11273499669E+04  0.11273499670E+04  0.50400001928E-02 0.  1.
        1   -1    0    0  501    0  0.00000000000E+00  0.00000000000E+00 -0.22168551953E+03  0.22168551959E+03  0.50400001928E-02 0. -1.
    10030    2    1    2    0    0  0.00000000000E+00  0.00000000000E+00  0.90566444741E+03  0.13490354865E+04  0.99983431259E+03 0.  0.
        1    1    3    3  502    0  0.46021052914E+03 -0.85556952224E+02  0.68963944745E+03  0.83349642513E+03  0.50400001928E-02 0.  1.
       -1    1    3    3    0  502 -0.46021052914E+03  0.85556952224E+02  0.21602499997E+03  0.51553906141E+03  0.50400001928E-02 0. -1.
</event>
<event>
 5   0  0.2403037E-04  0.1000275E+04  0.7818609E-02  0.9308243E-01
        2   -1    0    0  501    0  0.00000000000E+00  0.00000000000E+00  0.17714490644E+04  0.17714490644E+04  0.25500000920E-02 0.  1.
       -2   -1    0    0    0  501  0.00000000000E+00  0.00000000000E+00 -0.14120497143E+03  0.14120497145E+03  0.25500000920E-02 0. -1.
    10030    2    1    2    0    0  0.00000000000E+00  0.00000000000E+00  0.16302440930E+04  0.19126540359E+04  0.10002747914E+04 0.  0.
        1    1    3    3  502    0  0.33146327509E+03 -0.35451520956E+03  0.58416985397E+03  0.75947571050E+03  0.50400001928E-02 0. -1.
       -1    1    3    3    0  502 -0.33146327509E+03  0.35451520956E+03  0.10460742390E+04  0.11531783254E+04  0.50400001928E-02 0.  1.
</event>
<event>
 5   0  0.1506454E-04  0.1000107E+04  0.7818609E-02  0.9308427E-01
       -1   -1    0    0    0  501  0.00000000000E+00  0.00000000000E+00  0.17492664421E+03  0.17492664428E+03  0.50400001928E-02 0. -1.
        1   -1    0    0  501    0  0.00000000000E+00  0.00000000000E+00 -0.14294771336E+04  0.14294771336E+04  0.50400001928E-02 0.  1.
    10030    2    1    2    0    0  0.00000000000E+00  0.00000000000E+00 -0.12545504894E+04  0.16044037779E+04  0.10001072703E+04 0.  0.
        3    1    3    3  502    0  0.32876167856E+02  0.24196057867E+03 -0.13273305308E+04  0.13496044281E+04  0.10100000352E+00 0.  1.
       -3    1    3    3    0  502 -0.32876167856E+02 -0.24196057867E+03  0.72780041407E+02  0.25479934983E+03  0.10100000352E+00 0. -1.
</event>
<event>
 5   0  0.2473312E-04  0.9998356E+03  0.7818609E-02  0.9308725E-01
       -2   -1    0    0    0  501  0.00000000000E+00  0.00000000000E+00  0.17085875065E+03  0.17085875066E+03  0.25500000920E-02 0.  1.
        2   -1    0    0  501    0  0.00000000000E+00  0.00000000000E+00 -0.14627158031E+04  0.14627158031E+04  0.25500000920E-02 0. -1.
    10030    2    1    2    0    0  0.00000000000E+00  0.00000000000E+00 -0.12918570524E+04  0.16335745537E+04  0.99983557584E+03 0.  0.
        5    1    3    3  502    0 -0.17573051170E+03 -0.32418697451E+03 -0.94479707306E+02  0.38069267431E+03  0.46999998093E+01 0.  1.
       -5    1    3    3    0  502  0.17573051170E+03  0.32418697451E+03 -0.11973773451E+04  0.12528818794E+04  0.46999998093E+01 0. -1.
</event>
<event>
 5   0  0.2403037E-04  0.1000031E+04  0.7818609E-02  0.9308511E-01
       -2   -1    0    0    0  501  0.00000000000E+00  0.00000000000E+00  0.22111039086E+03  0.22111039087E+03  0.25500000920E-02 0.  1.
        2   -1    0    0  501    0  0.00000000000E+00  0.00000000000E+00 -0.11307263910E+04  0.11307263910E+04  0.25500000920E-02 0. -1.
    10030    2    1    2    0    0  0.00000000000E+00  0.00000000000E+00 -0.90961600011E+03  0.13518367818E+04  0.10000307081E+04 0.  0.
        1    1    3    3  502    0 -0.36121981361E+03 -0.50199922550E+02 -0.91722388628E+03  0.98706607862E+03  0.50400001928E-02 0. -1.
       -1    1    3    3    0  502  0.36121981361E+03  0.50199922550E+02  0.76078861747E+01  0.36477070322E+03  0.50400001928E-02 0.  1.
</event>
<event>
 5   0  0.1461334E-04  0.1000043E+04  0.7818609E-02  0.9308497E-01
        1   -1    0    0  501    0  0.00000000000E+00  0.00000000000E+00  0.85787631123E+03  0.85787631124E+03  0.50400001928E-02 0.  1.
       -1   -1    0    0    0  501  0.00000000000E+00  0.00000000000E+00 -0.29144260623E+03  0.29144260627E+03  0.50400001928E-02 0. -1.
    10030    2    1    2    0    0  0.00000000000E+00  0.00000000000E+00  0.56643370500E+03  0.11493189175E+04  0.10000434151E+04 0.  0.
        2    1    3    3  502    0  0.47276003555E+03  0.12175743508E+03  0.15893211511E+03  0.51340660439E+03  0.25500000920E-02 0. -1.
       -2    1    3    3    0  502 -0.47276003555E+03 -0.12175743508E+03  0.40750158989E+03  0.63591231312E+03  0.25500000920E-02 0.  1.
</event>
<event>
 5   0  0.2503680E-04  0.1000063E+04  0.7818609E-02  0.9308475E-01
        2   -1    0    0  501    0  0.00000000000E+00  0.00000000000E+00  0.11081560101E+04  0.11081560101E+04  0.25500000920E-02 0.  1.
       -2   -1    0    0    0  501  0.00000000000E+00  0.00000000000E+00 -0.22562860533E+03  0.22562860534E+03  0.25500000920E-02 0. -1.
    10030    2    1    2    0    0  0.00000000000E+00  0.00000000000E+00  0.88252740474E+03  0.13337846154E+04  0.10000633881E+04 0.  0.
        2    1    3    3  502    0 -0.24117339686E+03 -0.13196848485E+03  0.99831528621E+03  0.10354775222E+04  0.25500000920E-02 0.  1.
       -2    1    3    3    0  502  0.24117339686E+03  0.13196848485E+03 -0.11578788147E+03  0.29830709319E+03  0.25500000920E-02 0. -1.
</event>
<event>
 5   0  0.2403037E-04  0.1000188E+04  0.7818609E-02  0.9308338E-01
        2   -1    0    0  501    0  0.00000000000E+00  0.00000000000E+00  0.65342986529E+03  0.65342986529E+03  0.25500000920E-02 0. -1.
       -2   -1    0    0    0  501  0.00000000000E+00  0.00000000000E+00 -0.38274061259E+03  0.38274061260E+03  0.25500000920E-02 0.  1.
    10030    2    1    2    0    0  0.00000000000E+00  0.00000000000E+00  0.27068925269E+03  0.10361704779E+04  0.10001882761E+04 0.  0.
        1    1    3    3  502    0  0.32276384778E+03  0.28653092765E+03 -0.12636514432E+03  0.44971615899E+03  0.50400001928E-02 0.  1.
       -1    1    3    3    0  502 -0.32276384778E+03 -0.28653092765E+03  0.39705439702E+03  0.58645431890E+03  0.50400001928E-02 0. -1.
</event>
<event>
 5   0  0.1461334E-04  0.9997704E+03  0.7818609E-02  0.9308797E-01
       -1   -1    0    0    0  501  0.00000000000E+00  0.00000000000E+00  0.65738196220E+03  0.65738196222E+03  0.50400001928E-02 0.  1.
        1   -1    0    0  501    0  0.00000000000E+00  0.00000000000E+00 -0.38012179078E+03  0.38012179082E+03  0.50400001928E-02 0. -1.
    10030    2    1    2    0    0  0.00000000000E+00  0.00000000000E+00  0.27726017141E+03  0.10375037530E+04  0.99977039109E+03 0.  0.
        2    1    3    3  502    0  0.82010833808E+02  0.31210903113E+03 -0.25754739934E+03  0.41287829573E+03  0.25500000920E-02 0. -1.
       -2    1    3    3    0  502 -0.82010833808E+02 -0.31210903113E+03  0.53480757075E+03  0.62462545730E+03  0.25500000920E-02 0.  1.
</event>
<event>
 5   0  0.1414165E-04  0.1000313E+04  0.7818609E-02  0.9308201E-01
        1   -1    0    0  501    0  0.00000000000E+00  0.00000000000E+00  0.15452123767E+04  0.15452123767E+04  0.50400001928E-02 0.  1.
       -1   -1    0    0    0  501  0.00000000000E+00  0.00000000000E+00 -0.16189148586E+03  0.16189148594E+03  0.50400001928E-02 0. -1.
    10030    2    1    2    0    0  0.00000000000E+00  0.00000000000E+00  0.13833208909E+04  0.17071038627E+04  0.10003134063E+04 0.  0.
        4    1    3    3  502    0  0.20037367702E+02  0.47623542210E+03  0.95021236128E+03  0.10630648229E+04  0.12699999809E+01 0.  1.
       -4    1    3    3    0  502 -0.20037367702E+02 -0.47623542210E+03  0.43310852958E+03  0.64403903971E+03  0.12699999809E+01 0. -1.
</event>
<event>
 5   0  0.2473312E-04  0.1000008E+04  0.7818609E-02  0.9308536E-01
       -2   -1    0    0    0  501  0.00000000000E+00  0.00000000000E+00  0.33540968167E+03  0.33540968168E+03  0.25500000920E-02 0.  1.
        2   -1    0    0  501    0  0.00000000000E+00  0.00000000000E+00 -0.74536942223E+03  0.74536942223E+03  0.25500000920E-02 0. -1.
    10030    2    1    2    0    0  0.00000000000E+00  0.00000000000E+00 -0.40995974056E+03  0.10807791039E+04  0.10000082413E+04 0.  0.
        5    1    3    3  502    0 -0.35996711581E+03  0.26930545825E+03  0.31509532393E+02  0.45068469570E+03  0.46999998093E+01 0.  1.
       -5    1    3    3    0  502  0.35996711581E+03 -0.26930545825E+03 -0.44146927295E+03  0.63009440822E+03  0.46999998093E+01 0. -1.
</event>
<event>
 5   0  0.1506454E-04  0.9998929E+03  0.7818609E-02  0.9308662E-01
        1   -1    0    0  501    0  0.00000000000E+00  0.00000000000E+00  0.74540080688E+03  0.74540080690E+03  0.50400001928E-02 0.  1.
       -1   -1    0    0    0  501  0.00000000000E+00  0.00000000000E+00 -0.33531817869E+03  0.33531817873E+03  0.50400001928E-02 0. -1.
    10030    2    1    2    0    0  0.00000000000E+00  0.00000000000E+00  0.41008262818E+03  0.10807189856E+04  0.99989287624E+03 0.  0.
        3    1    3    3  502    0 -0.94477787437E+02 -0.22462970662E+02  0.73510872789E+03  0.74149544125E+03  0.10100000352E+00 0.  1.
       -3    1    3    3    0  502  0.94477787437E+02  0.22462970662E+02 -0.32502609971E+03  0.33922354438E+03  0.10100000352E+00 0. -1.
</event>
<event>
 5   0  0.1453863E-04  0.9996124E+03  0.7818609E-02  0.9308970E-01
       -1   -1    0    0    0  501  0.00000000000E+00  0.00000000000E+00  0.42736689379E+03  0.42736689382E+03  0.50400001928E-02 0.  1.
        1   -1    0    0  501    0  0.00000000000E+00  0.00000000000E+00 -0.58452405667E+03  0.58452405669E+03  0.50400001928E-02 0. -1.
    10030    2    1    2    0    0  0.00000000000E+00  0.00000000000E+00 -0.15715716288E+03  0.10118909505E+04  0.99961238582E+03 0.  0.
        1    1    3    3  502    0 -0.24485656639E+03  0.13600790466E+03 -0.49761172322E+03  0.57102566960E+03  0.50400001928E-02 0. -1.
       -1    1    3    3    0  502  0.24485656639E+03 -0.13600790466E+03  0.34045456034E+03  0.44086528091E+03  0.50400001928E-02 0.  1.
</event>
<event>
 5   0  0.2484904E-04  0.9999841E+03  0.7818609E-02  0.9308562E-01
        2   -1    0    0  501    0  0.00000000000E+00  0.00000000000E+00  0.16060392841E+04  0.16060392841E+04  0.25500000920E-02 0.  1.
       -2   -1    0    0    0  501  0.00000000000E+00  0.00000000000E+00 -0.15565749380E+03  0.15565749382E+03  0.25500000920E-02 0. -1.
    10030    2    1    2    0    0  0.00000000000E+00  0.00000000000E+00  0.14503817903E+04  0.17616967779E+04  0.99998409974E+03 0.  0.
        3    1    3    3  502    0  0.14889561481E+03 -0.16110463836E+03 -0.66346055888E+02  0.22918642618E+03  0.10100000352E+00 0. -1.
       -3    1    3    3    0  502 -0.14889561481E+03  0.16110463836E+03  0.15167278462E+04  0.15325103518E+04  0.10100000352E+00 0.  1.
</event>
<event>
 5   0  0.2473312E-04  0.1000313E+04  0.7818609E-02  0.9308202E-01
        2   -1    0    0  501    0  0.00000000000E+00  0.00000000000E+00  0.27674925107E+03  0.27674925108E+03  0.25500000920E-02 0.  1.
       -2   -1    0    0    0  501  0.00000000000E+00  0.00000000000E+00 -0.90391028547E+03  0.90391028547E+03  0.25500000920E-02 0. -1.
    10030    2    1    2    0    0  0.00000000000E+00  0.00000000000E+00 -0.62716103440E+03  0.11806595365E+04  0.10003129401E+04 0.  0.
        5    1    3    3  502    0  0.31576867178E+03 -0.38750252481E+03 -0.29431813327E+03  0.58009767659E+03  0.46999998093E+01 0. -1.
       -5    1    3    3    0  502 -0.31576867178E+03  0.38750252481E+03 -0.33284290113E+03  0.60056185996E+03  0.46999998093E+01 0.  1.
</event>
<event>
 5   0  0.1430675E-04  0.1000173E+04  0.7818609E-02  0.9308355E-01
       -1   -1    0    0    0  501  0.00000000000E+00  0.00000000000E+00  0.18796067793E+03  0.18796067800E+03  0.50400001928E-02 0.  1.
        1   -1    0    0  501    0  0.00000000000E+00  0.00000000000E+00 -0.13305256587E+04  0.13305256587E+04  0.50400001928E-02 0. -1.
    10030    2    1    2    0    0  0.00000000000E+00  0.00000000000E+00 -0.11425649808E+04  0.15184863367E+04  0.10001729948E+04 0.  0.
        5    1    3    3  502    0  0.49382614246E+03  0.64463755386E+02 -0.50263291843E+03  0.70758870498E+03  0.46999998093E+01 0. -1.
       -5    1    3    3    0  502 -0.49382614246E+03 -0.64463755386E+02 -0.63993206237E+03  0.81089763176E+03  0.46999998093E+01 0.  1.
</event>
<event>
 5   0  0.1461334E-04  0.9998814E+03  0.7818609E-02  0.9308675E-01
        1   -1    0    0  501    0  0.00000000000E+00  0.00000000000E+00  0.12464540004E+04  0.12464540004E+04  0.50400001928E-02 0. -1.
       -1   -1    0    0    0  501  0.00000000000E+00  0.00000000000E+00 -0.20052140499E+03  0.20052140506E+03  0.50400001928E-02 0.  1.
    10030    2    1    2    0    0  0.00000000000E+00  0.00000000000E+00  0.10459325954E+04  0.14469754054E+04  0.99988140791E+03 0.  0.
        2    1    3    3  502    0  0.14418319211E+03  0.24784788564E+03 -0.69698875687E+02  0.29508524291E+03  0.25500000920E-02 0.  1.
       -2    1    3    3    0  502 -0.14418319211E+03 -0.24784788564E+03  0.11156314711E+04  0.11518901625E+04  0.25500000920E-02 0. -1.
</event>
<event>
 5   0  0.2353916E-04  0.1000160E+04  0.7818609E-02  0.9308370E-01
        2   -1    0    0  501    0  0.00000000000E+00  0.00000000000E+00  0.12334636943E+04  0.12334636943E+04  0.25500000920E-02 0. -1.
       -2   -1    0    0    0  501  0.00000000000E+00  0.00000000000E+00 -0.20274604602E+03  0.20274604603E+03  0.25500000920E-02 0.  1.
    10030    2    1    2    0    0  0.00000000000E+00  0.00000000000E+00  0.10307176483E+04  0.14362097404E+04  0.10001597611E+04 0.  0.
        4    1    3    3  502    0  0.36458824581E+03 -0.26261785723E+03  0.20014381919E+03  0.49188605304E+03  0.12699999809E+01 0.  1.
       -4    1    3    3    0  502 -0.36458824581E+03  0.26261785723E+03  0.83057382914E+03  0.94432368734E+03  0.12699999809E+01 0. -1.
</event>
<event>
 5   0  0.2473312E-04  0.9998425E+03  0.7818609E-02  0.9308718E-01
        2   -1    0    0  501    0  0.00000000000E+00  0.00000000000E+00  0.14085840593E+04  0.14085840593E+04  0.25500000920E-02 0. -1.
       -2   -1    0    0    0  501  0.00000000000E+00  0.00000000000E+00 -0.17742730177E+03  0.17742730179E+03  0.25500000920E-02 0.  1.
    10030    2    1    2    0    0  0.00000000000E+00  0.00000000000E+00  0.12311567576E+04  0.15860113611E+04  0.99984252557E+03 0.  0.
        5    1    3    3  502    0  0.35011785303E+03  0.33046110786E+03  0.82905945477E+03  0.95872244386E+03  0.46999998093E+01 0. -1.
       -5    1    3    3    0  502 -0.35011785303E+03 -0.33046110786E+03  0.40209730280E+03  0.62728891728E+03  0.46999998093E+01 0.  1.
</event>
<event>
 5   0  0.1414165E-04  0.9969554E+03  0.7818609E-02  0.9311890E-01
       -1   -1    0    0    0  501  0.00000000000E+00  0.00000000000E+00  0.31819747257E+03  0.31819747261E+03  0.50400001928E-02 0.  1.
        1   -1    0    0  501    0  0.00000000000E+00  0.00000000000E+00 -0.78089878763E+03  0.78089878765E+03  0.50400001928E-02 0. -1.
    10030    2    1    2    0    0  0.00000000000E+00  0.00000000000E+00 -0.46270131506E+03  0.10990962603E+04  0.99695540641E+03 0.  0.
        4    1    3    3  502    0  0.15912162010E+03 -0.37492627188E+03  0.85475567750E+02  0.41616953866E+03  0.12699999809E+01 0. -1.
       -4    1    3    3    0  502 -0.15912162010E+03  0.37492627188E+03 -0.54817688281E+03  0.68292672160E+03  0.12699999809E+01 0.  1.
</event>
<event>
 5   0  0.2503680E-04  0.1000238E+04  0.7818609E-02  0.9308284E-01
       -2   -1    0    0    0  501  0.00000000000E+00  0.00000000000E+00  0.71093776494E+03  0.71093776494E+03  0.25500000920E-02 0. -1.
        2   -1    0    0  501    0  0.00000000000E+00  0.00000000000E+00 -0.35181549245E+03  0.35181549246E+03  0.25500000920E-02 0.  1.
    10030    2    1    2    0    0  0.00000000000E+00  0.00000000000E+00  0.35912227249E+03  0.10627532574E+04  0.10002378115E+04 0.  0.
        2    1    3    3  502    0 -0.17509127396E+01  0.26732969396E+03  0.62864921272E+03  0.68313107353E+03  0.25500000920E-02 0. -1.
       -2    1    3    3    0  502  0.17509127396E+01 -0.26732969396E+03 -0.26952694023E+03  0.37962218387E+03  0.25500000920E-02 0.  1.
</event>
<event>
 5   0  0.9650500E-05  0.1000995E+04  0.7818609E-02  0.9307454E-01
       -3   -1    0    0    0  501  0.00000000000E+00  0.00000000000E+00  0.34462093706E+03  0.34462095186E+03  0.10100000352E+00 0. -1.
        3   -1    0    0  501    0  0.00000000000E+00  0.00000000000E+00 -0.72687965227E+03  0.72687965928E+03  0.10100000352E+00 0.  1.
    10030    2    1    2    0    0  0.00000000000E+00  0.00000000000E+00 -0.38225871521E+03  0.10715006111E+04  0.10009954217E+04 0.  0.
        5    1    3    3  502    0 -0.10219660173E+03  0.20201161062E+02  0.33286324879E+03  0.34881551672E+03  0.46999998093E+01 0. -1.
       -5    1    3    3    0  502  0.10219660173E+03 -0.20201161062E+02 -0.71512196400E+03  0.72268509442E+03  0.46999998093E+01 0.  1.
</event>
<event>
 5   0  0.1461334E-04  0.1000180E+04  0.7818609E-02  0.9308347E-01
       -1   -1    0    0    0  501  0.00000000000E+00  0.00000000000E+00  0.28461378310E+03  0.28461378315E+03  0.50400001928E-02 0. -1.
        1   -1    0    0  501    0  0.00000000000E+00  0.00000000000E+00 -0.87869961294E+03  0.87869961296E+03  0.50400001928E-02 0.  1.
    10030    2    1    2    0    0  0.00000000000E+00  0.00000000000E+00 -0.59408582984E+03  0.11633133961E+04  0.10001800260E+04 0.  0.
        2    1    3    3  502    0 -0.22045645143E+03 -0.44608565468E+03 -0.35515812320E+03  0.61133521963E+03  0.25500000920E-02 0. -1.
       -2    1    3    3    0  502  0.22045645143E+03  0.44608565468E+03 -0.23892770664E+03  0.55197817647E+03  0.25500000920E-02 0.  1.
</event>
<event>
 5   0  0.2403037E-04  0.1000052E+04  0.7818609E-02  0.9308488E-01
        2   -1    0    0  501    0  0.00000000000E+00  0.00000000000E+00  0.69980660155E+03  0.69980660156E+03  0.25500000920E-02 0.  1.
       -2   -1    0    0    0  501  0.00000000000E+00  0.00000000000E+00 -0.35727874233E+03  0.35727874234E+03  0.25500000920E-02 0. -1.
    10030    2    1    2    0    0  0.00000000000E+00  0.00000000000E+00  0.34252785922E+03  0.10570853439E+04  0.10000520436E+04 0.  0.
        1    1    3    3  502    0  0.28992645159E+03 -0.31595511851E+03  0.44310993379E+03  0.61662906004E+03  0.50400001928E-02 0.  1.
       -1    1    3    3    0  502 -0.28992645159E+03  0.31595511851E+03 -0.10058207457E+03  0.44045628386E+03  0.50400001928E-02 0. -1.
</event>
<event>
 5   0  0.1453863E-04  0.1000471E+04  0.7818609E-02  0.9308028E-01
        1   -1    0    0  501    0  0.00000000000E+00  0.00000000000E+00  0.13095988070E+04  0.13095988070E+04  0.50400001928E-02 0.  1.
       -1   -1    0    0    0  501  0.00000000000E+00  0.00000000000E+00 -0.19107819237E+03  0.19107819243E+03  0.50400001928E-02 0. -1.
    10030    2    1    2    0    0  0.00000000000E+00  0.00000000000E+00  0.11185206146E+04  0.15006769994E+04  0.10004714345E+04 0.  0.
        1    1    3    3  502    0  0.17362690768E+03  0.14489905418E+03  0.12285456727E+04  0.12491863387E+04  0.50400001928E-02 0.  1.
       -1    1    3    3    0  502 -0.17362690768E+03 -0.14489905418E+03 -0.11002505809E+03  0.25149066067E+03  0.50400001928E-02 0. -1.
</event>
<event>
 5   0  0.1506454E-04  0.9995620E+03  0.7818609E-02  0.9309025E-01
       -1   -1    0    0    0  501  0.00000000000E+00  0.00000000000E+00  0.10199583870E+04  0.10199583870E+04  0.50400001928E-02 0. -1.
        1   -1    0    0  501    0  0.00000000000E+00  0.00000000000E+00 -0.24489334768E+03  0.24489334773E+03  0.50400001928E-02 0.  1.
    10030    2    1    2    0    0  0.00000000000E+00  0.00000000000E+00  0.77506503930E+03  0.12648517347E+04  0.99956195190E+03 0.  0.
        3    1    3    3  502    0  0.39399327510E+03  0.18563818189E+03  0.77343377693E+02  0.44235081516E+03  0.10100000352E+00 0.  1.
       -3    1    3    3    0  502 -0.39399327510E+03 -0.18563818189E+03  0.69772166161E+03  0.82250091956E+03  0.10100000352E+00 0. -1.
</event>
<event>
 5   0  0.2353916E-04  0.9997679E+03  0.7818609E-02  0.9308799E-01
       -2   -1    0    0    0  501  0.00000000000E+00  0.00000000000E+00  0.24287092134E+03  0.24287092136E+03  0.25500000920E-02 0. -1.
        2   -1    0    0  501    0  0.00000000000E+00  0.00000000000E+00 -0.10288755370E+04  0.10288755370E+04  0.25500000920E-02 0.  1.
    10030    2    1    2    0    0  0.00000000000E+00  0.00000000000E+00 -0.78600461562E+03  0.12717464583E+04  0.99976787230E+03 0.  0.
        4    1    3    3  502    0  0.35310777036E+03  0.11460060805E+03 -0.81883039516E+03  0.89905685348E+03  0.12699999809E+01 0.  1.
       -4    1    3    3    0  502 -0.35310777036E+03 -0.11460060805E+03  0.32825779544E+02  0.37268960484E+03  0.12699999809E+01 0. -1.
</event>
<event>
 5   0  0.2403037E-04  0.1000196E+04  0.7818609E-02  0.9308330E-01
        2   -1    0    0  501    0  0.00000000000E+00  0.00000000000E+00  0.18559136073E+03  0.18559136075E+03  0.25500000920E-02 0.  1.
       -2   -1    0    0    0  501  0.00000000000E+00  0.00000000000E+00 -0.13475729842E+04  0.13475729842E+04  0.25500000920E-02 0. -1.
    10030    2    1    2    0    0  0.00000000000E+00  0.00000000000E+00 -0.11619816235E+04  0.15331643450E+04  0.10001957885E+04 0.  0.
        1    1    3    3  502    0 -0.57390343393E+02 -0.44766835707E+03 -0.91117024460E+03  0.10168243821E+04  0.50400001928E-02 0. -1.
       -1    1    3    3    0  502  0.57390343393E+02  0.44766835707E+03 -0.25081137891E+03  0.51633996286E+03  0.50400001928E-02 0.  1.
</event>
<event>
 5   0  0.2473312E-04  0.9999874E+03  0.7818609E-02  0.9308559E-01
        2   -1    0    0  501    0  0.00000000000E+00  0.00000000000E+00  0.14318816260E+04  0.14318816260E+04  0.25500000920E-02 0. -1.
       -2   -1    0    0    0  501  0.00000000000E+00  0.00000000000E+00 -0.17459103132E+03  0.17459103134E+03  0.25500000920E-02 0.  1.
    10030    2    1    2    0    0  0.00000000000E+00  0.00000000000E+00  0.12572905947E+04  0.16064726573E+04  0.99998737957E+03 0.  0.
        5    1    3    3  502    0 -0.55319935202E+02 -0.21828473330E+02 -0.16885316972E+03  0.17908171432E+03  0.46999998093E+01 0.  1.
       -5    1    3    3    0  502  0.55319935202E+02  0.21828473330E+02  0.14261437644E+04  0.14273909430E+04  0.46999998093E+01 0. -1.
</event>
<event>
 5   0  0.1414165E-04  0.9994939E+03  0.7818609E-02  0.9309100E-01
        1   -1    0    0  501    0  0.00000000000E+00  0.00000000000E+00  0.42364946406E+03  0.42364946409E+03  0.50400001928E-02 0.  1.
       -1   -1    0    0    0  501  0.00000000000E+00  0.00000000000E+00 -0.58951339466E+03  0.58951339468E+03  0.50400001928E-02 0. -1.
    10030    2    1    2    0    0  0.00000000000E+00  0.00000000000E+00 -0.16586393060E+03  0.10131628588E+04  0.99949393942E+03 0.  0.
        4    1    3    3  502    0 -0.13593741818E+03 -0.38755101370E+03  0.20569102757E+03  0.45933123299E+03  0.12699999809E+01 0.  1.
       -4    1    3    3    0  502  0.13593741818E+03  0.38755101370E+03 -0.37155495817E+03  0.55383162579E+03  0.12699999809E+01 0. -1.
</event>
<event>
 5   0  0.1430675E-04  0.1000494E+04  0.7818609E-02  0.9308004E-01
        1   -1    0    0  501    0  0.00000000000E+00  0.00000000000E+00  0.12766804313E+04  0.12766804314E+04  0.50400001928E-02 0.  1.
       -1   -1    0    0    0  501  0.00000000000E+00  0.00000000000E+00 -0.19601366837E+03  0.19601366844E+03  0.50400001928E-02 0. -1.
    10030    2    1    2    0    0  0.00000000000E+00  0.00000000000E+00  0.10806667630E+04  0.14726940998E+04  0.10004935077E+04 0.  0.
        5    1    3    3  502    0  0.26650060253E+03 -0.35604306633E+03  0.20327049835E+03  0.48900942908E+03  0.46999998093E+01 0. -1.
       -5    1    3    3    0  502 -0.26650060253E+03  0.35604306633E+03  0.87739626462E+03  0.98368467071E+03  0.46999998093E+01 0.  1.
</event>
<event>
 5   0  0.2503680E-04  0.9984324E+03  0.7818609E-02  0.9310266E-01
       -2   -1    0    0    0  501  0.00000000000E+00  0.00000000000E+00  0.12847403315E+03  0.12847403318E+03  0.25500000920E-02 0.  1.
        2   -1    0    0  501    0  0.00000000000E+00  0.00000000000E+00 -0.19398222998E+04  0.19398222998E+04  0.25500000920E-02 0. -1.
    10030    2    1    2    0    0  0.00000000000E+00  0.00000000000E+00 -0.18113482667E+04  0.20682963330E+04  0.99843236022E+03 0.  0.
        2    1    3    3  502    0  0.27863987929E+03  0.14127195128E+03 -0.99050932095E+02  0.32773317455E+03  0.25500000920E-02 0.  1.
       -2    1    3    3    0  502 -0.27863987929E+03 -0.14127195128E+03 -0.17122973346E+04  0.17405631585E+04  0.25500000920E-02 0. -1.
</event>
<event>
 5   0  0.1414165E-04  0.1000622E+04  0.7818609E-02  0.9307863E-01
        1   -1    0    0  501    0  0.00000000000E+00  0.00000000000E+00  0.79802589978E+03  0.79802589980E+03  0.50400001928E-02 0. -1.
       -1   -1    0    0    0  501  0.00000000000E+00  0.00000000000E+00 -0.31366262428E+03  0.31366262432E+03  0.50400001928E-02 0.  1.
    10030    2    1    2    0    0  0.00000000000E+00  0.00000000000E+00  0.48436327550E+03  0.11116885241E+04  0.10006216028E+04 0.  0.
        4    1    3    3  502    0 -0.31898902909E+03  0.24588968520E+01  0.67038341179E+03  0.74241200055E+03  0.12699999809E+01 0. -1.
       -4    1    3    3    0  502  0.31898902909E+03 -0.24588968520E+01 -0.18602013629E+03  0.36927652357E+03  0.12699999809E+01 0.  1.
</event>
<event>
 5   0  0.2473312E-04  0.9947746E+03  0.7818609E-02  0.9314295E-01
       -2   -1    0    0    0  501  0.00000000000E+00  0.00000000000E+00  0.16178371220E+03  0.16178371222E+03  0.25500000920E-02 0. -1.
        2   -1    0    0  501    0  0.00000000000E+00  0.00000000000E+00 -0.15291657939E+04  0.15291657939E+04  0.25500000920E-02 0.  1.
    10030    2    1    2    0    0  0.00000000000E+00  0.00000000000E+00 -0.13673820817E+04  0.16909495061E+04  0.99477458496E+03 0.  0.
        5    1    3    3  502    0 -0.25420077826E+03  0.38451531713E+03 -0.10012547682E+04  0.11022718656E+04  0.46999998093E+01 0. -1.
       -5    1    3    3    0  502  0.25420077826E+03 -0.38451531713E+03 -0.36612731344E+03  0.58867764050E+03  0.46999998093E+01 0.  1.
</event>
<event>
 5   0  0.1430675E-04  0.9999628E+03  0.7818609E-02  0.9308586E-01
       -1   -1    0    0    0  501  0.00000000000E+00  0.00000000000E+00  0.67903071809E+03  0.67903071811E+03  0.50400001928E-02 0.  1.
        1   -1    0    0  501    0  0.00000000000E+00  0.00000000000E+00 -0.36814447420E+03  0.36814447424E+03  0.50400001928E-02 0. -1.
    10030    2    1    2    0    0  0.00000000000E+00  0.00000000000E+00  0.31088624389E+03  0.10471751923E+04  0.99996281272E+03 0.  0.
        5    1    3    3  502    0 -0.44077224990E+03  0.83933481723E+02  0.38638722629E+03  0.59215047435E+03  0.46999998093E+01 0. -1.
       -5    1    3    3    0  502  0.44077224990E+03 -0.83933481723E+02 -0.75500982406E+02  0.45502471799E+03  0.46999998093E+01 0.  1.
</event>
<event>
 5   0  0.1414165E-04  0.1000402E+04  0.7818609E-02  0.9308104E-01
       -1   -1    0    0    0  501  0.00000000000E+00  0.00000000000E+00  0.13091129985E+04  0.13091129986E+04  0.50400001928E-02 0.  1.
        1   -1    0    0  501    0  0.00000000000E+00  0.00000000000E+00 -0.19112261963E+03  0.19112261970E+03  0.50400001928E-02 0. -1.
    10030    2    1    2    0    0  0.00000000000E+00  0.00000000000E+00  0.11179903789E+04  0.15002356183E+04  0.10004021306E+04 0.  0.
        4    1    3    3  502    0 -0.13789433104E+03 -0.44452511353E+03  0.83380902515E+03  0.95491178986E+03  0.12699999809E+01 0.  1.
       -4    1    3    3    0  502  0.13789433104E+03  0.44452511353E+03  0.28418135376E+03  0.54532382840E+03  0.12699999809E+01 0. -1.
</event>
<event>
 5   0  0.2503680E-04  0.1000095E+04  0.7818609E-02  0.9308440E-01
        2   -1    0    0  501    0  0.00000000000E+00  0.00000000000E+00  0.31408686496E+03  0.31408686497E+03  0.25500000920E-02 0.  1.
       -2   -1    0    0    0  501  0.00000000000E+00  0.00000000000E+00 -0.79610988007E+03  0.79610988007E+03  0.25500000920E-02 0. -1.
    10030    2    1    2    0    0  0.00000000000E+00  0.00000000000E+00 -0.48202301511E+03  0.11101967450E+04  0.10000953083E+04 0.  0.
        2    1    3    3  502    0  0.46324795111E+03 -0.38369883761E+01 -0.32048070457E+02  0.46437104293E+03  0.25500000920E-02 0.  1.
       -2    1    3    3    0  502 -0.46324795111E+03  0.38369883761E+01 -0.44997494465E+03  0.64582570211E+03  0.25500000920E-02 0. -1.
</event>
<event>
 5   0  0.1430675E-04  0.1000446E+04  0.7818609E-02  0.9308056E-01
        1   -1    0    0  501    0  0.00000000000E+00  0.00000000000E+00  0.34519851290E+03  0.34519851294E+03  0.50400001928E-02 0.  1.
       -1   -1    0    0    0  501  0.00000000000E+00  0.00000000000E+00 -0.72486665824E+03  0.72486665826E+03  0.50400001928E-02 0. -1.
    10030    2    1    2    0    0  0.00000000000E+00  0.00000000000E+00 -0.37966814534E+03  0.10700651712E+04  0.10004456857E+04 0.  0.
        5    1    3    3  502    0 -0.25060593355E+03  0.28256411801E+03  0.16094363906E+03  0.41057369578E+03  0.46999998093E+01 0.  1.
       -5    1    3    3    0  502  0.25060593355E+03 -0.28256411801E+03 -0.54061178439E+03  0.65949147541E+03  0.46999998093E+01 0. -1.
</event>
<event>
 5   0  0.2403037E-04  0.9992141E+03  0.7818609E-02  0.9309407E-01
        2   -1    0    0  501    0  0.00000000000E+00  0.00000000000E+00  0.72943970213E+03  0.72943970213E+03  0.25500000920E-02 0.  1.
       -2   -1    0    0    0  501  0.00000000000E+00  0.00000000000E+00 -0.34219030732E+03  0.34219030733E+03  0.25500000920E-02 0. -1.
    10030    2    1    2    0    0  0.00000000000E+00  0.00000000000E+00  0.38724939481E+03  0.10716300095E+04  0.99921408287E+03 0.  0.
        1    1    3    3  502    0  0.22412844900E+03  0.38458156878E+03 -0.49688772194E+02  0.44789007447E+03  0.50400001928E-02 0. -1.
       -1    1    3    3    0  502 -0.22412844900E+03 -0.38458156878E+03  0.43693816700E+03  0.62373993500E+03  0.50400001928E-02 0.  1.
</event>
<event>
 5   0  0.1453863E-04  0.1000258E+04  0.7818609E-02  0.9308262E-01
       -1   -1    0    0    0  501  0.00000000000E+00  0.00000000000E+00  0.15220045612E+03  0.15220045621E+03  0.50400001928E-02 0.  1.
        1   -1    0    0  501    0  0.00000000000E+00  0.00000000000E+00 -0.16434174231E+04  0.16434174231E+04  0.50400001928E-02 0. -1.
    10030    2    1    2    0    0  0.00000000000E+00  0.00000000000E+00 -0.14912169669E+04  0.17956178793E+04  0.10002577297E+04 0.  0.
        1    1    3    3  502    0 -0.18649389047E+03  0.42667117831E+03 -0.10731965989E+04  0.11698629003E+04  0.50400001928E-02 0. -1.
       -1    1    3    3    0  502  0.18649389047E+03 -0.42667117831E+03 -0.41802036803E+03  0.62575497897E+03  0.50400001928E-02 0.  1.
</event>
<event>
 5   0  0.1461334E-04  0.9999772E+03  0.7818609E-02  0.9308570E-01
       -1   -1    0    0    0  501  0.00000000000E+00  0.00000000000E+00  0.32116139766E+03  0.32116139770E+03  0.50400001928E-02 0.  1.
        1   -1    0    0  501    0  0.00000000000E+00  0.00000000000E+00 -0.77838936181E+03  0.77838936183E+03  0.50400001928E-02 0. -1.
    10030    2    1    2    0    0  0.00000000000E+00  0.00000000000E+00 -0.45722796415E+03  0.10995507595E+04  0.99997723053E+03 0.  0.
        2    1    3    3  502    0  0.41980926844E+03  0.13822620153E+03 -0.48564746429E+03  0.65665802686E+03  0.25500000920E-02 0. -1.
       -2    1    3    3    0  502 -0.41980926844E+03 -0.13822620153E+03  0.28419500133E+02  0.44289273267E+03  0.25500000920E-02 0.  1.
</event>
<event>
 5   0  0.2353916E-04  0.1000091E+04  0.7818609E-02  0.9308445E-01
        2   -1    0    0  501    0  0.00000000000E+00  0.00000000000E+00  0.13992909075E+04  0.13992909075E+04  0.25500000920E-02 0.  1.
       -2   -1    0    0    0  501  0.00000000000E+00  0.00000000000E+00 -0.17869450929E+03  0.17869450931E+03  0.25500000920E-02 0. -1.
    10030    2    1    2    0    0  0.00000000000E+00  0.00000000000E+00  0.12205963982E+04  0.15779854168E+04  0.10000912000E+04 0.  0.
        4    1    3    3  502    0  0.15290137914E+03  0.37331221235E+03  0.10765047109E+04  0.11496107363E+04  0.12699999809E+01 0.  1.
       -4    1    3    3    0  502 -0.15290137914E+03 -0.37331221235E+03  0.14409168735E+03  0.42837468050E+03  0.12699999809E+01 0. -1.
</event>
<event>
 5   0  0.2503680E-04  0.9999166E+03  0.7818609E-02  0.9308636E-01
        2   -1    0    0  501    0  0.00000000000E+00  0.00000000000E+00  0.13570749072E+04  0.13570749072E+04  0.25500000920E-02 0. -1.
       -2   -1    0    0    0  501  0.00000000000E+00  0.00000000000E+00 -0.18418901480E+03  0.18418901482E+03  0.25500000920E-02 0.  1.
    10030    2    1    2    0    0  0.00000000000E+00  0.00000000000E+00  0.11728858924E+04  0.15412639220E+04  0.99991657689E+03 0.  0.
        2    1    3    3  502    0  0.19850398856E+03 -0.32339969167E+03  0.84679798757E+02  0.38879539911E+03  0.25500000920E-02 0.  1.
       -2    1    3    3    0  502 -0.19850398856E+03  0.32339969167E+03  0.10882060937E+04  0.11524685229E+04  0.25500000920E-02 0. -1.
</event>
<event>
 5   0  0.2353916E-04  0.9998824E+03  0.7818609E-02  0.9308674E-01
        2   -1    0    0  501    0  0.00000000000E+00  0.00000000000E+00  0.99405737556E+03  0.99405737556E+03  0.25500000920E-02 0.  1.
       -2   -1    0    0    0  501  0.00000000000E+00  0.00000000000E+00 -0.25143539930E+03  0.25143539932E+03  0.25500000920E-02 0. -1.
    10030    2    1    2    0    0  0.00000000000E+00  0.00000000000E+00  0.74262197626E+03  0.12454927749E+04  0.99988241942E+03 0.  0.
        4    1    3    3  502    0  0.54773992891E+02  0.47964633323E+03  0.20947946269E+03  0.52625474199E+03  0.12699999809E+01 0.  1.
       -4    1    3    3    0  502 -0.54773992891E+02 -0.47964633323E+03  0.53314251357E+03  0.71923803289E+03  0.12699999809E+01 0. -1.
</event>
<event>
 5   0  0.1461334E-04  0.9998873E+03  0.7818609E-02  0.9308668E-01
       -1   -1    0    0    0  501  0.00000000000E+00  0.00000000000E+00  0.18406579102E+03  0.18406579109E+03  0.50400001928E-02 0. -1.
        1   -1    0    0  501    0  0.00000000000E+00  0.00000000000E+00 -0.13579038716E+04  0.13579038716E+04  0.50400001928E-02 0.  1.
    10030    2    1    2    0    0  0.00000000000E+00  0.00000000000E+00 -0.11738380805E+04  0.15419696627E+04  0.99988729426E+03 0.  0.
        2    1    3    3  502    0  0.11521418884E+03  0.23444063962E+03  0.70451930634E+02  0.27055534988E+03  0.25500000920E-02 0. -1.
       -2    1    3    3    0  502 -0.11521418884E+03 -0.23444063962E+03 -0.12442900112E+04  0.12714143128E+04  0.25500000920E-02 0.  1.
</event>
<event>
 5   0  0.2403037E-04  0.9996320E+03  0.7818609E-02  0.9308949E-01
        2   -1    0    0  501    0  0.00000000000E+00  0.00000000000E+00  0.54494714796E+03  0.54494714797E+03  0.25500000920E-02 0.  1.
       -2   -1    0    0    0  501  0.00000000000E+00  0.00000000000E+00 -0.45842248399E+03  0.45842248400E+03  0.25500000920E-02 0. -1.
    10030    2    1    2    0    0  0.00000000000E+00  0.00000000000E+00  0.86524663970E+02  0.10033696320E+04  0.99963198272E+03 0.  0.
        1    1    3    3  502    0 -0.39813963246E+03 -0.14568261212E+03  0.30897356074E+03  0.52459818116E+03  0.50400001928E-02 0.  1.
       -1    1    3    3    0  502  0.39813963246E+03  0.14568261212E+03 -0.22244889677E+03  0.47877145081E+03  0.50400001928E-02 0. -1.
</event>
<event>
 5   0  0.1414165E-04  0.1001776E+04  0.7818609E-02  0.9306599E-01
       -1   -1    0    0    0  501  0.00000000000E+00  0.00000000000E+00  0.18245997877E+03  0.18245997884E+03  0.50400001928E-02 0.  1.
        1   -1    0    0  501    0  0.00000000000E+00  0.00000000000E+00 -0.13750357288E+04  0.13750357288E+04  0.50400001928E-02 0. -1.
    10030    2    1    2    0    0  0.00000000000E+00  0.00000000000E+00 -0.11925757501E+04  0.15574957077E+04  0.10017764021E+04 0.  0.
        4    1    3    3  502    0  0.14677368233E+03  0.14951037057E+03  0.11105882220E+03  0.23713190342E+03  0.12699999809E+01 0.  1.
       -4    1    3    3    0  502 -0.14677368233E+03 -0.14951037057E+03 -0.13036345723E+04  0.13203638043E+04  0.12699999809E+01 0. -1.
</event>
<event>
 5   0  0.1461334E-04  0.9999667E+03  0.7818609E-02  0.9308581E-01
        1   -1    0    0  501    0  0.00000000000E+00  0.00000000000E+00  0.61143958055E+03  0.61143958057E+03  0.50400001928E-02 0. -1.
       -1   -1    0    0    0  501  0.00000000000E+00  0.00000000000E+00 -0.40884390594E+03  0.40884390597E+03  0.50400001928E-02 0.  1.
    10030    2    1    2    0    0  0.00000000000E+00  0.00000000000E+00  0.20259567461E+03  0.10202834865E+04  0.99996669221E+03 0.  0.
        2    1    3    3  502    0 -0.13457146929E+03  0.48137202905E+03  0.88601722316E+02  0.50762070082E+03  0.25500000920E-02 0. -1.
       -2    1    3    3    0  502  0.13457146929E+03 -0.48137202905E+03  0.11399395230E+03  0.51266278572E+03  0.25500000920E-02 0.  1.
</event>
<event>
 5   0  0.1453863E-04  0.1000014E+04  0.7818609E-02  0.9308530E-01
       -1   -1    0    0    0  501  0.00000000000E+00  0.00000000000E+00  0.65885845517E+03  0.65885845519E+03  0.50400001928E-02 0.  1.
        1   -1    0    0  501    0  0.00000000000E+00  0.00000000000E+00 -0.37945453250E+03  0.37945453253E+03  0.50400001928E-02 0. -1.
    10030    2    1    2    0    0  0.00000000000E+00  0.00000000000E+00  0.27940392267E+03  0.10383129877E+04  0.10000136541E+04 0.  0.
        1    1    3    3  502    0 -0.14642814827E+03 -0.14917134093E+03 -0.33191152666E+03  0.39224807598E+03  0.50400001928E-02 0. -1.
       -1    1    3    3    0  502  0.14642814827E+03  0.14917134093E+03  0.61131544933E+03  0.64606491173E+03  0.50400001928E-02 0.  1.
</event>
<event>
 5   0  0.2403037E-04  0.9999483E+03  0.7818609E-02  0.9308602E-01
        2   -1    0    0  501    0  0.00000000000E+00  0.00000000000E+00  0.19557957283E+04  0.19557957283E+04  0.25500000920E-02 0.  1.
       -2   -1    0    0    0  501  0.00000000000E+00  0.00000000000E+00 -0.12781198764E+03  0.12781198767E+03  0.25500000920E-02 0. -1.
    10030    2    1    2    0    0  0.00000000000E+00  0.00000000000E+00  0.18279837406E+04  0.20836077159E+04  0.99994827763E+03 0.  0.
        1    1    3    3  502    0 -0.14564917853E+03 -0.40696912724E+03  0.39041679165E+03  0.58246272410E+03  0.50400001928E-02 0. -1.
       -1    1    3    3    0  502  0.14564917853E+03  0.40696912724E+03  0.14375669490E+04  0.15011449918E+04  0.50400001928E-02 0.  1.
</event>
<event>
 5   0  0.1453863E-04  0.9996523E+03  0.7818609E-02  0.9308926E-01
       -1   -1    0    0    0  501  0.00000000000E+00  0.00000000000E+00  0.60216299635E+03  0.60216299637E+03  0.50400001928E-02 0. -1.
        1   -1    0    0  501    0  0.00000000000E+00  0.00000000000E+00 -0.41488133143E+03  0.41488133146E+03  0.50400001928E-02 0.  1.
    10030    2    1    2    0    0  0.00000000000E+00  0.00000000000E+00  0.18728166492E+03  0.10170443278E+04  0.99965231094E+03 0.  0.
        1    1    3    3  502    0  0.39538067549E+03 -0.30005708255E+03  0.15353831786E+03  0.51955187077E+03  0.50400001928E-02 0. -1.
       -1    1    3    3    0  502 -0.39538067549E+03  0.30005708255E+03  0.33743347063E+02  0.49749245707E+03  0.50400001928E-02 0.  1.
</event>
<event>
 5   0  0.1430675E-04  0.9998423E+03  0.7818609E-02  0.9308718E-01
       -1   -1    0    0    0  501  0.00000000000E+00  0.00000000000E+00  0.25519066575E+03  0.25519066580E+03  0.50400001928E-02 0.  1.
        1   -1    0    0  501    0  0.00000000000E+00  0.00000000000E+00 -0.97935065717E+03  0.97935065718E+03  0.50400001928E-02 0. -1.
    10030    2    1    2    0    0  0.00000000000E+00  0.00000000000E+00 -0.72415999142E+03  0.12345413230E+04  0.99984228005E+03 0.  0.
        5    1    3    3  502    0  0.20077469878E+03 -0.26493225391E+03  0.98924017930E+02  0.34685390318E+03  0.46999998093E+01 0.  1.
       -5    1    3    3    0  502 -0.20077469878E+03  0.26493225391E+03 -0.82308400935E+03  0.88768741980E+03  0.46999998093E+01 0. -1.
</event>
<event>
 5   0  0.1506454E-04  0.9984336E+03  0.7818609E-02  0.9310264E-01
       -1   -1    0    0    0  501  0.00000000000E+00  0.00000000000E+00  0.65604286746E+03  0.65604286748E+03  0.50400001928E-02 0.  1.
        1   -1    0    0  501    0  0.00000000000E+00  0.00000000000E+00 -0.37987976408E+03  0.37987976411E+03  0.50400001928E-02 0. -1.
    10030    2    1    2    0    0  0.00000000000E+00  0.00000000000E+00  0.27616310338E+03  0.10359226316E+04  0.99843359266E+03 0.  0.
        3    1    3    3  502    0 -0.35302158868E+03  0.18655105855E+03  0.44898577428E+03  0.60084421877E+03  0.10100000352E+00 0.  1.
       -3    1    3    3    0  502  0.35302158868E+03 -0.18655105855E+03 -0.17282267090E+03  0.43507841282E+03  0.10100000352E+00 0. -1.
</event>
<event>
 5   0  0.2503680E-04  0.1001122E+04  0.7818609E-02  0.9307315E-01
       -2   -1    0    0    0  501  0.00000000000E+00  0.00000000000E+00  0.21504102441E+03  0.21504102443E+03  0.25500000920E-02 0.  1.
        2   -1    0    0  501    0  0.00000000000E+00  0.00000000000E+00 -0.11651793254E+04  0.11651793254E+04  0.25500000920E-02 0. -1.
    10030    2    1    2    0    0  0.00000000000E+00  0.00000000000E+00 -0.95013830094E+03  0.13802203498E+04  0.10011220820E+04 0.  0.
        2    1    3    3  502    0  0.41629247750E+03 -0.25403087139E+03 -0.31951565601E+03  0.58302775652E+03  0.25500000920E-02 0. -1.
       -2    1    3    3    0  502 -0.41629247750E+03  0.25403087139E+03 -0.63062264493E+03  0.79719259326E+03  0.25500000920E-02 0.  1.
</event>
<event>
 5   0  0.2503680E-04  0.1000229E+04  0.7818609E-02  0.9308293E-01
        2   -1    0    0  501    0  0.00000000000E+00  0.00000000000E+00  0.65015261595E+03  0.65015261596E+03  0.25500000920E-02 0.  1.
       -2   -1    0    0    0  501  0.00000000000E+00  0.00000000000E+00 -0.38470144185E+03  0.38470144185E+03  0.25500000920E-02 0. -1.
    10030    2    1    2    0    0  0.00000000000E+00  0.00000000000E+00  0.26545117411E+03  0.10348540578E+04  0.10002292713E+04 0.  0.
        2    1    3    3  502    0 -0.22970836026E+03  0.18245400844E+03  0.55178916024E+03  0.62492133372E+03  0.25500000920E-02 0.  1.
       -2    1    3    3    0  502  0.22970836026E+03 -0.18245400844E+03 -0.28633798614E+03  0.40993272409E+03  0.25500000920E-02 0. -1.
</event>
<event>
 5   0  0.2353916E-04  0.9998651E+03  0.7818609E-02  0.9308693E-01
        2   -1    0    0  501    0  0.00000000000E+00  0.00000000000E+00  0.14193606597E+04  0.14193606597E+04  0.25500000920E-02 0. -1.
       -2   -1    0    0    0  501  0.00000000000E+00  0.00000000000E+00 -0.17608811948E+03  0.17608811949E+03  0.25500000920E-02 0.  1.
    10030    2    1    2    0    0  0.00000000000E+00  0.00000000000E+00  0.12432725402E+04  0.15954487792E+04  0.99986508979E+03 0.  0.
        4    1    3    3  502    0 -0.16525661336E+02 -0.81076946565E+02 -0.16508334117E+03  0.18466372459E+03  0.12699999809E+01 0.  1.
       -4    1    3    3    0  502  0.16525661336E+02  0.81076946565E+02  0.14083558814E+04  0.14107850546E+04  0.12699999809E+01 0. -1.
</event>
<event>
 5   0  0.1430675E-04  0.1000045E+04  0.7818609E-02  0.9308496E-01
        1   -1    0    0  501    0  0.00000000000E+00  0.00000000000E+00  0.12974856498E+04  0.12974856498E+04  0.50400001928E-02 0. -1.
       -1   -1    0    0    0  501  0.00000000000E+00  0.00000000000E+00 -0.19269759139E+03  0.19269759145E+03  0.50400001928E-02 0.  1.
    10030    2    1    2    0    0  0.00000000000E+00  0.00000000000E+00  0.11047880584E+04  0.14901832412E+04  0.10000447182E+04 0.  0.
        5    1    3    3  502    0  0.34287023756E+03  0.21683976066E+03  0.11688010850E+03  0.42221147707E+03  0.46999998093E+01 0.  1.
       -5    1    3    3    0  502 -0.34287023756E+03 -0.21683976066E+03  0.98790794988E+03  0.10679717642E+04  0.46999998093E+01 0. -1.
</event>
<event>
 5   0  0.1453863E-04  0.1000364E+04  0.7818609E-02  0.9308146E-01
        1   -1    0    0  501    0  0.00000000000E+00  0.00000000000E+00  0.23178467777E+03  0.23178467783E+03  0.50400001928E-02 0.  1.
       -1   -1    0    0    0  501  0.00000000000E+00  0.00000000000E+00 -0.10793719989E+04  0.10793719989E+04  0.50400001928E-02 0. -1.
    10030    2    1    2    0    0  0.00000000000E+00  0.00000000000E+00 -0.84758732108E+03  0.13111566767E+04  0.10003637158E+04 0.  0.
        1    1    3    3  502    0  0.31385746614E+03  0.31429855054E+03 -0.72522669519E+03  0.85043744471E+03  0.50400001928E-02 0. -1.
       -1    1    3    3    0  502 -0.31385746614E+03 -0.31429855054E+03 -0.12236062589E+03  0.46071923198E+03  0.50400001928E-02 0.  1.
</event>
<event>
 5   0  0.1461334E-04  0.1000027E+04  0.7818609E-02  0.9308515E-01
       -1   -1    0    0    0  501  0.00000000000E+00  0.00000000000E+00  0.12647712566E+03  0.12647712576E+03  0.50400001928E-02 0. -1.
        1   -1    0    0  501    0  0.00000000000E+00  0.00000000000E+00 -0.19767494393E+04  0.19767494393E+04  0.50400001928E-02 0.  1.
    10030    2    1    2    0    0  0.00000000000E+00  0.00000000000E+00 -0.18502723136E+04  0.21032265650E+04  0.10000271743E+04 0.  0.
        2    1    3    3  502    0  0.86915693991E+02  0.34678266058E+03 -0.18992565729E+03  0.40482626749E+03  0.25500000920E-02 0. -1.
       -2    1    3    3    0  502 -0.86915693991E+02 -0.34678266058E+03 -0.16603466563E+04  0.16984002976E+04  0.25500000920E-02 0.  1.
</event>
<event>
 5   0  0.2473312E-04  0.1000152E+04  0.7818609E-02  0.9308378E-01
        2   -1    0    0  501    0  0.00000000000E+00  0.00000000000E+00  0.11591185370E+04  0.11591185370E+04  0.25500000920E-02 0.  1.
       -2   -1    0    0    0  501  0.00000000000E+00  0.00000000000E+00 -0.21574671463E+03  0.21574671464E+03  0.25500000920E-02 0. -1.
    10030    2    1    2    0    0  0.00000000000E+00  0.00000000000E+00  0.94337182234E+03  0.13748652516E+04  0.10001520209E+04 0.  0.
        5    1    3    3  502    0 -0.16306753342E+01  0.58953965258E+02  0.11542905789E+04  0.11558058054E+04  0.46999998093E+01 0.  1.
       -5    1    3    3    0  502  0.16306753342E+01 -0.58953965258E+02 -0.21091875658E+03  0.21905944626E+03  0.46999998093E+01 0. -1.
</event>
<event>
 5   0  0.1506454E-04  0.1000378E+04  0.7818609E-02  0.9308130E-01
       -1   -1    0    0    0  501  0.00000000000E+00  0.00000000000E+00  0.30937646975E+03  0.30937646979E+03  0.50400001928E-02 0. -1.
        1   -1    0    0  501    0  0.00000000000E+00  0.00000000000E+00 -0.80868849934E+03  0.80868849936E+03  0.50400001928E-02 0.  1.
    10030    2    1    2    0    0  0.00000000000E+00  0.00000000000E+00 -0.49931202959E+03  0.11180649691E+04  0.10003783146E+04 0.  0.
        3    1    3    3  502    0  0.11613401077E+03  0.26226207342E+03 -0.70764482033E+03  0.76356381892E+03  0.10100000352E+00 0.  1.
       -3    1    3    3    0  502 -0.11613401077E+03 -0.26226207342E+03  0.20833279074E+03  0.35450115023E+03  0.10100000352E+00 0. -1.
</event>
<event>
 5   0  0.1461334E-04  0.1000426E+04  0.7818609E-02  0.9308078E-01
        1   -1    0    0  501    0  0.00000000000E+00  0.00000000000E+00  0.57714947372E+03  0.57714947374E+03  0.50400001928E-02 0.  1.
       -1   -1    0    0    0  501  0.00000000000E+00  0.00000000000E+00 -0.43353248597E+03  0.43353248600E+03  0.50400001928E-02 0. -1.
    10030    2    1    2    0    0  0.00000000000E+00  0.00000000000E+00  0.14361698775E+03  0.10106819597E+04  0.10004260016E+04 0.  0.
        2    1    3    3  502    0  0.50800406982E+02  0.35303893173E+03 -0.28249449877E+03  0.45499484668E+03  0.25500000920E-02 0. -1.
       -2    1    3    3    0  502 -0.50800406982E+02 -0.35303893173E+03  0.42611148652E+03  0.55568711306E+03  0.25500000920E-02 0.  1.
</event>
<event>
 5   0  0.2484904E-04  0.9999049E+03  0.7818609E-02  0.9308649E-01
        2   -1    0    0  501    0  0.00000000000E+00  0.00000000000E+00  0.12437106399E+04  0.12437106399E+04  0.25500000920E-02 0.  1.
       -2   -1    0    0    0  501  0.00000000000E+00  0.00000000000E+00 -0.20097316657E+03  0.20097316659E+03  0.25500000920E-02 0. -1.
    10030    2    1    2    0    0  0.00000000000E+00  0.00000000000E+00  0.10427374733E+04  0.14446838065E+04  0.99990492671E+03 0.  0.
        3    1    3    3  502    0 -0.32968381917E+03  0.12125636230E+03  0.10353635977E+04  0.10933308354E+04  0.10100000352E+00 0.  1.
       -3    1    3    3    0  502  0.32968381917E+03 -0.12125636230E+03  0.73738755839E+01  0.35135297104E+03  0.10100000352E+00 0. -1.
</event>
<event>
 5   0  0.1506454E-04  0.9997155E+03  0.7818609E-02  0.9308857E-01
       -1   -1    0    0    0  501  0.00000000000E+00  0.00000000000E+00  0.34730670915E+03  0.34730670919E+03  0.50400001928E-02 0. -1.
        1   -1    0    0  501    0  0.00000000000E+00  0.00000000000E+00 -0.71941537923E+03  0.71941537925E+03  0.50400001928E-02 0.  1.
    10030    2    1    2    0    0  0.00000000000E+00  0.00000000000E+00 -0.37210867007E+03  0.10667220884E+04  0.99971553535E+03 0.  0.
        3    1    3    3  502    0 -0.36016866355E+03  0.43446402503E+02  0.18086709224E+03  0.40536646550E+03  0.10100000352E+00 0. -1.
       -3    1    3    3    0  502  0.36016866355E+03 -0.43446402503E+02 -0.55297576231E+03  0.66135562294E+03  0.10100000352E+00 0.  1.
</event>
<event>
 5   0  0.1506454E-04  0.9998797E+03  0.7818609E-02  0.9308677E-01
       -1   -1    0    0    0  501  0.00000000000E+00  0.00000000000E+00  0.40568605489E+03  0.40568605492E+03  0.50400001928E-02 0.  1.
        1   -1    0    0  501    0  0.00000000000E+00  0.00000000000E+00 -0.61609175515E+03  0.61609175517E+03  0.50400001928E-02 0. -1.
    10030    2    1    2    0    0  0.00000000000E+00  0.00000000000E+00 -0.21040570026E+03  0.10217778101E+04  0.99987966000E+03 0.  0.
        3    1    3    3  502    0  0.21370080691E+03  0.38656245937E+03  0.13410801658E+03  0.46160972713E+03  0.10100000352E+00 0.  1.
       -3    1    3    3    0  502 -0.21370080691E+03 -0.38656245937E+03 -0.34451371684E+03  0.56016808296E+03  0.10100000352E+00 0. -1.
</event>
<event>
 5   0  0.1453863E-04  0.9998268E+03  0.7818609E-02  0.9308735E-01
        1   -1    0    0  501    0  0.00000000000E+00  0.00000000000E+00  0.81610585413E+03  0.81610585414E+03  0.50400001928E-02 0. -1.
       -1   -1    0    0    0  501  0.00000000000E+00  0.00000000000E+00 -0.30622669085E+03  0.30622669089E+03  0.50400001928E-02 0.  1.
    10030    2    1    2    0    0  0.00000000000E+00  0.00000000000E+00  0.50987916328E+03  0.11223325450E+04  0.99982677524E+03 0.  0.
        1    1    3    3  502    0  0.16877210310E+02 -0.18259770756E+03 -0.26710985653E+03  0.32399759029E+03  0.50400001928E-02 0.  1.
       -1    1    3    3    0  502 -0.16877210310E+02  0.18259770756E+03  0.77698901981E+03  0.79833495474E+03  0.50400001928E-02 0. -1.
</event>
<event>
 5   0  0.9650500E-05  0.9997815E+03  0.7818609E-02  0.9308784E-01
        4   -1    0    0  501    0  0.00000000000E+00  0.00000000000E+00  0.26464059597E+03  0.26464364329E+03  0.12699999809E+01 0.  1.
       -4   -1    0    0    0  501  0.00000000000E+00  0.00000000000E+00 -0.94425582207E+03  0.94425667613E+03  0.12699999809E+01 0. -1.
    10030    2    1    2    0    0  0.00000000000E+00  0.00000000000E+00 -0.67961522610E+03  0.12089003194E+04  0.99978153951E+03 0.  0.
        2    1    3    3  502    0 -0.22532630455E+03  0.20091686928E+03  0.14196704896E+03  0.33360781598E+03  0.25500000920E-02 0.  1.
       -2    1    3    3    0  502  0.22532630455E+03 -0.20091686928E+03 -0.82158227506E+03  0.87529250344E+03  0.25500000920E-02 0. -1.
</event>
<event>
 5   0  0.1414165E-04  0.1000021E+04  0.7818609E-02  0.9308522E-01
        1   -1    0    0  501    0  0.00000000000E+00  0.00000000000E+00  0.16336869710E+04  0.16336869710E+04  0.50400001928E-02 0.  1.
       -1   -1    0    0    0  501  0.00000000000E+00  0.00000000000E+00 -0.15303441871E+03  0.15303441879E+03  0.50400001928E-02 0. -1.
    10030    2    1    2    0    0  0.00000000000E+00  0.00000000000E+00  0.14806525523E+04  0.17867213898E+04  0.10000206718E+04 0.  0.
        4    1    3    3  502    0 -0.43283674938E+03  0.68281048873E+02  0.31004024205E+03  0.53678349252E+03  0.12699999809E+01 0. -1.
       -4    1    3    3    0  502  0.43283674938E+03 -0.68281048873E+02  0.11706123102E+04  0.12499378972E+04  0.12699999809E+01 0.  1.
</event>
<event>
 5   0  0.1461334E-04  0.1000965E+04  0.7818609E-02  0.9307487E-01
       -1   -1    0    0    0  501  0.00000000000E+00  0.00000000000E+00  0.14462986813E+03  0.14462986821E+03  0.50400001928E-02 0. -1.
        1   -1    0    0  501    0  0.00000000000E+00  0.00000000000E+00 -0.17318872377E+04  0.17318872377E+04  0.50400001928E-02 0.  1.
    10030    2    1    2    0    0  0.00000000000E+00  0.00000000000E+00 -0.15872573695E+04  0.18765171059E+04  0.10009647804E+04 0.  0.
        2    1    3    3  502    0  0.13729590126E+03 -0.22937919948E+03 -0.43061967919E+00  0.26732969737E+03  0.25500000920E-02 0. -1.
       -2    1    3    3    0  502 -0.13729590126E+03  0.22937919948E+03 -0.15868267499E+04  0.16091874085E+04  0.25500000920E-02 0.  1.
</event>
<event>
 5   0  0.2484904E-04  0.1000200E+04  0.7818609E-02  0.9308325E-01
       -2   -1    0    0    0  501  0.00000000000E+00  0.00000000000E+00  0.45078808800E+03  0.45078808800E+03  0.25500000920E-02 0.  1.
        2   -1    0    0  501    0  0.00000000000E+00  0.00000000000E+00 -0.55480644998E+03  0.55480644999E+03  0.25500000920E-02 0. -1.
    10030    2    1    2    0    0  0.00000000000E+00  0.00000000000E+00 -0.10401836199E+03  0.10055945380E+04  0.10002002576E+04 0.  0.
        3    1    3    3  502    0 -0.44881078393E+03 -0.13415880158E+03 -0.22808342777E+03  0.52101033007E+03  0.10100000352E+00 0. -1.
       -3    1    3    3    0  502  0.44881078393E+03  0.13415880158E+03  0.12406506578E+03  0.48458420792E+03  0.10100000352E+00 0.  1.
</event>
<event>
 5   0  0.2353916E-04  0.9999081E+03  0.7818609E-02  0.9308646E-01
       -2   -1    0    0    0  501  0.00000000000E+00  0.00000000000E+00  0.33521005219E+03  0.33521005220E+03  0.25500000920E-02 0. -1.
        2   -1    0    0  501    0  0.00000000000E+00  0.00000000000E+00 -0.74566390316E+03  0.74566390316E+03  0.25500000920E-02 0.  1.
    10030    2    1    2    0    0  0.00000000000E+00  0.00000000000E+00 -0.41045385097E+03  0.10808739554E+04  0.99990806758E+03 0.  0.
        4    1    3    3  502    0 -0.19278118100E+03  0.42750376342E+03 -0.39254551115E+03  0.61156981835E+03  0.12699999809E+01 0.  1.
       -4    1    3    3    0  502  0.19278118100E+03 -0.42750376342E+03 -0.17908339821E+02  0.46930413702E+03  0.12699999809E+01 0. -1.
</event>
<event>
 5   0  0.2353916E-04  0.1000031E+04  0.7818609E-02  0.9308511E-01
       -2   -1    0    0    0  501  0.00000000000E+00  0.00000000000E+00  0.18762193325E+03  0.18762193327E+03  0.25500000920E-02 0.  1.
        2   -1    0    0  501    0  0.00000000000E+00  0.00000000000E+00 -0.13325489143E+04  0.13325489143E+04  0.25500000920E-02 0. -1.
    10030    2    1    2    0    0  0.00000000000E+00  0.00000000000E+00 -0.11449269810E+04  0.15201708476E+04  0.10000308065E+04 0.  0.
        4    1    3    3  502    0  0.27212792880E+03 -0.25563146619E+03 -0.10780338278E+04  0.11408591512E+04  0.12699999809E+01 0. -1.
       -4    1    3    3    0  502 -0.27212792880E+03  0.25563146619E+03 -0.66893153263E+02  0.37931169636E+03  0.12699999809E+01 0.  1.
</event>
<event>
 5   0  0.1430675E-04  0.9985113E+03  0.7818609E-02  0.9310179E-01
        1   -1    0    0  501    0  0.00000000000E+00  0.00000000000E+00  0.69115712593E+03  0.69115712595E+03  0.50400001928E-02 0.  1.
       -1   -1    0    0    0  501  0.00000000000E+00  0.00000000000E+00 -0.36063609334E+03  0.36063609338E+03  0.50400001928E-02 0. -1.
    10030    2    1    2    0    0  0.00000000000E+00  0.00000000000E+00  0.33052103259E+03  0.10517932193E+04  0.99851130351E+03 0.  0.
        5    1    3    3  502    0 -0.59325653766E+02  0.17357545831E+03  0.65434941159E+03  0.67959047622E+03  0.46999998093E+01 0.  1.
       -5    1    3    3    0  502  0.59325653766E+02 -0.17357545831E+03 -0.32382837901E+03  0.37220274310E+03  0.46999998093E+01 0. -1.
</event>
<event>
 5   0  0.1506454E-04  0.1000024E+04  0.7818609E-02  0.9308519E-01
       -1   -1    0    0    0  501  0.00000000000E+00  0.00000000000E+00  0.13021004589E+04  0.13021004589E+04  0.50400001928E-02 0. -1.
        1   -1    0    0  501    0  0.00000000000E+00  0.00000000000E+00 -0.19200652941E+03  0.19200652947E+03  0.50400001928E-02 0.  1.
    10030    2    1    2    0    0  0.00000000000E+00  0.00000000000E+00  0.11100939295E+04  0.14941069884E+04  0.10000235799E+04 0.  0.
        3    1    3    3  502    0  0.13288222032E+03  0.43032374940E+03  0.23053552081E+03  0.50594747784E+03  0.10100000352E+00 0.  1.
       -3    1    3    3    0  502 -0.13288222032E+03 -0.43032374940E+03  0.87955840866E+03  0.98815951051E+03  0.10100000352E+00 0. -1.
</event>
<event>
 5   0  0.2353916E-04  0.9998780E+03  0.7818609E-02  0.9308679E-01
       -2   -1    0    0    0  501  0.00000000000E+00  0.00000000000E+00  0.45016871071E+03  0.45016871071E+03  0.25500000920E-02 0. -1.
        2   -1    0    0  501    0  0.00000000000E+00  0.00000000000E+00 -0.55521189918E+03  0.55521189919E+03  0.25500000920E-02 0.  1.
    10030    2    1    2    0    0  0.00000000000E+00  0.00000000000E+00 -0.10504318848E+03  0.10053806099E+04  0.99987804222E+03 0.  0.
        4    1    3    3  502    0 -0.11982120521E+03  0.15177366793E+03  0.41104162021E+03  0.45425674892E+03  0.12699999809E+01 0. -1.
       -4    1    3    3    0  502  0.11982120521E+03 -0.15177366793E+03 -0.51608480868E+03  0.55112386098E+03  0.12699999809E+01 0.  1.
</event>
<event>
 5   0  0.2473312E-04  0.9996735E+03  0.7818609E-02  0.9308903E-01
       -2   -1    0    0    0  501  0.00000000000E+00  0.00000000000E+00  0.70161825182E+03  0.70161825182E+03  0.25500000920E-02 0.  1.
        2   -1    0    0  501    0  0.00000000000E+00  0.00000000000E+00 -0.35608648727E+03  0.35608648727E+03  0.25500000920E-02 0. -1.
    10030    2    1    2    0    0  0.00000000000E+00  0.00000000000E+00  0.34553176455E+03  0.10577047391E+04  0.99967350410E+03 0.  0.
        5    1    3    3  502    0  0.21439620847E+03  0.29646390691E+03 -0.18752794869E+03  0.41115131502E+03  0.46999998093E+01 0. -1.
       -5    1    3    3    0  502 -0.21439620847E+03 -0.29646390691E+03  0.53305971324E+03  0.64655342408E+03  0.46999998093E+01 0.  1.
</event>
<event>
 5   0  0.1430675E-04  0.9991014E+03  0.7818609E-02  0.9309531E-01
       -1   -1    0    0    0  501  0.00000000000E+00  0.00000000000E+00  0.31987800481E+03  0.31987800485E+03  0.50400001928E-02 0. -1.
        1   -1    0    0  501    0  0.00000000000E+00  0.00000000000E+00 -0.78014400069E+03  0.78014400071E+03  0.50400001928E-02 0.  1.
    10030    2    1    2    0    0  0.00000000000E+00  0.00000000000E+00 -0.46026599588E+03  0.11000220056E+04  0.99910140915E+03 0.  0.
        5    1    3    3  502    0  0.25551564745E+03 -0.41894603332E+03 -0.33297471775E+03  0.59304154794E+03  0.46999998093E+01 0.  1.
       -5    1    3    3    0  502 -0.25551564745E+03  0.41894603332E+03 -0.12729127813E+03  0.50698045762E+03  0.46999998093E+01 0. -1.
</event>
<event>
 5   0  0.1506454E-04  0.9999631E+03  0.7818609E-02  0.9308585E-01
        1   -1    0    0  501    0  0.00000000000E+00  0.00000000000E+00  0.65809554256E+03  0.65809554258E+03  0.50400001928E-02 0.  1.
       -1   -1    0    0    0  501  0.00000000000E+00  0.00000000000E+00 -0.37985599512E+03  0.37985599515E+03  0.50400001928E-02 0. -1.
    10030    2    1    2    0    0  0.00000000000E+00  0.00000000000E+00  0.27823954744E+03  0.10379515377E+04  0.99996307378E+03 0.  0.
        3    1    3    3  502    0 -0.26382540774E+03 -0.36478921574E+03 -0.86643641137E+02  0.45845626666E+03  0.10100000352E+00 0. -1.
       -3    1    3    3    0  502  0.26382540774E+03  0.36478921574E+03  0.36488318858E+03  0.57949527107E+03  0.10100000352E+00 0.  1.
</event>
<event>
 5   0  0.2503680E-04  0.9999000E+03  0.7818609E-02  0.9308654E-01
        2   -1    0    0  501    0  0.00000000000E+00  0.00000000000E+00  0.31993643972E+03  0.31993643973E+03  0.25500000920E-02 0. -1.
       -2   -1    0    0    0  501  0.00000000000E+00  0.00000000000E+00 -0.78124899187E+03  0.78124899188E+03  0.25500000920E-02 0.  1.
    10030    2    1    2    0    0  0.00000000000E+00  0.00000000000E+00 -0.46131255215E+03  0.11011854316E+04  0.99990003700E+03 0.  0.
        2    1    3    3  502    0 -0.19357902585E+03 -0.30255040758E+03 -0.61364821359E+03  0.71103707247E+03  0.25500000920E-02 0.  1.
       -2    1    3    3    0  502  0.19357902585E+03  0.30255040758E+03  0.15233566144E+03  0.39014835913E+03  0.25500000920E-02 0. -1.
</event>
<event>
 5   0  0.2473312E-04  0.9996840E+03  0.7818609E-02  0.9308891E-01
       -2   -1    0    0    0  501  0.00000000000E+00  0.00000000000E+00  0.11881568681E+03  0.11881568683E+03  0.25500000920E-02 0.  1.
        2   -1    0    0  501    0  0.00000000000E+00  0.00000000000E+00 -0.21027698298E+04  0.21027698298E+04  0.25500000920E-02 0. -1.
    10030    2    1    2    0    0  0.00000000000E+00  0.00000000000E+00 -0.19839541430E+04  0.22215855167E+04  0.99968403320E+03 0.  0.
        5    1    3    3  502    0 -0.28544049573E+03 -0.38862674187E+03 -0.12843825950E+04  0.13719211936E+04  0.46999998093E+01 0. -1.
       -5    1    3    3    0  502  0.28544049573E+03  0.38862674187E+03 -0.69957154805E+03  0.84966432310E+03  0.46999998093E+01 0.  1.
</event>
<event>
 5   0  0.2403037E-04  0.1003702E+04  0.7818609E-02  0.9304494E-01
        2   -1    0    0  501    0  0.00000000000E+00  0.00000000000E+00  0.13618287240E+04  0.13618287240E+04  0.25500000920E-02 0.  1.
       -2   -1    0    0    0  501  0.00000000000E+00  0.00000000000E+00 -0.18493850429E+03  0.18493850431E+03  0.25500000920E-02 0. -1.
    10030    2    1    2    0    0  0.00000000000E+00  0.00000000000E+00  0.11768902197E+04  0.15467672283E+04  0.10037022812E+04 0.  0.
        1    1    3    3  502    0 -0.12113169315E+03  0.25498376408E+03 -0.50984045062E+02  0.28686055830E+03  0.50400001928E-02 0. -1.
       -1    1    3    3    0  502  0.12113169315E+03 -0.25498376408E+03  0.12278742648E+04  0.12599066700E+04  0.50400001928E-02 0.  1.
</event>
<event>
 5   0  0.2353916E-04  0.1000729E+04  0.7818609E-02  0.9307745E-01
        2   -1    0    0  501    0  0.00000000000E+00  0.00000000000E+00  0.18210663168E+04  0.18210663168E+04  0.25500000920E-02 0. -1.
       -2   -1    0    0    0  501  0.00000000000E+00  0.00000000000E+00 -0.13748253025E+03  0.13748253028E+03  0.25500000920E-02 0.  1.
    10030    2    1    2    0    0  0.00000000000E+00  0.00000000000E+00  0.16835837865E+04  0.19585488471E+04  0.10007293441E+04 0.  0.
        4    1    3    3  502    0 -0.34396031761E+03 -0.35474621414E+03  0.99601524243E+03  0.11118460112E+04  0.12699999809E+01 0. -1.
       -4    1    3    3    0  502  0.34396031761E+03  0.35474621414E+03  0.68756854410E+03  0.84670283587E+03  0.12699999809E+01 0.  1.
</event>
<event>
 5   0  0.2473312E-04  0.9995543E+03  0.7818609E-02  0.9309034E-01
       -2   -1    0    0    0  501  0.00000000000E+00  0.00000000000E+00  0.39138920278E+03  0.39138920279E+03  0.25500000920E-02 0.  1.
        2   -1    0    0  501    0  0.00000000000E+00  0.00000000000E+00 -0.63818117310E+03  0.63818117310E+03  0.25500000920E-02 0. -1.
    10030    2    1    2    0    0  0.00000000000E+00  0.00000000000E+00 -0.24679197032E+03  0.10295703759E+04  0.99955434184E+03 0.  0.
        5    1    3    3  502    0  0.86183628771E+02 -0.81992379248E+02 -0.62336335415E+03  0.63462928503E+03  0.46999998093E+01 0. -1.
       -5    1    3    3    0  502 -0.86183628771E+02  0.81992379248E+02  0.37657138384E+03  0.39494109085E+03  0.46999998093E+01 0.  1.
</event>
<event>
 5   0  0.2484904E-04  0.1000137E+04  0.7818609E-02  0.9308395E-01
        2   -1    0    0  501    0  0.00000000000E+00  0.00000000000E+00  0.33643498055E+03  0.33643498055E+03  0.25500000920E-02 0. -1.
       -2   -1    0    0    0  501  0.00000000000E+00  0.00000000000E+00 -0.74328875348E+03  0.74328875349E+03  0.25500000920E-02 0.  1.
    10030    2    1    2    0    0  0.00000000000E+00  0.00000000000E+00 -0.40685377294E+03  0.10797237340E+04  0.10001366653E+04 0.  0.
        3    1    3    3  502    0 -0.36646336921E+03 -0.26755065636E+03 -0.43036800903E+03  0.62537619725E+03  0.10100000352E+00 0.  1.
       -3    1    3    3    0  502  0.36646336921E+03  0.26755065636E+03  0.23514236086E+02  0.45434753680E+03  0.10100000352E+00 0. -1.
</event>
<event>
 5   0  0.1461334E-04  0.1000016E+04  0.7818609E-02  0.9308527E-01
       -1   -1    0    0    0  501  0.00000000000E+00  0.00000000000E+00  0.75124292820E+03  0.75124292822E+03  0.50400001928E-02 0. -1.
        1   -1    0    0  501    0  0.00000000000E+00  0.00000000000E+00 -0.33279278695E+03  0.33279278699E+03  0.50400001928E-02 0.  1.
    10030    2    1    2    0    0  0.00000000000E+00  0.00000000000E+00  0.41845014125E+03  0.10840357152E+04  0.10000164554E+04 0.  0.
        2    1    3    3  502    0  0.45855975013E+03 -0.76238805872E+02  0.95807950467E+01  0.46495289181E+03  0.25500000920E-02 0.  1.
       -2    1    3    3    0  502 -0.45855975013E+03  0.76238805872E+02  0.40886934620E+03  0.61908282340E+03  0.25500000920E-02 0. -1.
</event>
<event>
 5   0  0.2473312E-04  0.1000466E+04  0.7818609E-02  0.9308033E-01
       -2   -1    0    0    0  501  0.00000000000E+00  0.00000000000E+00  0.17432810619E+03  0.17432810621E+03  0.25500000920E-02 0. -1.
        2   -1    0    0  501    0  0.00000000000E+00  0.00000000000E+00 -0.14354156407E+04  0.14354156407E+04  0.25500000920E-02 0.  1.
    10030    2    1    2    0    0  0.00000000000E+00  0.00000000000E+00 -0.12610875345E+04  0.16097437469E+04  0.10004664717E+04 0.  0.
        5    1    3    3  502    0  0.18680396639E+02  0.23946545300E+03 -0.13365206617E+04  0.13579404367E+04  0.46999998093E+01 0.  1.
       -5    1    3    3    0  502 -0.18680396639E+02 -0.23946545300E+03  0.75433127145E+02  0.25180331028E+03  0.46999998093E+01 0. -1.
</event>
<event>
 5   0  0.1430675E-04  0.9999225E+03  0.7818609E-02  0.9308630E-01
       -1   -1    0    0    0  501  0.00000000000E+00  0.00000000000E+00  0.16024887358E+03  0.16024887366E+03  0.50400001928E-02 0.  1.
        1   -1    0    0  501    0  0.00000000000E+00  0.00000000000E+00 -0.15598314214E+04  0.15598314214E+04  0.50400001928E-02 0. -1.
    10030    2    1    2    0    0  0.00000000000E+00  0.00000000000E+00 -0.13995825478E+04  0.17200802951E+04  0.99992245366E+03 0.  0.
        5    1    3    3  502    0  0.19790556917E+03  0.29303827417E+03 -0.91844552177E+02  0.36537043696E+03  0.46999998093E+01 0.  1.
       -5    1    3    3    0  502 -0.19790556917E+03 -0.29303827417E+03 -0.13077379956E+04  0.13547098581E+04  0.46999998093E+01 0. -1.
</event>
<event>
 5   0  0.1430675E-04  0.9986800E+03  0.7818609E-02  0.9309994E-01
        1   -1    0    0  501    0  0.00000000000E+00  0.00000000000E+00  0.78945989958E+03  0.78945989959E+03  0.50400001928E-02 0. -1.
       -1   -1    0    0    0  501  0.00000000000E+00  0.00000000000E+00 -0.31583673683E+03  0.31583673687E+03  0.50400001928E-02 0.  1.
    10030    2    1    2    0    0  0.00000000000E+00  0.00000000000E+00  0.47362316275E+03  0.11052966365E+04  0.99868000595E+03 0.  0.
        5    1    3    3  502    0  0.14182464492E+02  0.20961215664E+03 -0.26451410043E+03  0.33782865159E+03  0.46999998093E+01 0.  1.
       -5    1    3    3    0  502 -0.14182464492E+02 -0.20961215664E+03  0.73813726318E+03  0.76746798487E+03  0.46999998093E+01 0. -1.
</event>
<event>
 5   0  0.1430675E-04  0.9999287E+03  0.7818609E-02  0.9308623E-01
        1   -1    0    0  501    0  0.00000000000E+00  0.00000000000E+00  0.10882990255E+04  0.10882990255E+04  0.50400001928E-02 0. -1.
       -1   -1    0    0    0  501  0.00000000000E+00  0.00000000000E+00 -0.22968354256E+03  0.22968354262E+03  0.50400001928E-02 0.  1.
    10030    2    1    2    0    0  0.00000000000E+00  0.00000000000E+00  0.85861548294E+03  0.13179825681E+04  0.99992874863E+03 0.  0.
        5    1    3    3  502    0  0.32494849063E+03 -0.26227466747E+03  0.66985890928E+02  0.42295238779E+03  0.46999998093E+01 0.  1.
       -5    1    3    3    0  502 -0.32494849063E+03  0.26227466747E+03  0.79162959201E+03  0.89503018033E+03  0.46999998093E+01 0. -1.
</event>
<event>
 5   0  0.1414165E-04  0.9994263E+03  0.7818609E-02  0.9309174E-01
        1   -1    0    0  501    0  0.00000000000E+00  0.00000000000E+00  0.87480553392E+03  0.87480553394E+03  0.50400001928E-02 0.  1.
       -1   -1    0    0    0  501  0.00000000000E+00  0.00000000000E+00 -0.28545001437E+03  0.28545001442E+03  0.50400001928E-02 0. -1.
    10030    2    1    2    0    0  0.00000000000E+00  0.00000000000E+00  0.58935551955E+03  0.11602555484E+04  0.99942633999E+03 0.  0.
        4    1    3    3  502    0  0.44472043701E+03 -0.11774257805E+03  0.52119749071E+03  0.69518919656E+03  0.12699999809E+01 0.  1.
       -4    1    3    3    0  502 -0.44472043701E+03  0.11774257805E+03  0.68158028836E+02  0.46506635180E+03  0.12699999809E+01 0. -1.
</event>
<event>
 5   0  0.2484904E-04  0.1001134E+04  0.7818609E-02  0.9307302E-01
        2   -1    0    0  501    0  0.00000000000E+00  0.00000000000E+00  0.38012734680E+03  0.38012734681E+03  0.25500000920E-02 0. -1.
       -2   -1    0    0    0  501  0.00000000000E+00  0.00000000000E+00 -0.65916712646E+03  0.65916712647E+03  0.25500000920E-02 0.  1.
    10030    2    1    2    0    0  0.00000000000E+00  0.00000000000E+00 -0.27903977967E+03  0.10392944733E+04  0.10011342585E+04 0.  0.
        3    1    3    3  502    0 -0.12595293885E+03  0.34410379170E+03 -0.49354042680E+03  0.61469807658E+03  0.10100000352E+00 0. -1.
       -3    1    3    3    0  502  0.12595293885E+03 -0.34410379170E+03  0.21450064713E+03  0.42459639669E+03  0.10100000352E+00 0.  1.
</event>
<event>
 5   0  0.2473312E-04  0.1001550E+04  0.7818609E-02  0.9306846E-01
        2   -1    0    0  501    0  0.00000000000E+00  0.00000000000E+00  0.11287479427E+04  0.11287479427E+04  0.25500000920E-02 0. -1.
       -2   -1    0    0    0  501  0.00000000000E+00  0.00000000000E+00 -0.22217155534E+03  0.22217155535E+03  0.25500000920E-02 0.  1.
    10030    2    1    2    0    0  0.00000000000E+00  0.00000000000E+00  0.90657638732E+03  0.13509194980E+04  0.10015501705E+04 0.  0.
        5    1    3    3  502    0 -0.21320433514E+03 -0.24730798199E+03 -0.58798392159E+02  0.33180817862E+03  0.46999998093E+01 0.  1.
       -5    1    3    3    0  502  0.21320433514E+03  0.24730798199E+03  0.96537477947E+03  0.10191113194E+04  0.46999998093E+01 0. -1.
</event>
<event>
 5   0  0.1414165E-04  0.9998729E+03  0.7818609E-02  0.9308684E-01
       -1   -1    0    0    0  501  0.00000000000E+00  0.00000000000E+00  0.19659093689E+03  0.19659093695E+03  0.50400001928E-02 0.  1.
        1   -1    0    0  501    0  0.00000000000E+00  0.00000000000E+00 -0.12713528418E+04  0.12713528418E+04  0.50400001928E-02 0. -1.
    10030    2    1    2    0    0  0.00000000000E+00  0.00000000000E+00 -0.10747619049E+04  0.14679437788E+04  0.99987288460E+03 0.  0.
        4    1    3    3  502    0 -0.32097228444E+03  0.33361566704E+03 -0.81443475262E+03  0.93681812528E+03  0.12699999809E+01 0. -1.
       -4    1    3    3    0  502  0.32097228444E+03 -0.33361566704E+03 -0.26032715232E+03  0.53112565350E+03  0.12699999809E+01 0.  1.
</event>
<event>
 5   0  0.2353916E-04  0.9998433E+03  0.7818609E-02  0.9308717E-01
        2   -1    0    0  501    0  0.00000000000E+00  0.00000000000E+00  0.11485551561E+04  0.11485551561E+04  0.25500000920E-02 0.  1.
       -2   -1    0    0    0  501  0.00000000000E+00  0.00000000000E+00 -0.21759657380E+03  0.21759657382E+03  0.25500000920E-02 0. -1.
    10030    2    1    2    0    0  0.00000000000E+00  0.00000000000E+00  0.93095858233E+03  0.13661517300E+04  0.99984332135E+03 0.  0.
        4    1    3    3  502    0  0.33716572079E+02  0.27580982611E+03 -0.10236397178E+03  0.29612136537E+03  0.12699999809E+01 0. -1.
       -4    1    3    3    0  502 -0.33716572079E+02 -0.27580982611E+03  0.10333225541E+04  0.10700303646E+04  0.12699999809E+01 0.  1.
</event>
<event>
 5   0  0.2503680E-04  0.1000015E+04  0.7818609E-02  0.9308529E-01
        2   -1    0    0  501    0  0.00000000000E+00  0.00000000000E+00  0.69798072656E+03  0.69798072657E+03  0.25500000920E-02 0. -1.
       -2   -1    0    0    0  501  0.00000000000E+00  0.00000000000E+00 -0.35818653961E+03  0.35818653962E+03  0.25500000920E-02 0.  1.
    10030    2    1    2    0    0  0.00000000000E+00  0.00000000000E+00  0.33979418696E+03  0.10561672662E+04  0.10000146022E+04 0.  0.
        2    1    3    3  502    0 -0.23971748323E+03 -0.63590181178E+02  0.62844110197E+03  0.67560817162E+03  0.25500000920E-02 0. -1.
       -2    1    3    3    0  502  0.23971748323E+03  0.63590181178E+02 -0.28864691501E+03  0.38055909457E+03  0.25500000920E-02 0.  1.
</event>
<event>
 5   0  0.1414165E-04  0.1000420E+04  0.7818609E-02  0.9308085E-01
       -1   -1    0    0    0  501  0.00000000000E+00  0.00000000000E+00  0.17820625012E+03  0.17820625019E+03  0.50400001928E-02 0. -1.
        1   -1    0    0  501    0  0.00000000000E+00  0.00000000000E+00 -0.14040463611E+04  0.14040463611E+04  0.50400001928E-02 0.  1.
    10030    2    1    2    0    0  0.00000000000E+00  0.00000000000E+00 -0.12258401109E+04  0.15822526113E+04  0.10004195861E+04 0.  0.
        4    1    3    3  502    0  0.13819651777E+03  0.11362153876E+02  0.14719900203E+03  0.20222891772E+03  0.12699999809E+01 0. -1.
       -4    1    3    3    0  502 -0.13819651777E+03 -0.11362153876E+02 -0.13730391130E+04  0.13800236935E+04  0.12699999809E+01 0.  1.
</event>
<event>
 5   0  0.2473312E-04  0.1001594E+04  0.7818609E-02  0.9306798E-01
        2   -1    0    0  501    0  0.00000000000E+00  0.00000000000E+00  0.33946911319E+03  0.33946911320E+03  0.25500000920E-02 0.  1.
       -2   -1    0    0    0  501  0.00000000000E+00  0.00000000000E+00 -0.73879385814E+03  0.73879385815E+03  0.25500000920E-02 0. -1.
    10030    2    1    2    0    0  0.00000000000E+00  0.00000000000E+00 -0.39932474495E+03  0.10782629713E+04  0.10015941211E+04 0.  0.
        5    1    3    3  502    0 -0.41087482885E+03 -0.22668034465E+03 -0.11425144014E+02  0.46941956451E+03  0.46999998093E+01 0.  1.
       -5    1    3    3    0  502  0.41087482885E+03  0.22668034465E+03 -0.38789960094E+03  0.60884340683E+03  0.46999998093E+01 0. -1.
</event>
<event>
 5   0  0.1506454E-04  0.9994204E+03  0.7818609E-02  0.9309181E-01
        1   -1    0    0  501    0  0.00000000000E+00  0.00000000000E+00  0.11850673857E+04  0.11850673858E+04  0.50400001928E-02 0. -1.
       -1   -1    0    0    0  501  0.00000000000E+00  0.00000000000E+00 -0.21071397702E+03  0.21071397708E+03  0.50400001928E-02 0.  1.
    10030    2    1    2    0    0  0.00000000000E+00  0.00000000000E+00  0.97435340873E+03  0.13957813628E+04  0.99942035587E+03 0.  0.
        3    1    3    3  502    0 -0.23494218392E+03  0.24171617070E+03 -0.28022844068E+02  0.33824521719E+03  0.10100000352E+00 0.  1.
       -3    1    3    3    0  502  0.23494218392E+03 -0.24171617070E+03  0.10023762528E+04  0.10575361456E+04  0.10100000352E+00 0. -1.
</event>
<event>
 5   0  0.2353916E-04  0.9971357E+03  0.7818609E-02  0.9311692E-01
       -2   -1    0    0    0  501  0.00000000000E+00  0.00000000000E+00  0.61622660777E+03  0.61622660778E+03  0.25500000920E-02 0. -1.
        2   -1    0    0  501    0  0.00000000000E+00  0.00000000000E+00 -0.40337417491E+03  0.40337417492E+03  0.25500000920E-02 0.  1.
    10030    2    1    2    0    0  0.00000000000E+00  0.00000000000E+00  0.21285243286E+03  0.10196007827E+04  0.99713569683E+03 0.  0.
        4    1    3    3  502    0  0.23769582683E+03 -0.39689159579E+03  0.29647935344E+03  0.54947599112E+03  0.12699999809E+01 0. -1.
       -4    1    3    3    0  502 -0.23769582683E+03  0.39689159579E+03 -0.83626920577E+02  0.47012479157E+03  0.12699999809E+01 0.  1.
</event>
<event>
 5   0  0.9650500E-05  0.9997558E+03  0.7818609E-02  0.9308813E-01
       -3   -1    0    0    0  501  0.00000000000E+00  0.00000000000E+00  0.36456034495E+03  0.36456035894E+03  0.10100000352E+00 0. -1.
        3   -1    0    0  501    0  0.00000000000E+00  0.00000000000E+00 -0.68542257770E+03  0.68542258514E+03  0.10100000352E+00 0.  1.
    10030    2    1    2    0    0  0.00000000000E+00  0.00000000000E+00 -0.32086223275E+03  0.10499829441E+04  0.99975577540E+03 0.  0.
        2    1    3    3  502    0  0.41719684061E+03 -0.27310290282E+03 -0.19740645500E+03  0.53629069340E+03  0.25500000920E-02 0. -1.
       -2    1    3    3    0  502 -0.41719684061E+03  0.27310290282E+03 -0.12345577775E+03  0.51369225068E+03  0.25500000920E-02 0.  1.
</event>
<event>
 5   0  0.2473312E-04  0.9998670E+03  0.7818609E-02  0.9308691E-01
        2   -1    0    0  501    0  0.00000000000E+00  0.00000000000E+00  0.16115639793E+04  0.16115639793E+04  0.25500000920E-02 0. -1.
       -2   -1    0    0    0  501  0.00000000000E+00  0.00000000000E+00 -0.15508755394E+03  0.15508755396E+03  0.25500000920E-02 0.  1.
    10030    2    1    2    0    0  0.00000000000E+00  0.00000000000E+00  0.14564764254E+04  0.17666515333E+04  0.99986702234E+03 0.  0.
        5    1    3    3  502    0 -0.18837712483E+03 -0.44428580038E+03  0.49762322950E+03  0.69320039102E+03  0.46999998093E+01 0. -1.
       -5    1    3    3    0  502  0.18837712483E+03  0.44428580038E+03  0.95885319589E+03  0.10734511423E+04  0.46999998093E+01 0.  1.
</event>
<event>
 5   0  0.1453863E-04  0.9993113E+03  0.7818609E-02  0.9309300E-01
       -1   -1    0    0    0  501  0.00000000000E+00  0.00000000000E+00  0.22474447810E+03  0.22474447816E+03  0.50400001928E-02 0. -1.
        1   -1    0    0  501    0  0.00000000000E+00  0.00000000000E+00 -0.11108427809E+04  0.11108427809E+04  0.50400001928E-02 0.  1.
    10030    2    1    2    0    0  0.00000000000E+00  0.00000000000E+00 -0.88609830277E+03  0.13355872590E+04  0.99931132504E+03 0.  0.
        1    1    3    3  502    0  0.42685484909E+03  0.16001959334E+03 -0.16965426766E+03  0.48640919297E+03  0.50400001928E-02 0. -1.
       -1    1    3    3    0  502 -0.42685484909E+03 -0.16001959334E+03 -0.71644403511E+03  0.84917806608E+03  0.50400001928E-02 0.  1.
</event>
<event>
 5   0  0.1453863E-04  0.9989423E+03  0.7818609E-02  0.9309706E-01
       -1   -1    0    0    0  501  0.00000000000E+00  0.00000000000E+00  0.44167107829E+03  0.44167107832E+03  0.50400001928E-02 0. -1.
        1   -1    0    0  501    0  0.00000000000E+00  0.00000000000E+00 -0.56483532122E+03  0.56483532125E+03  0.50400001928E-02 0.  1.
    10030    2    1    2    0    0  0.00000000000E+00  0.00000000000E+00 -0.12316424293E+03  0.10065063996E+04  0.99894229145E+03 0.  0.
        1    1    3    3  502    0 -0.66288708657E+01 -0.38360384494E+03 -0.38380925104E+03  0.54268351089E+03  0.50400001928E-02 0.  1.
       -1    1    3    3    0  502  0.66288708657E+01  0.38360384494E+03  0.26064500811E+03  0.46382288868E+03  0.50400001928E-02 0. -1.
</event>
<event>
 5   0  0.1506454E-04  0.1000233E+04  0.7818609E-02  0.9308290E-01
       -1   -1    0    0    0  501  0.00000000000E+00  0.00000000000E+00  0.21852134096E+03  0.21852134101E+03  0.50400001928E-02 0. -1.
        1   -1    0    0  501    0  0.00000000000E+00  0.00000000000E+00 -0.11445852662E+04  0.11445852663E+04  0.50400001928E-02 0.  1.
    10030    2    1    2    0    0  0.00000000000E+00  0.00000000000E+00 -0.92606392529E+03  0.13631066073E+04  0.10002325875E+04 0.  0.
        3    1    3    3  502    0 -0.16696601880E+03 -0.12275196835E+03  0.15725533117E+03  0.26014408806E+03  0.10100000352E+00 0. -1.
       -3    1    3    3    0  502  0.16696601880E+03  0.12275196835E+03 -0.10833192565E+04  0.11029625192E+04  0.10100000352E+00 0.  1.
</event>
<event>
 5   0  0.2353916E-04  0.1000958E+04  0.7818609E-02  0.9307495E-01
        2   -1    0    0  501    0  0.00000000000E+00  0.00000000000E+00  0.85682209622E+03  0.85682209623E+03  0.25500000920E-02 0.  1.
       -2   -1    0    0    0  501  0.00000000000E+00  0.00000000000E+00 -0.29233522866E+03  0.29233522867E+03  0.25500000920E-02 0. -1.
    10030    2    1    2    0    0  0.00000000000E+00  0.00000000000E+00  0.56448686756E+03  0.11491573249E+04  0.10009581079E+04 0.  0.
        4    1    3    3  502    0 -0.17311570927E+03 -0.36530425568E+03  0.62099122130E+03  0.74097770401E+03  0.12699999809E+01 0.  1.
       -4    1    3    3    0  502  0.17311570927E+03  0.36530425568E+03 -0.56504353742E+02  0.40817962089E+03  0.12699999809E+01 0. -1.
</event>
<event>
 5   0  0.2403037E-04  0.9998591E+03  0.7818609E-02  0.9308699E-01
        2   -1    0    0  501    0  0.00000000000E+00  0.00000000000E+00  0.70680203605E+03  0.70680203605E+03  0.25500000920E-02 0. -1.
       -2   -1    0    0    0  501  0.00000000000E+00  0.00000000000E+00 -0.35360615614E+03  0.35360615615E+03  0.25500000920E-02 0.  1.
    10030    2    1    2    0    0  0.00000000000E+00  0.00000000000E+00  0.35319587990E+03  0.10604081922E+04  0.99985909233E+03 0.  0.
        1    1    3    3  502    0  0.70598796066E+02 -0.23916714545E+03  0.63613211339E+03  0.68326362348E+03  0.50400001928E-02 0. -1.
       -1    1    3    3    0  502 -0.70598796066E+02  0.23916714545E+03 -0.28293623348E+03  0.37714456872E+03  0.50400001928E-02 0.  1.
</event>
<event>
 5   0  0.2473312E-04  0.9995294E+03  0.7818609E-02  0.9309061E-01
        2   -1    0    0  501    0  0.00000000000E+00  0.00000000000E+00  0.26114719459E+04  0.26114719459E+04  0.25500000920E-02 0.  1.
       -2   -1    0    0    0  501  0.00000000000E+00  0.00000000000E+00 -0.95641374494E+02  0.95641374528E+02  0.25500000920E-02 0. -1.
    10030    2    1    2    0    0  0.00000000000E+00  0.00000000000E+00  0.25158305714E+04  0.27071133205E+04  0.99952942210E+03 0.  0.
        5    1    3    3  502    0 -0.32484881957E+03 -0.24632957662E+03  0.47511313962E+03  0.62606677067E+03  0.46999998093E+01 0. -1.
       -5    1    3    3    0  502  0.32484881957E+03  0.24632957662E+03  0.20407174318E+04  0.20810465498E+04  0.46999998093E+01 0.  1.
</event>
<event>
 5   0  0.1461334E-04  0.1000008E+04  0.7818609E-02  0.9308537E-01
       -1   -1    0    0    0  501  0.00000000000E+00  0.00000000000E+00  0.35389582467E+03  0.35389582471E+03  0.50400001928E-02 0. -1.
        1   -1    0    0  501    0  0.00000000000E+00  0.00000000000E+00 -0.70643320806E+03  0.70643320808E+03  0.50400001928E-02 0.  1.
    10030    2    1    2    0    0  0.00000000000E+00  0.00000000000E+00 -0.35253738339E+03  0.10603290328E+04  0.10000075255E+04 0.  0.
        2    1    3    3  502    0  0.20171636767E+03 -0.45681348169E+03 -0.14953445207E+03  0.52127593691E+03  0.25500000920E-02 0. -1.
       -2    1    3    3    0  502 -0.20171636767E+03  0.45681348169E+03 -0.20300293132E+03  0.53905309588E+03  0.25500000920E-02 0.  1.
</event>
<event>
 5   0  0.1430675E-04  0.9996395E+03  0.7818609E-02  0.9308940E-01
        1   -1    0    0  501    0  0.00000000000E+00  0.00000000000E+00  0.82552677939E+03  0.82552677941E+03  0.50400001928E-02 0. -1.
       -1   -1    0    0    0  501  0.00000000000E+00  0.00000000000E+00 -0.30261864803E+03  0.30261864807E+03  0.50400001928E-02 0.  1.
    10030    2    1    2    0    0  0.00000000000E+00  0.00000000000E+00  0.52290813136E+03  0.11281454275E+04  0.99963953088E+03 0.  0.
        5    1    3    3  502    0  0.26576343869E+02 -0.47386575981E+03  0.84654020853E+02  0.48212389862E+03  0.46999998093E+01 0.  1.
       -5    1    3    3    0  502 -0.26576343869E+02  0.47386575981E+03  0.43825411051E+03  0.64602152886E+03  0.46999998093E+01 0. -1.
</event>
<event>
 5   0  0.2353916E-04  0.9997846E+03  0.7818609E-02  0.9308781E-01
        2   -1    0    0  501    0  0.00000000000E+00  0.00000000000E+00  0.61950443534E+03  0.61950443535E+03  0.25500000920E-02 0.  1.
       -2   -1    0    0    0  501  0.00000000000E+00  0.00000000000E+00 -0.40337449855E+03  0.40337449855E+03  0.25500000920E-02 0. -1.
    10030    2    1    2    0    0  0.00000000000E+00  0.00000000000E+00  0.21612993680E+03  0.10228789339E+04  0.99978455871E+03 0.  0.
        4    1    3    3  502    0 -0.25553184397E+03 -0.67785618556E+02 -0.32599843868E+03  0.41972372853E+03  0.12699999809E+01 0. -1.
       -4    1    3    3    0  502  0.25553184397E+03  0.67785618556E+02  0.54212837548E+03  0.60315520537E+03  0.12699999809E+01 0.  1.
</event>
<event>
 5   0  0.1506454E-04  0.9994794E+03  0.7818609E-02  0.9309116E-01
        1   -1    0    0  501    0  0.00000000000E+00  0.00000000000E+00  0.33294780585E+03  0.33294780589E+03  0.50400001928E-02 0.  1.
       -1   -1    0    0    0  501  0.00000000000E+00  0.00000000000E+00 -0.75008687821E+03  0.75008687823E+03  0.50400001928E-02 0. -1.
    10030    2    1    2    0    0  0.00000000000E+00  0.00000000000E+00 -0.41713907235E+03  0.10830346841E+04  0.99947942516E+03 0.  0.
        3    1    3    3  502    0 -0.46858248739E+03  0.94256538724E+02 -0.50475751439E+02  0.48062631458E+03  0.10100000352E+00 0. -1.
       -3    1    3    3    0  502  0.46858248739E+03 -0.94256538724E+02 -0.36666332092E+03  0.60240836954E+03  0.10100000352E+00 0.  1.
</event>
<event>
 5   0  0.2353916E-04  0.1000220E+04  0.7818609E-02  0.9308304E-01
        2   -1    0    0  501    0  0.00000000000E+00  0.00000000000E+00  0.45652118467E+03  0.45652118468E+03  0.25500000920E-02 0. -1.
       -2   -1    0    0    0  501  0.00000000000E+00  0.00000000000E+00 -0.54786021949E+03  0.54786021950E+03  0.25500000920E-02 0.  1.
    10030    2    1    2    0    0  0.00000000000E+00  0.00000000000E+00 -0.91339034820E+02  0.10043814042E+04  0.10002195688E+04 0.  0.
        4    1    3    3  502    0  0.87139298323E+02 -0.37750348014E+03 -0.36322268593E+03  0.53106917375E+03  0.12699999809E+01 0.  1.
       -4    1    3    3    0  502 -0.87139298323E+02  0.37750348014E+03  0.27188365111E+03  0.47331223043E+03  0.12699999809E+01 0. -1.
</event>
<event>
 5   0  0.1453863E-04  0.1000503E+04  0.7818609E-02  0.9307994E-01
       -1   -1    0    0    0  501  0.00000000000E+00  0.00000000000E+00  0.15530211888E+03  0.15530211897E+03  0.50400001928E-02 0.  1.
        1   -1    0    0  501    0  0.00000000000E+00  0.00000000000E+00 -0.16113841978E+04  0.16113841978E+04  0.50400001928E-02 0. -1.
    10030    2    1    2    0    0  0.00000000000E+00  0.00000000000E+00 -0.14560820789E+04  0.17666863168E+04  0.10005026343E+04 0.  0.
        1    1    3    3  502    0  0.15683820651E+03  0.16311465440E+03  0.59764032818E+02  0.23404348559E+03  0.50400001928E-02 0.  1.
       -1    1    3    3    0  502 -0.15683820651E+03 -0.16311465440E+03 -0.15158461117E+04  0.15326428312E+04  0.50400001928E-02 0. -1.
</event>
<event>
 5   0  0.1453863E-04  0.1000646E+04  0.7818609E-02  0.9307836E-01
        1   -1    0    0  501    0  0.00000000000E+00  0.00000000000E+00  0.33576601656E+03  0.33576601660E+03  0.50400001928E-02 0. -1.
       -1   -1    0    0    0  501  0.00000000000E+00  0.00000000000E+00 -0.74552912094E+03  0.74552912095E+03  0.50400001928E-02 0.  1.
    10030    2    1    2    0    0  0.00000000000E+00  0.00000000000E+00 -0.40976310438E+03  0.10812951376E+04  0.10006464774E+04 0.  0.
        1    1    3    3  502    0  0.48463201509E+03 -0.30699151816E+02 -0.74703456123E+02  0.49131581936E+03  0.50400001928E-02 0. -1.
       -1    1    3    3    0  502 -0.48463201509E+03  0.30699151816E+02 -0.33505964825E+03  0.58997931819E+03  0.50400001928E-02 0.  1.
</event>
<event>
 5   0  0.2353916E-04  0.1000024E+04  0.7818609E-02  0.9308519E-01
        2   -1    0    0  501    0  0.00000000000E+00  0.00000000000E+00  0.89687763877E+03  0.89687763877E+03  0.25500000920E-02 0.  1.
       -2   -1    0    0    0  501  0.00000000000E+00  0.00000000000E+00 -0.27875808398E+03  0.27875808400E+03  0.25500000920E-02 0. -1.
    10030    2    1    2    0    0  0.00000000000E+00  0.00000000000E+00  0.61811955479E+03  0.11756357228E+04  0.10000237840E+04 0.  0.
        4    1    3    3  502    0  0.48522435673E+02 -0.10032785285E+03  0.88208888515E+03  0.88910208583E+03  0.12699999809E+01 0.  1.
       -4    1    3    3    0  502 -0.48522435673E+02  0.10032785285E+03 -0.26396933037E+03  0.28653363694E+03  0.12699999809E+01 0. -1.
</event>
<event>
 5   0  0.2403037E-04  0.1000177E+04  0.7818609E-02  0.9308351E-01
        2   -1    0    0  501    0  0.00000000000E+00  0.00000000000E+00  0.59137049716E+03  0.59137049717E+03  0.25500000920E-02 0.  1.
       -2   -1    0    0    0  501  0.00000000000E+00  0.00000000000E+00 -0.42289623472E+03  0.42289623473E+03  0.25500000920E-02 0. -1.
    10030    2    1    2    0    0  0.00000000000E+00  0.00000000000E+00  0.16847426244E+03  0.10142667319E+04  0.10001766976E+04 0.  0.
        1    1    3    3  502    0 -0.21064877667E+03 -0.20081036330E+03  0.49664877884E+03  0.57563679406E+03  0.50400001928E-02 0.  1.
       -1    1    3    3    0  502  0.21064877667E+03  0.20081036330E+03 -0.32817451640E+03  0.43862993784E+03  0.50400001928E-02 0. -1.
</event>
<event>
 5   0  0.2353916E-04  0.1002821E+04  0.7818609E-02  0.9305456E-01
       -2   -1    0    0    0  501  0.00000000000E+00  0.00000000000E+00  0.26001487964E+03  0.26001487965E+03  0.25500000920E-02 0.  1.
        2   -1    0    0  501    0  0.00000000000E+00  0.00000000000E+00 -0.96691610026E+03  0.96691610026E+03  0.25500000920E-02 0. -1.
    10030    2    1    2    0    0  0.00000000000E+00  0.00000000000E+00 -0.70690122062E+03  0.12269309799E+04  0.10028211674E+04 0.  0.
        4    1    3    3  502    0  0.33287836151E+02 -0.22056886108E+03 -0.90286266594E+03  0.93001145636E+03  0.12699999809E+01 0. -1.
       -4    1    3    3    0  502 -0.33287836151E+02  0.22056886108E+03  0.19596144532E+03  0.29691952355E+03  0.12699999809E+01 0.  1.
</event>
<event>
 5   0  0.2353916E-04  0.1000661E+04  0.7818609E-02  0.9307820E-01
       -2   -1    0    0    0  501  0.00000000000E+00  0.00000000000E+00  0.15849473102E+03  0.15849473104E+03  0.25500000920E-02 0. -1.
        2   -1    0    0  501    0  0.00000000000E+00  0.00000000000E+00 -0.15794252140E+04  0.15794252140E+04  0.25500000920E-02 0.  1.
    10030    2    1    2    0    0  0.00000000000E+00  0.00000000000E+00 -0.14209304829E+04  0.17379199450E+04  0.10006609305E+04 0.  0.
        4    1    3    3  502    0 -0.21441182242E+03  0.42446358940E+03 -0.44035841460E+03  0.64811952180E+03  0.12699999809E+01 0. -1.
       -4    1    3    3    0  502  0.21441182242E+03 -0.42446358940E+03 -0.98057206833E+03  0.10898004232E+04  0.12699999809E+01 0.  1.
</event>
<event>
 5   0  0.1453863E-04  0.1000371E+04  0.7818609E-02  0.9308138E-01
       -1   -1    0    0    0  501  0.00000000000E+00  0.00000000000E+00  0.83485896632E+03  0.83485896634E+03  0.50400001928E-02 0.  1.
        1   -1    0    0  501    0  0.00000000000E+00  0.00000000000E+00 -0.29967413611E+03  0.29967413615E+03  0.50400001928E-02 0. -1.
    10030    2    1    2    0    0  0.00000000000E+00  0.00000000000E+00  0.53518483021E+03  0.11345331025E+04  0.10003712102E+04 0.  0.
        1    1    3    3  502    0 -0.20074191190E+03  0.47948081577E+01 -0.25195637863E+03  0.32218367764E+03  0.50400001928E-02 0. -1.
       -1    1    3    3    0  502  0.20074191190E+03 -0.47948081577E+01  0.78714120884E+03  0.81234942486E+03  0.50400001928E-02 0.  1.
</event>
<event>
 5   0  0.1506454E-04  0.9994613E+03  0.7818609E-02  0.9309136E-01
       -1   -1    0    0    0  501  0.00000000000E+00  0.00000000000E+00  0.73811640930E+03  0.73811640932E+03  0.50400001928E-02 0.  1.
        1   -1    0    0  501    0  0.00000000000E+00  0.00000000000E+00 -0.33833513959E+03  0.33833513963E+03  0.50400001928E-02 0. -1.
    10030    2    1    2    0    0  0.00000000000E+00  0.00000000000E+00  0.39978126971E+03  0.10764515489E+04  0.99946129171E+03 0.  0.
        3    1    3    3  502    0 -0.30289617128E+03 -0.39503141032E+03  0.24726537349E+03  0.55582018751E+03  0.10100000352E+00 0. -1.
       -3    1    3    3    0  502  0.30289617128E+03  0.39503141032E+03  0.15251589622E+03  0.52063136144E+03  0.10100000352E+00 0.  1.
</event>
<event>
 5   0  0.2503680E-04  0.1000185E+04  0.7818609E-02  0.9308342E-01
        2   -1    0    0  501    0  0.00000000000E+00  0.00000000000E+00  0.12803621630E+04  0.12803621630E+04  0.25500000920E-02 0.  1.
       -2   -1    0    0    0  501  0.00000000000E+00  0.00000000000E+00 -0.19532952204E+03  0.19532952206E+03  0.25500000920E-02 0. -1.
    10030    2    1    2    0    0  0.00000000000E+00  0.00000000000E+00  0.10850326410E+04  0.14756916851E+04  0.10001850416E+04 0.  0.
        2    1    3    3  502    0 -0.10507542529E+03 -0.44025805415E+03  0.22875290300E+03  0.50714484113E+03  0.25500000920E-02 0.  1.
       -2    1    3    3    0  502  0.10507542529E+03  0.44025805415E+03  0.85627973795E+03  0.96854684393E+03  0.25500000920E-02 0. -1.
</event>
<event>
 5   0  0.9650500E-05  0.1000105E+04  0.7818609E-02  0.9308430E-01
       -3   -1    0    0    0  501  0.00000000000E+00  0.00000000000E+00  0.28727182795E+03  0.28727184571E+03  0.10100000352E+00 0.  1.
        3   -1    0    0  501    0  0.00000000000E+00  0.00000000000E+00 -0.87043804789E+03  0.87043805375E+03  0.10100000352E+00 0. -1.
    10030    2    1    2    0    0  0.00000000000E+00  0.00000000000E+00 -0.58316621994E+03  0.11577098995E+04  0.10001046801E+04 0.  0.
        3    1    3    3  502    0  0.34374365461E+03 -0.20822597852E+03  0.52854636571E+02  0.40535340263E+03  0.10100000352E+00 0.  1.
       -3    1    3    3    0  502 -0.34374365461E+03  0.20822597852E+03 -0.63602085651E+03  0.75235649683E+03  0.10100000352E+00 0. -1.
</event>
<event>
 5   0  0.1461334E-04  0.1000392E+04  0.7818609E-02  0.9308115E-01
       -1   -1    0    0    0  501  0.00000000000E+00  0.00000000000E+00  0.34953321067E+03  0.34953321070E+03  0.50400001928E-02 0.  1.
        1   -1    0    0  501    0  0.00000000000E+00  0.00000000000E+00 -0.71580017502E+03  0.71580017504E+03  0.50400001928E-02 0. -1.
    10030    2    1    2    0    0  0.00000000000E+00  0.00000000000E+00 -0.36626696436E+03  0.10653333857E+04  0.10003917900E+04 0.  0.
        2    1    3    3  502    0 -0.43639786628E+03  0.94999443635E+02 -0.42298310378E+03  0.61512819645E+03  0.25500000920E-02 0. -1.
       -2    1    3    3    0  502  0.43639786628E+03 -0.94999443635E+02  0.56716139422E+02  0.45020518929E+03  0.25500000920E-02 0.  1.
</event>
<event>
 5   0  0.1461334E-04  0.9996739E+03  0.7818609E-02  0.9308903E-01
       -1   -1    0    0    0  501  0.00000000000E+00  0.00000000000E+00  0.86521277344E+03  0.86521277345E+03  0.50400001928E-02 0.  1.
        1   -1    0    0  501    0  0.00000000000E+00  0.00000000000E+00 -0.28875781689E+03  0.28875781693E+03  0.50400001928E-02 0. -1.
    10030    2    1    2    0    0  0.00000000000E+00  0.00000000000E+00  0.57645495655E+03  0.11539705904E+04  0.99967385009E+03 0.  0.
        2    1    3    3  502    0  0.12567550995E+03 -0.12821352165E+01  0.84667498628E+03  0.85595239942E+03  0.25500000920E-02 0.  1.
       -2    1    3    3    0  502 -0.12567550995E+03  0.12821352165E+01 -0.27022002973E+03  0.29801819097E+03  0.25500000920E-02 0. -1.
</event>
<event>
 5   0  0.1414165E-04  0.9997040E+03  0.7818609E-02  0.9308870E-01
       -1   -1    0    0    0  501  0.00000000000E+00  0.00000000000E+00  0.66305406478E+03  0.66305406480E+03  0.50400001928E-02 0. -1.
        1   -1    0    0  501    0  0.00000000000E+00  0.00000000000E+00 -0.37681996287E+03  0.37681996291E+03  0.50400001928E-02 0.  1.
    10030    2    1    2    0    0  0.00000000000E+00  0.00000000000E+00  0.28623410191E+03  0.10398740277E+04  0.99970397239E+03 0.  0.
        4    1    3    3  502    0 -0.29252546993E+03 -0.13976084527E+03 -0.25262556945E+03  0.41100551781E+03  0.12699999809E+01 0.  1.
       -4    1    3    3    0  502  0.29252546993E+03  0.13976084527E+03  0.53885967136E+03  0.62886850990E+03  0.12699999809E+01 0. -1.
</event>
<event>
 5   0  0.2503680E-04  0.1000188E+04  0.7818609E-02  0.9308338E-01
        2   -1    0    0  501    0  0.00000000000E+00  0.00000000000E+00  0.13474019009E+04  0.13474019009E+04  0.25500000920E-02 0.  1.
       -2   -1    0    0    0  501  0.00000000000E+00  0.00000000000E+00 -0.18561216331E+03  0.18561216333E+03  0.25500000920E-02 0. -1.
    10030    2    1    2    0    0  0.00000000000E+00  0.00000000000E+00  0.11617897376E+04  0.15330140642E+04  0.10001883457E+04 0.  0.
        2    1    3    3  502    0  0.52210785434E+02  0.46674364828E+03  0.84423199856E+03  0.96607622201E+03  0.25500000920E-02 0.  1.
       -2    1    3    3    0  502 -0.52210785434E+02 -0.46674364828E+03  0.31755773903E+03  0.56693784223E+03  0.25500000920E-02 0. -1.
</event>
<event>
 5   0  0.1453863E-04  0.9999900E+03  0.7818609E-02  0.9308556E-01
        1   -1    0    0  501    0  0.00000000000E+00  0.00000000000E+00  0.14918107806E+04  0.14918107806E+04  0.50400001928E-02 0.  1.
       -1   -1    0    0    0  501  0.00000000000E+00  0.00000000000E+00 -0.16757821854E+03  0.16757821861E+03  0.50400001928E-02 0. -1.
    10030    2    1    2    0    0  0.00000000000E+00  0.00000000000E+00  0.13242325620E+04  0.16593889992E+04  0.99998998609E+03 0.  0.
        1    1    3    3  502    0 -0.79050433315E+02 -0.86664390533E+02  0.14686545103E+04  0.14733315167E+04  0.50400001928E-02 0.  1.
       -1    1    3    3    0  502  0.79050433315E+02  0.86664390533E+02 -0.14442194829E+03  0.18605748243E+03  0.50400001928E-02 0. -1.
</event>
<event>
 5   0  0.2503680E-04  0.9998462E+03  0.7818609E-02  0.9308714E-01
        2   -1    0    0  501    0  0.00000000000E+00  0.00000000000E+00  0.50274239012E+03  0.50274239013E+03  0.25500000920E-02 0.  1.
       -2   -1    0    0    0  501  0.00000000000E+00  0.00000000000E+00 -0.49711957212E+03  0.49711957212E+03  0.25500000920E-02 0. -1.
    10030    2    1    2    0    0  0.00000000000E+00  0.00000000000E+00  0.56228180006E+01  0.99986196225E+03  0.99984615190E+03 0.  0.
        2    1    3    3  502    0  0.28379203513E+03  0.18096039862E+03 -0.36684088450E+03  0.49785220661E+03  0.25500000920E-02 0. -1.
       -2    1    3    3    0  502 -0.28379203513E+03 -0.18096039862E+03  0.37246370250E+03  0.50200975564E+03  0.25500000920E-02 0.  1.
</event>
<event>
 5   0  0.2503680E-04  0.9999442E+03  0.7818609E-02  0.9308606E-01
        2   -1    0    0  501    0  0.00000000000E+00  0.00000000000E+00  0.86802608242E+03  0.86802608243E+03  0.25500000920E-02 0.  1.
       -2   -1    0    0    0  501  0.00000000000E+00  0.00000000000E+00 -0.28797766543E+03  0.28797766545E+03  0.25500000920E-02 0. -1.
    10030    2    1    2    0    0  0.00000000000E+00  0.00000000000E+00  0.58004841699E+03  0.11560037479E+04  0.99994424797E+03 0.  0.
        2    1    3    3  502    0  0.19487528890E+03 -0.45442306898E+03  0.20432359387E+03  0.53499984566E+03  0.25500000920E-02 0. -1.
       -2    1    3    3    0  502 -0.19487528890E+03  0.45442306898E+03  0.37572482312E+03  0.62100390221E+03  0.25500000920E-02 0.  1.
</event>
<event>
 5   0  0.2503680E-04  0.9999289E+03  0.7818609E-02  0.9308623E-01
       -2   -1    0    0    0  501  0.00000000000E+00  0.00000000000E+00  0.10865935080E+04  0.10865935080E+04  0.25500000920E-02 0. -1.
        2   -1    0    0  501    0  0.00000000000E+00  0.00000000000E+00 -0.23004410247E+03  0.23004410248E+03  0.25500000920E-02 0.  1.
    10030    2    1    2    0    0  0.00000000000E+00  0.00000000000E+00  0.85654940551E+03  0.13166376105E+04  0.99992885407E+03 0.  0.
        2    1    3    3  502    0  0.24701116127E+03  0.81041213230E+02  0.99060103962E+03  0.10241448197E+04  0.25500000920E-02 0. -1.
       -2    1    3    3    0  502 -0.24701116127E+03 -0.81041213230E+02 -0.13405163411E+03  0.29249279076E+03  0.25500000920E-02 0.  1.
</event>
<event>
 5   0  0.2403037E-04  0.1000040E+04  0.7818609E-02  0.9308501E-01
        2   -1    0    0  501    0  0.00000000000E+00  0.00000000000E+00  0.77738105807E+03  0.77738105807E+03  0.25500000920E-02 0.  1.
       -2   -1    0    0    0  501  0.00000000000E+00  0.00000000000E+00 -0.32161819422E+03  0.32161819423E+03  0.25500000920E-02 0. -1.
    10030    2    1    2    0    0  0.00000000000E+00  0.00000000000E+00  0.45576286385E+03  0.10989992523E+04  0.10000397835E+04 0.  0.
        1    1    3    3  502    0  0.45455084823E+03 -0.22243804190E+02  0.45552346315E+03  0.64390440747E+03  0.50400001928E-02 0.  1.
       -1    1    3    3    0  502 -0.45455084823E+03  0.22243804190E+02  0.23940069803E+00  0.45509484483E+03  0.50400001928E-02 0. -1.
</event>
<event>
 5   0  0.1461334E-04  0.9989908E+03  0.7818609E-02  0.9309652E-01
       -1   -1    0    0    0  501  0.00000000000E+00  0.00000000000E+00  0.11687851661E+03  0.11687851672E+03  0.50400001928E-02 0.  1.
        1   -1    0    0  501    0  0.00000000000E+00  0.00000000000E+00 -0.21346580903E+04  0.21346580903E+04  0.50400001928E-02 0. -1.
    10030    2    1    2    0    0  0.00000000000E+00  0.00000000000E+00 -0.20177795737E+04  0.22515366070E+04  0.99899083319E+03 0.  0.
        2    1    3    3  502    0 -0.26208183961E+03 -0.40987986046E+03 -0.12639519099E+04  0.13543495935E+04  0.25500000920E-02 0. -1.
       -2    1    3    3    0  502  0.26208183961E+03  0.40987986046E+03 -0.75382766372E+03  0.89718701354E+03  0.25500000920E-02 0.  1.
</event>
<event>
 5   0  0.2353916E-04  0.9998122E+03  0.7818609E-02  0.9308751E-01
        2   -1    0    0  501    0  0.00000000000E+00  0.00000000000E+00  0.44770175219E+03  0.44770175219E+03  0.25500000920E-02 0. -1.
       -2   -1    0    0    0  501  0.00000000000E+00  0.00000000000E+00 -0.55819777708E+03  0.55819777709E+03  0.25500000920E-02 0.  1.
    10030    2    1    2    0    0  0.00000000000E+00  0.00000000000E+00 -0.11049602490E+03  0.10058995293E+04  0.99981222812E+03 0.  0.
        4    1    3    3  502    0 -0.42444096742E+03  0.18227708459E+03 -0.24753844024E+03  0.52407247847E+03  0.12699999809E+01 0.  1.
       -4    1    3    3    0  502  0.42444096742E+03 -0.18227708459E+03  0.13704241534E+03  0.48182705081E+03  0.12699999809E+01 0. -1.
</event>
<event>
 5   0  0.2473312E-04  0.1000033E+04  0.7818609E-02  0.9308508E-01
        2   -1    0    0  501    0  0.00000000000E+00  0.00000000000E+00  0.81686719231E+03  0.81686719232E+03  0.25500000920E-02 0.  1.
       -2   -1    0    0    0  501  0.00000000000E+00  0.00000000000E+00 -0.30606775317E+03  0.30606775318E+03  0.25500000920E-02 0. -1.
    10030    2    1    2    0    0  0.00000000000E+00  0.00000000000E+00  0.51079943915E+03  0.11229349455E+04  0.10000334118E+04 0.  0.
        5    1    3    3  502    0 -0.42530246594E+03  0.46323875684E+02  0.54598189827E+03  0.69364718137E+03  0.46999998093E+01 0.  1.
       -5    1    3    3    0  502  0.42530246594E+03 -0.46323875684E+02 -0.35182459120E+02  0.42928776412E+03  0.46999998093E+01 0. -1.
</event>
<event>
 5   0  0.1506454E-04  0.1000097E+04  0.7818609E-02  0.9308438E-01
        1   -1    0    0  501    0  0.00000000000E+00  0.00000000000E+00  0.29881033934E+03  0.29881033938E+03  0.50400001928E-02 0. -1.
       -1   -1    0    0    0  501  0.00000000000E+00  0.00000000000E+00 -0.83681397937E+03  0.83681397938E+03  0.50400001928E-02 0.  1.
    10030    2    1    2    0    0  0.00000000000E+00  0.00000000000E+00 -0.53800364002E+03  0.11356243188E+04  0.10000973336E+04 0.  0.
        3    1    3    3  502    0  0.19598556823E+03 -0.42585432813E+03 -0.46661517594E+03  0.66143176848E+03  0.10100000352E+00 0. -1.
       -3    1    3    3    0  502 -0.19598556823E+03  0.42585432813E+03 -0.71388464084E+02  0.47419255028E+03  0.10100000352E+00 0.  1.
</event>
<event>
 5   0  0.2473312E-04  0.1000138E+04  0.7818609E-02  0.9308394E-01
        2   -1    0    0  501    0  0.00000000000E+00  0.00000000000E+00  0.73843470529E+03  0.73843470529E+03  0.25500000920E-02 0.  1.
       -2   -1    0    0    0  501  0.00000000000E+00  0.00000000000E+00 -0.33864710464E+03  0.33864710465E+03  0.25500000920E-02 0. -1.
    10030    2    1    2    0    0  0.00000000000E+00  0.00000000000E+00  0.39978760064E+03  0.10770818099E+04  0.10001375404E+04 0.  0.
        5    1    3    3  502    0  0.18324895403E+03 -0.40251315078E+03 -0.51402783901E+02  0.44526548473E+03  0.46999998093E+01 0. -1.
       -5    1    3    3    0  502 -0.18324895403E+03  0.40251315078E+03  0.45119038454E+03  0.63181632521E+03  0.46999998093E+01 0.  1.
</event>
<event>
 5   0  0.1430675E-04  0.9998050E+03  0.7818609E-02  0.9308759E-01
       -1   -1    0    0    0  501  0.00000000000E+00  0.00000000000E+00  0.59326849780E+03  0.59326849782E+03  0.50400001928E-02 0. -1.
        1   -1    0    0  501    0  0.00000000000E+00  0.00000000000E+00 -0.42123001582E+03  0.42123001585E+03  0.50400001928E-02 0.  1.
    10030    2    1    2    0    0  0.00000000000E+00  0.00000000000E+00  0.17203848198E+03  0.10144985137E+04  0.99980497846E+03 0.  0.
        5    1    3    3  502    0 -0.27711312667E+03 -0.18114844261E+01  0.50816884985E+03  0.57883731428E+03  0.46999998093E+01 0. -1.
       -5    1    3    3    0  502  0.27711312667E+03  0.18114844261E+01 -0.33613036787E+03  0.43566119939E+03  0.46999998093E+01 0.  1.
</event>
<event>
 5   0  0.2473312E-04  0.9987012E+03  0.7818609E-02  0.9309970E-01
        2   -1    0    0  501    0  0.00000000000E+00  0.00000000000E+00  0.30512521343E+03  0.30512521344E+03  0.25500000920E-02 0.  1.
       -2   -1    0    0    0  501  0.00000000000E+00  0.00000000000E+00 -0.81720883704E+03  0.81720883704E+03  0.25500000920E-02 0. -1.
    10030    2    1    2    0    0  0.00000000000E+00  0.00000000000E+00 -0.51208362361E+03  0.11223340505E+04  0.99870119821E+03 0.  0.
        5    1    3    3  502    0 -0.40161664665E+03 -0.11451160455E+03  0.51557755601E+02  0.42081959389E+03  0.46999998093E+01 0.  1.
       -5    1    3    3    0  502  0.40161664665E+03  0.11451160455E+03 -0.56364137921E+03  0.70151445659E+03  0.46999998093E+01 0. -1.
</event>
<event>
 5   0  0.2503680E-04  0.1000681E+04  0.7818609E-02  0.9307798E-01
        2   -1    0    0  501    0  0.00000000000E+00  0.00000000000E+00  0.23014991750E+04  0.23014991750E+04  0.25500000920E-02 0.  1.
       -2   -1    0    0    0  501  0.00000000000E+00  0.00000000000E+00 -0.10877292725E+03  0.10877292728E+03  0.25500000920E-02 0. -1.
    10030    2    1    2    0    0  0.00000000000E+00  0.00000000000E+00  0.21927262477E+04  0.24102721023E+04  0.10006813726E+04 0.  0.
        2    1    3    3  502    0  0.25827464240E+03 -0.11321653704E+03  0.10087556191E+03  0.29949900528E+03  0.25500000920E-02 0. -1.
       -2    1    3    3    0  502 -0.25827464240E+03  0.11321653704E+03  0.20918506858E+04  0.21107730970E+04  0.25500000920E-02 0.  1.
</event>
<event>
 5   0  0.1453863E-04  0.9996713E+03  0.7818609E-02  0.9308905E-01
        1   -1    0    0  501    0  0.00000000000E+00  0.00000000000E+00  0.52548328553E+03  0.52548328556E+03  0.50400001928E-02 0. -1.
       -1   -1    0    0    0  501  0.00000000000E+00  0.00000000000E+00 -0.47543984938E+03  0.47543984941E+03  0.50400001928E-02 0.  1.
    10030    2    1    2    0    0  0.00000000000E+00  0.00000000000E+00  0.50043436151E+02  0.10009231350E+04  0.99967133430E+03 0.  0.
        1    1    3    3  502    0 -0.48512553268E+03 -0.80930404376E+02  0.11423537646E+03  0.50492200791E+03  0.50400001928E-02 0.  1.
       -1    1    3    3    0  502  0.48512553268E+03  0.80930404376E+02 -0.64191940305E+02  0.49600112706E+03  0.50400001928E-02 0. -1.
</event>
<event>
 5   0  0.1453863E-04  0.1001226E+04  0.7818609E-02  0.9307201E-01
       -1   -1    0    0    0  501  0.00000000000E+00  0.00000000000E+00  0.29694298689E+03  0.29694298693E+03  0.50400001928E-02 0. -1.
        1   -1    0    0  501    0  0.00000000000E+00  0.00000000000E+00 -0.84397810401E+03  0.84397810402E+03  0.50400001928E-02 0.  1.
    10030    2    1    2    0    0  0.00000000000E+00  0.00000000000E+00 -0.54703511712E+03  0.11409210910E+04  0.10012260067E+04 0.  0.
        1    1    3    3  502    0  0.42416947620E+03 -0.56156529431E+02  0.22627348351E+02  0.42846854873E+03  0.50400001928E-02 0. -1.
       -1    1    3    3    0  502 -0.42416947620E+03  0.56156529431E+02 -0.56966246547E+03  0.71245254222E+03  0.50400001928E-02 0.  1.
</event>
<event>
 5   0  0.2353916E-04  0.1000096E+04  0.7818609E-02  0.9308440E-01
       -2   -1    0    0    0  501  0.00000000000E+00  0.00000000000E+00  0.40962332107E+03  0.40962332108E+03  0.25500000920E-02 0.  1.
        2   -1    0    0  501    0  0.00000000000E+00  0.00000000000E+00 -0.61043386361E+03  0.61043386362E+03  0.25500000920E-02 0. -1.
    10030    2    1    2    0    0  0.00000000000E+00  0.00000000000E+00 -0.20081054254E+03  0.10200571847E+04  0.10000958884E+04 0.  0.
        4    1    3    3  502    0 -0.10816304991E+03  0.36901399512E+03  0.22562416642E+03  0.44584577079E+03  0.12699999809E+01 0.  1.
       -4    1    3    3    0  502  0.10816304991E+03 -0.36901399512E+03 -0.42643470896E+03  0.57421141391E+03  0.12699999809E+01 0. -1.
</event>
<event>
 5   0  0.2353916E-04  0.9998695E+03  0.7818609E-02  0.9308688E-01
        2   -1    0    0  501    0  0.00000000000E+00  0.00000000000E+00  0.12036943949E+04  0.12036943949E+04  0.25500000920E-02 0. -1.
       -2   -1    0    0    0  501  0.00000000000E+00  0.00000000000E+00 -0.20763971208E+03  0.20763971210E+03  0.25500000920E-02 0.  1.
    10030    2    1    2    0    0  0.00000000000E+00  0.00000000000E+00  0.99605468285E+03  0.14113341070E+04  0.99986950670E+03 0.  0.
        4    1    3    3  502    0  0.87778589907E+02 -0.24095789059E+03  0.11037765330E+04  0.11331769648E+04  0.12699999809E+01 0. -1.
       -4    1    3    3    0  502 -0.87778589907E+02  0.24095789059E+03 -0.10772185012E+03  0.27815714224E+03  0.12699999809E+01 0.  1.
</event>
<event>
 5   0  0.2403037E-04  0.9999677E+03  0.7818609E-02  0.9308580E-01
       -2   -1    0    0    0  501  0.00000000000E+00  0.00000000000E+00  0.42260984387E+03  0.42260984388E+03  0.25500000920E-02 0.  1.
        2   -1    0    0  501    0  0.00000000000E+00  0.00000000000E+00 -0.59152393612E+03  0.59152393612E+03  0.25500000920E-02 0. -1.
    10030    2    1    2    0    0  0.00000000000E+00  0.00000000000E+00 -0.16891409225E+03  0.10141337800E+04  0.99996767606E+03 0.  0.
        1    1    3    3  502    0 -0.26241005103E+03  0.42301200304E+03 -0.37043824690E+02  0.49916974525E+03  0.50400001928E-02 0.  1.
       -1    1    3    3    0  502  0.26241005103E+03 -0.42301200304E+03 -0.13187026756E+03  0.51496403475E+03  0.50400001928E-02 0. -1.
</event>
<event>
 5   0  0.2473312E-04  0.1000456E+04  0.7818609E-02  0.9308045E-01
        2   -1    0    0  501    0  0.00000000000E+00  0.00000000000E+00  0.32048052297E+03  0.32048052298E+03  0.25500000920E-02 0.  1.
       -2   -1    0    0    0  501  0.00000000000E+00  0.00000000000E+00 -0.78078987915E+03  0.78078987915E+03  0.25500000920E-02 0. -1.
    10030    2    1    2    0    0  0.00000000000E+00  0.00000000000E+00 -0.46030935618E+03  0.11012704021E+04  0.10004557937E+04 0.  0.
        5    1    3    3  502    0  0.22219380500E+03 -0.40862731453E+02 -0.72140593441E+03  0.75596855887E+03  0.46999998093E+01 0. -1.
       -5    1    3    3    0  502 -0.22219380500E+03  0.40862731453E+02  0.26109657823E+03  0.34530184326E+03  0.46999998093E+01 0.  1.
</event>
<event>
 5   0  0.1506454E-04  0.9999188E+03  0.7818609E-02  0.9308634E-01
        1   -1    0    0  501    0  0.00000000000E+00  0.00000000000E+00  0.12774414602E+04  0.12774414602E+04  0.50400001928E-02 0.  1.
       -1   -1    0    0    0  501  0.00000000000E+00  0.00000000000E+00 -0.19567188812E+03  0.19567188818E+03  0.50400001928E-02 0. -1.
    10030    2    1    2    0    0  0.00000000000E+00  0.00000000000E+00  0.10817695720E+04  0.14731133484E+04  0.99991876175E+03 0.  0.
        3    1    3    3  502    0 -0.14776885987E+03  0.81087367364E+02 -0.15255048560E+03  0.22733776182E+03  0.10100000352E+00 0. -1.
       -3    1    3    3    0  502  0.14776885987E+03 -0.81087367364E+02  0.12343200576E+04  0.12457755865E+04  0.10100000352E+00 0.  1.
</event>
<event>
 5   0  0.1453863E-04  0.9953520E+03  0.7818609E-02  0.9313657E-01
       -1   -1    0    0    0  501  0.00000000000E+00  0.00000000000E+00  0.18411607572E+03  0.18411607579E+03  0.50400001928E-02 0. -1.
        1   -1    0    0  501    0  0.00000000000E+00  0.00000000000E+00 -0.13452459703E+04  0.13452459703E+04  0.50400001928E-02 0.  1.
    10030    2    1    2    0    0  0.00000000000E+00  0.00000000000E+00 -0.11611298946E+04  0.15293620461E+04  0.99535201610E+03 0.  0.
        1    1    3    3  502    0 -0.33954544806E+03 -0.19193872032E+03 -0.10555156739E+04  0.11252754870E+04  0.50400001928E-02 0.  1.
       -1    1    3    3    0  502  0.33954544806E+03  0.19193872032E+03 -0.10561422069E+03  0.40408655916E+03  0.50400001928E-02 0. -1.
</event>
<event>
 5   0  0.2503680E-04  0.1000372E+04  0.7818609E-02  0.9308137E-01
        2   -1    0    0  501    0  0.00000000000E+00  0.00000000000E+00  0.68900289321E+03  0.68900289321E+03  0.25500000920E-02 0.  1.
       -2   -1    0    0    0  501  0.00000000000E+00  0.00000000000E+00 -0.36311303531E+03  0.36311303532E+03  0.25500000920E-02 0. -1.
    10030    2    1    2    0    0  0.00000000000E+00  0.00000000000E+00  0.32588985789E+03  0.10521159285E+04  0.10003717947E+04 0.  0.
        2    1    3    3  502    0  0.21843923283E+03 -0.12583987848E+03 -0.29141308140E+03  0.38532188813E+03  0.25500000920E-02 0. -1.
       -2    1    3    3    0  502 -0.21843923283E+03  0.12583987848E+03  0.61730293929E+03  0.66679404040E+03  0.25500000920E-02 0.  1.
</event>
<event>
 5   0  0.1430675E-04  0.1000014E+04  0.7818609E-02  0.9308529E-01
        1   -1    0    0  501    0  0.00000000000E+00  0.00000000000E+00  0.98573460206E+03  0.98573460207E+03  0.50400001928E-02 0.  1.
       -1   -1    0    0    0  501  0.00000000000E+00  0.00000000000E+00 -0.25362530494E+03  0.25362530499E+03  0.50400001928E-02 0. -1.
    10030    2    1    2    0    0  0.00000000000E+00  0.00000000000E+00  0.73210929712E+03  0.12393599071E+04  0.10000144781E+04 0.  0.
        5    1    3    3  502    0  0.45224043772E+03 -0.14757298334E+03  0.17531694011E+03  0.50700820349E+03  0.46999998093E+01 0. -1.
       -5    1    3    3    0  502 -0.45224043772E+03  0.14757298334E+03  0.55679235700E+03  0.73235170358E+03  0.46999998093E+01 0.  1.
</event>
<event>
 5   0  0.1453863E-04  0.9999032E+03  0.7818609E-02  0.9308651E-01
        1   -1    0    0  501    0  0.00000000000E+00  0.00000000000E+00  0.28684623897E+03  0.28684623902E+03  0.50400001928E-02 0.  1.
       -1   -1    0    0    0  501  0.00000000000E+00  0.00000000000E+00 -0.87137827250E+03  0.87137827252E+03  0.50400001928E-02 0. -1.
    10030    2    1    2    0    0  0.00000000000E+00  0.00000000000E+00 -0.58453203353E+03  0.11582245115E+04  0.99990315576E+03 0.  0.
        1    1    3    3  502    0 -0.87317692006E+02  0.46351304044E+03 -0.48429456243E+03  0.67602510399E+03  0.50400001928E-02 0. -1.
       -1    1    3    3    0  502  0.87317692006E+02 -0.46351304044E+03 -0.10023747110E+03  0.48219940754E+03  0.50400001928E-02 0.  1.
</event>
<event>
 5   0  0.1461334E-04  0.1000297E+04  0.7818609E-02  0.9308219E-01
        1   -1    0    0  501    0  0.00000000000E+00  0.00000000000E+00  0.29921870621E+03  0.29921870625E+03  0.50400001928E-02 0. -1.
       -1   -1    0    0    0  501  0.00000000000E+00  0.00000000000E+00 -0.83600618098E+03  0.83600618099E+03  0.50400001928E-02 0.  1.
    10030    2    1    2    0    0  0.00000000000E+00  0.00000000000E+00 -0.53678747477E+03  0.11352248872E+04  0.10002973316E+04 0.  0.
        2    1    3    3  502    0 -0.43674022581E+03 -0.24082783737E+03 -0.22579967448E+03  0.54747197654E+03  0.25500000920E-02 0. -1.
       -2    1    3    3    0  502  0.43674022581E+03  0.24082783737E+03 -0.31098780029E+03  0.58775291070E+03  0.25500000920E-02 0.  1.
</event>
<event>
 5   0  0.2503680E-04  0.9999823E+03  0.7818609E-02  0.9308564E-01
        2   -1    0    0  501    0  0.00000000000E+00  0.00000000000E+00  0.10982923493E+04  0.10982923493E+04  0.25500000920E-02 0. -1.
       -2   -1    0    0    0  501  0.00000000000E+00  0.00000000000E+00 -0.22761801576E+03  0.22761801578E+03  0.25500000920E-02 0.  1.
    10030    2    1    2    0    0  0.00000000000E+00  0.00000000000E+00  0.87067433355E+03  0.13259103651E+04  0.99998225042E+03 0.  0.
        2    1    3    3  502    0 -0.38730311648E+03 -0.44509436114E+02  0.20240791926E+02  0.39037736051E+03  0.25500000920E-02 0.  1.
       -2    1    3    3    0  502  0.38730311648E+03  0.44509436114E+02  0.85043354163E+03  0.93553300459E+03  0.25500000920E-02 0. -1.
</event>
<event>
 5   0  0.2484904E-04  0.1000811E+04  0.7818609E-02  0.9307656E-01
        2   -1    0    0  501    0  0.00000000000E+00  0.00000000000E+00  0.49671869186E+03  0.49671869186E+03  0.25500000920E-02 0.  1.
       -2   -1    0    0    0  501  0.00000000000E+00  0.00000000000E+00 -0.50411937221E+03  0.50411937222E+03  0.25500000920E-02 0. -1.
    10030    2    1    2    0    0  0.00000000000E+00  0.00000000000E+00 -0.74006803517E+01  0.10008380641E+04  0.10008107016E+04 0.  0.
        3    1    3    3  502    0  0.25417633688E+03 -0.42089537856E+03 -0.96691994722E+02  0.50110665728E+03  0.10100000352E+00 0. -1.
       -3    1    3    3    0  502 -0.25417633688E+03  0.42089537856E+03  0.89291314370E+02  0.49973140680E+03  0.10100000352E+00 0.  1.
</event>
<event>
 5   0  0.1430675E-04  0.1000116E+04  0.7818609E-02  0.9308418E-01
        1   -1    0    0  501    0  0.00000000000E+00  0.00000000000E+00  0.33372406435E+03  0.33372406439E+03  0.50400001928E-02 0. -1.
       -1   -1    0    0    0  501  0.00000000000E+00  0.00000000000E+00 -0.74929563471E+03  0.74929563472E+03  0.50400001928E-02 0.  1.
    10030    2    1    2    0    0  0.00000000000E+00  0.00000000000E+00 -0.41557157036E+03  0.10830196991E+04  0.10001159626E+04 0.  0.
        5    1    3    3  502    0 -0.79127657288E+02 -0.45538477284E+03 -0.41438716227E+03  0.62078602412E+03  0.46999998093E+01 0.  1.
       -5    1    3    3    0  502  0.79127657288E+02  0.45538477284E+03 -0.11844080837E+01  0.46223367500E+03  0.46999998093E+01 0. -1.
</event>
<event>
 5   0  0.1453863E-04  0.1000283E+04  0.7818609E-02  0.9308234E-01
        1   -1    0    0  501    0  0.00000000000E+00  0.00000000000E+00  0.47567076604E+03  0.47567076607E+03  0.50400001928E-02 0. -1.
       -1   -1    0    0    0  501  0.00000000000E+00  0.00000000000E+00 -0.52587130602E+03  0.52587130605E+03  0.50400001928E-02 0.  1.
    10030    2    1    2    0    0  0.00000000000E+00  0.00000000000E+00 -0.50200539986E+02  0.10015420721E+04  0.10002831739E+04 0.  0.
        1    1    3    3  502    0  0.19460883359E+03 -0.45822184285E+03 -0.73137223937E+02  0.50317880413E+03  0.50400001928E-02 0.  1.
       -1    1    3    3    0  502 -0.19460883359E+03  0.45822184285E+03  0.22936683951E+02  0.49836326798E+03  0.50400001928E-02 0. -1.
</event>
<event>
 5   0  0.1506454E-04  0.9996519E+03  0.7818609E-02  0.9308927E-01
       -1   -1    0    0    0  501  0.00000000000E+00  0.00000000000E+00  0.35823970367E+03  0.35823970371E+03  0.50400001928E-02 0. -1.
        1   -1    0    0  501    0  0.00000000000E+00  0.00000000000E+00 -0.69737098557E+03  0.69737098559E+03  0.50400001928E-02 0.  1.
    10030    2    1    2    0    0  0.00000000000E+00  0.00000000000E+00 -0.33913128190E+03  0.10556106893E+04  0.99965188991E+03 0.  0.
        3    1    3    3  502    0 -0.22475229053E+03 -0.13939882554E+02 -0.64077109218E+03  0.67918739329E+03  0.10100000352E+00 0.  1.
       -3    1    3    3    0  502  0.22475229053E+03  0.13939882554E+02  0.30163981029E+03  0.37642329600E+03  0.10100000352E+00 0. -1.
</event>
<event>
 5   0  0.2473312E-04  0.9998799E+03  0.7818609E-02  0.9308677E-01
       -2   -1    0    0    0  501  0.00000000000E+00  0.00000000000E+00  0.47352136475E+03  0.47352136476E+03  0.25500000920E-02 0.  1.
        2   -1    0    0  501    0  0.00000000000E+00  0.00000000000E+00 -0.52783244028E+03  0.52783244028E+03  0.25500000920E-02 0. -1.
    10030    2    1    2    0    0  0.00000000000E+00  0.00000000000E+00 -0.54311075525E+02  0.10013538050E+04  0.99987986776E+03 0.  0.
        5    1    3    3  502    0  0.38886586325E+02  0.60377578712E+02  0.46830623664E+03  0.47380422104E+03  0.46999998093E+01 0.  1.
       -5    1    3    3    0  502 -0.38886586325E+02 -0.60377578712E+02 -0.52261731216E+03  0.52754958400E+03  0.46999998093E+01 0. -1.
</event>
<event>
 5   0  0.1430675E-04  0.9999411E+03  0.7818609E-02  0.9308609E-01
       -1   -1    0    0    0  501  0.00000000000E+00  0.00000000000E+00  0.15409948796E+03  0.15409948805E+03  0.50400001928E-02 0.  1.
        1   -1    0    0  501    0  0.00000000000E+00  0.00000000000E+00 -0.16221373407E+04  0.16221373408E+04  0.50400001928E-02 0. -1.
    10030    2    1    2    0    0  0.00000000000E+00  0.00000000000E+00 -0.14680378528E+04  0.17762368288E+04  0.99994106566E+03 0.  0.
        5    1    3    3  502    0 -0.10540567951E+03  0.88553288162E+02  0.11972784331E+03  0.18250722884E+03  0.46999998093E+01 0.  1.
       -5    1    3    3    0  502  0.10540567951E+03 -0.88553288162E+02 -0.15877656961E+04  0.15937296000E+04  0.46999998093E+01 0. -1.
</event>
<event>
 5   0  0.2503680E-04  0.9960698E+03  0.7818609E-02  0.9312866E-01
        2   -1    0    0  501    0  0.00000000000E+00  0.00000000000E+00  0.98626023857E+03  0.98626023857E+03  0.25500000920E-02 0.  1.
       -2   -1    0    0    0  501  0.00000000000E+00  0.00000000000E+00 -0.25149424768E+03  0.25149424769E+03  0.25500000920E-02 0. -1.
    10030    2    1    2    0    0  0.00000000000E+00  0.00000000000E+00  0.73476599089E+03  0.12377544863E+04  0.99606983033E+03 0.  0.
        2    1    3    3  502    0 -0.27423306660E+03  0.37261303623E+02  0.88191116649E+03  0.92431568479E+03  0.25500000920E-02 0.  1.
       -2    1    3    3    0  502  0.27423306660E+03 -0.37261303623E+02 -0.14714517560E+03  0.31343880148E+03  0.25500000920E-02 0. -1.
</event>
<event>
 5   0  0.2503680E-04  0.9998367E+03  0.7818609E-02  0.9308724E-01
        2   -1    0    0  501    0  0.00000000000E+00  0.00000000000E+00  0.17161245963E+04  0.17161245963E+04  0.25500000920E-02 0. -1.
       -2   -1    0    0    0  501  0.00000000000E+00  0.00000000000E+00 -0.14562949402E+03  0.14562949404E+03  0.25500000920E-02 0.  1.
    10030    2    1    2    0    0  0.00000000000E+00  0.00000000000E+00  0.15704951023E+04  0.18617540903E+04  0.99983669997E+03 0.  0.
        2    1    3    3  502    0  0.29846074894E+03 -0.37059909591E+03  0.49982465690E+03  0.69010665567E+03  0.25500000920E-02 0. -1.
       -2    1    3    3    0  502 -0.29846074894E+03  0.37059909591E+03  0.10706704454E+04  0.11716474347E+04  0.25500000920E-02 0.  1.
</event>
<event>
 5   0  0.2473312E-04  0.9997059E+03  0.7818609E-02  0.9308867E-01
       -2   -1    0    0    0  501  0.00000000000E+00  0.00000000000E+00  0.25257503480E+03  0.25257503481E+03  0.25500000920E-02 0. -1.
        2   -1    0    0  501    0  0.00000000000E+00  0.00000000000E+00 -0.98922283497E+03  0.98922283498E+03  0.25500000920E-02 0.  1.
    10030    2    1    2    0    0  0.00000000000E+00  0.00000000000E+00 -0.73664780018E+03  0.12417978698E+04  0.99970594071E+03 0.  0.
        5    1    3    3  502    0  0.21900007152E+03 -0.41220070981E+03 -0.14625637642E+03  0.48916610077E+03  0.46999998093E+01 0. -1.
       -5    1    3    3    0  502 -0.21900007152E+03  0.41220070981E+03 -0.59039142375E+03  0.75263176902E+03  0.46999998093E+01 0.  1.
</event>
<event>
 5   0  0.2403037E-04  0.1000766E+04  0.7818609E-02  0.9307705E-01
       -2   -1    0    0    0  501  0.00000000000E+00  0.00000000000E+00  0.31197156200E+03  0.31197156201E+03  0.25500000920E-02 0. -1.
        2   -1    0    0  501    0  0.00000000000E+00  0.00000000000E+00 -0.80258350743E+03  0.80258350743E+03  0.25500000920E-02 0.  1.
    10030    2    1    2    0    0  0.00000000000E+00  0.00000000000E+00 -0.49061194543E+03  0.11145550694E+04  0.10007661674E+04 0.  0.
        1    1    3    3  502    0 -0.41719767988E+03 -0.24294767354E+03 -0.98797013591E+02  0.49278628846E+03  0.50400001928E-02 0. -1.
       -1    1    3    3    0  502  0.41719767988E+03  0.24294767354E+03 -0.39181493183E+03  0.62176878099E+03  0.50400001928E-02 0.  1.
</event>
<event>
 5   0  0.2503680E-04  0.1000285E+04  0.7818609E-02  0.9308233E-01
       -2   -1    0    0    0  501  0.00000000000E+00  0.00000000000E+00  0.28515978075E+03  0.28515978077E+03  0.25500000920E-02 0. -1.
        2   -1    0    0  501    0  0.00000000000E+00  0.00000000000E+00 -0.87720081434E+03  0.87720081434E+03  0.25500000920E-02 0.  1.
    10030    2    1    2    0    0  0.00000000000E+00  0.00000000000E+00 -0.59204103358E+03  0.11623605951E+04  0.10002847433E+04 0.  0.
        2    1    3    3  502    0  0.39164659089E+03  0.31361767291E+02 -0.65563403741E+03  0.76434717480E+03  0.25500000920E-02 0.  1.
       -2    1    3    3    0  502 -0.39164659089E+03 -0.31361767291E+02  0.63593003825E+02  0.39801342031E+03  0.25500000920E-02 0. -1.
</event>
<event>
 5   0  0.2403037E-04  0.9988982E+03  0.7818609E-02  0.9309754E-01
       -2   -1    0    0    0  501  0.00000000000E+00  0.00000000000E+00  0.55561112709E+03  0.55561112709E+03  0.25500000920E-02 0. -1.
        2   -1    0    0  501    0  0.00000000000E+00  0.00000000000E+00 -0.44896397330E+03  0.44896397330E+03  0.25500000920E-02 0.  1.
    10030    2    1    2    0    0  0.00000000000E+00  0.00000000000E+00  0.10664715379E+03  0.10045751004E+04  0.99889815143E+03 0.  0.
        1    1    3    3  502    0 -0.26754705221E+03  0.41849403943E+03  0.77056152753E+00  0.49670844565E+03  0.50400001928E-02 0. -1.
       -1    1    3    3    0  502  0.26754705221E+03 -0.41849403943E+03  0.10587659226E+03  0.50786665475E+03  0.50400001928E-02 0.  1.
</event>
<event>
 5   0  0.1461334E-04  0.1001346E+04  0.7818609E-02  0.9307069E-01
       -1   -1    0    0    0  501  0.00000000000E+00  0.00000000000E+00  0.23080395419E+03  0.23080395424E+03  0.50400001928E-02 0. -1.
        1   -1    0    0  501    0  0.00000000000E+00  0.00000000000E+00 -0.10860891308E+04  0.10860891308E+04  0.50400001928E-02 0.  1.
    10030    2    1    2    0    0  0.00000000000E+00  0.00000000000E+00 -0.85528517660E+03  0.13168930850E+04  0.10013464256E+04 0.  0.
        2    1    3    3  502    0  0.16100746398E+03 -0.17479040412E+03 -0.10071902890E+04  0.10348465428E+04  0.25500000920E-02 0.  1.
       -2    1    3    3    0  502 -0.16100746398E+03  0.17479040412E+03  0.15190511240E+03  0.28204654227E+03  0.25500000920E-02 0. -1.
</event>
<event>
 5   0  0.1414165E-04  0.1002354E+04  0.7818609E-02  0.9305967E-01
       -1   -1    0    0    0  501  0.00000000000E+00  0.00000000000E+00  0.32547109017E+03  0.32547109021E+03  0.50400001928E-02 0. -1.
        1   -1    0    0  501    0  0.00000000000E+00  0.00000000000E+00 -0.77173745038E+03  0.77173745039E+03  0.50400001928E-02 0.  1.
    10030    2    1    2    0    0  0.00000000000E+00  0.00000000000E+00 -0.44626636020E+03  0.10972085406E+04  0.10023536887E+04 0.  0.
        4    1    3    3  502    0 -0.23449664758E+03  0.18400511905E+02 -0.70756121049E+03  0.74563512260E+03  0.12699999809E+01 0.  1.
       -4    1    3    3    0  502  0.23449664758E+03 -0.18400511905E+02  0.26129485029E+03  0.35157341801E+03  0.12699999809E+01 0. -1.
</event>
<event>
 5   0  0.1414165E-04  0.9996629E+03  0.7818609E-02  0.9308915E-01
        1   -1    0    0  501    0  0.00000000000E+00  0.00000000000E+00  0.21815234434E+03  0.21815234440E+03  0.50400001928E-02 0.  1.
       -1   -1    0    0    0  501  0.00000000000E+00  0.00000000000E+00 -0.11452157420E+04  0.11452157420E+04  0.50400001928E-02 0. -1.
    10030    2    1    2    0    0  0.00000000000E+00  0.00000000000E+00 -0.92706339765E+03  0.13633680864E+04  0.99966294106E+03 0.  0.
        4    1    3    3  502    0 -0.21207020950E+03 -0.18933497961E+03 -0.10242098698E+04  0.10629341365E+04  0.12699999809E+01 0. -1.
       -4    1    3    3    0  502  0.21207020950E+03  0.18933497961E+03  0.97146472188E+02  0.30043394985E+03  0.12699999809E+01 0.  1.
</event>
<event>
 5   0  0.2353916E-04  0.1000004E+04  0.7818609E-02  0.9308540E-01
       -2   -1    0    0    0  501  0.00000000000E+00  0.00000000000E+00  0.41274314893E+03  0.41274314894E+03  0.25500000920E-02 0. -1.
        2   -1    0    0  501    0  0.00000000000E+00  0.00000000000E+00 -0.60570873211E+03  0.60570873212E+03  0.25500000920E-02 0.  1.
    10030    2    1    2    0    0  0.00000000000E+00  0.00000000000E+00 -0.19296558318E+03  0.10184518811E+04  0.10000042589E+04 0.  0.
        4    1    3    3  502    0 -0.29091667669E+03  0.17002622649E+03  0.27973548893E+03  0.43794404567E+03  0.12699999809E+01 0. -1.
       -4    1    3    3    0  502  0.29091667669E+03 -0.17002622649E+03 -0.47270107211E+03  0.58050783538E+03  0.12699999809E+01 0.  1.
</event>
<event>
 5   0  0.1430675E-04  0.1000043E+04  0.7818609E-02  0.9308497E-01
        1   -1    0    0  501    0  0.00000000000E+00  0.00000000000E+00  0.66988691632E+03  0.66988691634E+03  0.50400001928E-02 0. -1.
       -1   -1    0    0    0  501  0.00000000000E+00  0.00000000000E+00 -0.37322958945E+03  0.37322958948E+03  0.50400001928E-02 0.  1.
    10030    2    1    2    0    0  0.00000000000E+00  0.00000000000E+00  0.29665732688E+03  0.10431165058E+04  0.10000432366E+04 0.  0.
        5    1    3    3  502    0 -0.29753511649E+03  0.13657110335E+02  0.56723043451E+03  0.64069190571E+03  0.46999998093E+01 0. -1.
       -5    1    3    3    0  502  0.29753511649E+03 -0.13657110335E+02 -0.27057310763E+03  0.40242460012E+03  0.46999998093E+01 0.  1.
</event>
<event>
 5   0  0.1461334E-04  0.9998664E+03  0.7818609E-02  0.9308691E-01
        1   -1    0    0  501    0  0.00000000000E+00  0.00000000000E+00  0.13093367392E+04  0.13093367392E+04  0.50400001928E-02 0. -1.
       -1   -1    0    0    0  501  0.00000000000E+00  0.00000000000E+00 -0.19088533797E+03  0.19088533804E+03  0.50400001928E-02 0.  1.
    10030    2    1    2    0    0  0.00000000000E+00  0.00000000000E+00  0.11184514012E+04  0.15002220772E+04  0.99986636312E+03 0.  0.
        2    1    3    3  502    0 -0.21175610989E+03  0.26276627415E+03  0.58027638001E+01  0.33752101709E+03  0.25500000920E-02 0.  1.
       -2    1    3    3    0  502  0.21175610989E+03 -0.26276627415E+03  0.11126486374E+04  0.11627010601E+04  0.25500000920E-02 0. -1.
</event>
<event>
 5   0  0.1414165E-04  0.9996199E+03  0.7818609E-02  0.9308962E-01
        1   -1    0    0  501    0  0.00000000000E+00  0.00000000000E+00  0.58002517887E+03  0.58002517890E+03  0.50400001928E-02 0.  1.
       -1   -1    0    0    0  501  0.00000000000E+00  0.00000000000E+00 -0.43068816726E+03  0.43068816729E+03  0.50400001928E-02 0. -1.
    10030    2    1    2    0    0  0.00000000000E+00  0.00000000000E+00  0.14933701162E+03  0.10107133462E+04  0.99961989031E+03 0.  0.
        4    1    3    3  502    0 -0.10781615040E+03 -0.43936826108E+03 -0.14015008093E+03  0.47361635235E+03  0.12699999809E+01 0. -1.
       -4    1    3    3    0  502  0.10781615040E+03  0.43936826108E+03  0.28948709255E+03  0.53709699383E+03  0.12699999809E+01 0.  1.
</event>
<event>
 5   0  0.1414165E-04  0.1000106E+04  0.7818609E-02  0.9308428E-01
        1   -1    0    0  501    0  0.00000000000E+00  0.00000000000E+00  0.25835816790E+03  0.25835816795E+03  0.50400001928E-02 0. -1.
       -1   -1    0    0    0  501  0.00000000000E+00  0.00000000000E+00 -0.96785416537E+03  0.96785416538E+03  0.50400001928E-02 0.  1.
    10030    2    1    2    0    0  0.00000000000E+00  0.00000000000E+00 -0.70949599747E+03  0.12262123333E+04  0.10001060524E+04 0.  0.
        4    1    3    3  502    0  0.73895870327E+02 -0.20388671848E+03  0.19769837831E+03  0.29345639422E+03  0.12699999809E+01 0. -1.
       -4    1    3    3    0  502 -0.73895870327E+02  0.20388671848E+03 -0.90719437577E+03  0.93275593912E+03  0.12699999809E+01 0.  1.
</event>
<event>
 5   0  0.2484904E-04  0.1000196E+04  0.7818609E-02  0.9308329E-01
       -2   -1    0    0    0  501  0.00000000000E+00  0.00000000000E+00  0.10709444060E+03  0.10709444063E+03  0.25500000920E-02 0.  1.
        2   -1    0    0  501    0  0.00000000000E+00  0.00000000000E+00 -0.23353049310E+04  0.23353049310E+04  0.25500000920E-02 0. -1.
    10030    2    1    2    0    0  0.00000000000E+00  0.00000000000E+00 -0.22282104904E+04  0.24423993717E+04  0.10001963313E+04 0.  0.
        3    1    3    3  502    0 -0.87861021123E+02  0.35218191595E+03 -0.19541629882E+04  0.19875876473E+04  0.10100000352E+00 0. -1.
       -3    1    3    3    0  502  0.87861021123E+02 -0.35218191595E+03 -0.27404750220E+03  0.45481172436E+03  0.10100000352E+00 0.  1.
</event>
<event>
 5   0  0.1461334E-04  0.9994630E+03  0.7818609E-02  0.9309134E-01
        1   -1    0    0  501    0  0.00000000000E+00  0.00000000000E+00  0.45851380858E+03  0.45851380860E+03  0.50400001928E-02 0. -1.
       -1   -1    0    0    0  501  0.00000000000E+00  0.00000000000E+00 -0.54465444618E+03  0.54465444620E+03  0.50400001928E-02 0.  1.
    10030    2    1    2    0    0  0.00000000000E+00  0.00000000000E+00 -0.86140637603E+02  0.10031682548E+04  0.99946302483E+03 0.  0.
        2    1    3    3  502    0  0.86699606823E+02  0.18023887884E+03 -0.50272955436E+03  0.54105441511E+03  0.25500000920E-02 0.  1.
       -2    1    3    3    0  502 -0.86699606823E+02 -0.18023887884E+03  0.41658891676E+03  0.46211383970E+03  0.25500000920E-02 0. -1.
</event>
<event>
 5   0  0.2484904E-04  0.1000326E+04  0.7818609E-02  0.9308187E-01
        2   -1    0    0  501    0  0.00000000000E+00  0.00000000000E+00  0.31893069371E+04  0.31893069371E+04  0.25500000920E-02 0.  1.
       -2   -1    0    0    0  501  0.00000000000E+00  0.00000000000E+00 -0.78438049790E+02  0.78438049832E+02  0.25500000920E-02 0. -1.
    10030    2    1    2    0    0  0.00000000000E+00  0.00000000000E+00  0.31108688873E+04  0.32677449869E+04  0.10003259797E+04 0.  0.
        3    1    3    3  502    0  0.14689410475E+03 -0.24043373935E+03  0.20547421146E+03  0.34872040779E+03  0.10100000352E+00 0. -1.
       -3    1    3    3    0  502 -0.14689410475E+03  0.24043373935E+03  0.29053946758E+04  0.29190245791E+04  0.10100000352E+00 0.  1.
</event>
<event>
 5   0  0.1430675E-04  0.9998788E+03  0.7818609E-02  0.9308678E-01
       -1   -1    0    0    0  501  0.00000000000E+00  0.00000000000E+00  0.16154605103E+03  0.16154605111E+03  0.50400001928E-02 0. -1.
        1   -1    0    0  501    0  0.00000000000E+00  0.00000000000E+00 -0.15471713576E+04  0.15471713576E+04  0.50400001928E-02 0.  1.
    10030    2    1    2    0    0  0.00000000000E+00  0.00000000000E+00 -0.13856253065E+04  0.17087174087E+04  0.99987883897E+03 0.  0.
        5    1    3    3  502    0  0.23221906017E+03 -0.19001526496E+03 -0.13761385324E+04  0.14084782012E+04  0.46999998093E+01 0.  1.
       -5    1    3    3    0  502 -0.23221906017E+03  0.19001526496E+03 -0.94867740969E+01  0.30023920747E+03  0.46999998093E+01 0. -1.
</event>
<event>
 5   0  0.2484904E-04  0.1005685E+04  0.7818609E-02  0.9302331E-01
       -2   -1    0    0    0  501  0.00000000000E+00  0.00000000000E+00  0.30563834325E+03  0.30563834326E+03  0.25500000920E-02 0.  1.
        2   -1    0    0  501    0  0.00000000000E+00  0.00000000000E+00 -0.82728749836E+03  0.82728749836E+03  0.25500000920E-02 0. -1.
    10030    2    1    2    0    0  0.00000000000E+00  0.00000000000E+00 -0.52164915511E+03  0.11329258416E+04  0.10056853989E+04 0.  0.
        3    1    3    3  502    0 -0.38253104940E+03  0.29315286313E+03 -0.42244076923E+03  0.64087816207E+03  0.10100000352E+00 0. -1.
       -3    1    3    3    0  502  0.38253104940E+03 -0.29315286313E+03 -0.99208385887E+02  0.49204767955E+03  0.10100000352E+00 0.  1.
</event>
<event>
 5   0  0.1453863E-04  0.9998714E+03  0.7818609E-02  0.9308686E-01
        1   -1    0    0  501    0  0.00000000000E+00  0.00000000000E+00  0.11356723510E+04  0.11356723511E+04  0.50400001928E-02 0. -1.
       -1   -1    0    0    0  501  0.00000000000E+00  0.00000000000E+00 -0.22007732068E+03  0.22007732074E+03  0.50400001928E-02 0.  1.
    10030    2    1    2    0    0  0.00000000000E+00  0.00000000000E+00  0.91559503036E+03  0.13557496718E+04  0.99987144821E+03 0.  0.
        1    1    3    3  502    0 -0.13576913055E+02  0.41499707379E+03  0.83534096525E+03  0.93284587798E+03  0.50400001928E-02 0.  1.
       -1    1    3    3    0  502  0.13576913055E+02 -0.41499707379E+03  0.80254065113E+02  0.42290379381E+03  0.50400001928E-02 0. -1.
</event>
<event>
 5   0  0.1430675E-04  0.1000343E+04  0.7818609E-02  0.9308169E-01
        1   -1    0    0  501    0  0.00000000000E+00  0.00000000000E+00  0.25531637695E+04  0.25531637695E+04  0.50400001928E-02 0.  1.
       -1   -1    0    0    0  501  0.00000000000E+00  0.00000000000E+00 -0.97984846355E+02  0.97984846485E+02  0.50400001928E-02 0. -1.
    10030    2    1    2    0    0  0.00000000000E+00  0.00000000000E+00  0.24551789232E+04  0.26511486160E+04  0.10003426610E+04 0.  0.
        5    1    3    3  502    0 -0.20625892577E+03  0.16400052279E+03  0.23542077625E+04  0.23689143495E+04  0.46999998093E+01 0.  1.
       -5    1    3    3    0  502  0.20625892577E+03 -0.16400052279E+03  0.10097116064E+03  0.28223426655E+03  0.46999998093E+01 0. -1.
</event>
<event>
 5   0  0.2484904E-04  0.1000059E+04  0.7818609E-02  0.9308480E-01
        2   -1    0    0  501    0  0.00000000000E+00  0.00000000000E+00  0.47940003918E+03  0.47940003919E+03  0.25500000920E-02 0. -1.
       -2   -1    0    0    0  501  0.00000000000E+00  0.00000000000E+00 -0.52154715977E+03  0.52154715978E+03  0.25500000920E-02 0.  1.
    10030    2    1    2    0    0  0.00000000000E+00  0.00000000000E+00 -0.42147120591E+02  0.10009471990E+04  0.10000594559E+04 0.  0.
        3    1    3    3  502    0  0.11384958384E+03 -0.48637829259E+03  0.13995978541E+01  0.49952731689E+03  0.10100000352E+00 0. -1.
       -3    1    3    3    0  502 -0.11384958384E+03  0.48637829259E+03 -0.43546718445E+02  0.50141988207E+03  0.10100000352E+00 0.  1.
</event>
<event>
 5   0  0.1453863E-04  0.1002938E+04  0.7818609E-02  0.9305328E-01
        1   -1    0    0  501    0  0.00000000000E+00  0.00000000000E+00  0.31446260275E+03  0.31446260279E+03  0.50400001928E-02 0.  1.
       -1   -1    0    0    0  501  0.00000000000E+00  0.00000000000E+00 -0.79968579536E+03  0.79968579538E+03  0.50400001928E-02 0. -1.
    10030    2    1    2    0    0  0.00000000000E+00  0.00000000000E+00 -0.48522319261E+03  0.11141483982E+04  0.10029382366E+04 0.  0.
        1    1    3    3  502    0 -0.47069373162E+03 -0.13262561079E+03 -0.36596046052E+03  0.61079390985E+03  0.50400001928E-02 0. -1.
       -1    1    3    3    0  502  0.47069373162E+03  0.13262561079E+03 -0.11926273209E+03  0.50335448832E+03  0.50400001928E-02 0.  1.
</event>
<event>
 5   0  0.1461334E-04  0.9994776E+03  0.7818609E-02  0.9309118E-01
        1   -1    0    0  501    0  0.00000000000E+00  0.00000000000E+00  0.46289884486E+03  0.46289884488E+03  0.50400001928E-02 0.  1.
       -1   -1    0    0    0  501  0.00000000000E+00  0.00000000000E+00 -0.53951071227E+03  0.53951071229E+03  0.50400001928E-02 0. -1.
    10030    2    1    2    0    0  0.00000000000E+00  0.00000000000E+00 -0.76611867409E+02  0.10024095572E+04  0.99947763461E+03 0.  0.
        2    1    3    3  502    0  0.44603976907E+03  0.84875979251E+02 -0.24768490459E+03  0.51720713395E+03  0.25500000920E-02 0. -1.
       -2    1    3    3    0  502 -0.44603976907E+03 -0.84875979251E+02  0.17107303718E+03  0.48520242322E+03  0.25500000920E-02 0.  1.
</event>
<event>
 5   0  0.2503680E-04  0.1000165E+04  0.7818609E-02  0.9308363E-01
       -2   -1    0    0    0  501  0.00000000000E+00  0.00000000000E+00  0.17908968987E+03  0.17908968989E+03  0.25500000920E-02 0. -1.
        2   -1    0    0  501    0  0.00000000000E+00  0.00000000000E+00 -0.13964106611E+04  0.13964106611E+04  0.25500000920E-02 0.  1.
    10030    2    1    2    0    0  0.00000000000E+00  0.00000000000E+00 -0.12173209712E+04  0.15755003510E+04  0.10001654908E+04 0.  0.
        2    1    3    3  502    0  0.48759013902E+03  0.25958499155E+02 -0.43852902390E+03  0.65629695425E+03  0.25500000920E-02 0. -1.
       -2    1    3    3    0  502 -0.48759013902E+03 -0.25958499155E+02 -0.77879194731E+03  0.91920339672E+03  0.25500000920E-02 0.  1.
</event>
<event>
 5   0  0.2503680E-04  0.9999672E+03  0.7818609E-02  0.9308581E-01
        2   -1    0    0  501    0  0.00000000000E+00  0.00000000000E+00  0.17331281972E+04  0.17331281972E+04  0.25500000920E-02 0.  1.
       -2   -1    0    0    0  501  0.00000000000E+00  0.00000000000E+00 -0.14423837750E+03  0.14423837752E+03  0.25500000920E-02 0. -1.
    10030    2    1    2    0    0  0.00000000000E+00  0.00000000000E+00  0.15888898197E+04  0.18773665747E+04  0.99996719783E+03 0.  0.
        2    1    3    3  502    0 -0.23313800741E+03 -0.41924618586E+03  0.10590417799E+04  0.11626221168E+04  0.25500000920E-02 0.  1.
       -2    1    3    3    0  502  0.23313800741E+03  0.41924618586E+03  0.52984803978E+03  0.71474445792E+03  0.25500000920E-02 0. -1.
</event>
<event>
 5   0  0.2353916E-04  0.1000124E+04  0.7818609E-02  0.9308409E-01
       -2   -1    0    0    0  501  0.00000000000E+00  0.00000000000E+00  0.19597071447E+03  0.19597071448E+03  0.25500000920E-02 0. -1.
        2   -1    0    0  501    0  0.00000000000E+00  0.00000000000E+00 -0.12760172395E+04  0.12760172395E+04  0.25500000920E-02 0.  1.
    10030    2    1    2    0    0  0.00000000000E+00  0.00000000000E+00 -0.10800465251E+04  0.14719879540E+04  0.10001240125E+04 0.  0.
        4    1    3    3  502    0 -0.42437565554E+03  0.85404311279E+02 -0.17156652810E+03  0.46564501486E+03  0.12699999809E+01 0.  1.
       -4    1    3    3    0  502  0.42437565554E+03 -0.85404311279E+02 -0.90847999697E+03  0.10063429392E+04  0.12699999809E+01 0. -1.
</event>
<event>
 5   0  0.2403037E-04  0.9998895E+03  0.7818609E-02  0.9308666E-01
       -2   -1    0    0    0  501  0.00000000000E+00  0.00000000000E+00  0.51877632541E+03  0.51877632542E+03  0.25500000920E-02 0.  1.
        2   -1    0    0  501    0  0.00000000000E+00  0.00000000000E+00 -0.48179679895E+03  0.48179679896E+03  0.25500000920E-02 0. -1.
    10030    2    1    2    0    0  0.00000000000E+00  0.00000000000E+00  0.36979526464E+02  0.10005731244E+04  0.99988953982E+03 0.  0.
        1    1    3    3  502    0  0.14203443198E+03 -0.17465415269E+03  0.46518817920E+03  0.51679579624E+03  0.50400001928E-02 0.  1.
       -1    1    3    3    0  502 -0.14203443198E+03  0.17465415269E+03 -0.42820865273E+03  0.48377732814E+03  0.50400001928E-02 0. -1.
</event>
<event>
 5   0  0.2473312E-04  0.9994526E+03  0.7818609E-02  0.9309145E-01
       -2   -1    0    0    0  501  0.00000000000E+00  0.00000000000E+00  0.28470645430E+03  0.28470645431E+03  0.25500000920E-02 0.  1.
        2   -1    0    0  501    0  0.00000000000E+00  0.00000000000E+00 -0.87713624646E+03  0.87713624646E+03  0.25500000920E-02 0. -1.
    10030    2    1    2    0    0  0.00000000000E+00  0.00000000000E+00 -0.59242979217E+03  0.11618427008E+04  0.99945255150E+03 0.  0.
        5    1    3    3  502    0 -0.17396152679E+03  0.39191397202E+03  0.20806980568E+01  0.42881883537E+03  0.46999998093E+01 0.  1.
       -5    1    3    3    0  502  0.17396152679E+03 -0.39191397202E+03 -0.59451049022E+03  0.73302386540E+03  0.46999998093E+01 0. -1.
</event>
<event>
 5   0  0.2353916E-04  0.9998629E+03  0.7818609E-02  0.9308695E-01
        2   -1    0    0  501    0  0.00000000000E+00  0.00000000000E+00  0.40174680020E+03  0.40174680021E+03  0.25500000920E-02 0. -1.
       -2   -1    0    0    0  501  0.00000000000E+00  0.00000000000E+00 -0.62211189760E+03  0.62211189761E+03  0.25500000920E-02 0.  1.
    10030    2    1    2    0    0  0.00000000000E+00  0.00000000000E+00 -0.22036509741E+03  0.10238586978E+04  0.99986291907E+03 0.  0.
        4    1    3    3  502    0  0.80417949102E+02 -0.45392745851E+03  0.87882979745E+02  0.46929970718E+03  0.12699999809E+01 0.  1.
       -4    1    3    3    0  502 -0.80417949102E+02  0.45392745851E+03 -0.30824807715E+03  0.55455899064E+03  0.12699999809E+01 0. -1.
</event>
<event>
 5   0  0.2403037E-04  0.9999367E+03  0.7818609E-02  0.9308614E-01
        2   -1    0    0  501    0  0.00000000000E+00  0.00000000000E+00  0.30902025948E+03  0.30902025949E+03  0.25500000920E-02 0.  1.
       -2   -1    0    0    0  501  0.00000000000E+00  0.00000000000E+00 -0.80890602022E+03  0.80890602022E+03  0.25500000920E-02 0. -1.
    10030    2    1    2    0    0  0.00000000000E+00  0.00000000000E+00 -0.49988576074E+03  0.11179262797E+04  0.99993669454E+03 0.  0.
        1    1    3    3  502    0  0.24486976558E+03 -0.13882686857E+03 -0.71189927259E+03  0.76552901700E+03  0.50400001928E-02 0. -1.
       -1    1    3    3    0  502 -0.24486976558E+03  0.13882686857E+03  0.21201351185E+03  0.35239726271E+03  0.50400001928E-02 0.  1.
</event>
<event>
 5   0  0.1430675E-04  0.1001815E+04  0.7818609E-02  0.9306556E-01
       -1   -1    0    0    0  501  0.00000000000E+00  0.00000000000E+00  0.22427494004E+03  0.22427494010E+03  0.50400001928E-02 0. -1.
        1   -1    0    0  501    0  0.00000000000E+00  0.00000000000E+00 -0.11187531722E+04  0.11187531722E+04  0.50400001928E-02 0.  1.
    10030    2    1    2    0    0  0.00000000000E+00  0.00000000000E+00 -0.89447823213E+03  0.13430281123E+04  0.10018149543E+04 0.  0.
        5    1    3    3  502    0  0.12549236343E+03  0.25108517374E+03 -0.10033745927E+04  0.10419091904E+04  0.46999998093E+01 0.  1.
       -5    1    3    3    0  502 -0.12549236343E+03 -0.25108517374E+03  0.10889636061E+03  0.30111892186E+03  0.46999998093E+01 0. -1.
</event>
<event>
 5   0  0.1430675E-04  0.1000161E+04  0.7818609E-02  0.9308368E-01
       -1   -1    0    0    0  501  0.00000000000E+00  0.00000000000E+00  0.50921105195E+03  0.50921105198E+03  0.50400001928E-02 0.  1.
        1   -1    0    0  501    0  0.00000000000E+00  0.00000000000E+00 -0.49111393703E+03  0.49111393706E+03  0.50400001928E-02 0. -1.
    10030    2    1    2    0    0  0.00000000000E+00  0.00000000000E+00  0.18097114923E+02  0.10003249890E+04  0.10001612761E+04 0.  0.
        5    1    3    3  502    0 -0.26388436887E+03  0.19099680026E+03  0.38850994402E+03  0.50702741981E+03  0.46999998093E+01 0.  1.
       -5    1    3    3    0  502  0.26388436887E+03 -0.19099680026E+03 -0.37041282909E+03  0.49329756922E+03  0.46999998093E+01 0. -1.
</event>
<event>
 5   0  0.1506454E-04  0.1000261E+04  0.7818609E-02  0.9308259E-01
       -1   -1    0    0    0  501  0.00000000000E+00  0.00000000000E+00  0.20967254049E+03  0.20967254055E+03  0.50400001928E-02 0.  1.
        1   -1    0    0  501    0  0.00000000000E+00  0.00000000000E+00 -0.11929569862E+04  0.11929569862E+04  0.50400001928E-02 0. -1.
    10030    2    1    2    0    0  0.00000000000E+00  0.00000000000E+00 -0.98328444575E+03  0.14026295268E+04  0.10002606101E+04 0.  0.
        3    1    3    3  502    0 -0.11807420603E+02 -0.33717571426E+02 -0.11911654546E+04  0.11917010700E+04  0.10100000352E+00 0. -1.
       -3    1    3    3    0  502  0.11807420603E+02  0.33717571426E+02  0.20788100890E+03  0.21092845675E+03  0.10100000352E+00 0.  1.
</event>
<event>
 5   0  0.2473312E-04  0.9999448E+03  0.7818609E-02  0.9308605E-01
        2   -1    0    0  501    0  0.00000000000E+00  0.00000000000E+00  0.18615943984E+04  0.18615943984E+04  0.25500000920E-02 0. -1.
       -2   -1    0    0    0  501  0.00000000000E+00  0.00000000000E+00 -0.13427865831E+03  0.13427865833E+03  0.25500000920E-02 0.  1.
    10030    2    1    2    0    0  0.00000000000E+00  0.00000000000E+00  0.17273157401E+04  0.19958730567E+04  0.99994479478E+03 0.  0.
        5    1    3    3  502    0 -0.22526513990E+03 -0.20019105378E+03  0.16598762439E+04  0.16870186947E+04  0.46999998093E+01 0. -1.
       -5    1    3    3    0  502  0.22526513990E+03  0.20019105378E+03  0.67439496139E+02  0.30885436197E+03  0.46999998093E+01 0.  1.
</event>
<event>
 5   0  0.1414165E-04  0.1000008E+04  0.7818609E-02  0.9308536E-01
        1   -1    0    0  501    0  0.00000000000E+00  0.00000000000E+00  0.83489159526E+03  0.83489159527E+03  0.50400001928E-02 0. -1.
       -1   -1    0    0    0  501  0.00000000000E+00  0.00000000000E+00 -0.29944484649E+03  0.29944484653E+03  0.50400001928E-02 0.  1.
    10030    2    1    2    0    0  0.00000000000E+00  0.00000000000E+00  0.53544674877E+03  0.11343364418E+04  0.10000079712E+04 0.  0.
        4    1    3    3  502    0 -0.49175974630E+02  0.17273902610E+03 -0.26158996935E+03  0.31731368168E+03  0.12699999809E+01 0.  1.
       -4    1    3    3    0  502  0.49175974630E+02 -0.17273902610E+03  0.79703671812E+03  0.81702276012E+03  0.12699999809E+01 0. -1.
</event>
<event>
 5   0  0.2403037E-04  0.1000295E+04  0.7818609E-02  0.9308221E-01
        2   -1    0    0  501    0  0.00000000000E+00  0.00000000000E+00  0.10086873879E+04  0.10086873879E+04  0.25500000920E-02 0. -1.
       -2   -1    0    0    0  501  0.00000000000E+00  0.00000000000E+00 -0.24799307588E+03  0.24799307589E+03  0.25500000920E-02 0.  1.
    10030    2    1    2    0    0  0.00000000000E+00  0.00000000000E+00  0.76069431202E+03  0.12566804638E+04  0.10002949324E+04 0.  0.
        1    1    3    3  502    0 -0.15024171751E+03  0.12298602162E+03  0.95940840286E+03  0.97885781332E+03  0.50400001928E-02 0. -1.
       -1    1    3    3    0  502  0.15024171751E+03 -0.12298602162E+03 -0.19871409084E+03  0.27782265048E+03  0.50400001928E-02 0.  1.
</event>
<event>
 5   0  0.9650500E-05  0.1000103E+04  0.7818609E-02  0.9308432E-01
       -3   -1    0    0    0  501  0.00000000000E+00  0.00000000000E+00  0.21197386303E+03  0.21197388709E+03  0.10100000352E+00 0. -1.
        3   -1    0    0  501    0  0.00000000000E+00  0.00000000000E+00 -0.11796335376E+04  0.11796335420E+04  0.10100000352E+00 0.  1.
    10030    2    1    2    0    0  0.00000000000E+00  0.00000000000E+00 -0.96765967461E+03  0.13916074290E+04  0.10001029901E+04 0.  0.
        4    1    3    3  502    0  0.40189310930E+03  0.29672827241E+03 -0.51444665933E+03  0.71709324160E+03  0.12699999809E+01 0.  1.
       -4    1    3    3    0  502 -0.40189310930E+03 -0.29672827241E+03 -0.45321301528E+03  0.67451418745E+03  0.12699999809E+01 0. -1.
</event>
<event>
 5   0  0.2503680E-04  0.1004723E+04  0.7818609E-02  0.9303380E-01
       -2   -1    0    0    0  501  0.00000000000E+00  0.00000000000E+00  0.14672421621E+03  0.14672421623E+03  0.25500000920E-02 0.  1.
        2   -1    0    0  501    0  0.00000000000E+00  0.00000000000E+00 -0.17200080270E+04  0.17200080270E+04  0.25500000920E-02 0. -1.
    10030    2    1    2    0    0  0.00000000000E+00  0.00000000000E+00 -0.15732838108E+04  0.18667322432E+04  0.10047225083E+04 0.  0.
        2    1    3    3  502    0  0.14886394762E+03 -0.47583006817E+03 -0.67222878132E+03  0.83693862566E+03  0.25500000920E-02 0.  1.
       -2    1    3    3    0  502 -0.14886394762E+03  0.47583006817E+03 -0.90105502948E+03  0.10297936176E+04  0.25500000920E-02 0. -1.
</event>
<event>
 5   0  0.1430675E-04  0.1000051E+04  0.7818609E-02  0.9308489E-01
        1   -1    0    0  501    0  0.00000000000E+00  0.00000000000E+00  0.10476844096E+04  0.10476844097E+04  0.50400001928E-02 0.  1.
       -1   -1    0    0    0  501  0.00000000000E+00  0.00000000000E+00 -0.23864579435E+03  0.23864579440E+03  0.50400001928E-02 0. -1.
    10030    2    1    2    0    0  0.00000000000E+00  0.00000000000E+00  0.80903861530E+03  0.12863302041E+04  0.10000509551E+04 0.  0.
        5    1    3    3  502    0 -0.14782730925E+03  0.22960619395E+03  0.94326534685E+03  0.98200993999E+03  0.46999998093E+01 0.  1.
       -5    1    3    3    0  502  0.14782730925E+03 -0.22960619395E+03 -0.13422673155E+03  0.30432026407E+03  0.46999998093E+01 0. -1.
</event>
<event>
 5   0  0.2353916E-04  0.1000295E+04  0.7818609E-02  0.9308221E-01
        2   -1    0    0  501    0  0.00000000000E+00  0.00000000000E+00  0.53215147811E+03  0.53215147812E+03  0.25500000920E-02 0. -1.
       -2   -1    0    0    0  501  0.00000000000E+00  0.00000000000E+00 -0.47006869496E+03  0.47006869497E+03  0.25500000920E-02 0.  1.
    10030    2    1    2    0    0  0.00000000000E+00  0.00000000000E+00  0.62082783148E+02  0.10022201731E+04  0.10002954580E+04 0.  0.
        4    1    3    3  502    0 -0.42930361352E+03 -0.22683172633E+03 -0.89155741822E+02  0.49366444459E+03  0.12699999809E+01 0.  1.
       -4    1    3    3    0  502  0.42930361352E+03  0.22683172633E+03  0.15123852497E+03  0.50855572850E+03  0.12699999809E+01 0. -1.
</event>
<event>
 5   0  0.2473312E-04  0.9996389E+03  0.7818609E-02  0.9308941E-01
        2   -1    0    0  501    0  0.00000000000E+00  0.00000000000E+00  0.12544300516E+04  0.12544300516E+04  0.25500000920E-02 0.  1.
       -2   -1    0    0    0  501  0.00000000000E+00  0.00000000000E+00 -0.19914979700E+03  0.19914979701E+03  0.25500000920E-02 0. -1.
    10030    2    1    2    0    0  0.00000000000E+00  0.00000000000E+00  0.10552802546E+04  0.14535798486E+04  0.99963891506E+03 0.  0.
        5    1    3    3  502    0  0.66175454579E+02 -0.48582873761E+03  0.66853566720E+03  0.82907827217E+03  0.46999998093E+01 0. -1.
       -5    1    3    3    0  502 -0.66175454579E+02  0.48582873761E+03  0.38674458737E+03  0.62450157641E+03  0.46999998093E+01 0.  1.
</event>
<event>
 5   0  0.1414165E-04  0.1000231E+04  0.7818609E-02  0.9308291E-01
       -1   -1    0    0    0  501  0.00000000000E+00  0.00000000000E+00  0.30288156792E+03  0.30288156796E+03  0.50400001928E-02 0.  1.
        1   -1    0    0  501    0  0.00000000000E+00  0.00000000000E+00 -0.82578721429E+03  0.82578721431E+03  0.50400001928E-02 0. -1.
    10030    2    1    2    0    0  0.00000000000E+00  0.00000000000E+00 -0.52290564637E+03  0.11286687823E+04  0.10002314257E+04 0.  0.
        4    1    3    3  502    0 -0.13029917662E+03  0.38006349579E+03 -0.59749856170E+03  0.72002241659E+03  0.12699999809E+01 0. -1.
       -4    1    3    3    0  502  0.13029917662E+03 -0.38006349579E+03  0.74592915328E+02  0.40864636567E+03  0.12699999809E+01 0.  1.
</event>
<event>
 5   0  0.2403037E-04  0.1000460E+04  0.7818609E-02  0.9308041E-01
       -2   -1    0    0    0  501  0.00000000000E+00  0.00000000000E+00  0.10190155255E+03  0.10190155259E+03  0.25500000920E-02 0.  1.
        2   -1    0    0  501    0  0.00000000000E+00  0.00000000000E+00 -0.24556035862E+04  0.24556035862E+04  0.25500000920E-02 0. -1.
    10030    2    1    2    0    0  0.00000000000E+00  0.00000000000E+00 -0.23537020337E+04  0.25575051388E+04  0.10004595303E+04 0.  0.
        1    1    3    3  502    0  0.42020208889E+02  0.24256165931E+03 -0.63663884727E+02  0.25427337015E+03  0.50400001928E-02 0.  1.
       -1    1    3    3    0  502 -0.42020208889E+02 -0.24256165931E+03 -0.22900381489E+04  0.23032317687E+04  0.50400001928E-02 0. -1.
</event>
<event>
 5   0  0.1430675E-04  0.9998492E+03  0.7818609E-02  0.9308710E-01
       -1   -1    0    0    0  501  0.00000000000E+00  0.00000000000E+00  0.41864114867E+03  0.41864114870E+03  0.50400001928E-02 0.  1.
        1   -1    0    0  501    0  0.00000000000E+00  0.00000000000E+00 -0.59699003911E+03  0.59699003913E+03  0.50400001928E-02 0. -1.
    10030    2    1    2    0    0  0.00000000000E+00  0.00000000000E+00 -0.17834889044E+03  0.10156311878E+04  0.99984918012E+03 0.  0.
        5    1    3    3  502    0  0.16638782990E+03  0.24402511664E+03  0.32051463058E+03  0.43587255695E+03  0.46999998093E+01 0.  1.
       -5    1    3    3    0  502 -0.16638782990E+03 -0.24402511664E+03 -0.49886352102E+03  0.57975863089E+03  0.46999998093E+01 0. -1.
</event>
<event>
 5   0  0.1453863E-04  0.9995300E+03  0.7818609E-02  0.9309060E-01
        1   -1    0    0  501    0  0.00000000000E+00  0.00000000000E+00  0.94779105204E+03  0.94779105206E+03  0.50400001928E-02 0. -1.
       -1   -1    0    0    0  501  0.00000000000E+00  0.00000000000E+00 -0.26352330813E+03  0.26352330817E+03  0.50400001928E-02 0.  1.
    10030    2    1    2    0    0  0.00000000000E+00  0.00000000000E+00  0.68426774392E+03  0.12113143602E+04  0.99952995650E+03 0.  0.
        1    1    3    3  502    0  0.47128301102E+02 -0.39132759409E+03 -0.30225588632E+02  0.39531246995E+03  0.50400001928E-02 0.  1.
       -1    1    3    3    0  502 -0.47128301102E+02  0.39132759409E+03  0.71449333255E+03  0.81600189028E+03  0.50400001928E-02 0. -1.
</event>
<event>
 5   0  0.1506454E-04  0.9998041E+03  0.7818609E-02  0.9308760E-01
       -1   -1    0    0    0  501  0.00000000000E+00  0.00000000000E+00  0.88940708396E+03  0.88940708397E+03  0.50400001928E-02 0. -1.
        1   -1    0    0  501    0  0.00000000000E+00  0.00000000000E+00 -0.28097601730E+03  0.28097601735E+03  0.50400001928E-02 0.  1.
    10030    2    1    2    0    0  0.00000000000E+00  0.00000000000E+00  0.60843106665E+03  0.11703831013E+04  0.99980410130E+03 0.  0.
        3    1    3    3  502    0 -0.22692418724E+02 -0.19456750661E+03 -0.23417785571E+03  0.30530433800E+03  0.10100000352E+00 0.  1.
       -3    1    3    3    0  502  0.22692418724E+02  0.19456750661E+03  0.84260892237E+03  0.86507876332E+03  0.10100000352E+00 0. -1.
</event>
<event>
 5   0  0.1414165E-04  0.1000545E+04  0.7818609E-02  0.9307947E-01
        1   -1    0    0  501    0  0.00000000000E+00  0.00000000000E+00  0.21342574469E+03  0.21342574475E+03  0.50400001928E-02 0.  1.
       -1   -1    0    0    0  501  0.00000000000E+00  0.00000000000E+00 -0.11726444900E+04  0.11726444900E+04  0.50400001928E-02 0. -1.
    10030    2    1    2    0    0  0.00000000000E+00  0.00000000000E+00 -0.95921874532E+03  0.13860702348E+04  0.10005448987E+04 0.  0.
        4    1    3    3  502    0  0.42961340790E+03  0.11388743016E+02 -0.12486711386E+03  0.44753859357E+03  0.12699999809E+01 0.  1.
       -4    1    3    3    0  502 -0.42961340790E+03 -0.11388743016E+02 -0.83435163146E+03  0.93853164120E+03  0.12699999809E+01 0. -1.
</event>
<event>
 5   0  0.2484904E-04  0.9998154E+03  0.7818609E-02  0.9308747E-01
        2   -1    0    0  501    0  0.00000000000E+00  0.00000000000E+00  0.13476420412E+04  0.13476420412E+04  0.25500000920E-02 0. -1.
       -2   -1    0    0    0  501  0.00000000000E+00  0.00000000000E+00 -0.18544070594E+03  0.18544070595E+03  0.25500000920E-02 0.  1.
    10030    2    1    2    0    0  0.00000000000E+00  0.00000000000E+00  0.11622013353E+04  0.15330827472E+04  0.99981536593E+03 0.  0.
        3    1    3    3  502    0  0.16368188807E+03 -0.27418829964E+03 -0.86707867725E+01  0.31944667300E+03  0.10100000352E+00 0.  1.
       -3    1    3    3    0  502 -0.16368188807E+03  0.27418829964E+03  0.11708721220E+04  0.12136360742E+04  0.10100000352E+00 0. -1.
</event>
<event>
 5   0  0.1430675E-04  0.1000095E+04  0.7818609E-02  0.9308441E-01
        1   -1    0    0  501    0  0.00000000000E+00  0.00000000000E+00  0.85141468780E+03  0.85141468781E+03  0.50400001928E-02 0.  1.
       -1   -1    0    0    0  501  0.00000000000E+00  0.00000000000E+00 -0.29368461363E+03  0.29368461367E+03  0.50400001928E-02 0. -1.
    10030    2    1    2    0    0  0.00000000000E+00  0.00000000000E+00  0.55773007417E+03  0.11450993015E+04  0.10000947828E+04 0.  0.
        5    1    3    3  502    0 -0.10195565358E+03  0.43509802416E+03  0.53571088733E+03  0.69764854384E+03  0.46999998093E+01 0.  1.
       -5    1    3    3    0  502  0.10195565358E+03 -0.43509802416E+03  0.22019186837E+02  0.44745075764E+03  0.46999998093E+01 0. -1.
</event>
<event>
 5   0  0.2484904E-04  0.1001112E+04  0.7818609E-02  0.9307326E-01
        2   -1    0    0  501    0  0.00000000000E+00  0.00000000000E+00  0.58371676816E+03  0.58371676816E+03  0.25500000920E-02 0.  1.
       -2   -1    0    0    0  501  0.00000000000E+00  0.00000000000E+00 -0.42924281603E+03  0.42924281604E+03  0.25500000920E-02 0. -1.
    10030    2    1    2    0    0  0.00000000000E+00  0.00000000000E+00  0.15447395213E+03  0.10129595842E+04  0.10011118406E+04 0.  0.
        3    1    3    3  502    0 -0.18870336198E+03  0.17050046718E+03  0.51347364965E+03  0.57300485794E+03  0.10100000352E+00 0.  1.
       -3    1    3    3    0  502  0.18870336198E+03 -0.17050046718E+03 -0.35899969753E+03  0.43995472626E+03  0.10100000352E+00 0. -1.
</event>
<event>
 5   0  0.2473312E-04  0.1000080E+04  0.7818609E-02  0.9308457E-01
        2   -1    0    0  501    0  0.00000000000E+00  0.00000000000E+00  0.93577182669E+03  0.93577182669E+03  0.25500000920E-02 0. -1.
       -2   -1    0    0    0  501  0.00000000000E+00  0.00000000000E+00 -0.26720205143E+03  0.26720205144E+03  0.25500000920E-02 0.  1.
    10030    2    1    2    0    0  0.00000000000E+00  0.00000000000E+00  0.66856977526E+03  0.12029738781E+04  0.10000803003E+04 0.  0.
        5    1    3    3  502    0  0.24894388632E+03 -0.34310508843E+03  0.65327175455E+03  0.77876840943E+03  0.46999998093E+01 0. -1.
       -5    1    3    3    0  502 -0.24894388632E+03  0.34310508843E+03  0.15298020717E+02  0.42420546870E+03  0.46999998093E+01 0.  1.
</event>
<event>
 5   0  0.1461334E-04  0.1000079E+04  0.7818609E-02  0.9308459E-01
        1   -1    0    0  501    0  0.00000000000E+00  0.00000000000E+00  0.24679288822E+04  0.24679288822E+04  0.50400001928E-02 0.  1.
       -1   -1    0    0    0  501  0.00000000000E+00  0.00000000000E+00 -0.10131542285E+03  0.10131542298E+03  0.50400001928E-02 0. -1.
    10030    2    1    2    0    0  0.00000000000E+00  0.00000000000E+00  0.23666134593E+04  0.25692443052E+04  0.10000785138E+04 0.  0.
        2    1    3    3  502    0  0.33317881609E+03 -0.15418875826E+03  0.20554842510E+04  0.20880128838E+04  0.25500000920E-02 0.  1.
       -2    1    3    3    0  502 -0.33317881609E+03  0.15418875826E+03  0.31112920835E+03  0.48123142142E+03  0.25500000920E-02 0. -1.
</event>
<event>
 5   0  0.1414165E-04  0.9986038E+03  0.7818609E-02  0.9310077E-01
        1   -1    0    0  501    0  0.00000000000E+00  0.00000000000E+00  0.31230943273E+03  0.31230943277E+03  0.50400001928E-02 0. -1.
       -1   -1    0    0    0  501  0.00000000000E+00  0.00000000000E+00 -0.79825437920E+03  0.79825437922E+03  0.50400001928E-02 0.  1.
    10030    2    1    2    0    0  0.00000000000E+00  0.00000000000E+00 -0.48594494647E+03  0.11105638120E+04  0.99860377002E+03 0.  0.
        4    1    3    3  502    0 -0.12175036016E+03  0.29257239465E+03 -0.67208089938E+03  0.74304515645E+03  0.12699999809E+01 0.  1.
       -4    1    3    3    0  502  0.12175036016E+03 -0.29257239465E+03  0.18613595291E+03  0.36751865554E+03  0.12699999809E+01 0. -1.
</event>
<event>
 5   0  0.2503680E-04  0.1000162E+04  0.7818609E-02  0.9308367E-01
       -2   -1    0    0    0  501  0.00000000000E+00  0.00000000000E+00  0.21381568130E+03  0.21381568132E+03  0.25500000920E-02 0.  1.
        2   -1    0    0  501    0  0.00000000000E+00  0.00000000000E+00 -0.11696113616E+04  0.11696113616E+04  0.25500000920E-02 0. -1.
    10030    2    1    2    0    0  0.00000000000E+00  0.00000000000E+00 -0.95579568030E+03  0.13834270429E+04  0.10001624871E+04 0.  0.
        2    1    3    3  502    0  0.65416443568E+02  0.19730074760E+03 -0.11070258584E+04  0.11263716737E+04  0.25500000920E-02 0. -1.
       -2    1    3    3    0  502 -0.65416443568E+02 -0.19730074760E+03  0.15123017809E+03  0.25705536926E+03  0.25500000920E-02 0.  1.
</event>
<event>
 5   0  0.2484904E-04  0.1000285E+04  0.7818609E-02  0.9308233E-01
       -2   -1    0    0    0  501  0.00000000000E+00  0.00000000000E+00  0.90230826060E+03  0.90230826060E+03  0.25500000920E-02 0. -1.
        2   -1    0    0  501    0  0.00000000000E+00  0.00000000000E+00 -0.27722490466E+03  0.27722490467E+03  0.25500000920E-02 0.  1.
    10030    2    1    2    0    0  0.00000000000E+00  0.00000000000E+00  0.62508335593E+03  0.11795331653E+04  0.10002846026E+04 0.  0.
        3    1    3    3  502    0 -0.21056729322E+03 -0.23896207461E+03 -0.14217753347E+03  0.34879208607E+03  0.10100000352E+00 0.  1.
       -3    1    3    3    0  502  0.21056729322E+03  0.23896207461E+03  0.76726088940E+03  0.83074107921E+03  0.10100000352E+00 0. -1.
</event>
<event>
 5   0  0.1453863E-04  0.1000551E+04  0.7818609E-02  0.9307941E-01
        1   -1    0    0  501    0  0.00000000000E+00  0.00000000000E+00  0.98372516316E+03  0.98372516318E+03  0.50400001928E-02 0.  1.
       -1   -1    0    0    0  501  0.00000000000E+00  0.00000000000E+00 -0.25441610199E+03  0.25441610204E+03  0.50400001928E-02 0. -1.
    10030    2    1    2    0    0  0.00000000000E+00  0.00000000000E+00  0.72930906118E+03  0.12381412652E+04  0.10005508912E+04 0.  0.
        1    1    3    3  502    0  0.33310895669E+03  0.19114298014E+02 -0.96618521967E+02  0.34736446599E+03  0.50400001928E-02 0. -1.
       -1    1    3    3    0  502 -0.33310895669E+03 -0.19114298014E+02  0.82592758314E+03  0.89077679923E+03  0.50400001928E-02 0.  1.
</event>
<event>
 5   0  0.2473312E-04  0.9995114E+03  0.7818609E-02  0.9309081E-01
        2   -1    0    0  501    0  0.00000000000E+00  0.00000000000E+00  0.13794987166E+04  0.13794987166E+04  0.25500000920E-02 0.  1.
       -2   -1    0    0    0  501  0.00000000000E+00  0.00000000000E+00 -0.18104819193E+03  0.18104819194E+03  0.25500000920E-02 0. -1.
    10030    2    1    2    0    0  0.00000000000E+00  0.00000000000E+00  0.11984505247E+04  0.15605469086E+04  0.99951137748E+03 0.  0.
        5    1    3    3  502    0  0.47712734739E+03 -0.14697891054E+03  0.56500611488E+03  0.75399423447E+03  0.46999998093E+01 0. -1.
       -5    1    3    3    0  502 -0.47712734739E+03  0.14697891054E+03  0.63344440984E+03  0.80655267411E+03  0.46999998093E+01 0.  1.
</event>
<event>
 5   0  0.1414165E-04  0.1000132E+04  0.7818609E-02  0.9308400E-01
        1   -1    0    0  501    0  0.00000000000E+00  0.00000000000E+00  0.14443019133E+04  0.14443019133E+04  0.50400001928E-02 0.  1.
       -1   -1    0    0    0  501  0.00000000000E+00  0.00000000000E+00 -0.17313955995E+03  0.17313956003E+03  0.50400001928E-02 0. -1.
    10030    2    1    2    0    0  0.00000000000E+00  0.00000000000E+00  0.12711623534E+04  0.16174414734E+04  0.10001315869E+04 0.  0.
        4    1    3    3  502    0  0.38877149800E+03  0.12208107549E+03  0.11043463319E+04  0.11771276482E+04  0.12699999809E+01 0.  1.
       -4    1    3    3    0  502 -0.38877149800E+03 -0.12208107549E+03  0.16681602150E+03  0.44031382511E+03  0.12699999809E+01 0. -1.
</event>
<event>
 5   0  0.1430675E-04  0.1000055E+04  0.7818609E-02  0.9308485E-01
        1   -1    0    0  501    0  0.00000000000E+00  0.00000000000E+00  0.12522428161E+04  0.12522428162E+04  0.50400001928E-02 0. -1.
       -1   -1    0    0    0  501  0.00000000000E+00  0.00000000000E+00 -0.19966356770E+03  0.19966356776E+03  0.50400001928E-02 0.  1.
    10030    2    1    2    0    0  0.00000000000E+00  0.00000000000E+00  0.10525792484E+04  0.14519063839E+04  0.10000545352E+04 0.  0.
        5    1    3    3  502    0 -0.12351633909E+03 -0.48450891869E+03  0.52629919527E+03  0.72596013062E+03  0.46999998093E+01 0. -1.
       -5    1    3    3    0  502  0.12351633909E+03  0.48450891869E+03  0.52628005317E+03  0.72594625330E+03  0.46999998093E+01 0.  1.
</event>
<event>
 5   0  0.2503680E-04  0.9999578E+03  0.7818609E-02  0.9308591E-01
       -2   -1    0    0    0  501  0.00000000000E+00  0.00000000000E+00  0.18003975775E+03  0.18003975776E+03  0.25500000920E-02 0. -1.
        2   -1    0    0  501    0  0.00000000000E+00  0.00000000000E+00 -0.13884648762E+04  0.13884648762E+04  0.25500000920E-02 0.  1.
    10030    2    1    2    0    0  0.00000000000E+00  0.00000000000E+00 -0.12084251185E+04  0.15685046340E+04  0.99995775904E+03 0.  0.
        2    1    3    3  502    0 -0.44704002294E+03  0.18753704309E+03 -0.41233360055E+03  0.63642275477E+03  0.25500000920E-02 0. -1.
       -2    1    3    3    0  502  0.44704002294E+03 -0.18753704309E+03 -0.79609151791E+03  0.93208187920E+03  0.25500000920E-02 0.  1.
</event>
<event>
 5   0  0.1453863E-04  0.9995919E+03  0.7818609E-02  0.9308992E-01
       -1   -1    0    0    0  501  0.00000000000E+00  0.00000000000E+00  0.20754602977E+03  0.20754602983E+03  0.50400001928E-02 0. -1.
        1   -1    0    0  501    0  0.00000000000E+00  0.00000000000E+00 -0.12035691434E+04  0.12035691434E+04  0.50400001928E-02 0.  1.
    10030    2    1    2    0    0  0.00000000000E+00  0.00000000000E+00 -0.99602311359E+03  0.14111151732E+04  0.99959191136E+03 0.  0.
        1    1    3    3  502    0  0.45108920026E+03 -0.15374566702E+02 -0.19498041542E+03  0.49166574653E+03  0.50400001928E-02 0. -1.
       -1    1    3    3    0  502 -0.45108920026E+03  0.15374566702E+02 -0.80104269818E+03  0.91944942668E+03  0.50400001928E-02 0.  1.
</event>
<event>
 5   0  0.1461334E-04  0.1000604E+04  0.7818609E-02  0.9307883E-01
       -1   -1    0    0    0  501  0.00000000000E+00  0.00000000000E+00  0.53982006205E+03  0.53982006208E+03  0.50400001928E-02 0.  1.
        1   -1    0    0  501    0  0.00000000000E+00  0.00000000000E+00 -0.46367648820E+03  0.46367648822E+03  0.50400001928E-02 0. -1.
    10030    2    1    2    0    0  0.00000000000E+00  0.00000000000E+00  0.76143573855E+02  0.10034965503E+04  0.10006035592E+04 0.  0.
        2    1    3    3  502    0  0.33908216482E+03  0.16598444018E+02 -0.33048173735E+03  0.47378307439E+03  0.25500000920E-02 0. -1.
       -2    1    3    3    0  502 -0.33908216482E+03 -0.16598444018E+02  0.40662531121E+03  0.52971347591E+03  0.25500000920E-02 0.  1.
</event>
<event>
 5   0  0.2473312E-04  0.1001639E+04  0.7818609E-02  0.9306749E-01
        2   -1    0    0  501    0  0.00000000000E+00  0.00000000000E+00  0.12368976947E+04  0.12368976947E+04  0.25500000920E-02 0. -1.
       -2   -1    0    0    0  501  0.00000000000E+00  0.00000000000E+00 -0.20278172823E+03  0.20278172824E+03  0.25500000920E-02 0.  1.
    10030    2    1    2    0    0  0.00000000000E+00  0.00000000000E+00  0.10341159664E+04  0.14396794229E+04  0.10016391609E+04 0.  0.
        5    1    3    3  502    0  0.47706529480E+03 -0.14630593491E+03  0.45605312635E+03  0.67602016697E+03  0.46999998093E+01 0. -1.
       -5    1    3    3    0  502 -0.47706529480E+03  0.14630593491E+03  0.57806284009E+03  0.76365925594E+03  0.46999998093E+01 0.  1.
</event>
<event>
 5   0  0.2353916E-04  0.9994380E+03  0.7818609E-02  0.9309161E-01
       -2   -1    0    0    0  501  0.00000000000E+00  0.00000000000E+00  0.12282857946E+03  0.12282857949E+03  0.25500000920E-02 0.  1.
        2   -1    0    0  501    0  0.00000000000E+00  0.00000000000E+00 -0.20330696602E+04  0.20330696602E+04  0.25500000920E-02 0. -1.
    10030    2    1    2    0    0  0.00000000000E+00  0.00000000000E+00 -0.19102410807E+04  0.21558982397E+04  0.99943795874E+03 0.  0.
        4    1    3    3  502    0 -0.25112753927E+03 -0.42334279124E+03 -0.76914200350E+03  0.91316219497E+03  0.12699999809E+01 0. -1.
       -4    1    3    3    0  502  0.25112753927E+03  0.42334279124E+03 -0.11410990772E+04  0.12427360447E+04  0.12699999809E+01 0.  1.
</event>
<event>
 5   0  0.1461334E-04  0.9999630E+03  0.7818609E-02  0.9308585E-01
       -1   -1    0    0    0  501  0.00000000000E+00  0.00000000000E+00  0.11418564241E+04  0.11418564241E+04  0.50400001928E-02 0.  1.
        1   -1    0    0  501    0  0.00000000000E+00  0.00000000000E+00 -0.21892552882E+03  0.21892552888E+03  0.50400001928E-02 0. -1.
    10030    2    1    2    0    0  0.00000000000E+00  0.00000000000E+00  0.92293089530E+03  0.13607819530E+04  0.99996304238E+03 0.  0.
        2    1    3    3  502    0  0.43912388949E+03  0.18490907280E+03  0.66766798026E+03  0.82024489477E+03  0.25500000920E-02 0.  1.
       -2    1    3    3    0  502 -0.43912388949E+03 -0.18490907280E+03  0.25526291504E+03  0.54053705823E+03  0.25500000920E-02 0. -1.
</event>
<event>
 5   0  0.1506454E-04  0.1000218E+04  0.7818609E-02  0.9308306E-01
        1   -1    0    0  501    0  0.00000000000E+00  0.00000000000E+00  0.10349762208E+04  0.10349762208E+04  0.50400001928E-02 0. -1.
       -1   -1    0    0    0  501  0.00000000000E+00  0.00000000000E+00 -0.24165660987E+03  0.24165660992E+03  0.50400001928E-02 0.  1.
    10030    2    1    2    0    0  0.00000000000E+00  0.00000000000E+00  0.79331961093E+03  0.12766328307E+04  0.10002176660E+04 0.  0.
        3    1    3    3  502    0 -0.26077967667E+03 -0.31392464156E+03  0.27720090447E+02  0.40905150526E+03  0.10100000352E+00 0.  1.
       -3    1    3    3    0  502  0.26077967667E+03  0.31392464156E+03  0.76559952048E+03  0.86758132547E+03  0.10100000352E+00 0. -1.
</event>
<event>
 5   0  0.1461334E-04  0.9999794E+03  0.7818609E-02  0.9308567E-01
        1   -1    0    0  501    0  0.00000000000E+00  0.00000000000E+00  0.86213307905E+03  0.86213307906E+03  0.50400001928E-02 0. -1.
       -1   -1    0    0    0  501  0.00000000000E+00  0.00000000000E+00 -0.28996650717E+03  0.28996650722E+03  0.50400001928E-02 0.  1.
    10030    2    1    2    0    0  0.00000000000E+00  0.00000000000E+00  0.57216657188E+03  0.11520995863E+04  0.99997943516E+03 0.  0.
        2    1    3    3  502    0 -0.31389843412E+03 -0.18276892179E+03 -0.10977294742E+03  0.37945593381E+03  0.25500000920E-02 0.  1.
       -2    1    3    3    0  502  0.31389843412E+03  0.18276892179E+03  0.68193951930E+03  0.77264365247E+03  0.25500000920E-02 0. -1.
</event>
<event>
 5   0  0.2484904E-04  0.1005280E+04  0.7818609E-02  0.9302772E-01
       -2   -1    0    0    0  501  0.00000000000E+00  0.00000000000E+00  0.17389091526E+03  0.17389091527E+03  0.25500000920E-02 0. -1.
        2   -1    0    0  501    0  0.00000000000E+00  0.00000000000E+00 -0.14529057646E+04  0.14529057646E+04  0.25500000920E-02 0.  1.
    10030    2    1    2    0    0  0.00000000000E+00  0.00000000000E+00 -0.12790148494E+04  0.16267966799E+04  0.10052802857E+04 0.  0.
        3    1    3    3  502    0 -0.23927767175E+03 -0.16250892586E+03  0.25718390758E+02  0.29038664055E+03  0.10100000352E+00 0. -1.
       -3    1    3    3    0  502  0.23927767175E+03  0.16250892586E+03 -0.13047332401E+04  0.13364100394E+04  0.10100000352E+00 0.  1.
</event>
<event>
 5   0  0.1430675E-04  0.9998711E+03  0.7818609E-02  0.9308686E-01
        1   -1    0    0  501    0  0.00000000000E+00  0.00000000000E+00  0.13340120391E+04  0.13340120392E+04  0.50400001928E-02 0.  1.
       -1   -1    0    0    0  501  0.00000000000E+00  0.00000000000E+00 -0.18735627896E+03  0.18735627902E+03  0.50400001928E-02 0. -1.
    10030    2    1    2    0    0  0.00000000000E+00  0.00000000000E+00  0.11466557602E+04  0.15213683182E+04  0.99987105528E+03 0.  0.
        5    1    3    3  502    0 -0.25171713012E+02  0.29129588662E+03  0.11903153178E+04  0.12257077769E+04  0.46999998093E+01 0.  1.
       -5    1    3    3    0  502  0.25171713012E+02 -0.29129588662E+03 -0.43659557568E+02  0.29566054127E+03  0.46999998093E+01 0. -1.
</event>
<event>
 5   0  0.1414165E-04  0.9997707E+03  0.7818609E-02  0.9308796E-01
       -1   -1    0    0    0  501  0.00000000000E+00  0.00000000000E+00  0.78955682298E+03  0.78955682299E+03  0.50400001928E-02 0. -1.
        1   -1    0    0  501    0  0.00000000000E+00  0.00000000000E+00 -0.31648815270E+03  0.31648815274E+03  0.50400001928E-02 0.  1.
    10030    2    1    2    0    0  0.00000000000E+00  0.00000000000E+00  0.47306867028E+03  0.11060449757E+04  0.99977073449E+03 0.  0.
        4    1    3    3  502    0 -0.47134697953E+03 -0.16079025463E+03  0.18879288552E+03  0.53260289863E+03  0.12699999809E+01 0.  1.
       -4    1    3    3    0  502  0.47134697953E+03  0.16079025463E+03  0.28427578475E+03  0.57344207711E+03  0.12699999809E+01 0. -1.
</event>
<event>
 5   0  0.1453863E-04  0.9997625E+03  0.7818609E-02  0.9308805E-01
        1   -1    0    0  501    0  0.00000000000E+00  0.00000000000E+00  0.46177255889E+03  0.46177255891E+03  0.50400001928E-02 0.  1.
       -1   -1    0    0    0  501  0.00000000000E+00  0.00000000000E+00 -0.54113489466E+03  0.54113489468E+03  0.50400001928E-02 0. -1.
    10030    2    1    2    0    0  0.00000000000E+00  0.00000000000E+00 -0.79362335775E+02  0.10029074536E+04  0.99976246186E+03 0.  0.
        1    1    3    3  502    0 -0.20249249699E+03  0.86723285262E+02  0.41045873461E+03  0.46583313792E+03  0.50400001928E-02 0.  1.
       -1    1    3    3    0  502  0.20249249699E+03 -0.86723285262E+02 -0.48982107038E+03  0.53707431568E+03  0.50400001928E-02 0. -1.
</event>
<event>
 5   0  0.2403037E-04  0.1000111E+04  0.7818609E-02  0.9308423E-01
        2   -1    0    0  501    0  0.00000000000E+00  0.00000000000E+00  0.12203634024E+04  0.12203634024E+04  0.25500000920E-02 0.  1.
       -2   -1    0    0    0  501  0.00000000000E+00  0.00000000000E+00 -0.20490236528E+03  0.20490236530E+03  0.25500000920E-02 0. -1.
    10030    2    1    2    0    0  0.00000000000E+00  0.00000000000E+00  0.10154610371E+04  0.14252657677E+04  0.10001106892E+04 0.  0.
        1    1    3    3  502    0 -0.45942480012E+03  0.96604989351E+02  0.75312930653E+03  0.88747249158E+03  0.50400001928E-02 0. -1.
       -1    1    3    3    0  502  0.45942480012E+03 -0.96604989351E+02  0.26233173056E+03  0.53779327609E+03  0.50400001928E-02 0.  1.
</event>
<event>
 5   0  0.1453863E-04  0.9981489E+03  0.7818609E-02  0.9310577E-01
        1   -1    0    0  501    0  0.00000000000E+00  0.00000000000E+00  0.82156172036E+03  0.82156172038E+03  0.50400001928E-02 0.  1.
       -1   -1    0    0    0  501  0.00000000000E+00  0.00000000000E+00 -0.30317294353E+03  0.30317294357E+03  0.50400001928E-02 0. -1.
    10030    2    1    2    0    0  0.00000000000E+00  0.00000000000E+00  0.51838877683E+03  0.11247346640E+04  0.99814885681E+03 0.  0.
        1    1    3    3  502    0  0.12438624288E+03 -0.28885443289E+03  0.69585221023E+03  0.76362236696E+03  0.50400001928E-02 0.  1.
       -1    1    3    3    0  502 -0.12438624288E+03  0.28885443289E+03 -0.17746343340E+03  0.36111229699E+03  0.50400001928E-02 0. -1.
</event>
<event>
 5   0  0.2484904E-04  0.1000216E+04  0.7818609E-02  0.9308308E-01
        2   -1    0    0  501    0  0.00000000000E+00  0.00000000000E+00  0.14174570932E+04  0.14174570932E+04  0.25500000920E-02 0. -1.
       -2   -1    0    0    0  501  0.00000000000E+00  0.00000000000E+00 -0.17644851087E+03  0.17644851089E+03  0.25500000920E-02 0.  1.
    10030    2    1    2    0    0  0.00000000000E+00  0.00000000000E+00  0.12410085823E+04  0.15939056041E+04  0.10002163632E+04 0.  0.
        3    1    3    3  502    0 -0.93819788407E+02 -0.44958485376E+03  0.93593068434E+03  0.10425425409E+04  0.10100000352E+00 0.  1.
       -3    1    3    3    0  502  0.93819788407E+02  0.44958485376E+03  0.30507789795E+03  0.55136306318E+03  0.10100000352E+00 0. -1.
</event>
<event>
 5   0  0.2484904E-04  0.9993677E+03  0.7818609E-02  0.9309239E-01
        2   -1    0    0  501    0  0.00000000000E+00  0.00000000000E+00  0.37577139036E+03  0.37577139036E+03  0.25500000920E-02 0.  1.
       -2   -1    0    0    0  501  0.00000000000E+00  0.00000000000E+00 -0.66445700397E+03  0.66445700397E+03  0.25500000920E-02 0. -1.
    10030    2    1    2    0    0  0.00000000000E+00  0.00000000000E+00 -0.28868561361E+03  0.10402283943E+04  0.99936766452E+03 0.  0.
        3    1    3    3  502    0  0.12896889822E+03  0.25991384314E+02  0.35742001581E+03  0.38086428905E+03  0.10100000352E+00 0.  1.
       -3    1    3    3    0  502 -0.12896889822E+03 -0.25991384314E+02 -0.64610562943E+03  0.65936410529E+03  0.10100000352E+00 0. -1.
</event>
<event>
 5   0  0.2353916E-04  0.1001171E+04  0.7818609E-02  0.9307262E-01
       -2   -1    0    0    0  501  0.00000000000E+00  0.00000000000E+00  0.19848257636E+03  0.19848257637E+03  0.25500000920E-02 0. -1.
        2   -1    0    0  501    0  0.00000000000E+00  0.00000000000E+00 -0.12625073652E+04  0.12625073652E+04  0.25500000920E-02 0.  1.
    10030    2    1    2    0    0  0.00000000000E+00  0.00000000000E+00 -0.10640247889E+04  0.14609899416E+04  0.10011707437E+04 0.  0.
        4    1    3    3  502    0 -0.78515656586E+02  0.49406908735E+03 -0.55791742471E+03  0.74936135282E+03  0.12699999809E+01 0. -1.
       -4    1    3    3    0  502  0.78515656586E+02 -0.49406908735E+03 -0.50610736415E+03  0.71162858877E+03  0.12699999809E+01 0.  1.
</event>
<event>
 5   0  0.1506454E-04  0.1000028E+04  0.7818609E-02  0.9308514E-01
       -1   -1    0    0    0  501  0.00000000000E+00  0.00000000000E+00  0.66053435410E+03  0.66053435412E+03  0.50400001928E-02 0.  1.
        1   -1    0    0  501    0  0.00000000000E+00  0.00000000000E+00 -0.37850239101E+03  0.37850239104E+03  0.50400001928E-02 0. -1.
    10030    2    1    2    0    0  0.00000000000E+00  0.00000000000E+00  0.28203196310E+03  0.10390367452E+04  0.10000276644E+04 0.  0.
        3    1    3    3  502    0 -0.28889198697E+03 -0.18047191612E+03 -0.23930229157E+03  0.41628630724E+03  0.10100000352E+00 0. -1.
       -3    1    3    3    0  502  0.28889198697E+03  0.18047191612E+03  0.52133425467E+03  0.62275043792E+03  0.10100000352E+00 0.  1.
</event>
<event>
 5   0  0.2353916E-04  0.9999430E+03  0.7818609E-02  0.9308607E-01
       -2   -1    0    0    0  501  0.00000000000E+00  0.00000000000E+00  0.11247772119E+04  0.11247772119E+04  0.25500000920E-02 0.  1.
        2   -1    0    0  501    0  0.00000000000E+00  0.00000000000E+00 -0.22224092074E+03  0.22224092076E+03  0.25500000920E-02 0. -1.
    10030    2    1    2    0    0  0.00000000000E+00  0.00000000000E+00  0.90253629119E+03  0.13470181327E+04  0.99994304482E+03 0.  0.
        4    1    3    3  502    0  0.19297334656E+03 -0.10836082103E+03  0.10551951696E+04  0.10781554799E+04  0.12699999809E+01 0.  1.
       -4    1    3    3    0  502 -0.19297334656E+03  0.10836082103E+03 -0.15265887839E+03  0.26886265280E+03  0.12699999809E+01 0. -1.
</event>
<event>
 5   0  0.1430675E-04  0.1000430E+04  0.7818609E-02  0.9308073E-01
        1   -1    0    0  501    0  0.00000000000E+00  0.00000000000E+00  0.24175574566E+04  0.24175574566E+04  0.50400001928E-02 0.  1.
       -1   -1    0    0    0  501  0.00000000000E+00  0.00000000000E+00 -0.10349919008E+03  0.10349919020E+03  0.50400001928E-02 0. -1.
    10030    2    1    2    0    0  0.00000000000E+00  0.00000000000E+00  0.23140582665E+04  0.25210566468E+04  0.10004303852E+04 0.  0.
        5    1    3    3  502    0 -0.29172745126E+03 -0.16984539181E+03  0.20871712307E+04  0.21142985123E+04  0.46999998093E+01 0.  1.
       -5    1    3    3    0  502  0.29172745126E+03  0.16984539181E+03  0.22688703579E+03  0.40675813446E+03  0.46999998093E+01 0. -1.
</event>
<event>
 5   0  0.2403037E-04  0.1000051E+04  0.7818609E-02  0.9308489E-01
       -2   -1    0    0    0  501  0.00000000000E+00  0.00000000000E+00  0.45085693849E+03  0.45085693850E+03  0.25500000920E-02 0.  1.
        2   -1    0    0  501    0  0.00000000000E+00  0.00000000000E+00 -0.55455641185E+03  0.55455641185E+03  0.25500000920E-02 0. -1.
    10030    2    1    2    0    0  0.00000000000E+00  0.00000000000E+00 -0.10369947335E+03  0.10054133504E+04  0.10000512108E+04 0.  0.
        1    1    3    3  502    0 -0.29864402659E+02  0.25182806035E+03  0.38140914987E+03  0.45801986219E+03  0.50400001928E-02 0.  1.
       -1    1    3    3    0  502  0.29864402659E+02 -0.25182806035E+03 -0.48510862323E+03  0.54739348816E+03  0.50400001928E-02 0. -1.
</event>
<event>
 5   0  0.1461334E-04  0.1000179E+04  0.7818609E-02  0.9308349E-01
       -1   -1    0    0    0  501  0.00000000000E+00  0.00000000000E+00  0.48442777656E+03  0.48442777659E+03  0.50400001928E-02 0. -1.
        1   -1    0    0  501    0  0.00000000000E+00  0.00000000000E+00 -0.51625739684E+03  0.51625739687E+03  0.50400001928E-02 0.  1.
    10030    2    1    2    0    0  0.00000000000E+00  0.00000000000E+00 -0.31829620278E+02  0.10006851735E+04  0.10001788298E+04 0.  0.
        2    1    3    3  502    0  0.32419870653E+03 -0.67897604564E+02 -0.39077038625E+03  0.51226592782E+03  0.25500000920E-02 0.  1.
       -2    1    3    3    0  502 -0.32419870653E+03  0.67897604564E+02  0.35894076598E+03  0.48841924564E+03  0.25500000920E-02 0. -1.
</event>
<event>
 5   0  0.2473312E-04  0.1000514E+04  0.7818609E-02  0.9307982E-01
        2   -1    0    0  501    0  0.00000000000E+00  0.00000000000E+00  0.11259417301E+04  0.11259417301E+04  0.25500000920E-02 0. -1.
       -2   -1    0    0    0  501  0.00000000000E+00  0.00000000000E+00 -0.22226444775E+03  0.22226444777E+03  0.25500000920E-02 0.  1.
    10030    2    1    2    0    0  0.00000000000E+00  0.00000000000E+00  0.90367728238E+03  0.13482061779E+04  0.10005135019E+04 0.  0.
        5    1    3    3  502    0 -0.38946872599E+02  0.62142238859E+02 -0.21495111731E+03  0.22716643582E+03  0.46999998093E+01 0.  1.
       -5    1    3    3    0  502  0.38946872599E+02 -0.62142238859E+02  0.11186283997E+04  0.11210397421E+04  0.46999998093E+01 0. -1.
</event>
<event>
 5   0  0.1506454E-04  0.1000023E+04  0.7818609E-02  0.9308520E-01
       -1   -1    0    0    0  501  0.00000000000E+00  0.00000000000E+00  0.15742153953E+03  0.15742153961E+03  0.50400001928E-02 0.  1.
        1   -1    0    0  501    0  0.00000000000E+00  0.00000000000E+00 -0.15881651279E+04  0.15881651279E+04  0.50400001928E-02 0. -1.
    10030    2    1    2    0    0  0.00000000000E+00  0.00000000000E+00 -0.14307435883E+04  0.17455866675E+04  0.10000227988E+04 0.  0.
        3    1    3    3  502    0 -0.20019644212E+02  0.33950904407E+03 -0.13551670204E+04  0.13971917695E+04  0.10100000352E+00 0. -1.
       -3    1    3    3    0  502  0.20019644212E+02 -0.33950904407E+03 -0.75576567897E+02  0.34839489803E+03  0.10100000352E+00 0.  1.
</event>
<event>
 5   0  0.1453863E-04  0.1000124E+04  0.7818609E-02  0.9308408E-01
       -1   -1    0    0    0  501  0.00000000000E+00  0.00000000000E+00  0.27321855855E+03  0.27321855860E+03  0.50400001928E-02 0. -1.
        1   -1    0    0  501    0  0.00000000000E+00  0.00000000000E+00 -0.91524609631E+03  0.91524609632E+03  0.50400001928E-02 0.  1.
    10030    2    1    2    0    0  0.00000000000E+00  0.00000000000E+00 -0.64202753776E+03  0.11884646549E+04  0.10001244306E+04 0.  0.
        1    1    3    3  502    0 -0.46990261485E+03 -0.13007891166E+03 -0.18904516494E+03  0.52294078548E+03  0.50400001928E-02 0.  1.
       -1    1    3    3    0  502  0.46990261485E+03  0.13007891166E+03 -0.45298237281E+03  0.66552386945E+03  0.50400001928E-02 0. -1.
</event>
<event>
 5   0  0.1430675E-04  0.1000033E+04  0.7818609E-02  0.9308508E-01
       -1   -1    0    0    0  501  0.00000000000E+00  0.00000000000E+00  0.23631451601E+03  0.23631451607E+03  0.50400001928E-02 0.  1.
        1   -1    0    0  501    0  0.00000000000E+00  0.00000000000E+00 -0.10579827139E+04  0.10579827139E+04  0.50400001928E-02 0. -1.
    10030    2    1    2    0    0  0.00000000000E+00  0.00000000000E+00 -0.82166819787E+03  0.12942972300E+04  0.10000333455E+04 0.  0.
        5    1    3    3  502    0 -0.37128730973E+03  0.17719020919E+03 -0.77860259707E+03  0.88062178645E+03  0.46999998093E+01 0. -1.
       -5    1    3    3    0  502  0.37128730973E+03 -0.17719020919E+03 -0.43065600801E+02  0.41367544352E+03  0.46999998093E+01 0.  1.
</event>
<event>
 5   0  0.1453863E-04  0.9991897E+03  0.7818609E-02  0.9309434E-01
        1   -1    0    0  501    0  0.00000000000E+00  0.00000000000E+00  0.41888592275E+03  0.41888592278E+03  0.50400001928E-02 0.  1.
       -1   -1    0    0    0  501  0.00000000000E+00  0.00000000000E+00 -0.59585439502E+03  0.59585439504E+03  0.50400001928E-02 0. -1.
    10030    2    1    2    0    0  0.00000000000E+00  0.00000000000E+00 -0.17696847227E+03  0.10147403178E+04  0.99918970793E+03 0.  0.
        1    1    3    3  502    0 -0.41968987232E+03  0.17063298185E+03 -0.30233159996E+03  0.54466466728E+03  0.50400001928E-02 0. -1.
       -1    1    3    3    0  502  0.41968987232E+03 -0.17063298185E+03  0.12536312769E+03  0.47007565054E+03  0.50400001928E-02 0.  1.
</event>
<event>
 5   0  0.1461334E-04  0.1003453E+04  0.7818609E-02  0.9304766E-01
        1   -1    0    0  501    0  0.00000000000E+00  0.00000000000E+00  0.34216507670E+03  0.34216507674E+03  0.50400001928E-02 0.  1.
       -1   -1    0    0    0  501  0.00000000000E+00  0.00000000000E+00 -0.73569555146E+03  0.73569555148E+03  0.50400001928E-02 0. -1.
    10030    2    1    2    0    0  0.00000000000E+00  0.00000000000E+00 -0.39353047475E+03  0.10778606282E+04  0.10034526891E+04 0.  0.
        2    1    3    3  502    0 -0.12002504013E+03  0.58638914234E+02 -0.71624268647E+03  0.72859324623E+03  0.25500000920E-02 0. -1.
       -2    1    3    3    0  502  0.12002504013E+03 -0.58638914234E+02  0.32271221172E+03  0.34926738199E+03  0.25500000920E-02 0.  1.
</event>
<event>
 5   0  0.1430675E-04  0.9998237E+03  0.7818609E-02  0.9308738E-01
        1   -1    0    0  501    0  0.00000000000E+00  0.00000000000E+00  0.18035086419E+04  0.18035086419E+04  0.50400001928E-02 0.  1.
       -1   -1    0    0    0  501  0.00000000000E+00  0.00000000000E+00 -0.13856980208E+03  0.13856980217E+03  0.50400001928E-02 0. -1.
    10030    2    1    2    0    0  0.00000000000E+00  0.00000000000E+00  0.16649388398E+04  0.19420784441E+04  0.99982365575E+03 0.  0.
        5    1    3    3  502    0 -0.24380399148E+03 -0.20013084951E+03  0.15857607174E+04  0.16168339080E+04  0.46999998093E+01 0.  1.
       -5    1    3    3    0  502  0.24380399148E+03  0.20013084951E+03  0.79178122432E+02  0.32524453609E+03  0.46999998093E+01 0. -1.
</event>
<event>
 5   0  0.2473312E-04  0.1004204E+04  0.7818609E-02  0.9303946E-01
        2   -1    0    0  501    0  0.00000000000E+00  0.00000000000E+00  0.48121437059E+03  0.48121437059E+03  0.25500000920E-02 0.  1.
       -2   -1    0    0    0  501  0.00000000000E+00  0.00000000000E+00 -0.52389587868E+03  0.52389587868E+03  0.25500000920E-02 0. -1.
    10030    2    1    2    0    0  0.00000000000E+00  0.00000000000E+00 -0.42681508089E+02  0.10051102493E+04  0.10042036158E+04 0.  0.
        5    1    3    3  502    0  0.23914199110E+03  0.20055004548E+03  0.37230164944E+03  0.48583929527E+03  0.46999998093E+01 0.  1.
       -5    1    3    3    0  502 -0.23914199110E+03 -0.20055004548E+03 -0.41498315753E+03  0.51927095401E+03  0.46999998093E+01 0. -1.
</event>
<event>
 5   0  0.1430675E-04  0.9998292E+03  0.7818609E-02  0.9308732E-01
       -1   -1    0    0    0  501  0.00000000000E+00  0.00000000000E+00  0.38695639553E+03  0.38695639557E+03  0.50400001928E-02 0.  1.
        1   -1    0    0  501    0  0.00000000000E+00  0.00000000000E+00 -0.64584694350E+03  0.64584694352E+03  0.50400001928E-02 0. -1.
    10030    2    1    2    0    0  0.00000000000E+00  0.00000000000E+00 -0.25889054796E+03  0.10328033391E+04  0.99982919611E+03 0.  0.
        5    1    3    3  502    0 -0.28647645715E+03 -0.59839184487E+02  0.28918948907E+03  0.41146341160E+03  0.46999998093E+01 0.  1.
       -5    1    3    3    0  502  0.28647645715E+03  0.59839184487E+02 -0.54808003703E+03  0.62133992749E+03  0.46999998093E+01 0. -1.
</event>
<event>
 5   0  0.2403037E-04  0.1000147E+04  0.7818609E-02  0.9308384E-01
       -2   -1    0    0    0  501  0.00000000000E+00  0.00000000000E+00  0.15005394466E+03  0.15005394469E+03  0.25500000920E-02 0. -1.
        2   -1    0    0  501    0  0.00000000000E+00  0.00000000000E+00 -0.16665570041E+04  0.16665570041E+04  0.25500000920E-02 0.  1.
    10030    2    1    2    0    0  0.00000000000E+00  0.00000000000E+00 -0.15165030594E+04  0.18166109488E+04  0.10001468942E+04 0.  0.
        1    1    3    3  502    0  0.55806983883E+02  0.15630652973E+03 -0.16150719093E+04  0.16235773535E+04  0.50400001928E-02 0.  1.
       -1    1    3    3    0  502 -0.55806983883E+02 -0.15630652973E+03  0.98568849899E+02  0.19303359521E+03  0.50400001928E-02 0. -1.
</event>
<event>
 5   0  0.1453863E-04  0.1000126E+04  0.7818609E-02  0.9308407E-01
       -1   -1    0    0    0  501  0.00000000000E+00  0.00000000000E+00  0.11683131061E+03  0.11683131072E+03  0.50400001928E-02 0.  1.
        1   -1    0    0  501    0  0.00000000000E+00  0.00000000000E+00 -0.21403756860E+04  0.21403756860E+04  0.50400001928E-02 0. -1.
    10030    2    1    2    0    0  0.00000000000E+00  0.00000000000E+00 -0.20235443753E+04  0.22572069967E+04  0.10001257855E+04 0.  0.
        1    1    3    3  502    0  0.14470142885E+03  0.42770265220E+03 -0.14968523017E+04  0.15634688597E+04  0.50400001928E-02 0. -1.
       -1    1    3    3    0  502 -0.14470142885E+03 -0.42770265220E+03 -0.52669207367E+03  0.69373813698E+03  0.50400001928E-02 0.  1.
</event>
<event>
 5   0  0.2353916E-04  0.1000053E+04  0.7818609E-02  0.9308486E-01
       -2   -1    0    0    0  501  0.00000000000E+00  0.00000000000E+00  0.67395610528E+03  0.67395610529E+03  0.25500000920E-02 0. -1.
        2   -1    0    0  501    0  0.00000000000E+00  0.00000000000E+00 -0.37098368164E+03  0.37098368165E+03  0.25500000920E-02 0.  1.
    10030    2    1    2    0    0  0.00000000000E+00  0.00000000000E+00  0.30297242365E+03  0.10449397869E+04  0.10000534330E+04 0.  0.
        4    1    3    3  502    0 -0.33580408297E+03 -0.21307927924E+03 -0.16519800441E+03  0.43064968935E+03  0.12699999809E+01 0.  1.
       -4    1    3    3    0  502  0.33580408297E+03  0.21307927924E+03  0.46817042805E+03  0.61429009758E+03  0.12699999809E+01 0. -1.
</event>
<event>
 5   0  0.2484904E-04  0.1001369E+04  0.7818609E-02  0.9307045E-01
        2   -1    0    0  501    0  0.00000000000E+00  0.00000000000E+00  0.16382873458E+04  0.16382873458E+04  0.25500000920E-02 0. -1.
       -2   -1    0    0    0  501  0.00000000000E+00  0.00000000000E+00 -0.15301645181E+03  0.15301645183E+03  0.25500000920E-02 0.  1.
    10030    2    1    2    0    0  0.00000000000E+00  0.00000000000E+00  0.14852708940E+04  0.17913037976E+04  0.10013688965E+04 0.  0.
        3    1    3    3  502    0  0.33459418533E+03  0.30409030885E+03  0.35788303510E+03  0.57663199859E+03  0.10100000352E+00 0.  1.
       -3    1    3    3    0  502 -0.33459418533E+03 -0.30409030885E+03  0.11273878589E+04  0.12146717990E+04  0.10100000352E+00 0. -1.
</event>
<event>
 5   0  0.1506454E-04  0.9992767E+03  0.7818609E-02  0.9309338E-01
        1   -1    0    0  501    0  0.00000000000E+00  0.00000000000E+00  0.84714791437E+03  0.84714791438E+03  0.50400001928E-02 0.  1.
       -1   -1    0    0    0  501  0.00000000000E+00  0.00000000000E+00 -0.29468111384E+03  0.29468111388E+03  0.50400001928E-02 0. -1.
    10030    2    1    2    0    0  0.00000000000E+00  0.00000000000E+00  0.55246680053E+03  0.11418290283E+04  0.99927672048E+03 0.  0.
        3    1    3    3  502    0  0.29961223197E+03 -0.38397774834E+02  0.73099966463E+03  0.79095031358E+03  0.10100000352E+00 0.  1.
       -3    1    3    3    0  502 -0.29961223197E+03  0.38397774834E+02 -0.17853286410E+03  0.35087871469E+03  0.10100000352E+00 0. -1.
</event>
<event>
 5   0  0.1430675E-04  0.1000990E+04  0.7818609E-02  0.9307460E-01
       -1   -1    0    0    0  501  0.00000000000E+00  0.00000000000E+00  0.41521122938E+03  0.41521122941E+03  0.50400001928E-02 0.  1.
        1   -1    0    0  501    0  0.00000000000E+00  0.00000000000E+00 -0.60329546775E+03  0.60329546777E+03  0.50400001928E-02 0. -1.
    10030    2    1    2    0    0  0.00000000000E+00  0.00000000000E+00 -0.18808423837E+03  0.10185066972E+04  0.10009896161E+04 0.  0.
        5    1    3    3  502    0 -0.26656696592E+03  0.28628355094E+03 -0.41168583342E+03  0.56791155499E+03  0.46999998093E+01 0. -1.
       -5    1    3    3    0  502  0.26656696592E+03 -0.28628355094E+03  0.22360159505E+03  0.45059514219E+03  0.46999998093E+01 0.  1.
</event>
<event>
 5   0  0.9650500E-05  0.1000259E+04  0.7818609E-02  0.9308261E-01
        3   -1    0    0  501    0  0.00000000000E+00  0.00000000000E+00  0.22239138405E+03  0.22239140699E+03  0.10100000352E+00 0. -1.
       -3   -1    0    0    0  501  0.00000000000E+00  0.00000000000E+00 -0.11247268089E+04  0.11247268134E+04  0.10100000352E+00 0.  1.
    10030    2    1    2    0    0  0.00000000000E+00  0.00000000000E+00 -0.90233542484E+03  0.13471182204E+04  0.10002591069E+04 0.  0.
        2    1    3    3  502    0 -0.47948072798E+02  0.20270669047E+03  0.16119118150E+03  0.26338492183E+03  0.25500000920E-02 0. -1.
       -2    1    3    3    0  502  0.47948072798E+02 -0.20270669047E+03 -0.10635266063E+04  0.10837332986E+04  0.25500000920E-02 0.  1.
</event>
<event>
 5   0  0.1461334E-04  0.9999630E+03  0.7818609E-02  0.9308585E-01
        1   -1    0    0  501    0  0.00000000000E+00  0.00000000000E+00  0.10361098036E+04  0.10361098036E+04  0.50400001928E-02 0.  1.
       -1   -1    0    0    0  501  0.00000000000E+00  0.00000000000E+00 -0.24126933218E+03  0.24126933223E+03  0.50400001928E-02 0. -1.
    10030    2    1    2    0    0  0.00000000000E+00  0.00000000000E+00  0.79484047144E+03  0.12773791359E+04  0.99996304017E+03 0.  0.
        2    1    3    3  502    0  0.27766004119E+03 -0.23321506266E+03 -0.42313549830E+02  0.36506821340E+03  0.25500000920E-02 0. -1.
       -2    1    3    3    0  502 -0.27766004119E+03  0.23321506266E+03  0.83715402127E+03  0.91231092247E+03  0.25500000920E-02 0.  1.
</event>
<event>
 5   0  0.2484904E-04  0.1000040E+04  0.7818609E-02  0.9308501E-01
       -2   -1    0    0    0  501  0.00000000000E+00  0.00000000000E+00  0.39940186819E+03  0.39940186820E+03  0.25500000920E-02 0.  1.
        2   -1    0    0  501    0  0.00000000000E+00  0.00000000000E+00 -0.62598580567E+03  0.62598580568E+03  0.25500000920E-02 0. -1.
    10030    2    1    2    0    0  0.00000000000E+00  0.00000000000E+00 -0.22658393748E+03  0.10253876739E+04  0.10000397997E+04 0.  0.
        3    1    3    3  502    0  0.22235751958E+03 -0.41520389043E+03 -0.28542432533E+03  0.55073059915E+03  0.10100000352E+00 0.  1.
       -3    1    3    3    0  502 -0.22235751958E+03  0.41520389043E+03  0.58840387849E+02  0.47465707473E+03  0.10100000352E+00 0. -1.
</event>
<event>
 5   0  0.2503680E-04  0.9990259E+03  0.7818609E-02  0.9309614E-01
       -2   -1    0    0    0  501  0.00000000000E+00  0.00000000000E+00  0.23564241310E+03  0.23564241311E+03  0.25500000920E-02 0.  1.
        2   -1    0    0  501    0  0.00000000000E+00  0.00000000000E+00 -0.10588636758E+04  0.10588636758E+04  0.25500000920E-02 0. -1.
    10030    2    1    2    0    0  0.00000000000E+00  0.00000000000E+00 -0.82322126275E+03  0.12945060890E+04  0.99902590902E+03 0.  0.
        2    1    3    3  502    0  0.31188914664E+03  0.38905443143E+02  0.91449137187E+02  0.32733991201E+03  0.25500000920E-02 0.  1.
       -2    1    3    3    0  502 -0.31188914664E+03 -0.38905443143E+02 -0.91467039993E+03  0.96716617694E+03  0.25500000920E-02 0. -1.
</event>
<event>
 5   0  0.2484904E-04  0.1000518E+04  0.7818609E-02  0.9307977E-01
        2   -1    0    0  501    0  0.00000000000E+00  0.00000000000E+00  0.19077520562E+04  0.19077520562E+04  0.25500000920E-02 0.  1.
       -2   -1    0    0    0  501  0.00000000000E+00  0.00000000000E+00 -0.13118009614E+03  0.13118009616E+03  0.25500000920E-02 0. -1.
    10030    2    1    2    0    0  0.00000000000E+00  0.00000000000E+00  0.17765719601E+04  0.20389321524E+04  0.10005180621E+04 0.  0.
        3    1    3    3  502    0  0.37038551253E+03  0.16291867495E+03  0.14877513747E+04  0.15417950855E+04  0.10100000352E+00 0.  1.
       -3    1    3    3    0  502 -0.37038551253E+03 -0.16291867495E+03  0.28882058542E+03  0.49713706692E+03  0.10100000352E+00 0. -1.
</event>
<event>
 5   0  0.2503680E-04  0.1001377E+04  0.7818609E-02  0.9307036E-01
       -2   -1    0    0    0  501  0.00000000000E+00  0.00000000000E+00  0.22006246345E+03  0.22006246346E+03  0.25500000920E-02 0.  1.
        2   -1    0    0  501    0  0.00000000000E+00  0.00000000000E+00 -0.11391719992E+04  0.11391719992E+04  0.25500000920E-02 0. -1.
    10030    2    1    2    0    0  0.00000000000E+00  0.00000000000E+00 -0.91910953574E+03  0.13592344626E+04  0.10013770448E+04 0.  0.
        2    1    3    3  502    0  0.37039427028E+03 -0.27104378319E+03 -0.73113757974E+03  0.86326056806E+03  0.25500000920E-02 0.  1.
       -2    1    3    3    0  502 -0.37039427028E+03  0.27104378319E+03 -0.18797195600E+03  0.49597389458E+03  0.25500000920E-02 0. -1.
</event>
<event>
 5   0  0.2484904E-04  0.9966952E+03  0.7818609E-02  0.9312177E-01
        2   -1    0    0  501    0  0.00000000000E+00  0.00000000000E+00  0.32852137234E+03  0.32852137235E+03  0.25500000920E-02 0. -1.
       -2   -1    0    0    0  501  0.00000000000E+00  0.00000000000E+00 -0.75596406445E+03  0.75596406446E+03  0.25500000920E-02 0.  1.
    10030    2    1    2    0    0  0.00000000000E+00  0.00000000000E+00 -0.42744269211E+03  0.10844854368E+04  0.99669524310E+03 0.  0.
        3    1    3    3  502    0  0.25296548287E+03  0.25519418731E+03  0.16199728434E+03  0.39415572950E+03  0.10100000352E+00 0. -1.
       -3    1    3    3    0  502 -0.25296548287E+03 -0.25519418731E+03 -0.58943997645E+03  0.69032970731E+03  0.10100000352E+00 0.  1.
</event>
<event>
 5   0  0.2473312E-04  0.9999912E+03  0.7818609E-02  0.9308554E-01
        2   -1    0    0  501    0  0.00000000000E+00  0.00000000000E+00  0.11270321440E+04  0.11270321440E+04  0.25500000920E-02 0. -1.
       -2   -1    0    0    0  501  0.00000000000E+00  0.00000000000E+00 -0.22181761710E+03  0.22181761711E+03  0.25500000920E-02 0.  1.
    10030    2    1    2    0    0  0.00000000000E+00  0.00000000000E+00  0.90521452686E+03  0.13488497611E+04  0.99999116911E+03 0.  0.
        5    1    3    3  502    0 -0.58333412487E+02 -0.14568642358E+03  0.10929205426E+04  0.11041398116E+04  0.46999998093E+01 0. -1.
       -5    1    3    3    0  502  0.58333412487E+02  0.14568642358E+03 -0.18770601576E+03  0.24470994949E+03  0.46999998093E+01 0.  1.
</event>
<event>
 5   0  0.2353916E-04  0.1001783E+04  0.7818609E-02  0.9306591E-01
       -2   -1    0    0    0  501  0.00000000000E+00  0.00000000000E+00  0.56434093770E+03  0.56434093771E+03  0.25500000920E-02 0. -1.
        2   -1    0    0  501    0  0.00000000000E+00  0.00000000000E+00 -0.44457574053E+03  0.44457574054E+03  0.25500000920E-02 0.  1.
    10030    2    1    2    0    0  0.00000000000E+00  0.00000000000E+00  0.11976519717E+03  0.10089166782E+04  0.10017829911E+04 0.  0.
        4    1    3    3  502    0  0.47606697299E+03  0.14036456248E+03 -0.80417523371E+01  0.49639526171E+03  0.12699999809E+01 0.  1.
       -4    1    3    3    0  502 -0.47606697299E+03 -0.14036456248E+03  0.12780694950E+03  0.51252141654E+03  0.12699999809E+01 0. -1.
</event>
<event>
 5   0  0.2353916E-04  0.1000200E+04  0.7818609E-02  0.9308325E-01
       -2   -1    0    0    0  501  0.00000000000E+00  0.00000000000E+00  0.13042240616E+03  0.13042240619E+03  0.25500000920E-02 0. -1.
        2   -1    0    0  501    0  0.00000000000E+00  0.00000000000E+00 -0.19176165429E+04  0.19176165429E+04  0.25500000920E-02 0.  1.
    10030    2    1    2    0    0  0.00000000000E+00  0.00000000000E+00 -0.17871941368E+04  0.20480389491E+04  0.10002003072E+04 0.  0.
        4    1    3    3  502    0  0.10961702679E+03  0.44636590888E+02  0.10132769031E+03  0.15581152567E+03  0.12699999809E+01 0. -1.
       -4    1    3    3    0  502 -0.10961702679E+03 -0.44636590888E+02 -0.18885218271E+04  0.18922274234E+04  0.12699999809E+01 0.  1.
</event>
<event>
 5   0  0.1453863E-04  0.1001756E+04  0.7818609E-02  0.9306621E-01
        1   -1    0    0  501    0  0.00000000000E+00  0.00000000000E+00  0.71553891336E+03  0.71553891338E+03  0.50400001928E-02 0.  1.
       -1   -1    0    0    0  501  0.00000000000E+00  0.00000000000E+00 -0.35061492999E+03  0.35061493002E+03  0.50400001928E-02 0. -1.
    10030    2    1    2    0    0  0.00000000000E+00  0.00000000000E+00  0.36492398338E+03  0.10661538434E+04  0.10017557108E+04 0.  0.
        1    1    3    3  502    0 -0.26659589636E+03 -0.16320077491E+03 -0.23406771942E+03  0.39050680172E+03  0.50400001928E-02 0. -1.
       -1    1    3    3    0  502  0.26659589636E+03  0.16320077491E+03  0.59899170280E+03  0.67564704168E+03  0.50400001928E-02 0.  1.
</event>
<event>
 5   0  0.2503680E-04  0.1000004E+04  0.7818609E-02  0.9308541E-01
       -2   -1    0    0    0  501  0.00000000000E+00  0.00000000000E+00  0.36498068605E+03  0.36498068606E+03  0.25500000920E-02 0.  1.
        2   -1    0    0  501    0  0.00000000000E+00  0.00000000000E+00 -0.68497282991E+03  0.68497282991E+03  0.25500000920E-02 0. -1.
    10030    2    1    2    0    0  0.00000000000E+00  0.00000000000E+00 -0.31999214386E+03  0.10499535160E+04  0.10000037068E+04 0.  0.
        2    1    3    3  502    0 -0.92992409486E+02 -0.10502314316E+03  0.34389706229E+03  0.37140629811E+03  0.25500000920E-02 0.  1.
       -2    1    3    3    0  502  0.92992409486E+02  0.10502314316E+03 -0.66388920614E+03  0.67854721786E+03  0.25500000920E-02 0. -1.
</event>
<event>
 5   0  0.1430675E-04  0.9986729E+03  0.7818609E-02  0.9310002E-01
       -1   -1    0    0    0  501  0.00000000000E+00  0.00000000000E+00  0.11279633357E+03  0.11279633368E+03  0.50400001928E-02 0. -1.
        1   -1    0    0  501    0  0.00000000000E+00  0.00000000000E+00 -0.22105053395E+04  0.22105053395E+04  0.50400001928E-02 0.  1.
    10030    2    1    2    0    0  0.00000000000E+00  0.00000000000E+00 -0.20977090060E+04  0.23233016732E+04  0.99867291497E+03 0.  0.
        5    1    3    3  502    0 -0.23263063217E+03  0.31390188429E+03 -0.32556297932E+03  0.50859094318E+03  0.46999998093E+01 0. -1.
       -5    1    3    3    0  502  0.23263063217E+03 -0.31390188429E+03 -0.17721460266E+04  0.18147107300E+04  0.46999998093E+01 0.  1.
</event>
<event>
 5   0  0.1414165E-04  0.1000034E+04  0.7818609E-02  0.9308507E-01
       -1   -1    0    0    0  501  0.00000000000E+00  0.00000000000E+00  0.29510447881E+03  0.29510447885E+03  0.50400001928E-02 0.  1.
        1   -1    0    0  501    0  0.00000000000E+00  0.00000000000E+00 -0.84721597568E+03  0.84721597569E+03  0.50400001928E-02 0. -1.
    10030    2    1    2    0    0  0.00000000000E+00  0.00000000000E+00 -0.55211149687E+03  0.11423204545E+04  0.10000344574E+04 0.  0.
        4    1    3    3  502    0  0.45282899283E+03  0.10448926142E+03 -0.65294783972E+02  0.46929428317E+03  0.12699999809E+01 0.  1.
       -4    1    3    3    0  502 -0.45282899283E+03 -0.10448926142E+03 -0.48681671290E+03  0.67302617138E+03  0.12699999809E+01 0. -1.
</event>
<event>
 5   0  0.1430675E-04  0.9999159E+03  0.7818609E-02  0.9308637E-01
       -1   -1    0    0    0  501  0.00000000000E+00  0.00000000000E+00  0.60873768881E+03  0.60873768883E+03  0.50400001928E-02 0.  1.
        1   -1    0    0  501    0  0.00000000000E+00  0.00000000000E+00 -0.41061682264E+03  0.41061682267E+03  0.50400001928E-02 0. -1.
    10030    2    1    2    0    0  0.00000000000E+00  0.00000000000E+00  0.19812086617E+03  0.10193545115E+04  0.99991586771E+03 0.  0.
        5    1    3    3  502    0  0.29771578401E+03 -0.24704029681E+03  0.42187428926E+03  0.57241907920E+03  0.46999998093E+01 0.  1.
       -5    1    3    3    0  502 -0.29771578401E+03  0.24704029681E+03 -0.22375342309E+03  0.44693543229E+03  0.46999998093E+01 0. -1.
</event>
<event>
 5   0  0.2403037E-04  0.9999575E+03  0.7818609E-02  0.9308591E-01
        2   -1    0    0  501    0  0.00000000000E+00  0.00000000000E+00  0.11145573802E+04  0.11145573802E+04  0.25500000920E-02 0. -1.
       -2   -1    0    0    0  501  0.00000000000E+00  0.00000000000E+00 -0.22428522413E+03  0.22428522415E+03  0.25500000920E-02 0.  1.
    10030    2    1    2    0    0  0.00000000000E+00  0.00000000000E+00  0.89027215605E+03  0.13388426043E+04  0.99995750277E+03 0.  0.
        1    1    3    3  502    0  0.55032628039E+00 -0.45799886518E+03  0.17663585265E+03  0.49088031925E+03  0.50400001928E-02 0.  1.
       -1    1    3    3    0  502 -0.55032628039E+00  0.45799886518E+03  0.71363630341E+03  0.84796228509E+03  0.50400001928E-02 0. -1.
</event>
<event>
 5   0  0.2484904E-04  0.9997073E+03  0.7818609E-02  0.9308866E-01
       -2   -1    0    0    0  501  0.00000000000E+00  0.00000000000E+00  0.82021288156E+03  0.82021288157E+03  0.25500000920E-02 0.  1.
        2   -1    0    0  501    0  0.00000000000E+00  0.00000000000E+00 -0.30462053194E+03  0.30462053195E+03  0.25500000920E-02 0. -1.
    10030    2    1    2    0    0  0.00000000000E+00  0.00000000000E+00  0.51559234962E+03  0.11248334135E+04  0.99970732576E+03 0.  0.
        3    1    3    3  502    0 -0.25737260231E+02 -0.86701993946E+02  0.81093014084E+03  0.81595793142E+03  0.10100000352E+00 0.  1.
       -3    1    3    3    0  502  0.25737260231E+02  0.86701993946E+02 -0.29533779122E+03  0.30887548210E+03  0.10100000352E+00 0. -1.
</event>
<event>
 5   0  0.2473312E-04  0.1003613E+04  0.7818609E-02  0.9304590E-01
        2   -1    0    0  501    0  0.00000000000E+00  0.00000000000E+00  0.99104605201E+03  0.99104605201E+03  0.25500000920E-02 0.  1.
       -2   -1    0    0    0  501  0.00000000000E+00  0.00000000000E+00 -0.25408505849E+03  0.25408505850E+03  0.25500000920E-02 0. -1.
    10030    2    1    2    0    0  0.00000000000E+00  0.00000000000E+00  0.73696099352E+03  0.12451311105E+04  0.10036134597E+04 0.  0.
        5    1    3    3  502    0  0.33356984742E+03 -0.10671307135E+03 -0.77344593132E+02  0.35869318197E+03  0.46999998093E+01 0. -1.
       -5    1    3    3    0  502 -0.33356984742E+03  0.10671307135E+03  0.81430558665E+03  0.88643792854E+03  0.46999998093E+01 0.  1.
</event>
<event>
 5   0  0.1430675E-04  0.1000087E+04  0.7818609E-02  0.9308450E-01
       -1   -1    0    0    0  501  0.00000000000E+00  0.00000000000E+00  0.60606874394E+03  0.60606874396E+03  0.50400001928E-02 0.  1.
        1   -1    0    0  501    0  0.00000000000E+00  0.00000000000E+00 -0.41256595142E+03  0.41256595145E+03  0.50400001928E-02 0. -1.
    10030    2    1    2    0    0  0.00000000000E+00  0.00000000000E+00  0.19350279252E+03  0.10186346954E+04  0.10000866522E+04 0.  0.
        5    1    3    3  502    0 -0.33858786529E+02 -0.30889741738E+03  0.49575284909E+03  0.58511281755E+03  0.46999998093E+01 0.  1.
       -5    1    3    3    0  502  0.33858786529E+02  0.30889741738E+03 -0.30225005657E+03  0.43352187785E+03  0.46999998093E+01 0. -1.
</event>
<event>
 5   0  0.2484904E-04  0.9998309E+03  0.7818609E-02  0.9308730E-01
       -2   -1    0    0    0  501  0.00000000000E+00  0.00000000000E+00  0.19158869958E+03  0.19158869960E+03  0.25500000920E-02 0.  1.
        2   -1    0    0  501    0  0.00000000000E+00  0.00000000000E+00 -0.13044372590E+04  0.13044372590E+04  0.25500000920E-02 0. -1.
    10030    2    1    2    0    0  0.00000000000E+00  0.00000000000E+00 -0.11128485594E+04  0.14960259586E+04  0.99983086200E+03 0.  0.
        3    1    3    3  502    0  0.12338007451E+03 -0.15960482671E+03  0.12798082467E+03  0.23890467802E+03  0.10100000352E+00 0.  1.
       -3    1    3    3    0  502 -0.12338007451E+03  0.15960482671E+03 -0.12408293841E+04  0.12571212806E+04  0.10100000352E+00 0. -1.
</event>
<event>
 5   0  0.2353916E-04  0.1000214E+04  0.7818609E-02  0.9308310E-01
       -2   -1    0    0    0  501  0.00000000000E+00  0.00000000000E+00  0.65470304513E+03  0.65470304514E+03  0.25500000920E-02 0. -1.
        2   -1    0    0  501    0  0.00000000000E+00  0.00000000000E+00 -0.38201580951E+03  0.38201580952E+03  0.25500000920E-02 0.  1.
    10030    2    1    2    0    0  0.00000000000E+00  0.00000000000E+00  0.27268723562E+03  0.10367188547E+04  0.10002138047E+04 0.  0.
        4    1    3    3  502    0 -0.27382754786E+03  0.88611423021E+02 -0.28757208661E+03  0.40685725771E+03  0.12699999809E+01 0.  1.
       -4    1    3    3    0  502  0.27382754786E+03 -0.88611423021E+02  0.56025932223E+03  0.62986159694E+03  0.12699999809E+01 0. -1.
</event>
<event>
 5   0  0.2473312E-04  0.9999971E+03  0.7818609E-02  0.9308548E-01
       -2   -1    0    0    0  501  0.00000000000E+00  0.00000000000E+00  0.45434251001E+03  0.45434251002E+03  0.25500000920E-02 0.  1.
        2   -1    0    0  501    0  0.00000000000E+00  0.00000000000E+00 -0.55024247377E+03  0.55024247378E+03  0.25500000920E-02 0. -1.
    10030    2    1    2    0    0  0.00000000000E+00  0.00000000000E+00 -0.95899963763E+02  0.10045849838E+04  0.99999709330E+03 0.  0.
        5    1    3    3  502    0 -0.17209141529E+03  0.39971374743E+03 -0.29522949654E+03  0.52589835589E+03  0.46999998093E+01 0. -1.
       -5    1    3    3    0  502  0.17209141529E+03 -0.39971374743E+03  0.19932953277E+03  0.47868662791E+03  0.46999998093E+01 0.  1.
</event>
<event>
 5   0  0.1430675E-04  0.9991113E+03  0.7818609E-02  0.9309520E-01
        1   -1    0    0  501    0  0.00000000000E+00  0.00000000000E+00  0.56197707019E+03  0.56197707022E+03  0.50400001928E-02 0. -1.
       -1   -1    0    0    0  501  0.00000000000E+00  0.00000000000E+00 -0.44406766759E+03  0.44406766762E+03  0.50400001928E-02 0.  1.
    10030    2    1    2    0    0  0.00000000000E+00  0.00000000000E+00  0.11790940260E+03  0.10060447378E+04  0.99911129876E+03 0.  0.
        5    1    3    3  502    0 -0.21881917770E+03 -0.19205784754E+03  0.46768500431E+03  0.55092595018E+03  0.46999998093E+01 0. -1.
       -5    1    3    3    0  502  0.21881917770E+03  0.19205784754E+03 -0.34977560171E+03  0.45511878766E+03  0.46999998093E+01 0.  1.
</event>
<event>
 5   0  0.2484904E-04  0.1000315E+04  0.7818609E-02  0.9308200E-01
        2   -1    0    0  501    0  0.00000000000E+00  0.00000000000E+00  0.22691205360E+04  0.22691205360E+04  0.25500000920E-02 0. -1.
       -2   -1    0    0    0  501  0.00000000000E+00  0.00000000000E+00 -0.11024417818E+03  0.11024417821E+03  0.25500000920E-02 0.  1.
    10030    2    1    2    0    0  0.00000000000E+00  0.00000000000E+00  0.21588763579E+04  0.23793647143E+04  0.10003146080E+04 0.  0.
        3    1    3    3  502    0 -0.20744430517E+03  0.27881344477E+03  0.22383944512E+03  0.41336930719E+03  0.10100000352E+00 0.  1.
       -3    1    3    3    0  502  0.20744430517E+03 -0.27881344477E+03  0.19350369127E+04  0.19659954071E+04  0.10100000352E+00 0. -1.
</event>
<event>
 5   0  0.2403037E-04  0.1000084E+04  0.7818609E-02  0.9308452E-01
       -2   -1    0    0    0  501  0.00000000000E+00  0.00000000000E+00  0.21025481487E+03  0.21025481488E+03  0.25500000920E-02 0. -1.
        2   -1    0    0  501    0  0.00000000000E+00  0.00000000000E+00 -0.11892340130E+04  0.11892340130E+04  0.25500000920E-02 0.  1.
    10030    2    1    2    0    0  0.00000000000E+00  0.00000000000E+00 -0.97897919815E+03  0.13994888279E+04  0.10000843510E+04 0.  0.
        1    1    3    3  502    0 -0.45231611918E+03 -0.21210627433E+03 -0.51960807531E+03  0.72081307926E+03  0.50400001928E-02 0.  1.
       -1    1    3    3    0  502  0.45231611918E+03  0.21210627433E+03 -0.45937112283E+03  0.67867574864E+03  0.50400001928E-02 0. -1.
</event>
<event>
 5   0  0.2353916E-04  0.1001814E+04  0.7818609E-02  0.9306557E-01
       -2   -1    0    0    0  501  0.00000000000E+00  0.00000000000E+00  0.17063341226E+03  0.17063341228E+03  0.25500000920E-02 0. -1.
        2   -1    0    0  501    0  0.00000000000E+00  0.00000000000E+00 -0.14704503671E+04  0.14704503671E+04  0.25500000920E-02 0.  1.
    10030    2    1    2    0    0  0.00000000000E+00  0.00000000000E+00 -0.12998169548E+04  0.16410837794E+04  0.10018142816E+04 0.  0.
        4    1    3    3  502    0 -0.29048514015E+03 -0.12305671979E+03 -0.12872619186E+04  0.13253563419E+04  0.12699999809E+01 0.  1.
       -4    1    3    3    0  502  0.29048514015E+03  0.12305671979E+03 -0.12555036195E+02  0.31572743747E+03  0.12699999809E+01 0. -1.
</event>
<event>
 5   0  0.2403037E-04  0.9998414E+03  0.7818609E-02  0.9308719E-01
        2   -1    0    0  501    0  0.00000000000E+00  0.00000000000E+00  0.13091820931E+04  0.13091820931E+04  0.25500000920E-02 0. -1.
       -2   -1    0    0    0  501  0.00000000000E+00  0.00000000000E+00 -0.19089835987E+03  0.19089835989E+03  0.25500000920E-02 0.  1.
    10030    2    1    2    0    0  0.00000000000E+00  0.00000000000E+00  0.11182837332E+04  0.15000804530E+04  0.99984141613E+03 0.  0.
        1    1    3    3  502    0 -0.83753545321E+02 -0.26910050196E+03 -0.60347890977E+02  0.28822145041E+03  0.50400001928E-02 0.  1.
       -1    1    3    3    0  502  0.83753545321E+02  0.26910050196E+03  0.11786316242E+04  0.12118590025E+04  0.50400001928E-02 0. -1.
</event>
<event>
 5   0  0.2484904E-04  0.1000056E+04  0.7818609E-02  0.9308483E-01
        2   -1    0    0  501    0  0.00000000000E+00  0.00000000000E+00  0.31379885327E+03  0.31379885328E+03  0.25500000920E-02 0. -1.
       -2   -1    0    0    0  501  0.00000000000E+00  0.00000000000E+00 -0.79677827666E+03  0.79677827666E+03  0.25500000920E-02 0.  1.
    10030    2    1    2    0    0  0.00000000000E+00  0.00000000000E+00 -0.48297942339E+03  0.11105771299E+04  0.10000562175E+04 0.  0.
        3    1    3    3  502    0  0.49853603090E+03  0.12223814704E+01 -0.19864584424E+03  0.53665617480E+03  0.10100000352E+00 0.  1.
       -3    1    3    3    0  502 -0.49853603090E+03 -0.12223814704E+01 -0.28433357915E+03  0.57392095514E+03  0.10100000352E+00 0. -1.
</event>
<event>
 5   0  0.2503680E-04  0.1004063E+04  0.7818609E-02  0.9304100E-01
       -2   -1    0    0    0  501  0.00000000000E+00  0.00000000000E+00  0.11343537552E+03  0.11343537555E+03  0.25500000920E-02 0.  1.
        2   -1    0    0  501    0  0.00000000000E+00  0.00000000000E+00 -0.22218415578E+04  0.22218415578E+04  0.25500000920E-02 0. -1.
    10030    2    1    2    0    0  0.00000000000E+00  0.00000000000E+00 -0.21084061823E+04  0.23352769334E+04  0.10040626106E+04 0.  0.
        2    1    3    3  502    0 -0.41064170868E+03  0.18941404440E+03 -0.15612716731E+04  0.16254456405E+04  0.25500000920E-02 0.  1.
       -2    1    3    3    0  502  0.41064170868E+03 -0.18941404440E+03 -0.54713450921E+03  0.70983129284E+03  0.25500000920E-02 0. -1.
</event>
<event>
 5   0  0.2403037E-04  0.9997416E+03  0.7818609E-02  0.9308828E-01
       -2   -1    0    0    0  501  0.00000000000E+00  0.00000000000E+00  0.45162425818E+03  0.45162425818E+03  0.25500000920E-02 0. -1.
        2   -1    0    0  501    0  0.00000000000E+00  0.00000000000E+00 -0.55327141904E+03  0.55327141904E+03  0.25500000920E-02 0.  1.
    10030    2    1    2    0    0  0.00000000000E+00  0.00000000000E+00 -0.10164716086E+03  0.10048956772E+04  0.99974155500E+03 0.  0.
        1    1    3    3  502    0 -0.37652770673E+03  0.21521824491E+03 -0.30065837537E+03  0.52771911618E+03  0.50400001928E-02 0.  1.
       -1    1    3    3    0  502  0.37652770673E+03 -0.21521824491E+03  0.19901121451E+03  0.47717656104E+03  0.50400001928E-02 0. -1.
</event>
<event>
 5   0  0.2503680E-04  0.9999428E+03  0.7818609E-02  0.9308608E-01
        2   -1    0    0  501    0  0.00000000000E+00  0.00000000000E+00  0.17235445311E+04  0.17235445311E+04  0.25500000920E-02 0.  1.
       -2   -1    0    0    0  501  0.00000000000E+00  0.00000000000E+00 -0.14503331954E+03  0.14503331956E+03  0.25500000920E-02 0. -1.
    10030    2    1    2    0    0  0.00000000000E+00  0.00000000000E+00  0.15785112116E+04  0.18685778507E+04  0.99994276786E+03 0.  0.
        2    1    3    3  502    0 -0.47409844245E+03  0.88871610616E+02  0.10350703372E+04  0.11419448758E+04  0.25500000920E-02 0.  1.
       -2    1    3    3    0  502  0.47409844245E+03 -0.88871610616E+02  0.54344087436E+03  0.72663297492E+03  0.25500000920E-02 0. -1.
</event>
<event>
 5   0  0.1453863E-04  0.9985989E+03  0.7818609E-02  0.9310083E-01
        1   -1    0    0  501    0  0.00000000000E+00  0.00000000000E+00  0.12329147990E+04  0.12329147991E+04  0.50400001928E-02 0. -1.
       -1   -1    0    0    0  501  0.00000000000E+00  0.00000000000E+00 -0.20220370672E+03  0.20220370679E+03  0.50400001928E-02 0.  1.
    10030    2    1    2    0    0  0.00000000000E+00  0.00000000000E+00  0.10307110923E+04  0.14351185058E+04  0.99859890345E+03 0.  0.
        1    1    3    3  502    0 -0.20963066296E+03 -0.29404924297E+03  0.19826302810E+02  0.36166704917E+03  0.50400001928E-02 0.  1.
       -1    1    3    3    0  502  0.20963066296E+03  0.29404924297E+03  0.10108847895E+04  0.10734514567E+04  0.50400001928E-02 0. -1.
</event>
<event>
 5   0  0.1461334E-04  0.9991086E+03  0.7818609E-02  0.9309523E-01
       -1   -1    0    0    0  501  0.00000000000E+00  0.00000000000E+00  0.39749618693E+03  0.39749618696E+03  0.50400001928E-02 0.  1.
        1   -1    0    0  501    0  0.00000000000E+00  0.00000000000E+00 -0.62781612639E+03  0.62781612641E+03  0.50400001928E-02 0. -1.
    10030    2    1    2    0    0  0.00000000000E+00  0.00000000000E+00 -0.23031993946E+03  0.10253123134E+04  0.99910863545E+03 0.  0.
        2    1    3    3  502    0  0.29235273887E+03  0.14537726736E+03  0.27284322459E+03  0.42549747239E+03  0.25500000920E-02 0.  1.
       -2    1    3    3    0  502 -0.29235273887E+03 -0.14537726736E+03 -0.50316316405E+03  0.59981484098E+03  0.25500000920E-02 0. -1.
</event>
<event>
 5   0  0.1414165E-04  0.1001614E+04  0.7818609E-02  0.9306776E-01
        1   -1    0    0  501    0  0.00000000000E+00  0.00000000000E+00  0.16516840283E+04  0.16516840283E+04  0.50400001928E-02 0. -1.
       -1   -1    0    0    0  501  0.00000000000E+00  0.00000000000E+00 -0.15184976281E+03  0.15184976290E+03  0.50400001928E-02 0.  1.
    10030    2    1    2    0    0  0.00000000000E+00  0.00000000000E+00  0.14998342655E+04  0.18035337912E+04  0.10016143530E+04 0.  0.
        4    1    3    3  502    0 -0.35990203519E+03  0.20716800643E+03  0.24587614770E+03  0.48260206250E+03  0.12699999809E+01 0.  1.
       -4    1    3    3    0  502  0.35990203519E+03 -0.20716800643E+03  0.12539581178E+04  0.13209317287E+04  0.12699999809E+01 0. -1.
</event>
<event>
 5   0  0.1430675E-04  0.1004067E+04  0.7818609E-02  0.9304095E-01
       -1   -1    0    0    0  501  0.00000000000E+00  0.00000000000E+00  0.33368834048E+03  0.33368834052E+03  0.50400001928E-02 0.  1.
        1   -1    0    0  501    0  0.00000000000E+00  0.00000000000E+00 -0.75530848963E+03  0.75530848964E+03  0.50400001928E-02 0. -1.
    10030    2    1    2    0    0  0.00000000000E+00  0.00000000000E+00 -0.42162014914E+03  0.10889968302E+04  0.10040670027E+04 0.  0.
        5    1    3    3  502    0  0.41452911999E+02 -0.42738473461E+03  0.71264594195E+02  0.43528931491E+03  0.46999998093E+01 0.  1.
       -5    1    3    3    0  502 -0.41452911999E+02  0.42738473461E+03 -0.49288474334E+03  0.65370751526E+03  0.46999998093E+01 0. -1.
</event>
<event>
 5   0  0.2484904E-04  0.9996751E+03  0.7818609E-02  0.9308901E-01
       -2   -1    0    0    0  501  0.00000000000E+00  0.00000000000E+00  0.37890530619E+03  0.37890530620E+03  0.25500000920E-02 0.  1.
        2   -1    0    0  501    0  0.00000000000E+00  0.00000000000E+00 -0.65936683796E+03  0.65936683796E+03  0.25500000920E-02 0. -1.
    10030    2    1    2    0    0  0.00000000000E+00  0.00000000000E+00 -0.28046153177E+03  0.10382721442E+04  0.99967513450E+03 0.  0.
        3    1    3    3  502    0 -0.15677920694E+03 -0.12945185979E+03 -0.61447867557E+03  0.64724149794E+03  0.10100000352E+00 0. -1.
       -3    1    3    3    0  502  0.15677920694E+03  0.12945185979E+03  0.33401714380E+03  0.39103064622E+03  0.10100000352E+00 0.  1.
</event>
<event>
 5   0  0.9650500E-05  0.9999858E+03  0.7818609E-02  0.9308560E-01
       -3   -1    0    0    0  501  0.00000000000E+00  0.00000000000E+00  0.10577331244E+04  0.10577331292E+04  0.10100000352E+00 0.  1.
        3   -1    0    0  501    0  0.00000000000E+00  0.00000000000E+00 -0.23634776522E+03  0.23634778680E+03  0.10100000352E+00 0. -1.
    10030    2    1    2    0    0  0.00000000000E+00  0.00000000000E+00  0.82138535920E+03  0.12940809160E+04  0.99998575437E+03 0.  0.
        4    1    3    3  502    0 -0.10139829739E+03  0.36464101753E+03  0.83350204665E+03  0.91540808444E+03  0.12699999809E+01 0.  1.
       -4    1    3    3    0  502  0.10139829739E+03 -0.36464101753E+03 -0.12116687449E+02  0.37867283160E+03  0.12699999809E+01 0. -1.
</event>
<event>
 5   0  0.2484904E-04  0.9998829E+03  0.7818609E-02  0.9308673E-01
       -2   -1    0    0    0  501  0.00000000000E+00  0.00000000000E+00  0.57792431494E+03  0.57792431495E+03  0.25500000920E-02 0.  1.
        2   -1    0    0  501    0  0.00000000000E+00  0.00000000000E+00 -0.43248129783E+03  0.43248129784E+03  0.25500000920E-02 0. -1.
    10030    2    1    2    0    0  0.00000000000E+00  0.00000000000E+00  0.14544301711E+03  0.10104056128E+04  0.99988290871E+03 0.  0.
        3    1    3    3  502    0 -0.34183812139E+03 -0.10352048752E+03 -0.28077654106E+03  0.45431846626E+03  0.10100000352E+00 0. -1.
       -3    1    3    3    0  502  0.34183812139E+03  0.10352048752E+03  0.42621955817E+03  0.55608714653E+03  0.10100000352E+00 0.  1.
</event>
<event>
 5   0  0.1506454E-04  0.9997979E+03  0.7818609E-02  0.9308766E-01
        1   -1    0    0  501    0  0.00000000000E+00  0.00000000000E+00  0.55716837686E+03  0.55716837688E+03  0.50400001928E-02 0. -1.
       -1   -1    0    0    0  501  0.00000000000E+00  0.00000000000E+00 -0.44851608716E+03  0.44851608719E+03  0.50400001928E-02 0.  1.
    10030    2    1    2    0    0  0.00000000000E+00  0.00000000000E+00  0.10865228970E+03  0.10056844641E+04  0.99979794020E+03 0.  0.
        3    1    3    3  502    0  0.16991494977E+03 -0.52286791649E+02 -0.41564411305E+03  0.45206751448E+03  0.10100000352E+00 0.  1.
       -3    1    3    3    0  502 -0.16991494977E+03  0.52286791649E+02  0.52429640275E+03  0.55361694959E+03  0.10100000352E+00 0. -1.
</event>
<event>
 5   0  0.1461334E-04  0.9994681E+03  0.7818609E-02  0.9309128E-01
        1   -1    0    0  501    0  0.00000000000E+00  0.00000000000E+00  0.17501418086E+03  0.17501418093E+03  0.50400001928E-02 0. -1.
       -1   -1    0    0    0  501  0.00000000000E+00  0.00000000000E+00 -0.14269364001E+04  0.14269364001E+04  0.50400001928E-02 0.  1.
    10030    2    1    2    0    0  0.00000000000E+00  0.00000000000E+00 -0.12519222192E+04  0.16019505810E+04  0.99946806905E+03 0.  0.
        2    1    3    3  502    0  0.44581472561E+03 -0.10435168638E+03 -0.30502379450E+03  0.55016321146E+03  0.25500000920E-02 0. -1.
       -2    1    3    3    0  502 -0.44581472561E+03  0.10435168638E+03 -0.94689842475E+03  0.10517873696E+04  0.25500000920E-02 0.  1.
</event>
<event>
 5   0  0.1430675E-04  0.9981649E+03  0.7818609E-02  0.9310560E-01
        1   -1    0    0  501    0  0.00000000000E+00  0.00000000000E+00  0.34958331043E+03  0.34958331047E+03  0.50400001928E-02 0. -1.
       -1   -1    0    0    0  501  0.00000000000E+00  0.00000000000E+00 -0.71251479088E+03  0.71251479090E+03  0.50400001928E-02 0.  1.
    10030    2    1    2    0    0  0.00000000000E+00  0.00000000000E+00 -0.36293148045E+03  0.10620981014E+04  0.99816487487E+03 0.  0.
        5    1    3    3  502    0  0.76188326323E+02 -0.48619307149E+03 -0.26967821556E+03  0.56119229661E+03  0.46999998093E+01 0. -1.
       -5    1    3    3    0  502 -0.76188326323E+02  0.48619307149E+03 -0.93253264893E+02  0.50090580476E+03  0.46999998093E+01 0.  1.
</event>
<event>
 5   0  0.2353916E-04  0.9992791E+03  0.7818609E-02  0.9309336E-01
       -2   -1    0    0    0  501  0.00000000000E+00  0.00000000000E+00  0.23929946098E+03  0.23929946100E+03  0.25500000920E-02 0.  1.
        2   -1    0    0  501    0  0.00000000000E+00  0.00000000000E+00 -0.10432104356E+04  0.10432104356E+04  0.25500000920E-02 0. -1.
    10030    2    1    2    0    0  0.00000000000E+00  0.00000000000E+00 -0.80391097461E+03  0.12825098966E+04  0.99927913006E+03 0.  0.
        4    1    3    3  502    0 -0.15318120549E+03 -0.46550360443E+03 -0.52691748299E+03  0.71958441773E+03  0.12699999809E+01 0.  1.
       -4    1    3    3    0  502  0.15318120549E+03  0.46550360443E+03 -0.27699349163E+03  0.56292547887E+03  0.12699999809E+01 0. -1.
</event>
<event>
 5   0  0.2353916E-04  0.1000482E+04  0.7818609E-02  0.9308017E-01
        2   -1    0    0  501    0  0.00000000000E+00  0.00000000000E+00  0.12163285707E+04  0.12163285707E+04  0.25500000920E-02 0.  1.
       -2   -1    0    0    0  501  0.00000000000E+00  0.00000000000E+00 -0.20573460488E+03  0.20573460489E+03  0.25500000920E-02 0. -1.
    10030    2    1    2    0    0  0.00000000000E+00  0.00000000000E+00  0.10105939658E+04  0.14220631756E+04  0.10004816398E+04 0.  0.
        4    1    3    3  502    0  0.35436453966E+02  0.25780021809E+03 -0.10195376067E+03  0.27948680995E+03  0.12699999809E+01 0. -1.
       -4    1    3    3    0  502 -0.35436453966E+02 -0.25780021809E+03  0.11125477265E+04  0.11425763657E+04  0.12699999809E+01 0.  1.
</event>
<event>
 5   0  0.2484904E-04  0.1001638E+04  0.7818609E-02  0.9306750E-01
       -2   -1    0    0    0  501  0.00000000000E+00  0.00000000000E+00  0.85643376861E+03  0.85643376861E+03  0.25500000920E-02 0.  1.
        2   -1    0    0  501    0  0.00000000000E+00  0.00000000000E+00 -0.29286537181E+03  0.29286537182E+03  0.25500000920E-02 0. -1.
    10030    2    1    2    0    0  0.00000000000E+00  0.00000000000E+00  0.56356839680E+03  0.11492991404E+04  0.10016382462E+04 0.  0.
        3    1    3    3  502    0  0.24940735712E+03  0.25563091113E+03  0.68463886550E+03  0.77219270837E+03  0.10100000352E+00 0.  1.
       -3    1    3    3    0  502 -0.24940735712E+03 -0.25563091113E+03 -0.12107046870E+03  0.37710643206E+03  0.10100000352E+00 0. -1.
</event>
<event>
 5   0  0.1414165E-04  0.9999663E+03  0.7818609E-02  0.9308582E-01
        1   -1    0    0  501    0  0.00000000000E+00  0.00000000000E+00  0.94016822637E+03  0.94016822638E+03  0.50400001928E-02 0. -1.
       -1   -1    0    0    0  501  0.00000000000E+00  0.00000000000E+00 -0.26589192018E+03  0.26589192023E+03  0.50400001928E-02 0.  1.
    10030    2    1    2    0    0  0.00000000000E+00  0.00000000000E+00  0.67427630619E+03  0.12060601466E+04  0.99996626952E+03 0.  0.
        4    1    3    3  502    0  0.33883822810E+02  0.48245993628E+03  0.18426365465E+03  0.51756198748E+03  0.12699999809E+01 0.  1.
       -4    1    3    3    0  502 -0.33883822810E+02 -0.48245993628E+03  0.49001265154E+03  0.68849815913E+03  0.12699999809E+01 0. -1.
</event>
<event>
 5   0  0.2353916E-04  0.9994412E+03  0.7818609E-02  0.9309158E-01
       -2   -1    0    0    0  501  0.00000000000E+00  0.00000000000E+00  0.14127343102E+03  0.14127343104E+03  0.25500000920E-02 0.  1.
        2   -1    0    0  501    0  0.00000000000E+00  0.00000000000E+00 -0.17676408587E+04  0.17676408587E+04  0.25500000920E-02 0. -1.
    10030    2    1    2    0    0  0.00000000000E+00  0.00000000000E+00 -0.16263674277E+04  0.19089142897E+04  0.99944122176E+03 0.  0.
        4    1    3    3  502    0  0.30837753943E+03  0.38058727154E+03 -0.10020276563E+04  0.11153494586E+04  0.12699999809E+01 0. -1.
       -4    1    3    3    0  502 -0.30837753943E+03 -0.38058727154E+03 -0.62433977142E+03  0.79356483110E+03  0.12699999809E+01 0.  1.
</event>
<event>
 5   0  0.1414165E-04  0.9999960E+03  0.7818609E-02  0.9308549E-01
        1   -1    0    0  501    0  0.00000000000E+00  0.00000000000E+00  0.11599994765E+04  0.11599994766E+04  0.50400001928E-02 0.  1.
       -1   -1    0    0    0  501  0.00000000000E+00  0.00000000000E+00 -0.21551561494E+03  0.21551561500E+03  0.50400001928E-02 0. -1.
    10030    2    1    2    0    0  0.00000000000E+00  0.00000000000E+00  0.94448386160E+03  0.13755150916E+04  0.99999600113E+03 0.  0.
        4    1    3    3  502    0 -0.16170655752E+03 -0.36360761147E+03  0.88863380685E+03  0.97366891778E+03  0.12699999809E+01 0.  1.
       -4    1    3    3    0  502  0.16170655752E+03  0.36360761147E+03  0.55850054749E+02  0.40184617378E+03  0.12699999809E+01 0. -1.
</event>
<event>
 5   0  0.2403037E-04  0.1000384E+04  0.7818609E-02  0.9308124E-01
       -2   -1    0    0    0  501  0.00000000000E+00  0.00000000000E+00  0.13368590721E+03  0.13368590724E+03  0.25500000920E-02 0.  1.
        2   -1    0    0  501    0  0.00000000000E+00  0.00000000000E+00 -0.18714914037E+04  0.18714914037E+04  0.25500000920E-02 0. -1.
    10030    2    1    2    0    0  0.00000000000E+00  0.00000000000E+00 -0.17378054964E+04  0.20051773109E+04  0.10003839786E+04 0.  0.
        1    1    3    3  502    0 -0.17400715538E+03 -0.15509437633E+03  0.18167718026E+02  0.23380081629E+03  0.50400001928E-02 0.  1.
       -1    1    3    3    0  502  0.17400715538E+03  0.15509437633E+03 -0.17559732145E+04  0.17713764946E+04  0.50400001928E-02 0. -1.
</event>
<event>
 5   0  0.2473312E-04  0.1000038E+04  0.7818609E-02  0.9308503E-01
        2   -1    0    0  501    0  0.00000000000E+00  0.00000000000E+00  0.69281489271E+03  0.69281489272E+03  0.25500000920E-02 0. -1.
       -2   -1    0    0    0  501  0.00000000000E+00  0.00000000000E+00 -0.36087409262E+03  0.36087409263E+03  0.25500000920E-02 0.  1.
    10030    2    1    2    0    0  0.00000000000E+00  0.00000000000E+00  0.33194080009E+03  0.10536889854E+04  0.10000378908E+04 0.  0.
        5    1    3    3  502    0  0.20549667522E+03 -0.20055059401E+03  0.59725591469E+03  0.66271120552E+03  0.46999998093E+01 0. -1.
       -5    1    3    3    0  502 -0.20549667522E+03  0.20055059401E+03 -0.26531511460E+03  0.39097777983E+03  0.46999998093E+01 0.  1.
</event>
<event>
 5   0  0.1414165E-04  0.1002108E+04  0.7818609E-02  0.9306236E-01
       -1   -1    0    0    0  501  0.00000000000E+00  0.00000000000E+00  0.44812037092E+03  0.44812037095E+03  0.50400001928E-02 0.  1.
        1   -1    0    0  501    0  0.00000000000E+00  0.00000000000E+00 -0.56024015517E+03  0.56024015519E+03  0.50400001928E-02 0. -1.
    10030    2    1    2    0    0  0.00000000000E+00  0.00000000000E+00 -0.11211978424E+03  0.10083605261E+04  0.10021078309E+04 0.  0.
        4    1    3    3  502    0  0.40917386416E+02 -0.29512901076E+03  0.34929112538E+03  0.45910921215E+03  0.12699999809E+01 0.  1.
       -4    1    3    3    0  502 -0.40917386416E+02  0.29512901076E+03 -0.46141090963E+03  0.54925131400E+03  0.12699999809E+01 0. -1.
</event>
<event>
 5   0  0.1453863E-04  0.1000484E+04  0.7818609E-02  0.9308014E-01
        1   -1    0    0  501    0  0.00000000000E+00  0.00000000000E+00  0.51333408360E+03  0.51333408363E+03  0.50400001928E-02 0. -1.
       -1   -1    0    0    0  501  0.00000000000E+00  0.00000000000E+00 -0.48748421654E+03  0.48748421656E+03  0.50400001928E-02 0.  1.
    10030    2    1    2    0    0  0.00000000000E+00  0.00000000000E+00  0.25849867067E+02  0.10008183002E+04  0.10004844099E+04 0.  0.
        1    1    3    3  502    0 -0.39161656215E+03 -0.28306759017E+03 -0.11654573486E+03  0.49706508697E+03  0.50400001928E-02 0. -1.
       -1    1    3    3    0  502  0.39161656215E+03  0.28306759017E+03  0.14239560192E+03  0.50375321321E+03  0.50400001928E-02 0.  1.
</event>
<event>
 5   0  0.1414165E-04  0.9990806E+03  0.7818609E-02  0.9309554E-01
       -1   -1    0    0    0  501  0.00000000000E+00  0.00000000000E+00  0.46740571437E+03  0.46740571440E+03  0.50400001928E-02 0. -1.
        1   -1    0    0  501    0  0.00000000000E+00  0.00000000000E+00 -0.53388412074E+03  0.53388412076E+03  0.50400001928E-02 0.  1.
    10030    2    1    2    0    0  0.00000000000E+00  0.00000000000E+00 -0.66478406365E+02  0.10012898352E+04  0.99908055505E+03 0.  0.
        4    1    3    3  502    0  0.74302081886E+02  0.24300874526E+03  0.39778720104E+03  0.47202788039E+03  0.12699999809E+01 0. -1.
       -4    1    3    3    0  502 -0.74302081886E+02 -0.24300874526E+03 -0.46426560741E+03  0.52926195477E+03  0.12699999809E+01 0.  1.
</event>
<event>
 5   0  0.2353916E-04  0.9993923E+03  0.7818609E-02  0.9309212E-01
       -2   -1    0    0    0  501  0.00000000000E+00  0.00000000000E+00  0.36590379837E+03  0.36590379838E+03  0.25500000920E-02 0. -1.
        2   -1    0    0  501    0  0.00000000000E+00  0.00000000000E+00 -0.68240958147E+03  0.68240958147E+03  0.25500000920E-02 0.  1.
    10030    2    1    2    0    0  0.00000000000E+00  0.00000000000E+00 -0.31650578310E+03  0.10483133798E+04  0.99939233119E+03 0.  0.
        4    1    3    3  502    0  0.32834218843E+03  0.16954892586E+03  0.19457401338E+03  0.41763152485E+03  0.12699999809E+01 0. -1.
       -4    1    3    3    0  502 -0.32834218843E+03 -0.16954892586E+03 -0.51107979648E+03  0.63068185500E+03  0.12699999809E+01 0.  1.
</event>
<event>
 5   0  0.1453863E-04  0.9998405E+03  0.7818609E-02  0.9308720E-01
       -1   -1    0    0    0  501  0.00000000000E+00  0.00000000000E+00  0.10870598699E+04  0.10870598699E+04  0.50400001928E-02 0. -1.
        1   -1    0    0  501    0  0.00000000000E+00  0.00000000000E+00 -0.22990476053E+03  0.22990476058E+03  0.50400001928E-02 0.  1.
    10030    2    1    2    0    0  0.00000000000E+00  0.00000000000E+00  0.85715510934E+03  0.13169646305E+04  0.99984046549E+03 0.  0.
        1    1    3    3  502    0 -0.18611552838E+03  0.91150878008E+02  0.10278164632E+04  0.10485009082E+04  0.50400001928E-02 0. -1.
       -1    1    3    3    0  502  0.18611552838E+03 -0.91150878008E+02 -0.17066135383E+03  0.26846372229E+03  0.50400001928E-02 0.  1.
</event>
<event>
 5   0  0.2403037E-04  0.9998466E+03  0.7818609E-02  0.9308713E-01
        2   -1    0    0  501    0  0.00000000000E+00  0.00000000000E+00  0.20538185805E+04  0.20538185805E+04  0.25500000920E-02 0.  1.
       -2   -1    0    0    0  501  0.00000000000E+00  0.00000000000E+00 -0.12168713487E+03  0.12168713490E+03  0.25500000920E-02 0. -1.
    10030    2    1    2    0    0  0.00000000000E+00  0.00000000000E+00  0.19321314456E+04  0.21755057154E+04  0.99984658551E+03 0.  0.
        1    1    3    3  502    0 -0.46753307648E+02 -0.47958413710E+03  0.12558405166E+04  0.13451104859E+04  0.50400001928E-02 0.  1.
       -1    1    3    3    0  502  0.46753307648E+02  0.47958413710E+03  0.67629092905E+03  0.83039522944E+03  0.50400001928E-02 0. -1.
</event>
<event>
 5   0  0.1430675E-04  0.1000143E+04  0.7818609E-02  0.9308388E-01
        1   -1    0    0  501    0  0.00000000000E+00  0.00000000000E+00  0.29593377625E+03  0.29593377630E+03  0.50400001928E-02 0.  1.
       -1   -1    0    0    0  501  0.00000000000E+00  0.00000000000E+00 -0.84502485740E+03  0.84502485741E+03  0.50400001928E-02 0. -1.
    10030    2    1    2    0    0  0.00000000000E+00  0.00000000000E+00 -0.54909108115E+03  0.11409586337E+04  0.10001427840E+04 0.  0.
        5    1    3    3  502    0 -0.42282792764E+03 -0.11472570186E+03 -0.54953142465E+03  0.70281741565E+03  0.46999998093E+01 0. -1.
       -5    1    3    3    0  502  0.42282792764E+03  0.11472570186E+03  0.44034350562E+00  0.43814121806E+03  0.46999998093E+01 0.  1.
</event>
<event>
 5   0  0.1430675E-04  0.9993000E+03  0.7818609E-02  0.9309313E-01
       -1   -1    0    0    0  501  0.00000000000E+00  0.00000000000E+00  0.91197883086E+03  0.91197883088E+03  0.50400001928E-02 0.  1.
        1   -1    0    0  501    0  0.00000000000E+00  0.00000000000E+00 -0.27374553387E+03  0.27374553392E+03  0.50400001928E-02 0. -1.
    10030    2    1    2    0    0  0.00000000000E+00  0.00000000000E+00  0.63823329699E+03  0.11857243648E+04  0.99930001895E+03 0.  0.
        5    1    3    3  502    0 -0.47367270119E+03 -0.10749953652E+02  0.50727692368E+03  0.69414217323E+03  0.46999998093E+01 0. -1.
       -5    1    3    3    0  502  0.47367270119E+03  0.10749953652E+02  0.13095637331E+03  0.49158219156E+03  0.46999998093E+01 0.  1.
</event>
<event>
 5   0  0.2484904E-04  0.9993382E+03  0.7818609E-02  0.9309271E-01
        2   -1    0    0  501    0  0.00000000000E+00  0.00000000000E+00  0.75436995588E+03  0.75436995589E+03  0.25500000920E-02 0. -1.
       -2   -1    0    0    0  501  0.00000000000E+00  0.00000000000E+00 -0.33096390201E+03  0.33096390202E+03  0.25500000920E-02 0.  1.
    10030    2    1    2    0    0  0.00000000000E+00  0.00000000000E+00  0.42340605387E+03  0.10853338579E+04  0.99933822937E+03 0.  0.
        3    1    3    3  502    0  0.39667274878E+03 -0.14801460787E+03  0.49988911961E+03  0.65509292156E+03  0.10100000352E+00 0. -1.
       -3    1    3    3    0  502 -0.39667274878E+03  0.14801460787E+03 -0.76483065745E+02  0.43024093635E+03  0.10100000352E+00 0.  1.
</event>
<event>
 5   0  0.1453863E-04  0.9999292E+03  0.7818609E-02  0.9308622E-01
        1   -1    0    0  501    0  0.00000000000E+00  0.00000000000E+00  0.49268110680E+03  0.49268110682E+03  0.50400001928E-02 0. -1.
       -1   -1    0    0    0  501  0.00000000000E+00  0.00000000000E+00 -0.50735577092E+03  0.50735577094E+03  0.50400001928E-02 0.  1.
    10030    2    1    2    0    0  0.00000000000E+00  0.00000000000E+00 -0.14674664122E+02  0.10000368778E+04  0.99992920306E+03 0.  0.
        1    1    3    3  502    0  0.25836375725E+03  0.28255374083E+03  0.31421891498E+03  0.49529988297E+03  0.50400001928E-02 0. -1.
       -1    1    3    3    0  502 -0.25836375725E+03 -0.28255374083E+03 -0.32889357910E+03  0.50473699480E+03  0.50400001928E-02 0.  1.
</event>
<event>
 5   0  0.1430675E-04  0.9981224E+03  0.7818609E-02  0.9310606E-01
        1   -1    0    0  501    0  0.00000000000E+00  0.00000000000E+00  0.39328321423E+03  0.39328321426E+03  0.50400001928E-02 0. -1.
       -1   -1    0    0    0  501  0.00000000000E+00  0.00000000000E+00 -0.63328941907E+03  0.63328941909E+03  0.50400001928E-02 0.  1.
    10030    2    1    2    0    0  0.00000000000E+00  0.00000000000E+00 -0.24000620484E+03  0.10265726334E+04  0.99812243396E+03 0.  0.
        5    1    3    3  502    0 -0.46773753822E+03  0.12253661350E+02  0.58469563292E+02  0.47156053345E+03  0.46999998093E+01 0. -1.
       -5    1    3    3    0  502  0.46773753822E+03 -0.12253661350E+02 -0.29847576813E+03  0.55501209990E+03  0.46999998093E+01 0.  1.
</event>
<event>
 5   0  0.9650500E-05  0.9998322E+03  0.7818609E-02  0.9308729E-01
        3   -1    0    0  501    0  0.00000000000E+00  0.00000000000E+00  0.38893104517E+03  0.38893105828E+03  0.10100000352E+00 0.  1.
       -3   -1    0    0    0  501  0.00000000000E+00  0.00000000000E+00 -0.64257173948E+03  0.64257174742E+03  0.10100000352E+00 0. -1.
    10030    2    1    2    0    0  0.00000000000E+00  0.00000000000E+00 -0.25364069432E+03  0.10315028057E+04  0.99983220410E+03 0.  0.
        4    1    3    3  502    0  0.24118822372E+03  0.43310988382E+03 -0.19334997033E+03  0.53211066016E+03  0.12699999809E+01 0.  1.
       -4    1    3    3    0  502 -0.24118822372E+03 -0.43310988382E+03 -0.60290723983E+02  0.49939214554E+03  0.12699999809E+01 0. -1.
</event>
<event>
 5   0  0.2473312E-04  0.9991919E+03  0.7818609E-02  0.9309432E-01
       -2   -1    0    0    0  501  0.00000000000E+00  0.00000000000E+00  0.31692620567E+03  0.31692620568E+03  0.25500000920E-02 0. -1.
        2   -1    0    0  501    0  0.00000000000E+00  0.00000000000E+00 -0.78755276551E+03  0.78755276551E+03  0.25500000920E-02 0.  1.
    10030    2    1    2    0    0  0.00000000000E+00  0.00000000000E+00 -0.47062655984E+03  0.11044789712E+04  0.99919189297E+03 0.  0.
        5    1    3    3  502    0  0.43190183947E+03 -0.25089130298E+03 -0.22492190528E+03  0.54781164493E+03  0.46999998093E+01 0. -1.
       -5    1    3    3    0  502 -0.43190183947E+03  0.25089130298E+03 -0.24570465456E+03  0.55666732625E+03  0.46999998093E+01 0.  1.
</event>
<event>
 5   0  0.1453863E-04  0.1000722E+04  0.7818609E-02  0.9307754E-01
       -1   -1    0    0    0  501  0.00000000000E+00  0.00000000000E+00  0.43959320219E+03  0.43959320222E+03  0.50400001928E-02 0.  1.
        1   -1    0    0  501    0  0.00000000000E+00  0.00000000000E+00 -0.56952857719E+03  0.56952857721E+03  0.50400001928E-02 0. -1.
    10030    2    1    2    0    0  0.00000000000E+00  0.00000000000E+00 -0.12993537500E+03  0.10091217794E+04  0.10007215217E+04 0.  0.
        1    1    3    3  502    0 -0.32769960194E+03  0.37490321681E+02 -0.44438173458E+03  0.55341456376E+03  0.50400001928E-02 0. -1.
       -1    1    3    3    0  502  0.32769960194E+03 -0.37490321681E+02  0.31444635958E+03  0.45570721566E+03  0.50400001928E-02 0.  1.
</event>
<event>
 5   0  0.1430675E-04  0.1001824E+04  0.7818609E-02  0.9306546E-01
       -1   -1    0    0    0  501  0.00000000000E+00  0.00000000000E+00  0.79720309266E+03  0.79720309268E+03  0.50400001928E-02 0.  1.
        1   -1    0    0  501    0  0.00000000000E+00  0.00000000000E+00 -0.31474163157E+03  0.31474163161E+03  0.50400001928E-02 0. -1.
    10030    2    1    2    0    0  0.00000000000E+00  0.00000000000E+00  0.48246146109E+03  0.11119447243E+04  0.10018243401E+04 0.  0.
        5    1    3    3  502    0  0.10071256533E+03  0.47300342322E+02  0.78328832542E+03  0.79116561726E+03  0.46999998093E+01 0.  1.
       -5    1    3    3    0  502 -0.10071256533E+03 -0.47300342322E+02 -0.30082686434E+03  0.32077910702E+03  0.46999998093E+01 0. -1.
</event>
<event>
 5   0  0.1506454E-04  0.9999535E+03  0.7818609E-02  0.9308596E-01
       -1   -1    0    0    0  501  0.00000000000E+00  0.00000000000E+00  0.36299557424E+03  0.36299557427E+03  0.50400001928E-02 0. -1.
        1   -1    0    0  501    0  0.00000000000E+00  0.00000000000E+00 -0.68864958254E+03  0.68864958256E+03  0.50400001928E-02 0.  1.
    10030    2    1    2    0    0  0.00000000000E+00  0.00000000000E+00 -0.32565400831E+03  0.10516451568E+04  0.99995350030E+03 0.  0.
        3    1    3    3  502    0  0.11083648215E+03 -0.16520564525E+03  0.31957751744E+03  0.37644047452E+03  0.10100000352E+00 0. -1.
       -3    1    3    3    0  502 -0.11083648215E+03  0.16520564525E+03 -0.64523152575E+03  0.67520468232E+03  0.10100000352E+00 0.  1.
</event>
<event>
 5   0  0.2353916E-04  0.9998355E+03  0.7818609E-02  0.9308725E-01
        2   -1    0    0  501    0  0.00000000000E+00  0.00000000000E+00  0.10304462087E+04  0.10304462087E+04  0.25500000920E-02 0. -1.
       -2   -1    0    0    0  501  0.00000000000E+00  0.00000000000E+00 -0.24253355385E+03  0.24253355386E+03  0.25500000920E-02 0.  1.
    10030    2    1    2    0    0  0.00000000000E+00  0.00000000000E+00  0.78791265487E+03  0.12729797626E+04  0.99983554860E+03 0.  0.
        4    1    3    3  502    0  0.35206737074E+03 -0.23230101927E+03  0.73559112715E+03  0.84794523192E+03  0.12699999809E+01 0. -1.
       -4    1    3    3    0  502 -0.35206737074E+03  0.23230101927E+03  0.52321527719E+02  0.42503453066E+03  0.12699999809E+01 0.  1.
</event>
<event>
 5   0  0.1461334E-04  0.9999377E+03  0.7818609E-02  0.9308613E-01
       -1   -1    0    0    0  501  0.00000000000E+00  0.00000000000E+00  0.18206066794E+03  0.18206066801E+03  0.50400001928E-02 0. -1.
        1   -1    0    0  501    0  0.00000000000E+00  0.00000000000E+00 -0.13729975463E+04  0.13729975463E+04  0.50400001928E-02 0.  1.
    10030    2    1    2    0    0  0.00000000000E+00  0.00000000000E+00 -0.11909368784E+04  0.15550582143E+04  0.99993769891E+03 0.  0.
        2    1    3    3  502    0 -0.30027613926E+03  0.15497018032E+03 -0.11685327205E+04  0.12164087453E+04  0.25500000920E-02 0.  1.
       -2    1    3    3    0  502  0.30027613926E+03 -0.15497018032E+03 -0.22404157823E+02  0.33864946905E+03  0.25500000920E-02 0. -1.
</event>
<event>
 5   0  0.1430675E-04  0.9999083E+03  0.7818609E-02  0.9308645E-01
       -1   -1    0    0    0  501  0.00000000000E+00  0.00000000000E+00  0.28744668515E+03  0.28744668519E+03  0.50400001928E-02 0. -1.
        1   -1    0    0  501    0  0.00000000000E+00  0.00000000000E+00 -0.86956702559E+03  0.86956702560E+03  0.50400001928E-02 0.  1.
    10030    2    1    2    0    0  0.00000000000E+00  0.00000000000E+00 -0.58212034044E+03  0.11570137108E+04  0.99990831390E+03 0.  0.
        5    1    3    3  502    0  0.24150008083E+03  0.83248372102E+02  0.20620456085E+03  0.32832147571E+03  0.46999998093E+01 0. -1.
       -5    1    3    3    0  502 -0.24150008083E+03 -0.83248372102E+02 -0.78832490129E+03  0.82869223508E+03  0.46999998093E+01 0.  1.
</event>
<event>
 5   0  0.2403037E-04  0.1001154E+04  0.7818609E-02  0.9307280E-01
       -2   -1    0    0    0  501  0.00000000000E+00  0.00000000000E+00  0.18372875741E+03  0.18372875742E+03  0.25500000920E-02 0. -1.
        2   -1    0    0  501    0  0.00000000000E+00  0.00000000000E+00 -0.13638435042E+04  0.13638435042E+04  0.25500000920E-02 0.  1.
    10030    2    1    2    0    0  0.00000000000E+00  0.00000000000E+00 -0.11801147468E+04  0.15475722617E+04  0.10011538790E+04 0.  0.
        1    1    3    3  502    0 -0.11402355241E+03  0.21580749662E+03 -0.12656271727E+04  0.12889477827E+04  0.50400001928E-02 0.  1.
       -1    1    3    3    0  502  0.11402355241E+03 -0.21580749662E+03  0.85512425922E+02  0.25862447896E+03  0.50400001928E-02 0. -1.
</event>
<event>
 5   0  0.2353916E-04  0.1000728E+04  0.7818609E-02  0.9307747E-01
        2   -1    0    0  501    0  0.00000000000E+00  0.00000000000E+00  0.56136936015E+03  0.56136936016E+03  0.25500000920E-02 0. -1.
       -2   -1    0    0    0  501  0.00000000000E+00  0.00000000000E+00 -0.44598834274E+03  0.44598834274E+03  0.25500000920E-02 0.  1.
    10030    2    1    2    0    0  0.00000000000E+00  0.00000000000E+00  0.11538101741E+03  0.10073577029E+04  0.10007281161E+04 0.  0.
        4    1    3    3  502    0 -0.46114358431E+03  0.18015510731E+03 -0.15269371249E+02  0.49532215238E+03  0.12699999809E+01 0. -1.
       -4    1    3    3    0  502  0.46114358431E+03 -0.18015510731E+03  0.13065038866E+03  0.51203555052E+03  0.12699999809E+01 0.  1.
</event>
<event>
 5   0  0.2353916E-04  0.9999717E+03  0.7818609E-02  0.9308576E-01
        2   -1    0    0  501    0  0.00000000000E+00  0.00000000000E+00  0.42051358033E+03  0.42051358034E+03  0.25500000920E-02 0. -1.
       -2   -1    0    0    0  501  0.00000000000E+00  0.00000000000E+00 -0.59447748890E+03  0.59447748890E+03  0.25500000920E-02 0.  1.
    10030    2    1    2    0    0  0.00000000000E+00  0.00000000000E+00 -0.17396390857E+03  0.10149910692E+04  0.99997171417E+03 0.  0.
        4    1    3    3  502    0 -0.91310103879E+02  0.82336746183E+02 -0.57889217634E+03  0.59180625172E+03  0.12699999809E+01 0.  1.
       -4    1    3    3    0  502  0.91310103879E+02 -0.82336746183E+02  0.40492826777E+03  0.42318481752E+03  0.12699999809E+01 0. -1.
</event>
<event>
 5   0  0.2503680E-04  0.1000481E+04  0.7818609E-02  0.9308017E-01
        2   -1    0    0  501    0  0.00000000000E+00  0.00000000000E+00  0.86316020771E+03  0.86316020771E+03  0.25500000920E-02 0.  1.
       -2   -1    0    0    0  501  0.00000000000E+00  0.00000000000E+00 -0.28991222347E+03  0.28991222348E+03  0.25500000920E-02 0. -1.
    10030    2    1    2    0    0  0.00000000000E+00  0.00000000000E+00  0.57324798424E+03  0.11530724312E+04  0.10004812743E+04 0.  0.
        2    1    3    3  502    0  0.26695005584E+03  0.99704972936E+02 -0.18722381327E+03  0.34096359073E+03  0.25500000920E-02 0. -1.
       -2    1    3    3    0  502 -0.26695005584E+03 -0.99704972936E+02  0.76047179751E+03  0.81210884046E+03  0.25500000920E-02 0.  1.
</event>
<event>
 5   0  0.2484904E-04  0.1000248E+04  0.7818609E-02  0.9308273E-01
        2   -1    0    0  501    0  0.00000000000E+00  0.00000000000E+00  0.74888340110E+03  0.74888340110E+03  0.25500000920E-02 0. -1.
       -2   -1    0    0    0  501  0.00000000000E+00  0.00000000000E+00 -0.33399608308E+03  0.33399608309E+03  0.25500000920E-02 0.  1.
    10030    2    1    2    0    0  0.00000000000E+00  0.00000000000E+00  0.41488731801E+03  0.10828794842E+04  0.10002482145E+04 0.  0.
        3    1    3    3  502    0  0.26248147354E+03  0.29654605263E+03  0.53810642586E+03  0.66812769815E+03  0.10100000352E+00 0. -1.
       -3    1    3    3    0  502 -0.26248147354E+03 -0.29654605263E+03 -0.12321910784E+03  0.41475178604E+03  0.10100000352E+00 0.  1.
</event>
<event>
 5   0  0.1506454E-04  0.9994969E+03  0.7818609E-02  0.9309097E-01
       -1   -1    0    0    0  501  0.00000000000E+00  0.00000000000E+00  0.13031672196E+03  0.13031672206E+03  0.50400001928E-02 0. -1.
        1   -1    0    0  501    0  0.00000000000E+00  0.00000000000E+00 -0.19164733913E+04  0.19164733913E+04  0.50400001928E-02 0.  1.
    10030    2    1    2    0    0  0.00000000000E+00  0.00000000000E+00 -0.17861566693E+04  0.20467901134E+04  0.99949693383E+03 0.  0.
        3    1    3    3  502    0  0.29807242033E+03  0.59949589863E+02 -0.80871912138E+02  0.31461309168E+03  0.10100000352E+00 0. -1.
       -3    1    3    3    0  502 -0.29807242033E+03 -0.59949589863E+02 -0.17052847572E+04  0.17321770217E+04  0.10100000352E+00 0.  1.
</event>
<event>
 5   0  0.1414165E-04  0.9993249E+03  0.7818609E-02  0.9309286E-01
        1   -1    0    0  501    0  0.00000000000E+00  0.00000000000E+00  0.13581905411E+04  0.13581905411E+04  0.50400001928E-02 0.  1.
       -1   -1    0    0    0  501  0.00000000000E+00  0.00000000000E+00 -0.18381996654E+03  0.18381996661E+03  0.50400001928E-02 0. -1.
    10030    2    1    2    0    0  0.00000000000E+00  0.00000000000E+00  0.11743705745E+04  0.15420105077E+04  0.99932485185E+03 0.  0.
        4    1    3    3  502    0 -0.26823755625E+03  0.22909497452E+03  0.11332275061E+04  0.11868622867E+04  0.12699999809E+01 0.  1.
       -4    1    3    3    0  502  0.26823755625E+03 -0.22909497452E+03  0.41143068402E+02  0.35514822104E+03  0.12699999809E+01 0. -1.
</event>
<event>
 5   0  0.2484904E-04  0.9947724E+03  0.7818609E-02  0.9314297E-01
       -2   -1    0    0    0  501  0.00000000000E+00  0.00000000000E+00  0.17066139095E+04  0.17066139095E+04  0.25500000920E-02 0.  1.
        2   -1    0    0  501    0  0.00000000000E+00  0.00000000000E+00 -0.14496133043E+03  0.14496133045E+03  0.25500000920E-02 0. -1.
    10030    2    1    2    0    0  0.00000000000E+00  0.00000000000E+00  0.15616525790E+04  0.18515752399E+04  0.99477238173E+03 0.  0.
        3    1    3    3  502    0 -0.21245158875E+03 -0.18953369966E+03  0.15399430287E+04  0.15660406262E+04  0.10100000352E+00 0.  1.
       -3    1    3    3    0  502  0.21245158875E+03  0.18953369966E+03  0.21709550303E+02  0.28553461374E+03  0.10100000352E+00 0. -1.
</event>
<event>
 5   0  0.2503680E-04  0.9998641E+03  0.7818609E-02  0.9308694E-01
       -2   -1    0    0    0  501  0.00000000000E+00  0.00000000000E+00  0.25605119974E+03  0.25605119975E+03  0.25500000920E-02 0.  1.
        2   -1    0    0  501    0  0.00000000000E+00  0.00000000000E+00 -0.97610177907E+03  0.97610177907E+03  0.25500000920E-02 0. -1.
    10030    2    1    2    0    0  0.00000000000E+00  0.00000000000E+00 -0.72005057933E+03  0.12321529788E+04  0.99986405397E+03 0.  0.
        2    1    3    3  502    0 -0.27783290552E+03  0.24583475849E+03  0.52951366095E+02  0.37473950826E+03  0.25500000920E-02 0.  1.
       -2    1    3    3    0  502  0.27783290552E+03 -0.24583475849E+03 -0.77300194542E+03  0.85741347056E+03  0.25500000920E-02 0. -1.
</event>
<event>
 5   0  0.1453863E-04  0.1003985E+04  0.7818609E-02  0.9304185E-01
       -1   -1    0    0    0  501  0.00000000000E+00  0.00000000000E+00  0.21469201207E+03  0.21469201213E+03  0.50400001928E-02 0. -1.
        1   -1    0    0  501    0  0.00000000000E+00  0.00000000000E+00 -0.11737587479E+04  0.11737587479E+04  0.50400001928E-02 0.  1.
    10030    2    1    2    0    0  0.00000000000E+00  0.00000000000E+00 -0.95906673581E+03  0.13884507600E+04  0.10039853133E+04 0.  0.
        1    1    3    3  502    0  0.30186757500E+03  0.21133256171E+03 -0.80927375759E+01  0.36857967511E+03  0.50400001928E-02 0. -1.
       -1    1    3    3    0  502 -0.30186757500E+03 -0.21133256171E+03 -0.95097399823E+03  0.10198710849E+04  0.50400001928E-02 0.  1.
</event>
<event>
 5   0  0.2403037E-04  0.1007305E+04  0.7818609E-02  0.9300569E-01
        2   -1    0    0  501    0  0.00000000000E+00  0.00000000000E+00  0.41496850113E+03  0.41496850114E+03  0.25500000920E-02 0. -1.
       -2   -1    0    0    0  501  0.00000000000E+00  0.00000000000E+00 -0.61128941750E+03  0.61128941751E+03  0.25500000920E-02 0.  1.
    10030    2    1    2    0    0  0.00000000000E+00  0.00000000000E+00 -0.19632091637E+03  0.10262579186E+04  0.10073050250E+04 0.  0.
        1    1    3    3  502    0 -0.19168403956E+03  0.26987862314E+03  0.28857175476E+03  0.43914792487E+03  0.50400001928E-02 0. -1.
       -1    1    3    3    0  502  0.19168403956E+03 -0.26987862314E+03 -0.48489267113E+03  0.58710999377E+03  0.50400001928E-02 0.  1.
</event>
<event>
 5   0  0.1461334E-04  0.1000823E+04  0.7818609E-02  0.9307643E-01
       -1   -1    0    0    0  501  0.00000000000E+00  0.00000000000E+00  0.32070042788E+03  0.32070042791E+03  0.50400001928E-02 0.  1.
        1   -1    0    0  501    0  0.00000000000E+00  0.00000000000E+00 -0.78082659431E+03  0.78082659433E+03  0.50400001928E-02 0. -1.
    10030    2    1    2    0    0  0.00000000000E+00  0.00000000000E+00 -0.46012616644E+03  0.11015270222E+04  0.10008225076E+04 0.  0.
        2    1    3    3  502    0 -0.40350883496E+03  0.22173003187E+02  0.94760960830E+02  0.41507910290E+03  0.25500000920E-02 0.  1.
       -2    1    3    3    0  502  0.40350883496E+03 -0.22173003187E+02 -0.55488712727E+03  0.68644791934E+03  0.25500000920E-02 0. -1.
</event>
<event>
 5   0  0.2473312E-04  0.9999111E+03  0.7818609E-02  0.9308642E-01
        2   -1    0    0  501    0  0.00000000000E+00  0.00000000000E+00  0.41722908677E+03  0.41722908678E+03  0.25500000920E-02 0. -1.
       -2   -1    0    0    0  501  0.00000000000E+00  0.00000000000E+00 -0.59908470223E+03  0.59908470223E+03  0.25500000920E-02 0.  1.
    10030    2    1    2    0    0  0.00000000000E+00  0.00000000000E+00 -0.18185561545E+03  0.10163137890E+04  0.99991112249E+03 0.  0.
        5    1    3    3  502    0  0.32766253087E+03 -0.16381371325E+03 -0.43670814197E+03  0.57002961155E+03  0.46999998093E+01 0.  1.
       -5    1    3    3    0  502 -0.32766253087E+03  0.16381371325E+03  0.25485252651E+03  0.44628417746E+03  0.46999998093E+01 0. -1.
</event>
<event>
 5   0  0.1461334E-04  0.1000011E+04  0.7818609E-02  0.9308533E-01
        1   -1    0    0  501    0  0.00000000000E+00  0.00000000000E+00  0.33784030738E+03  0.33784030741E+03  0.50400001928E-02 0. -1.
       -1   -1    0    0    0  501  0.00000000000E+00  0.00000000000E+00 -0.74001118549E+03  0.74001118551E+03  0.50400001928E-02 0.  1.
    10030    2    1    2    0    0  0.00000000000E+00  0.00000000000E+00 -0.40217087812E+03  0.10778514929E+04  0.10000112127E+04 0.  0.
        2    1    3    3  502    0 -0.64393167235E+02 -0.24820241044E+03 -0.66374690909E+03  0.71155525145E+03  0.25500000920E-02 0.  1.
       -2    1    3    3    0  502  0.64393167235E+02  0.24820241044E+03  0.26157603097E+03  0.36629624148E+03  0.25500000920E-02 0. -1.
</event>
<event>
 5   0  0.1453863E-04  0.9993811E+03  0.7818609E-02  0.9309224E-01
        1   -1    0    0  501    0  0.00000000000E+00  0.00000000000E+00  0.27963555189E+04  0.27963555189E+04  0.50400001928E-02 0.  1.
       -1   -1    0    0    0  501  0.00000000000E+00  0.00000000000E+00 -0.89291443614E+02  0.89291443757E+02  0.50400001928E-02 0. -1.
    10030    2    1    2    0    0  0.00000000000E+00  0.00000000000E+00  0.27070640753E+04  0.28856469627E+04  0.99938105116E+03 0.  0.
        1    1    3    3  502    0 -0.16840599237E+03 -0.32297348062E+03  0.23412631753E+04  0.23694272944E+04  0.50400001928E-02 0.  1.
       -1    1    3    3    0  502  0.16840599237E+03  0.32297348062E+03  0.36580090002E+03  0.51621966829E+03  0.50400001928E-02 0. -1.
</event>
<event>
 5   0  0.1430675E-04  0.9997973E+03  0.7818609E-02  0.9308767E-01
        1   -1    0    0  501    0  0.00000000000E+00  0.00000000000E+00  0.90125670042E+03  0.90125670043E+03  0.50400001928E-02 0. -1.
       -1   -1    0    0    0  501  0.00000000000E+00  0.00000000000E+00 -0.27727800525E+03  0.27727800530E+03  0.50400001928E-02 0.  1.
    10030    2    1    2    0    0  0.00000000000E+00  0.00000000000E+00  0.62397869516E+03  0.11785347057E+04  0.99979729975E+03 0.  0.
        5    1    3    3  502    0 -0.19741120341E+03  0.26510711481E+03  0.75402727071E+03  0.82330564223E+03  0.46999998093E+01 0. -1.
       -5    1    3    3    0  502  0.19741120341E+03 -0.26510711481E+03 -0.13004857555E+03  0.35522906350E+03  0.46999998093E+01 0.  1.
</event>
<event>
 5   0  0.2403037E-04  0.1000081E+04  0.7818609E-02  0.9308456E-01
       -2   -1    0    0    0  501  0.00000000000E+00  0.00000000000E+00  0.12555046503E+03  0.12555046505E+03  0.25500000920E-02 0.  1.
        2   -1    0    0  501    0  0.00000000000E+00  0.00000000000E+00 -0.19915549982E+04  0.19915549982E+04  0.25500000920E-02 0. -1.
    10030    2    1    2    0    0  0.00000000000E+00  0.00000000000E+00 -0.18660045332E+04  0.21171054633E+04  0.10000813091E+04 0.  0.
        1    1    3    3  502    0 -0.31128478827E+03 -0.21459422938E+03 -0.16257660845E+04  0.16691507614E+04  0.50400001928E-02 0. -1.
       -1    1    3    3    0  502  0.31128478827E+03  0.21459422938E+03 -0.24023844869E+03  0.44795470189E+03  0.50400001928E-02 0.  1.
</event>
<event>
 5   0  0.1506454E-04  0.9997717E+03  0.7818609E-02  0.9308795E-01
       -1   -1    0    0    0  501  0.00000000000E+00  0.00000000000E+00  0.43108688125E+03  0.43108688128E+03  0.50400001928E-02 0. -1.
        1   -1    0    0  501    0  0.00000000000E+00  0.00000000000E+00 -0.57966479321E+03  0.57966479323E+03  0.50400001928E-02 0.  1.
    10030    2    1    2    0    0  0.00000000000E+00  0.00000000000E+00 -0.14857791196E+03  0.10107516745E+04  0.99977174975E+03 0.  0.
        3    1    3    3  502    0 -0.21853354465E+03  0.60990607150E+02  0.37603434263E+03  0.43917946370E+03  0.10100000352E+00 0. -1.
       -3    1    3    3    0  502  0.21853354465E+03 -0.60990607150E+02 -0.52461225459E+03  0.57157221081E+03  0.10100000352E+00 0.  1.
</event>
<event>
 5   0  0.2503680E-04  0.9989975E+03  0.7818609E-02  0.9309645E-01
        2   -1    0    0  501    0  0.00000000000E+00  0.00000000000E+00  0.67441299503E+03  0.67441299503E+03  0.25500000920E-02 0.  1.
       -2   -1    0    0    0  501  0.00000000000E+00  0.00000000000E+00 -0.36994987773E+03  0.36994987774E+03  0.25500000920E-02 0. -1.
    10030    2    1    2    0    0  0.00000000000E+00  0.00000000000E+00  0.30446311729E+03  0.10443628728E+04  0.99899750762E+03 0.  0.
        2    1    3    3  502    0 -0.34883643268E+03 -0.21087436234E+03 -0.14957215856E+03  0.43419659611E+03  0.25500000920E-02 0. -1.
       -2    1    3    3    0  502  0.34883643268E+03  0.21087436234E+03  0.45403527585E+03  0.61016627666E+03  0.25500000920E-02 0.  1.
</event>
<event>
 5   0  0.1414165E-04  0.9999265E+03  0.7818609E-02  0.9308625E-01
        1   -1    0    0  501    0  0.00000000000E+00  0.00000000000E+00  0.11643042649E+04  0.11643042649E+04  0.50400001928E-02 0. -1.
       -1   -1    0    0    0  501  0.00000000000E+00  0.00000000000E+00 -0.21468895147E+03  0.21468895153E+03  0.50400001928E-02 0.  1.
    10030    2    1    2    0    0  0.00000000000E+00  0.00000000000E+00  0.94961531346E+03  0.13789932165E+04  0.99992652106E+03 0.  0.
        4    1    3    3  502    0  0.16123204302E+03 -0.47317454623E+03  0.48648738122E+03  0.69753961026E+03  0.12699999809E+01 0.  1.
       -4    1    3    3    0  502 -0.16123204302E+03  0.47317454623E+03  0.46312793225E+03  0.68145360622E+03  0.12699999809E+01 0. -1.
</event>
<event>
 5   0  0.1430675E-04  0.1000296E+04  0.7818609E-02  0.9308220E-01
       -1   -1    0    0    0  501  0.00000000000E+00  0.00000000000E+00  0.18871355798E+03  0.18871355805E+03  0.50400001928E-02 0. -1.
        1   -1    0    0  501    0  0.00000000000E+00  0.00000000000E+00 -0.13255447376E+04  0.13255447376E+04  0.50400001928E-02 0.  1.
    10030    2    1    2    0    0  0.00000000000E+00  0.00000000000E+00 -0.11368311796E+04  0.15142582956E+04  0.10002964835E+04 0.  0.
        5    1    3    3  502    0  0.29708322442E+03  0.34533078636E+03 -0.88091507345E+03  0.99173849924E+03  0.46999998093E+01 0.  1.
       -5    1    3    3    0  502 -0.29708322442E+03 -0.34533078636E+03 -0.25591610612E+03  0.52251979638E+03  0.46999998093E+01 0. -1.
</event>
<event>
 5   0  0.2473312E-04  0.1000138E+04  0.7818609E-02  0.9308394E-01
       -2   -1    0    0    0  501  0.00000000000E+00  0.00000000000E+00  0.24370403604E+03  0.24370403606E+03  0.25500000920E-02 0. -1.
        2   -1    0    0  501    0  0.00000000000E+00  0.00000000000E+00 -0.10261166285E+04  0.10261166285E+04  0.25500000920E-02 0.  1.
    10030    2    1    2    0    0  0.00000000000E+00  0.00000000000E+00 -0.78241259248E+03  0.12698206646E+04  0.10001375182E+04 0.  0.
        5    1    3    3  502    0  0.10155162224E+03  0.44835023111E+03 -0.14138585011E+03  0.48098098749E+03  0.46999998093E+01 0. -1.
       -5    1    3    3    0  502 -0.10155162224E+03 -0.44835023111E+03 -0.64102674237E+03  0.78883967709E+03  0.46999998093E+01 0.  1.
</event>
<event>
 5   0  0.1430675E-04  0.9999232E+03  0.7818609E-02  0.9308629E-01
        1   -1    0    0  501    0  0.00000000000E+00  0.00000000000E+00  0.74528433050E+03  0.74528433052E+03  0.50400001928E-02 0. -1.
       -1   -1    0    0    0  501  0.00000000000E+00  0.00000000000E+00 -0.33539090337E+03  0.33539090341E+03  0.50400001928E-02 0.  1.
    10030    2    1    2    0    0  0.00000000000E+00  0.00000000000E+00  0.40989342714E+03  0.10806752339E+04  0.99992316686E+03 0.  0.
        5    1    3    3  502    0  0.37571338525E+03 -0.12332886383E+03 -0.12564686935E+03  0.41494551725E+03  0.46999998093E+01 0.  1.
       -5    1    3    3    0  502 -0.37571338525E+03  0.12332886383E+03  0.53554029648E+03  0.66572971668E+03  0.46999998093E+01 0. -1.
</event>
<event>
 5   0  0.9650500E-05  0.1000032E+04  0.7818609E-02  0.9308510E-01
        4   -1    0    0  501    0  0.00000000000E+00  0.00000000000E+00  0.58369579572E+03  0.58369717735E+03  0.12699999809E+01 0. -1.
       -4   -1    0    0    0  501  0.00000000000E+00  0.00000000000E+00 -0.42832996933E+03  0.42833185210E+03  0.12699999809E+01 0.  1.
    10030    2    1    2    0    0  0.00000000000E+00  0.00000000000E+00  0.15536582639E+03  0.10120290294E+04  0.10000321077E+04 0.  0.
        5    1    3    3  502    0  0.10861790155E+03  0.13711317093E+03  0.55169942690E+03  0.57878512232E+03  0.46999998093E+01 0. -1.
       -5    1    3    3    0  502 -0.10861790155E+03 -0.13711317093E+03 -0.39633360050E+03  0.43324390713E+03  0.46999998093E+01 0.  1.
</event>
<event>
 5   0  0.2403037E-04  0.1000310E+04  0.7818609E-02  0.9308205E-01
        2   -1    0    0  501    0  0.00000000000E+00  0.00000000000E+00  0.93825096711E+03  0.93825096711E+03  0.25500000920E-02 0.  1.
       -2   -1    0    0    0  501  0.00000000000E+00  0.00000000000E+00 -0.26661857959E+03  0.26661857961E+03  0.25500000920E-02 0. -1.
    10030    2    1    2    0    0  0.00000000000E+00  0.00000000000E+00  0.67163238751E+03  0.12048695467E+04  0.10003102322E+04 0.  0.
        1    1    3    3  502    0  0.23409519419E+03 -0.18130863836E+03 -0.14970436120E+03  0.33179026217E+03  0.50400001928E-02 0. -1.
       -1    1    3    3    0  502 -0.23409519419E+03  0.18130863836E+03  0.82133674872E+03  0.87307928454E+03  0.50400001928E-02 0.  1.
</event>
<event>
 5   0  0.1414165E-04  0.1001147E+04  0.7818609E-02  0.9307287E-01
        1   -1    0    0  501    0  0.00000000000E+00  0.00000000000E+00  0.50105051978E+03  0.50105051981E+03  0.50400001928E-02 0. -1.
       -1   -1    0    0    0  501  0.00000000000E+00  0.00000000000E+00 -0.50009732456E+03  0.50009732459E+03  0.50400001928E-02 0.  1.
    10030    2    1    2    0    0  0.00000000000E+00  0.00000000000E+00  0.95319521665E+00  0.10011478444E+04  0.10011473906E+04 0.  0.
        4    1    3    3  502    0  0.71503123588E+02 -0.49235240408E+03 -0.54739594049E+02  0.50052135073E+03  0.12699999809E+01 0.  1.
       -4    1    3    3    0  502 -0.71503123588E+02  0.49235240408E+03  0.55692789266E+02  0.50062649366E+03  0.12699999809E+01 0. -1.
</event>
<event>
 5   0  0.2403037E-04  0.9999517E+03  0.7818609E-02  0.9308598E-01
       -2   -1    0    0    0  501  0.00000000000E+00  0.00000000000E+00  0.38310337428E+03  0.38310337429E+03  0.25500000920E-02 0.  1.
        2   -1    0    0  501    0  0.00000000000E+00  0.00000000000E+00 -0.65250232732E+03  0.65250232732E+03  0.25500000920E-02 0. -1.
    10030    2    1    2    0    0  0.00000000000E+00  0.00000000000E+00 -0.26939895303E+03  0.10356057016E+04  0.99995168550E+03 0.  0.
        1    1    3    3  502    0  0.68163124435E+02  0.39852987696E+02  0.37660552504E+03  0.38479370275E+03  0.50400001928E-02 0.  1.
       -1    1    3    3    0  502 -0.68163124435E+02 -0.39852987696E+02 -0.64600447807E+03  0.65081199887E+03  0.50400001928E-02 0. -1.
</event>
<event>
 5   0  0.2403037E-04  0.1000025E+04  0.7818609E-02  0.9308517E-01
       -2   -1    0    0    0  501  0.00000000000E+00  0.00000000000E+00  0.28322171867E+03  0.28322171868E+03  0.25500000920E-02 0. -1.
        2   -1    0    0  501    0  0.00000000000E+00  0.00000000000E+00 -0.88274462986E+03  0.88274462986E+03  0.25500000920E-02 0.  1.
    10030    2    1    2    0    0  0.00000000000E+00  0.00000000000E+00 -0.59952291119E+03  0.11659663485E+04  0.10000249021E+04 0.  0.
        1    1    3    3  502    0 -0.30375838269E+02 -0.22815694654E+03 -0.81730390039E+03  0.84909596008E+03  0.50400001928E-02 0.  1.
       -1    1    3    3    0  502  0.30375838269E+02  0.22815694654E+03  0.21778098919E+03  0.31687038847E+03  0.50400001928E-02 0. -1.
</event>
<event>
 5   0  0.1414165E-04  0.1000179E+04  0.7818609E-02  0.9308349E-01
        1   -1    0    0  501    0  0.00000000000E+00  0.00000000000E+00  0.37455695355E+03  0.37455695358E+03  0.50400001928E-02 0.  1.
       -1   -1    0    0    0  501  0.00000000000E+00  0.00000000000E+00 -0.66769403453E+03  0.66769403455E+03  0.50400001928E-02 0. -1.
    10030    2    1    2    0    0  0.00000000000E+00  0.00000000000E+00 -0.29313708098E+03  0.10422509881E+04  0.10001788710E+04 0.  0.
        4    1    3    3  502    0 -0.18684181378E+03  0.30051602152E+03 -0.51479956033E+03  0.62469187828E+03  0.12699999809E+01 0. -1.
       -4    1    3    3    0  502  0.18684181378E+03 -0.30051602152E+03  0.22166247935E+03  0.41755910985E+03  0.12699999809E+01 0.  1.
</event>
<event>
 5   0  0.1506454E-04  0.1000678E+04  0.7818609E-02  0.9307801E-01
       -1   -1    0    0    0  501  0.00000000000E+00  0.00000000000E+00  0.42427589537E+03  0.42427589540E+03  0.50400001928E-02 0.  1.
        1   -1    0    0  501    0  0.00000000000E+00  0.00000000000E+00 -0.59003877127E+03  0.59003877129E+03  0.50400001928E-02 0. -1.
    10030    2    1    2    0    0  0.00000000000E+00  0.00000000000E+00 -0.16576287590E+03  0.10143146667E+04  0.10006782260E+04 0.  0.
        3    1    3    3  502    0  0.32383997941E+03 -0.13754398350E+03 -0.44346574479E+03  0.56608529098E+03  0.10100000352E+00 0. -1.
       -3    1    3    3    0  502 -0.32383997941E+03  0.13754398350E+03  0.27770286889E+03  0.44822937571E+03  0.10100000352E+00 0.  1.
</event>
<event>
 5   0  0.9650500E-05  0.9998000E+03  0.7818609E-02  0.9308764E-01
       -3   -1    0    0    0  501  0.00000000000E+00  0.00000000000E+00  0.22975951973E+04  0.22975951995E+04  0.10100000352E+00 0. -1.
        3   -1    0    0  501    0  0.00000000000E+00  0.00000000000E+00 -0.10876586544E+03  0.10876591233E+03  0.10100000352E+00 0.  1.
    10030    2    1    2    0    0  0.00000000000E+00  0.00000000000E+00  0.21888293318E+04  0.24063611118E+04  0.99979995830E+03 0.  0.
        3    1    3    3  502    0 -0.48129478615E+03  0.15673127870E+02  0.77141620470E+03  0.90938071740E+03  0.10100000352E+00 0.  1.
       -3    1    3    3    0  502  0.48129478615E+03 -0.15673127870E+02  0.14174131271E+04  0.14969803944E+04  0.10100000352E+00 0. -1.
</event>
<event>
 5   0  0.2353916E-04  0.1003128E+04  0.7818609E-02  0.9305121E-01
       -2   -1    0    0    0  501  0.00000000000E+00  0.00000000000E+00  0.25222217189E+03  0.25222217190E+03  0.25500000920E-02 0.  1.
        2   -1    0    0  501    0  0.00000000000E+00  0.00000000000E+00 -0.99740023639E+03  0.99740023639E+03  0.25500000920E-02 0. -1.
    10030    2    1    2    0    0  0.00000000000E+00  0.00000000000E+00 -0.74517806450E+03  0.12496224083E+04  0.10031280155E+04 0.  0.
        4    1    3    3  502    0 -0.87362157211E+01 -0.62847429173E+02  0.24720018359E+03  0.25521689694E+03  0.12699999809E+01 0.  1.
       -4    1    3    3    0  502  0.87362157211E+01  0.62847429173E+02 -0.99237824809E+03  0.99440551135E+03  0.12699999809E+01 0. -1.
</event>
<event>
 5   0  0.1414165E-04  0.9996728E+03  0.7818609E-02  0.9308904E-01
        1   -1    0    0  501    0  0.00000000000E+00  0.00000000000E+00  0.33961034125E+03  0.33961034129E+03  0.50400001928E-02 0.  1.
       -1   -1    0    0    0  501  0.00000000000E+00  0.00000000000E+00 -0.73565605580E+03  0.73565605582E+03  0.50400001928E-02 0. -1.
    10030    2    1    2    0    0  0.00000000000E+00  0.00000000000E+00 -0.39604571454E+03  0.10752663971E+04  0.99967275483E+03 0.  0.
        4    1    3    3  502    0 -0.67739455144E+02  0.87793641306E+02 -0.72225683096E+03  0.73072080852E+03  0.12699999809E+01 0. -1.
       -4    1    3    3    0  502  0.67739455144E+02 -0.87793641306E+02  0.32621111642E+03  0.34454558858E+03  0.12699999809E+01 0.  1.
</event>
<event>
 5   0  0.1453863E-04  0.1000097E+04  0.7818609E-02  0.9308438E-01
        1   -1    0    0  501    0  0.00000000000E+00  0.00000000000E+00  0.71524293204E+03  0.71524293206E+03  0.50400001928E-02 0. -1.
       -1   -1    0    0    0  501  0.00000000000E+00  0.00000000000E+00 -0.34959940913E+03  0.34959940917E+03  0.50400001928E-02 0.  1.
    10030    2    1    2    0    0  0.00000000000E+00  0.00000000000E+00  0.36564352291E+03  0.10648423412E+04  0.10000970082E+04 0.  0.
        1    1    3    3  502    0 -0.15855937354E+03  0.37205229614E+03 -0.13029936761E+03  0.42490223725E+03  0.50400001928E-02 0.  1.
       -1    1    3    3    0  502  0.15855937354E+03 -0.37205229614E+03  0.49594289052E+03  0.63994010398E+03  0.50400001928E-02 0. -1.
</event>
<event>
 5   0  0.1430675E-04  0.9994001E+03  0.7818609E-02  0.9309203E-01
        1   -1    0    0  501    0  0.00000000000E+00  0.00000000000E+00  0.37738313287E+03  0.37738313291E+03  0.50400001928E-02 0.  1.
       -1   -1    0    0    0  501  0.00000000000E+00  0.00000000000E+00 -0.66166217658E+03  0.66166217660E+03  0.50400001928E-02 0. -1.
    10030    2    1    2    0    0  0.00000000000E+00  0.00000000000E+00 -0.28427904370E+03  0.10390453095E+04  0.99940011032E+03 0.  0.
        5    1    3    3  502    0 -0.21889359887E+03  0.15699560941E+03 -0.57968582915E+03  0.63923374403E+03  0.46999998093E+01 0. -1.
       -5    1    3    3    0  502  0.21889359887E+03 -0.15699560941E+03  0.29540678544E+03  0.39981156547E+03  0.46999998093E+01 0.  1.
</event>
<event>
 5   0  0.2353916E-04  0.9990457E+03  0.7818609E-02  0.9309592E-01
       -2   -1    0    0    0  501  0.00000000000E+00  0.00000000000E+00  0.33206601206E+03  0.33206601207E+03  0.25500000920E-02 0.  1.
        2   -1    0    0  501    0  0.00000000000E+00  0.00000000000E+00 -0.75142612357E+03  0.75142612357E+03  0.25500000920E-02 0. -1.
    10030    2    1    2    0    0  0.00000000000E+00  0.00000000000E+00 -0.41936011150E+03  0.10834921356E+04  0.99904569709E+03 0.  0.
        4    1    3    3  502    0  0.59153718052E+02  0.20095143683E+03 -0.70148747300E+03  0.73209762327E+03  0.12699999809E+01 0. -1.
       -4    1    3    3    0  502 -0.59153718052E+02 -0.20095143683E+03  0.28212736150E+03  0.35139451237E+03  0.12699999809E+01 0.  1.
</event>
<event>
 5   0  0.2503680E-04  0.9999665E+03  0.7818609E-02  0.9308582E-01
       -2   -1    0    0    0  501  0.00000000000E+00  0.00000000000E+00  0.38831811182E+03  0.38831811182E+03  0.25500000920E-02 0. -1.
        2   -1    0    0  501    0  0.00000000000E+00  0.00000000000E+00 -0.64375891260E+03  0.64375891261E+03  0.25500000920E-02 0.  1.
    10030    2    1    2    0    0  0.00000000000E+00  0.00000000000E+00 -0.25544080078E+03  0.10320770244E+04  0.99996649026E+03 0.  0.
        2    1    3    3  502    0 -0.49681714035E+03 -0.16574041083E+01 -0.69763611662E+02  0.50169410945E+03  0.25500000920E-02 0. -1.
       -2    1    3    3    0  502  0.49681714035E+03  0.16574041083E+01 -0.18567718912E+03  0.53038291498E+03  0.25500000920E-02 0.  1.
</event>
<event>
 5   0  0.1430675E-04  0.9930892E+03  0.7818609E-02  0.9316157E-01
        1   -1    0    0  501    0  0.00000000000E+00  0.00000000000E+00  0.69364582567E+03  0.69364582568E+03  0.50400001928E-02 0. -1.
       -1   -1    0    0    0  501  0.00000000000E+00  0.00000000000E+00 -0.35545021136E+03  0.35545021140E+03  0.50400001928E-02 0.  1.
    10030    2    1    2    0    0  0.00000000000E+00  0.00000000000E+00  0.33819561431E+03  0.10490960371E+04  0.99308923138E+03 0.  0.
        5    1    3    3  502    0 -0.47924131145E+03 -0.18723495639E+02  0.30484234461E+03  0.56830779420E+03  0.46999998093E+01 0. -1.
       -5    1    3    3    0  502  0.47924131145E+03  0.18723495639E+02  0.33353269699E+02  0.48078824288E+03  0.46999998093E+01 0.  1.
</event>
<event>
 5   0  0.1453863E-04  0.9997534E+03  0.7818609E-02  0.9308815E-01
        1   -1    0    0  501    0  0.00000000000E+00  0.00000000000E+00  0.33929861810E+03  0.33929861814E+03  0.50400001928E-02 0.  1.
       -1   -1    0    0    0  501  0.00000000000E+00  0.00000000000E+00 -0.73645068050E+03  0.73645068052E+03  0.50400001928E-02 0. -1.
    10030    2    1    2    0    0  0.00000000000E+00  0.00000000000E+00 -0.39715206240E+03  0.10757492987E+04  0.99975336604E+03 0.  0.
        1    1    3    3  502    0 -0.10867196595E+03  0.45570810048E+02  0.32413945612E+03  0.34489517531E+03  0.50400001928E-02 0.  1.
       -1    1    3    3    0  502  0.10867196595E+03 -0.45570810048E+02 -0.72129151852E+03  0.73085412335E+03  0.50400001928E-02 0. -1.
</event>
<event>
 5   0  0.2484904E-04  0.9991211E+03  0.7818609E-02  0.9309509E-01
        2   -1    0    0  501    0  0.00000000000E+00  0.00000000000E+00  0.12051349901E+04  0.12051349901E+04  0.25500000920E-02 0.  1.
       -2   -1    0    0    0  501  0.00000000000E+00  0.00000000000E+00 -0.20708117348E+03  0.20708117349E+03  0.25500000920E-02 0. -1.
    10030    2    1    2    0    0  0.00000000000E+00  0.00000000000E+00  0.99805381659E+03  0.14122161636E+04  0.99912114973E+03 0.  0.
        3    1    3    3  502    0 -0.19359962829E+03 -0.19034346671E+03 -0.93698241862E+02  0.28721215525E+03  0.10100000352E+00 0. -1.
       -3    1    3    3    0  502  0.19359962829E+03  0.19034346671E+03  0.10917520585E+04  0.11250040083E+04  0.10100000352E+00 0.  1.
</event>
<event>
 5   0  0.2353916E-04  0.1000083E+04  0.7818609E-02  0.9308454E-01
        2   -1    0    0  501    0  0.00000000000E+00  0.00000000000E+00  0.30562557764E+03  0.30562557765E+03  0.25500000920E-02 0.  1.
       -2   -1    0    0    0  501  0.00000000000E+00  0.00000000000E+00 -0.81812956366E+03  0.81812956366E+03  0.25500000920E-02 0. -1.
    10030    2    1    2    0    0  0.00000000000E+00  0.00000000000E+00 -0.51250398602E+03  0.11237551413E+04  0.10000826375E+04 0.  0.
        4    1    3    3  502    0 -0.16034424705E+03 -0.26706548726E+02  0.27510625491E+03  0.31954433448E+03  0.12699999809E+01 0.  1.
       -4    1    3    3    0  502  0.16034424705E+03  0.26706548726E+02 -0.78761024093E+03  0.80421080683E+03  0.12699999809E+01 0. -1.
</event>
<event>
 5   0  0.2353916E-04  0.1000048E+04  0.7818609E-02  0.9308492E-01
       -2   -1    0    0    0  501  0.00000000000E+00  0.00000000000E+00  0.96410125122E+03  0.96410125122E+03  0.25500000920E-02 0.  1.
        2   -1    0    0  501    0  0.00000000000E+00  0.00000000000E+00 -0.25933392784E+03  0.25933392785E+03  0.25500000920E-02 0. -1.
    10030    2    1    2    0    0  0.00000000000E+00  0.00000000000E+00  0.70476732338E+03  0.12234351791E+04  0.10000483275E+04 0.  0.
        4    1    3    3  502    0 -0.19192922849E+03 -0.43731675347E+03  0.53359113661E+03  0.71610326461E+03  0.12699999809E+01 0.  1.
       -4    1    3    3    0  502  0.19192922849E+03  0.43731675347E+03  0.17117618678E+03  0.50733191446E+03  0.12699999809E+01 0. -1.
</event>
<event>
 5   0  0.1506454E-04  0.1000111E+04  0.7818609E-02  0.9308423E-01
       -1   -1    0    0    0  501  0.00000000000E+00  0.00000000000E+00  0.27375114865E+03  0.27375114869E+03  0.50400001928E-02 0. -1.
        1   -1    0    0  501    0  0.00000000000E+00  0.00000000000E+00 -0.91344046419E+03  0.91344046421E+03  0.50400001928E-02 0.  1.
    10030    2    1    2    0    0  0.00000000000E+00  0.00000000000E+00 -0.63968931555E+03  0.11871916129E+04  0.10001107465E+04 0.  0.
        3    1    3    3  502    0 -0.45225700222E+03 -0.19981081113E+03 -0.23105597196E+03  0.54575418338E+03  0.10100000352E+00 0.  1.
       -3    1    3    3    0  502  0.45225700222E+03  0.19981081113E+03 -0.40863334359E+03  0.64143742952E+03  0.10100000352E+00 0. -1.
</event>
<event>
 5   0  0.1506454E-04  0.1000507E+04  0.7818609E-02  0.9307989E-01
       -1   -1    0    0    0  501  0.00000000000E+00  0.00000000000E+00  0.65314755389E+03  0.65314755391E+03  0.50400001928E-02 0.  1.
        1   -1    0    0  501    0  0.00000000000E+00  0.00000000000E+00 -0.38315024875E+03  0.38315024878E+03  0.50400001928E-02 0. -1.
    10030    2    1    2    0    0  0.00000000000E+00  0.00000000000E+00  0.26999730514E+03  0.10362978027E+04  0.10005071669E+04 0.  0.
        3    1    3    3  502    0  0.10683128487E+03 -0.40850181174E+03 -0.14286454202E+03  0.44575435072E+03  0.10100000352E+00 0. -1.
       -3    1    3    3    0  502 -0.10683128487E+03  0.40850181174E+03  0.41286184716E+03  0.59054345197E+03  0.10100000352E+00 0.  1.
</event>
<event>
 5   0  0.1453863E-04  0.1000649E+04  0.7818609E-02  0.9307834E-01
       -1   -1    0    0    0  501  0.00000000000E+00  0.00000000000E+00  0.16101575341E+03  0.16101575349E+03  0.50400001928E-02 0.  1.
        1   -1    0    0  501    0  0.00000000000E+00  0.00000000000E+00 -0.15546584151E+04  0.15546584151E+04  0.50400001928E-02 0. -1.
    10030    2    1    2    0    0  0.00000000000E+00  0.00000000000E+00 -0.13936426617E+04  0.17156741686E+04  0.10006487817E+04 0.  0.
        1    1    3    3  502    0  0.52259836716E+02 -0.77113308317E+02 -0.15396587225E+04  0.15424741602E+04  0.50400001928E-02 0. -1.
       -1    1    3    3    0  502 -0.52259836716E+02  0.77113308317E+02  0.14601606087E+03  0.17320000841E+03  0.50400001928E-02 0.  1.
</event>
<event>
 5   0  0.9650500E-05  0.1000071E+04  0.7818609E-02  0.9308467E-01
        4   -1    0    0  501    0  0.00000000000E+00  0.00000000000E+00  0.14010830160E+03  0.14011405739E+03  0.12699999809E+01 0. -1.
       -4   -1    0    0    0  501  0.00000000000E+00  0.00000000000E+00 -0.17845446230E+04  0.17845450749E+04  0.12699999809E+01 0.  1.
    10030    2    1    2    0    0  0.00000000000E+00  0.00000000000E+00 -0.16444363214E+04  0.19246591323E+04  0.10000709777E+04 0.  0.
        3    1    3    3  502    0  0.12998934187E+03 -0.45194671819E+03 -0.49514888353E+03  0.68288029123E+03  0.10100000352E+00 0. -1.
       -3    1    3    3    0  502 -0.12998934187E+03  0.45194671819E+03 -0.11492874378E+04  0.12417788410E+04  0.10100000352E+00 0.  1.
</event>
<event>
 5   0  0.2484904E-04  0.9998998E+03  0.7818609E-02  0.9308655E-01
       -2   -1    0    0    0  501  0.00000000000E+00  0.00000000000E+00  0.20500900878E+03  0.20500900880E+03  0.25500000920E-02 0.  1.
        2   -1    0    0  501    0  0.00000000000E+00  0.00000000000E+00 -0.12192143543E+04  0.12192143543E+04  0.25500000920E-02 0. -1.
    10030    2    1    2    0    0  0.00000000000E+00  0.00000000000E+00 -0.10142053455E+04  0.14242233631E+04  0.99989984756E+03 0.  0.
        3    1    3    3  502    0 -0.11982021700E+02 -0.16046988054E+03 -0.11813196198E+04  0.11922290911E+04  0.10100000352E+00 0. -1.
       -3    1    3    3    0  502  0.11982021700E+02  0.16046988054E+03  0.16711427423E+03  0.23199427203E+03  0.10100000352E+00 0.  1.
</event>
<event>
 5   0  0.2484904E-04  0.1000151E+04  0.7818609E-02  0.9308380E-01
        2   -1    0    0  501    0  0.00000000000E+00  0.00000000000E+00  0.69890835955E+03  0.69890835955E+03  0.25500000920E-02 0. -1.
       -2   -1    0    0    0  501  0.00000000000E+00  0.00000000000E+00 -0.35780849862E+03  0.35780849863E+03  0.25500000920E-02 0.  1.
    10030    2    1    2    0    0  0.00000000000E+00  0.00000000000E+00  0.34109986093E+03  0.10567168582E+04  0.10001506903E+04 0.  0.
        3    1    3    3  502    0  0.47044700383E+03 -0.12365107485E+03  0.29315327701E+03  0.56793382163E+03  0.10100000352E+00 0. -1.
       -3    1    3    3    0  502 -0.47044700383E+03  0.12365107485E+03  0.47946583912E+02  0.48878303656E+03  0.10100000352E+00 0.  1.
</event>
<event>
 5   0  0.9650500E-05  0.9999615E+03  0.7818609E-02  0.9308587E-01
       -3   -1    0    0    0  501  0.00000000000E+00  0.00000000000E+00  0.17852106616E+03  0.17852109474E+03  0.10100000352E+00 0.  1.
        3   -1    0    0  501    0  0.00000000000E+00  0.00000000000E+00 -0.14002868479E+04  0.14002868515E+04  0.10100000352E+00 0. -1.
    10030    2    1    2    0    0  0.00000000000E+00  0.00000000000E+00 -0.12217657817E+04  0.15788079463E+04  0.99996145216E+03 0.  0.
        5    1    3    3  502    0  0.21335355903E+03 -0.18130721457E+02  0.10242720292E+03  0.23740658396E+03  0.46999998093E+01 0.  1.
       -5    1    3    3    0  502 -0.21335355903E+03  0.18130721457E+02 -0.13241929847E+04  0.13414013623E+04  0.46999998093E+01 0. -1.
</event>
<event>
 5   0  0.1506454E-04  0.1000615E+04  0.7818609E-02  0.9307870E-01
        1   -1    0    0  501    0  0.00000000000E+00  0.00000000000E+00  0.20523339969E+04  0.20523339969E+04  0.50400001928E-02 0. -1.
       -1   -1    0    0    0  501  0.00000000000E+00  0.00000000000E+00 -0.12196250176E+03  0.12196250187E+03  0.50400001928E-02 0.  1.
    10030    2    1    2    0    0  0.00000000000E+00  0.00000000000E+00  0.19303714952E+04  0.21742964988E+04  0.10006153883E+04 0.  0.
        3    1    3    3  502    0  0.40610955253E+03  0.57625998404E+02  0.15876619909E+04  0.16397915513E+04  0.10100000352E+00 0. -1.
       -3    1    3    3    0  502 -0.40610955253E+03 -0.57625998404E+02  0.34270950431E+03  0.53450494749E+03  0.10100000352E+00 0.  1.
</event>
<event>
 5   0  0.2503680E-04  0.9998162E+03  0.7818609E-02  0.9308746E-01
        2   -1    0    0  501    0  0.00000000000E+00  0.00000000000E+00  0.24047246277E+04  0.24047246277E+04  0.25500000920E-02 0.  1.
       -2   -1    0    0    0  501  0.00000000000E+00  0.00000000000E+00 -0.10392379666E+03  0.10392379669E+03  0.25500000920E-02 0. -1.
    10030    2    1    2    0    0  0.00000000000E+00  0.00000000000E+00  0.23008008310E+04  0.25086484244E+04  0.99981620967E+03 0.  0.
        2    1    3    3  502    0 -0.94931457155E+01 -0.22853930676E+03  0.22657208702E+04  0.22772376679E+04  0.25500000920E-02 0.  1.
       -2    1    3    3    0  502  0.94931457155E+01  0.22853930676E+03  0.35079960833E+02  0.23141075647E+03  0.25500000920E-02 0. -1.
</event>
<event>
 5   0  0.2403037E-04  0.9999567E+03  0.7818609E-02  0.9308592E-01
        2   -1    0    0  501    0  0.00000000000E+00  0.00000000000E+00  0.10128049206E+04  0.10128049206E+04  0.25500000920E-02 0. -1.
       -2   -1    0    0    0  501  0.00000000000E+00  0.00000000000E+00 -0.24681787300E+03  0.24681787301E+03  0.25500000920E-02 0.  1.
    10030    2    1    2    0    0  0.00000000000E+00  0.00000000000E+00  0.76598704757E+03  0.12596227936E+04  0.99995671159E+03 0.  0.
        1    1    3    3  502    0 -0.36213199803E+03 -0.30761498804E+03  0.57900106135E+03  0.74900520288E+03  0.50400001928E-02 0. -1.
       -1    1    3    3    0  502  0.36213199803E+03  0.30761498804E+03  0.18698598622E+03  0.51061759070E+03  0.50400001928E-02 0.  1.
</event>
<event>
 5   0  0.2353916E-04  0.9997967E+03  0.7818609E-02  0.9308768E-01
        2   -1    0    0  501    0  0.00000000000E+00  0.00000000000E+00  0.77800782375E+03  0.77800782375E+03  0.25500000920E-02 0. -1.
       -2   -1    0    0    0  501  0.00000000000E+00  0.00000000000E+00 -0.32120285873E+03  0.32120285874E+03  0.25500000920E-02 0.  1.
    10030    2    1    2    0    0  0.00000000000E+00  0.00000000000E+00  0.45680496502E+03  0.10992106825E+04  0.99979665354E+03 0.  0.
        4    1    3    3  502    0  0.18836659197E+03 -0.29273172069E+03  0.62285719966E+03  0.71353103460E+03  0.12699999809E+01 0. -1.
       -4    1    3    3    0  502 -0.18836659197E+03  0.29273172069E+03 -0.16605223464E+03  0.38567964789E+03  0.12699999809E+01 0.  1.
</event>
<event>
 5   0  0.9650500E-05  0.9997156E+03  0.7818609E-02  0.9308857E-01
        3   -1    0    0  501    0  0.00000000000E+00  0.00000000000E+00  0.35300051289E+03  0.35300052734E+03  0.10100000352E+00 0.  1.
       -3   -1    0    0    0  501  0.00000000000E+00  0.00000000000E+00 -0.70781149704E+03  0.70781150425E+03  0.10100000352E+00 0. -1.
    10030    2    1    2    0    0  0.00000000000E+00  0.00000000000E+00 -0.35481098415E+03  0.10608120316E+04  0.99971562550E+03 0.  0.
        5    1    3    3  502    0 -0.12190500009E+03 -0.48027201755E+03 -0.10771282567E+03  0.50709583187E+03  0.46999998093E+01 0. -1.
       -5    1    3    3    0  502  0.12190500009E+03  0.48027201755E+03 -0.24709815848E+03  0.55371619971E+03  0.46999998093E+01 0.  1.
</event>
<event>
 5   0  0.1430675E-04  0.1002009E+04  0.7818609E-02  0.9306344E-01
        1   -1    0    0  501    0  0.00000000000E+00  0.00000000000E+00  0.20415572502E+03  0.20415572508E+03  0.50400001928E-02 0.  1.
       -1   -1    0    0    0  501  0.00000000000E+00  0.00000000000E+00 -0.12294802857E+04  0.12294802857E+04  0.50400001928E-02 0. -1.
    10030    2    1    2    0    0  0.00000000000E+00  0.00000000000E+00 -0.10253245607E+04  0.14336360108E+04  0.10020088606E+04 0.  0.
        5    1    3    3  502    0 -0.12906769176E+03  0.26716011485E+03  0.64894906474E+02  0.30375390518E+03  0.46999998093E+01 0.  1.
       -5    1    3    3    0  502  0.12906769176E+03 -0.26716011485E+03 -0.10902194671E+04  0.11298821056E+04  0.46999998093E+01 0. -1.
</event>
<event>
 5   0  0.2403037E-04  0.1000416E+04  0.7818609E-02  0.9308089E-01
       -2   -1    0    0    0  501  0.00000000000E+00  0.00000000000E+00  0.37680658276E+03  0.37680658277E+03  0.25500000920E-02 0.  1.
        2   -1    0    0  501    0  0.00000000000E+00  0.00000000000E+00 -0.66402234979E+03  0.66402234980E+03  0.25500000920E-02 0. -1.
    10030    2    1    2    0    0  0.00000000000E+00  0.00000000000E+00 -0.28721576703E+03  0.10408289326E+04  0.10004158985E+04 0.  0.
        1    1    3    3  502    0  0.11829052694E+02 -0.18415787643E+03  0.34009686606E+03  0.38693659464E+03  0.50400001928E-02 0.  1.
       -1    1    3    3    0  502 -0.11829052694E+02  0.18415787643E+03 -0.62731263310E+03  0.65389233793E+03  0.50400001928E-02 0. -1.
</event>
<event>
 5   0  0.2484904E-04  0.9997533E+03  0.7818609E-02  0.9308815E-01
        2   -1    0    0  501    0  0.00000000000E+00  0.00000000000E+00  0.29902678440E+03  0.29902678442E+03  0.25500000920E-02 0.  1.
       -2   -1    0    0    0  501  0.00000000000E+00  0.00000000000E+00 -0.83563299006E+03  0.83563299006E+03  0.25500000920E-02 0. -1.
    10030    2    1    2    0    0  0.00000000000E+00  0.00000000000E+00 -0.53660620565E+03  0.11346597745E+04  0.99975326150E+03 0.  0.
        3    1    3    3  502    0  0.49514472109E+03 -0.61399765401E+02 -0.30307025238E+03  0.58377205662E+03  0.10100000352E+00 0.  1.
       -3    1    3    3    0  502 -0.49514472109E+03  0.61399765401E+02 -0.23353595328E+03  0.55088771786E+03  0.10100000352E+00 0. -1.
</event>
<event>
 5   0  0.1414165E-04  0.9997929E+03  0.7818609E-02  0.9308772E-01
       -1   -1    0    0    0  501  0.00000000000E+00  0.00000000000E+00  0.90111778679E+03  0.90111778680E+03  0.50400001928E-02 0. -1.
        1   -1    0    0  501    0  0.00000000000E+00  0.00000000000E+00 -0.27731830796E+03  0.27731830800E+03  0.50400001928E-02 0.  1.
    10030    2    1    2    0    0  0.00000000000E+00  0.00000000000E+00  0.62379947883E+03  0.11784360948E+04  0.99979289843E+03 0.  0.
        4    1    3    3  502    0  0.34447035522E+03 -0.32221835836E+03  0.50704287845E+03  0.69251612946E+03  0.12699999809E+01 0. -1.
       -4    1    3    3    0  502 -0.34447035522E+03  0.32221835836E+03  0.11675660038E+03  0.48591996534E+03  0.12699999809E+01 0.  1.
</event>
<event>
 5   0  0.2473312E-04  0.9999298E+03  0.7818609E-02  0.9308622E-01
        2   -1    0    0  501    0  0.00000000000E+00  0.00000000000E+00  0.16683617542E+04  0.16683617542E+04  0.25500000920E-02 0. -1.
       -2   -1    0    0    0  501  0.00000000000E+00  0.00000000000E+00 -0.14982654912E+03  0.14982654914E+03  0.25500000920E-02 0.  1.
    10030    2    1    2    0    0  0.00000000000E+00  0.00000000000E+00  0.15185352050E+04  0.18181883033E+04  0.99992976618E+03 0.  0.
        5    1    3    3  502    0  0.20143069530E+03 -0.30614222473E+03  0.13776164537E+04  0.14255337844E+04  0.46999998093E+01 0. -1.
       -5    1    3    3    0  502 -0.20143069530E+03  0.30614222473E+03  0.14091875132E+03  0.39265451894E+03  0.46999998093E+01 0.  1.
</event>
<event>
 5   0  0.2503680E-04  0.1000048E+04  0.7818609E-02  0.9308492E-01
        2   -1    0    0  501    0  0.00000000000E+00  0.00000000000E+00  0.97010372567E+03  0.97010372567E+03  0.25500000920E-02 0. -1.
       -2   -1    0    0    0  501  0.00000000000E+00  0.00000000000E+00 -0.25772899574E+03  0.25772899575E+03  0.25500000920E-02 0.  1.
    10030    2    1    2    0    0  0.00000000000E+00  0.00000000000E+00  0.71237472993E+03  0.12278327214E+04  0.10000477168E+04 0.  0.
        2    1    3    3  502    0  0.24295051035E+03  0.42586205985E+03  0.23563760952E+03  0.54397474898E+03  0.25500000920E-02 0.  1.
       -2    1    3    3    0  502 -0.24295051035E+03 -0.42586205985E+03  0.47673712041E+03  0.68385797245E+03  0.25500000920E-02 0. -1.
</event>
<event>
 5   0  0.2503680E-04  0.1000199E+04  0.7818609E-02  0.9308326E-01
        2   -1    0    0  501    0  0.00000000000E+00  0.00000000000E+00  0.88090103092E+03  0.88090103093E+03  0.25500000920E-02 0.  1.
       -2   -1    0    0    0  501  0.00000000000E+00  0.00000000000E+00 -0.28391346852E+03  0.28391346853E+03  0.25500000920E-02 0. -1.
    10030    2    1    2    0    0  0.00000000000E+00  0.00000000000E+00  0.59698756240E+03  0.11648144995E+04  0.10001993144E+04 0.  0.
        2    1    3    3  502    0 -0.24526994291E+03 -0.37996100517E+03  0.54710404472E+03  0.70982430650E+03  0.25500000920E-02 0. -1.
       -2    1    3    3    0  502  0.24526994291E+03  0.37996100517E+03  0.49883517681E+02  0.45499019296E+03  0.25500000920E-02 0.  1.
</event>
<event>
 5   0  0.1506454E-04  0.9991799E+03  0.7818609E-02  0.9309445E-01
       -1   -1    0    0    0  501  0.00000000000E+00  0.00000000000E+00  0.27734422970E+03  0.27734422975E+03  0.50400001928E-02 0. -1.
        1   -1    0    0  501    0  0.00000000000E+00  0.00000000000E+00 -0.89992907134E+03  0.89992907135E+03  0.50400001928E-02 0.  1.
    10030    2    1    2    0    0  0.00000000000E+00  0.00000000000E+00 -0.62258484164E+03  0.11772733011E+04  0.99917993398E+03 0.  0.
        3    1    3    3  502    0  0.30059428580E+03  0.13240128900E+03  0.13223784955E+03  0.35408174909E+03  0.10100000352E+00 0. -1.
       -3    1    3    3    0  502 -0.30059428580E+03 -0.13240128900E+03 -0.75482269118E+03  0.82319155202E+03  0.10100000352E+00 0.  1.
</event>
<event>
 5   0  0.1461334E-04  0.1000060E+04  0.7818609E-02  0.9308479E-01
       -1   -1    0    0    0  501  0.00000000000E+00  0.00000000000E+00  0.46332434516E+03  0.46332434519E+03  0.50400001928E-02 0. -1.
        1   -1    0    0  501    0  0.00000000000E+00  0.00000000000E+00 -0.53964386982E+03  0.53964386984E+03  0.50400001928E-02 0.  1.
    10030    2    1    2    0    0  0.00000000000E+00  0.00000000000E+00 -0.76319524659E+02  0.10029682150E+04  0.10000602834E+04 0.  0.
        2    1    3    3  502    0 -0.40097780095E+03 -0.47117653771E+02  0.25770120867E+03  0.47897096270E+03  0.25500000920E-02 0. -1.
       -2    1    3    3    0  502  0.40097780095E+03  0.47117653771E+02 -0.33402073333E+03  0.52399725233E+03  0.25500000920E-02 0.  1.
</event>
<event>
 5   0  0.2403037E-04  0.9999279E+03  0.7818609E-02  0.9308624E-01
        2   -1    0    0  501    0  0.00000000000E+00  0.00000000000E+00  0.80229371732E+03  0.80229371732E+03  0.25500000920E-02 0. -1.
       -2   -1    0    0    0  501  0.00000000000E+00  0.00000000000E+00 -0.31156161879E+03  0.31156161880E+03  0.25500000920E-02 0.  1.
    10030    2    1    2    0    0  0.00000000000E+00  0.00000000000E+00  0.49073209853E+03  0.11138553361E+04  0.99992785605E+03 0.  0.
        1    1    3    3  502    0  0.21944235387E+01  0.17675481621E+03 -0.27559018863E+03  0.32740957934E+03  0.50400001928E-02 0.  1.
       -1    1    3    3    0  502 -0.21944235387E+01 -0.17675481621E+03  0.76632228716E+03  0.78644575679E+03  0.50400001928E-02 0. -1.
</event>
<event>
 5   0  0.9650500E-05  0.9998963E+03  0.7818609E-02  0.9308659E-01
        4   -1    0    0  501    0  0.00000000000E+00  0.00000000000E+00  0.74459855280E+03  0.74459963587E+03  0.12699999809E+01 0. -1.
       -4   -1    0    0    0  501  0.00000000000E+00  0.00000000000E+00 -0.33567921336E+03  0.33568161579E+03  0.12699999809E+01 0.  1.
    10030    2    1    2    0    0  0.00000000000E+00  0.00000000000E+00  0.40891933944E+03  0.10802812517E+04  0.99989627288E+03 0.  0.
        4    1    3    3  502    0 -0.46787750430E+03 -0.94553240936E+02  0.36506024299E+03  0.60093283178E+03  0.12699999809E+01 0. -1.
       -4    1    3    3    0  502  0.46787750430E+03  0.94553240936E+02  0.43859096453E+02  0.47934841988E+03  0.12699999809E+01 0.  1.
</event>
<event>
 5   0  0.1430675E-04  0.9998072E+03  0.7818609E-02  0.9308756E-01
       -1   -1    0    0    0  501  0.00000000000E+00  0.00000000000E+00  0.58925373428E+03  0.58925373430E+03  0.50400001928E-02 0.  1.
        1   -1    0    0  501    0  0.00000000000E+00  0.00000000000E+00 -0.42410186791E+03  0.42410186794E+03  0.50400001928E-02 0. -1.
    10030    2    1    2    0    0  0.00000000000E+00  0.00000000000E+00  0.16515186637E+03  0.10133556022E+04  0.99980720023E+03 0.  0.
        5    1    3    3  502    0 -0.36118877765E+03  0.20814273932E+03 -0.19702600978E+03  0.46110960905E+03  0.46999998093E+01 0. -1.
       -5    1    3    3    0  502  0.36118877765E+03 -0.20814273932E+03  0.36217787615E+03  0.55224599319E+03  0.46999998093E+01 0.  1.
</event>
<event>
 5   0  0.2473312E-04  0.9998861E+03  0.7818609E-02  0.9308670E-01
       -2   -1    0    0    0  501  0.00000000000E+00  0.00000000000E+00  0.77275054858E+03  0.77275054858E+03  0.25500000920E-02 0.  1.
        2   -1    0    0  501    0  0.00000000000E+00  0.00000000000E+00 -0.32344600230E+03  0.32344600231E+03  0.25500000920E-02 0. -1.
    10030    2    1    2    0    0  0.00000000000E+00  0.00000000000E+00  0.44930454628E+03  0.10961965509E+04  0.99988614495E+03 0.  0.
        5    1    3    3  502    0  0.31306801639E+02 -0.26943449594E+03 -0.23573211871E+03  0.35939780915E+03  0.46999998093E+01 0. -1.
       -5    1    3    3    0  502 -0.31306801639E+02  0.26943449594E+03  0.68503666499E+03  0.73679874173E+03  0.46999998093E+01 0.  1.
</event>
<event>
 5   0  0.9650500E-05  0.1000043E+04  0.7818609E-02  0.9308498E-01
       -4   -1    0    0    0  501  0.00000000000E+00  0.00000000000E+00  0.43793594827E+03  0.43793778974E+03  0.12699999809E+01 0. -1.
        4   -1    0    0  501    0  0.00000000000E+00  0.00000000000E+00 -0.57090489668E+03  0.57090630926E+03  0.12699999809E+01 0.  1.
    10030    2    1    2    0    0  0.00000000000E+00  0.00000000000E+00 -0.13296894842E+03  0.10088440990E+04  0.10000428365E+04 0.  0.
        1    1    3    3  502    0  0.29191712666E+02  0.21404009678E+03  0.38843450553E+03  0.44446224163E+03  0.50400001928E-02 0. -1.
       -1    1    3    3    0  502 -0.29191712666E+02 -0.21404009678E+03 -0.52140345395E+03  0.56438185737E+03  0.50400001928E-02 0.  1.
</event>
<event>
 5   0  0.1506454E-04  0.9996704E+03  0.7818609E-02  0.9308906E-01
       -1   -1    0    0    0  501  0.00000000000E+00  0.00000000000E+00  0.57403760807E+03  0.57403760810E+03  0.50400001928E-02 0. -1.
        1   -1    0    0  501    0  0.00000000000E+00  0.00000000000E+00 -0.43522448471E+03  0.43522448474E+03  0.50400001928E-02 0.  1.
    10030    2    1    2    0    0  0.00000000000E+00  0.00000000000E+00  0.13881312337E+03  0.10092620928E+04  0.99967039008E+03 0.  0.
        3    1    3    3  502    0  0.40113972435E+02  0.31479315887E+03  0.45928714339E+03  0.55825491842E+03  0.10100000352E+00 0. -1.
       -3    1    3    3    0  502 -0.40113972435E+02 -0.31479315887E+03 -0.32047402002E+03  0.45100717441E+03  0.10100000352E+00 0.  1.
</event>
<event>
 5   0  0.1506454E-04  0.9998088E+03  0.7818609E-02  0.9308754E-01
        1   -1    0    0  501    0  0.00000000000E+00  0.00000000000E+00  0.87676040075E+03  0.87676040076E+03  0.50400001928E-02 0. -1.
       -1   -1    0    0    0  501  0.00000000000E+00  0.00000000000E+00 -0.28503160933E+03  0.28503160938E+03  0.50400001928E-02 0.  1.
    10030    2    1    2    0    0  0.00000000000E+00  0.00000000000E+00  0.59172879141E+03  0.11617920101E+04  0.99980883784E+03 0.  0.
        3    1    3    3  502    0  0.41671514089E+03  0.16076956128E+03  0.55675159994E+03  0.71377217284E+03  0.10100000352E+00 0. -1.
       -3    1    3    3    0  502 -0.41671514089E+03 -0.16076956128E+03  0.34977191468E+02  0.44801983729E+03  0.10100000352E+00 0.  1.
</event>
<event>
 5   0  0.2503680E-04  0.1000283E+04  0.7818609E-02  0.9308234E-01
       -2   -1    0    0    0  501  0.00000000000E+00  0.00000000000E+00  0.18165520989E+03  0.18165520991E+03  0.25500000920E-02 0.  1.
        2   -1    0    0  501    0  0.00000000000E+00  0.00000000000E+00 -0.13770125739E+04  0.13770125739E+04  0.25500000920E-02 0. -1.
    10030    2    1    2    0    0  0.00000000000E+00  0.00000000000E+00 -0.11953573640E+04  0.15586677838E+04  0.10002829763E+04 0.  0.
        2    1    3    3  502    0 -0.25512077511E+02  0.49948806108E+03 -0.60005153157E+03  0.78115365313E+03  0.25500000920E-02 0. -1.
       -2    1    3    3    0  502  0.25512077511E+02 -0.49948806108E+03 -0.59530583245E+03  0.77751413068E+03  0.25500000920E-02 0.  1.
</event>
<event>
 5   0  0.2403037E-04  0.1000882E+04  0.7818609E-02  0.9307577E-01
       -2   -1    0    0    0  501  0.00000000000E+00  0.00000000000E+00  0.27537201418E+03  0.27537201419E+03  0.25500000920E-02 0.  1.
        2   -1    0    0  501    0  0.00000000000E+00  0.00000000000E+00 -0.90946575515E+03  0.90946575515E+03  0.25500000920E-02 0. -1.
    10030    2    1    2    0    0  0.00000000000E+00  0.00000000000E+00 -0.63409374097E+03  0.11848377693E+04  0.10008824443E+04 0.  0.
        1    1    3    3  502    0  0.36678225234E+03  0.33275227650E+03 -0.40231382831E+03  0.63805149841E+03  0.50400001928E-02 0.  1.
       -1    1    3    3    0  502 -0.36678225234E+03 -0.33275227650E+03 -0.23177991266E+03  0.54678627094E+03  0.50400001928E-02 0. -1.
</event>
<event>
 5   0  0.1453863E-04  0.9993071E+03  0.7818609E-02  0.9309305E-01
       -1   -1    0    0    0  501  0.00000000000E+00  0.00000000000E+00  0.41850332429E+03  0.41850332432E+03  0.50400001928E-02 0. -1.
        1   -1    0    0  501    0  0.00000000000E+00  0.00000000000E+00 -0.59653933095E+03  0.59653933097E+03  0.50400001928E-02 0.  1.
    10030    2    1    2    0    0  0.00000000000E+00  0.00000000000E+00 -0.17803600666E+03  0.10150426553E+04  0.99930714617E+03 0.  0.
        1    1    3    3  502    0 -0.12013512740E+03 -0.47978537347E+03 -0.16998504652E+02  0.49488928319E+03  0.50400001928E-02 0. -1.
       -1    1    3    3    0  502  0.12013512740E+03  0.47978537347E+03 -0.16103750201E+03  0.52015337210E+03  0.50400001928E-02 0.  1.
</event>
<event>
 5   0  0.2403037E-04  0.9994039E+03  0.7818609E-02  0.9309199E-01
       -2   -1    0    0    0  501  0.00000000000E+00  0.00000000000E+00  0.14906948918E+03  0.14906948920E+03  0.25500000920E-02 0.  1.
        2   -1    0    0  501    0  0.00000000000E+00  0.00000000000E+00 -0.16750714019E+04  0.16750714019E+04  0.25500000920E-02 0. -1.
    10030    2    1    2    0    0  0.00000000000E+00  0.00000000000E+00 -0.15260019127E+04  0.18241408911E+04  0.99940389882E+03 0.  0.
        1    1    3    3  502    0  0.44073123896E+02 -0.17627281237E+03  0.86637698301E+02  0.20129738057E+03  0.50400001928E-02 0.  1.
       -1    1    3    3    0  502 -0.44073123896E+02  0.17627281237E+03 -0.16126396110E+04  0.16228435105E+04  0.50400001928E-02 0. -1.
</event>
<event>
 5   0  0.2403037E-04  0.1000490E+04  0.7818609E-02  0.9308008E-01
        2   -1    0    0  501    0  0.00000000000E+00  0.00000000000E+00  0.91438243043E+03  0.91438243043E+03  0.25500000920E-02 0.  1.
       -2   -1    0    0    0  501  0.00000000000E+00  0.00000000000E+00 -0.27367638025E+03  0.27367638026E+03  0.25500000920E-02 0. -1.
    10030    2    1    2    0    0  0.00000000000E+00  0.00000000000E+00  0.64070605018E+03  0.11880588107E+04  0.10004896276E+04 0.  0.
        1    1    3    3  502    0 -0.13663689245E+03  0.47744031821E+03  0.24884779569E+03  0.55546748174E+03  0.50400001928E-02 0. -1.
       -1    1    3    3    0  502  0.13663689245E+03 -0.47744031821E+03  0.39185825449E+03  0.63259132895E+03  0.50400001928E-02 0.  1.
</event>
<event>
 5   0  0.2473312E-04  0.1000412E+04  0.7818609E-02  0.9308093E-01
       -2   -1    0    0    0  501  0.00000000000E+00  0.00000000000E+00  0.16354375162E+03  0.16354375164E+03  0.25500000920E-02 0.  1.
        2   -1    0    0  501    0  0.00000000000E+00  0.00000000000E+00 -0.15299028535E+04  0.15299028535E+04  0.25500000920E-02 0. -1.
    10030    2    1    2    0    0  0.00000000000E+00  0.00000000000E+00 -0.13663591018E+04  0.16934466051E+04  0.10004120197E+04 0.  0.
        5    1    3    3  502    0 -0.36863925519E+03  0.30306246828E+03 -0.42959351100E+03  0.64211715040E+03  0.46999998093E+01 0. -1.
       -5    1    3    3    0  502  0.36863925519E+03 -0.30306246828E+03 -0.93676559084E+03  0.10513294547E+04  0.46999998093E+01 0.  1.
</event>
<event>
 5   0  0.2403037E-04  0.9957564E+03  0.7818609E-02  0.9313211E-01
       -2   -1    0    0    0  501  0.00000000000E+00  0.00000000000E+00  0.13120981741E+04  0.13120981741E+04  0.25500000920E-02 0. -1.
        2   -1    0    0  501    0  0.00000000000E+00  0.00000000000E+00 -0.18892083986E+03  0.18892083988E+03  0.25500000920E-02 0.  1.
    10030    2    1    2    0    0  0.00000000000E+00  0.00000000000E+00  0.11231773342E+04  0.15010190140E+04  0.99575637392E+03 0.  0.
        1    1    3    3  502    0  0.35146214054E+02 -0.38029850528E+02 -0.18485040027E+03  0.19196665439E+03  0.50400001928E-02 0.  1.
       -1    1    3    3    0  502 -0.35146214054E+02  0.38029850528E+02  0.13080277345E+04  0.13090523596E+04  0.50400001928E-02 0. -1.
</event>
<event>
 5   0  0.1414165E-04  0.1000232E+04  0.7818609E-02  0.9308290E-01
       -1   -1    0    0    0  501  0.00000000000E+00  0.00000000000E+00  0.46779746783E+03  0.46779746786E+03  0.50400001928E-02 0.  1.
        1   -1    0    0  501    0  0.00000000000E+00  0.00000000000E+00 -0.53466766459E+03  0.53466766461E+03  0.50400001928E-02 0. -1.
    10030    2    1    2    0    0  0.00000000000E+00  0.00000000000E+00 -0.66870196758E+02  0.10024651325E+04  0.10002323323E+04 0.  0.
        4    1    3    3  502    0 -0.38151283808E+03 -0.76710461221E+02 -0.34826691422E+03  0.52223366123E+03  0.12699999809E+01 0. -1.
       -4    1    3    3    0  502  0.38151283808E+03  0.76710461221E+02  0.28139671746E+03  0.48023147125E+03  0.12699999809E+01 0.  1.
</event>
<event>
 5   0  0.1453863E-04  0.9991266E+03  0.7818609E-02  0.9309503E-01
       -1   -1    0    0    0  501  0.00000000000E+00  0.00000000000E+00  0.42417874495E+03  0.42417874498E+03  0.50400001928E-02 0.  1.
        1   -1    0    0  501    0  0.00000000000E+00  0.00000000000E+00 -0.58834513410E+03  0.58834513412E+03  0.50400001928E-02 0. -1.
    10030    2    1    2    0    0  0.00000000000E+00  0.00000000000E+00 -0.16416638916E+03  0.10125238791E+04  0.99912661981E+03 0.  0.
        1    1    3    3  502    0  0.20751912433E+03  0.89423071699E+02  0.36942755376E+03  0.43305587424E+03  0.50400001928E-02 0.  1.
       -1    1    3    3    0  502 -0.20751912433E+03 -0.89423071699E+02 -0.53359394291E+03  0.57946800486E+03  0.50400001928E-02 0. -1.
</event>
<event>
 5   0  0.1453863E-04  0.1000069E+04  0.7818609E-02  0.9308470E-01
        1   -1    0    0  501    0  0.00000000000E+00  0.00000000000E+00  0.14167553158E+04  0.14167553158E+04  0.50400001928E-02 0. -1.
       -1   -1    0    0    0  501  0.00000000000E+00  0.00000000000E+00 -0.17648375815E+03  0.17648375822E+03  0.50400001928E-02 0.  1.
    10030    2    1    2    0    0  0.00000000000E+00  0.00000000000E+00  0.12402715577E+04  0.15932390741E+04  0.10000686028E+04 0.  0.
        1    1    3    3  502    0  0.73199671812E+02 -0.17256042643E+03  0.13586661559E+04  0.13715352770E+04  0.50400001928E-02 0. -1.
       -1    1    3    3    0  502 -0.73199671812E+02  0.17256042643E+03 -0.11839459823E+03  0.22170379708E+03  0.50400001928E-02 0.  1.
</event>
<event>
 5   0  0.2473312E-04  0.9998770E+03  0.7818609E-02  0.9308680E-01
        2   -1    0    0  501    0  0.00000000000E+00  0.00000000000E+00  0.56157602616E+03  0.56157602617E+03  0.25500000920E-02 0. -1.
       -2   -1    0    0    0  501  0.00000000000E+00  0.00000000000E+00 -0.44506619825E+03  0.44506619825E+03  0.25500000920E-02 0.  1.
    10030    2    1    2    0    0  0.00000000000E+00  0.00000000000E+00  0.11650982792E+03  0.10066422244E+04  0.99987700643E+03 0.  0.
        5    1    3    3  502    0 -0.30012789517E+03  0.17133366449E+03 -0.30541546011E+03  0.46122952130E+03  0.46999998093E+01 0.  1.
       -5    1    3    3    0  502  0.30012789517E+03 -0.17133366449E+03  0.42192528803E+03  0.54541270312E+03  0.46999998093E+01 0. -1.
</event>
<event>
 5   0  0.2403037E-04  0.1000013E+04  0.7818609E-02  0.9308531E-01
       -2   -1    0    0    0  501  0.00000000000E+00  0.00000000000E+00  0.11469308355E+03  0.11469308357E+03  0.25500000920E-02 0.  1.
        2   -1    0    0  501    0  0.00000000000E+00  0.00000000000E+00 -0.21797858408E+04  0.21797858408E+04  0.25500000920E-02 0. -1.
    10030    2    1    2    0    0  0.00000000000E+00  0.00000000000E+00 -0.20650927572E+04  0.22944789244E+04  0.10000127191E+04 0.  0.
        1    1    3    3  502    0 -0.38320052728E+02 -0.13530549608E+03 -0.21334767213E+04  0.21381063875E+04  0.50400001928E-02 0. -1.
       -1    1    3    3    0  502  0.38320052728E+02  0.13530549608E+03  0.68383964108E+02  0.15637253686E+03  0.50400001928E-02 0.  1.
</event>
<event>
 5   0  0.1506454E-04  0.1000518E+04  0.7818609E-02  0.9307976E-01
        1   -1    0    0  501    0  0.00000000000E+00  0.00000000000E+00  0.20091250511E+03  0.20091250517E+03  0.50400001928E-02 0. -1.
       -1   -1    0    0    0  501  0.00000000000E+00  0.00000000000E+00 -0.12456131566E+04  0.12456131566E+04  0.50400001928E-02 0.  1.
    10030    2    1    2    0    0  0.00000000000E+00  0.00000000000E+00 -0.10447006515E+04  0.14465256618E+04  0.10005183851E+04 0.  0.
        3    1    3    3  502    0  0.25325872241E+03  0.33442560836E+03 -0.12831654604E+03  0.43868623661E+03  0.10100000352E+00 0. -1.
       -3    1    3    3    0  502 -0.25325872241E+03 -0.33442560836E+03 -0.91638410546E+03  0.10078394252E+04  0.10100000352E+00 0.  1.
</event>
<event>
 5   0  0.1506454E-04  0.1000787E+04  0.7818609E-02  0.9307682E-01
       -1   -1    0    0    0  501  0.00000000000E+00  0.00000000000E+00  0.43863789250E+03  0.43863789253E+03  0.50400001928E-02 0.  1.
        1   -1    0    0  501    0  0.00000000000E+00  0.00000000000E+00 -0.57084335073E+03  0.57084335076E+03  0.50400001928E-02 0. -1.
    10030    2    1    2    0    0  0.00000000000E+00  0.00000000000E+00 -0.13220545823E+03  0.10094812433E+04  0.10007867392E+04 0.  0.
        3    1    3    3  502    0 -0.14172069904E+03 -0.35826719362E+03  0.25597264243E+03  0.46256042031E+03  0.10100000352E+00 0.  1.
       -3    1    3    3    0  502  0.14172069904E+03  0.35826719362E+03 -0.38817810067E+03  0.54692082297E+03  0.10100000352E+00 0. -1.
</event>
<event>
 5   0  0.2403037E-04  0.1000032E+04  0.7818609E-02  0.9308509E-01
        2   -1    0    0  501    0  0.00000000000E+00  0.00000000000E+00  0.22994993506E+04  0.22994993506E+04  0.25500000920E-02 0.  1.
       -2   -1    0    0    0  501  0.00000000000E+00  0.00000000000E+00 -0.10872632892E+03  0.10872632895E+03  0.25500000920E-02 0. -1.
    10030    2    1    2    0    0  0.00000000000E+00  0.00000000000E+00  0.21907730216E+04  0.24082256795E+04  0.10000322451E+04 0.  0.
        1    1    3    3  502    0 -0.43693707988E+03 -0.46913414221E+02  0.16698256921E+04  0.17266825771E+04  0.50400001928E-02 0.  1.
       -1    1    3    3    0  502  0.43693707988E+03  0.46913414221E+02  0.52094732955E+03  0.68154310238E+03  0.50400001928E-02 0. -1.
</event>
<event>
 5   0  0.1453863E-04  0.9992653E+03  0.7818609E-02  0.9309351E-01
        1   -1    0    0  501    0  0.00000000000E+00  0.00000000000E+00  0.35806297500E+03  0.35806297504E+03  0.50400001928E-02 0. -1.
       -1   -1    0    0    0  501  0.00000000000E+00  0.00000000000E+00 -0.69717568685E+03  0.69717568687E+03  0.50400001928E-02 0.  1.
    10030    2    1    2    0    0  0.00000000000E+00  0.00000000000E+00 -0.33911271185E+03  0.10552386619E+04  0.99926533126E+03 0.  0.
        1    1    3    3  502    0 -0.49563203576E+02 -0.26678927872E+03 -0.61257899996E+03  0.66998959813E+03  0.50400001928E-02 0.  1.
       -1    1    3    3    0  502  0.49563203576E+02  0.26678927872E+03  0.27346628811E+03  0.38524906378E+03  0.50400001928E-02 0. -1.
</event>
<event>
 5   0  0.1461334E-04  0.1000070E+04  0.7818609E-02  0.9308468E-01
        1   -1    0    0  501    0  0.00000000000E+00  0.00000000000E+00  0.11009563196E+04  0.11009563196E+04  0.50400001928E-02 0.  1.
       -1   -1    0    0    0  501  0.00000000000E+00  0.00000000000E+00 -0.22710726813E+03  0.22710726819E+03  0.50400001928E-02 0. -1.
    10030    2    1    2    0    0  0.00000000000E+00  0.00000000000E+00  0.87384905142E+03  0.13280635878E+04  0.10000703618E+04 0.  0.
        2    1    3    3  502    0 -0.15141301162E+02 -0.37237880984E+03 -0.57896230340E+01  0.37273148078E+03  0.25500000920E-02 0. -1.
       -2    1    3    3    0  502  0.15141301162E+02  0.37237880984E+03  0.87963867445E+03  0.95533210698E+03  0.25500000920E-02 0.  1.
</event>
<event>
 5   0  0.1414165E-04  0.1000351E+04  0.7818609E-02  0.9308160E-01
        1   -1    0    0  501    0  0.00000000000E+00  0.00000000000E+00  0.11172279247E+04  0.11172279247E+04  0.50400001928E-02 0.  1.
       -1   -1    0    0    0  501  0.00000000000E+00  0.00000000000E+00 -0.22392529900E+03  0.22392529906E+03  0.50400001928E-02 0. -1.
    10030    2    1    2    0    0  0.00000000000E+00  0.00000000000E+00  0.89330262573E+03  0.13411532238E+04  0.10003511326E+04 0.  0.
        4    1    3    3  502    0 -0.98178243957E+02 -0.14439107832E+03  0.10750385429E+04  0.10891268212E+04  0.12699999809E+01 0.  1.
       -4    1    3    3    0  502  0.98178243957E+02  0.14439107832E+03 -0.18173591720E+03  0.25202640256E+03  0.12699999809E+01 0. -1.
</event>
<event>
 5   0  0.1461334E-04  0.1000277E+04  0.7818609E-02  0.9308241E-01
        1   -1    0    0  501    0  0.00000000000E+00  0.00000000000E+00  0.28714995838E+03  0.28714995842E+03  0.50400001928E-02 0.  1.
       -1   -1    0    0    0  501  0.00000000000E+00  0.00000000000E+00 -0.87110782557E+03  0.87110782559E+03  0.50400001928E-02 0. -1.
    10030    2    1    2    0    0  0.00000000000E+00  0.00000000000E+00 -0.58395786720E+03  0.11582577840E+04  0.10002771134E+04 0.  0.
        2    1    3    3  502    0  0.19978414542E+03 -0.14842092828E+03 -0.79431019243E+03  0.83238882652E+03  0.25500000920E-02 0. -1.
       -2    1    3    3    0  502 -0.19978414542E+03  0.14842092828E+03  0.21035232523E+03  0.32586895749E+03  0.25500000920E-02 0.  1.
</event>
<event>
 5   0  0.1453863E-04  0.9999116E+03  0.7818609E-02  0.9308642E-01
        1   -1    0    0  501    0  0.00000000000E+00  0.00000000000E+00  0.43145176116E+03  0.43145176118E+03  0.50400001928E-02 0.  1.
       -1   -1    0    0    0  501  0.00000000000E+00  0.00000000000E+00 -0.57933663397E+03  0.57933663399E+03  0.50400001928E-02 0. -1.
    10030    2    1    2    0    0  0.00000000000E+00  0.00000000000E+00 -0.14788487281E+03  0.10107883952E+04  0.99991161820E+03 0.  0.
        1    1    3    3  502    0 -0.43244320541E+03  0.23134883834E+03 -0.17208820212E+03  0.51975355722E+03  0.50400001928E-02 0. -1.
       -1    1    3    3    0  502  0.43244320541E+03 -0.23134883834E+03  0.24203329306E+02  0.49103483795E+03  0.50400001928E-02 0.  1.
</event>
<event>
 5   0  0.1506454E-04  0.9957612E+03  0.7818609E-02  0.9313206E-01
       -1   -1    0    0    0  501  0.00000000000E+00  0.00000000000E+00  0.15091792917E+03  0.15091792926E+03  0.50400001928E-02 0. -1.
        1   -1    0    0  501    0  0.00000000000E+00  0.00000000000E+00 -0.16425159710E+04  0.16425159710E+04  0.50400001928E-02 0.  1.
    10030    2    1    2    0    0  0.00000000000E+00  0.00000000000E+00 -0.14915980418E+04  0.17934339002E+04  0.99576123454E+03 0.  0.
        3    1    3    3  502    0 -0.74173588895E+02 -0.36431355729E+03 -0.14937885500E+03  0.40067460842E+03  0.10100000352E+00 0. -1.
       -3    1    3    3    0  502  0.74173588895E+02  0.36431355729E+03 -0.13422191868E+04  0.13927592918E+04  0.10100000352E+00 0.  1.
</event>
<event>
 5   0  0.1414165E-04  0.1000511E+04  0.7818609E-02  0.9307985E-01
        1   -1    0    0  501    0  0.00000000000E+00  0.00000000000E+00  0.11362171508E+04  0.11362171508E+04  0.50400001928E-02 0. -1.
       -1   -1    0    0    0  501  0.00000000000E+00  0.00000000000E+00 -0.22025318368E+03  0.22025318374E+03  0.50400001928E-02 0.  1.
    10030    2    1    2    0    0  0.00000000000E+00  0.00000000000E+00  0.91596396709E+03  0.13564703345E+04  0.10005107593E+04 0.  0.
        4    1    3    3  502    0 -0.16451983453E+03  0.18358829301E+03  0.10481463306E+04  0.10767468507E+04  0.12699999809E+01 0. -1.
       -4    1    3    3    0  502  0.16451983453E+03 -0.18358829301E+03 -0.13218236350E+03  0.27972348382E+03  0.12699999809E+01 0.  1.
</event>
<event>
 5   0  0.2484904E-04  0.1000525E+04  0.7818609E-02  0.9307969E-01
       -2   -1    0    0    0  501  0.00000000000E+00  0.00000000000E+00  0.64172270498E+03  0.64172270499E+03  0.25500000920E-02 0.  1.
        2   -1    0    0  501    0  0.00000000000E+00  0.00000000000E+00 -0.38998582192E+03  0.38998582193E+03  0.25500000920E-02 0. -1.
    10030    2    1    2    0    0  0.00000000000E+00  0.00000000000E+00  0.25173688306E+03  0.10317085269E+04  0.10005253751E+04 0.  0.
        3    1    3    3  502    0  0.42118764526E+03 -0.22715719308E+03 -0.24495771403E+02  0.47916539514E+03  0.10100000352E+00 0. -1.
       -3    1    3    3    0  502 -0.42118764526E+03  0.22715719308E+03  0.27623265447E+03  0.55254313178E+03  0.10100000352E+00 0.  1.
</event>
<event>
 5   0  0.1461334E-04  0.9999244E+03  0.7818609E-02  0.9308628E-01
       -1   -1    0    0    0  501  0.00000000000E+00  0.00000000000E+00  0.24023967965E+03  0.24023967970E+03  0.50400001928E-02 0. -1.
        1   -1    0    0  501    0  0.00000000000E+00  0.00000000000E+00 -0.10404701946E+04  0.10404701946E+04  0.50400001928E-02 0.  1.
    10030    2    1    2    0    0  0.00000000000E+00  0.00000000000E+00 -0.80023051493E+03  0.12807098743E+04  0.99992444968E+03 0.  0.
        2    1    3    3  502    0  0.48807313031E+03 -0.84047028570E+02 -0.48776345571E+03  0.69512047321E+03  0.25500000920E-02 0.  1.
       -2    1    3    3    0  502 -0.48807313031E+03  0.84047028570E+02 -0.31246705922E+03  0.58558940107E+03  0.25500000920E-02 0. -1.
</event>
<event>
 5   0  0.1506454E-04  0.9994371E+03  0.7818609E-02  0.9309162E-01
       -1   -1    0    0    0  501  0.00000000000E+00  0.00000000000E+00  0.18130102080E+03  0.18130102087E+03  0.50400001928E-02 0. -1.
        1   -1    0    0  501    0  0.00000000000E+00  0.00000000000E+00 -0.13773702840E+04  0.13773702840E+04  0.50400001928E-02 0.  1.
    10030    2    1    2    0    0  0.00000000000E+00  0.00000000000E+00 -0.11960692632E+04  0.15586713049E+04  0.99943711873E+03 0.  0.
        3    1    3    3  502    0  0.49480688592E+03  0.26345880371E+02 -0.49707663492E+03  0.70186405447E+03  0.10100000352E+00 0.  1.
       -3    1    3    3    0  502 -0.49480688592E+03 -0.26345880371E+02 -0.69899262829E+03  0.85680725042E+03  0.10100000352E+00 0. -1.
</event>
<event>
 5   0  0.9650500E-05  0.9999425E+03  0.7818609E-02  0.9308608E-01
       -4   -1    0    0    0  501  0.00000000000E+00  0.00000000000E+00  0.10004287359E+04  0.10004295420E+04  0.12699999809E+01 0. -1.
        4   -1    0    0  501    0  0.00000000000E+00  0.00000000000E+00 -0.24986160278E+03  0.24986483034E+03  0.12699999809E+01 0.  1.
    10030    2    1    2    0    0  0.00000000000E+00  0.00000000000E+00  0.75056713308E+03  0.12502943723E+04  0.99994249642E+03 0.  0.
        3    1    3    3  502    0 -0.61901694190E+02 -0.12018228218E+03  0.97714453490E+03  0.98645174893E+03  0.10100000352E+00 0. -1.
       -3    1    3    3    0  502  0.61901694190E+02  0.12018228218E+03 -0.22657740181E+03  0.26384262337E+03  0.10100000352E+00 0.  1.
</event>
<event>
 5   0  0.2403037E-04  0.1000108E+04  0.7818609E-02  0.9308426E-01
        2   -1    0    0  501    0  0.00000000000E+00  0.00000000000E+00  0.54205063419E+03  0.54205063419E+03  0.25500000920E-02 0.  1.
       -2   -1    0    0    0  501  0.00000000000E+00  0.00000000000E+00 -0.46131124903E+03  0.46131124904E+03  0.25500000920E-02 0. -1.
    10030    2    1    2    0    0  0.00000000000E+00  0.00000000000E+00  0.80739385156E+02  0.10033618832E+04  0.10001081044E+04 0.  0.
        1    1    3    3  502    0  0.38676211930E+03  0.22949060246E+03  0.25972040686E+03  0.51933184315E+03  0.50400001928E-02 0.  1.
       -1    1    3    3    0  502 -0.38676211930E+03 -0.22949060246E+03 -0.17898102170E+03  0.48403004008E+03  0.50400001928E-02 0. -1.
</event>
<event>
 5   0  0.9650500E-05  0.9986484E+03  0.7818609E-02  0.9310028E-01
        3   -1    0    0  501    0  0.00000000000E+00  0.00000000000E+00  0.62450237043E+03  0.62450237859E+03  0.10100000352E+00 0.  1.
       -3   -1    0    0    0  501  0.00000000000E+00  0.00000000000E+00 -0.39923731834E+03  0.39923733112E+03  0.10100000352E+00 0. -1.
    10030    2    1    2    0    0  0.00000000000E+00  0.00000000000E+00  0.22526505209E+03  0.10237397097E+04  0.99864841138E+03 0.  0.
        3    1    3    3  502    0  0.31889271402E+03 -0.35316190652E+03  0.26779178469E+03  0.54601130522E+03  0.10100000352E+00 0.  1.
       -3    1    3    3    0  502 -0.31889271402E+03  0.35316190652E+03 -0.42526732604E+02  0.47772840450E+03  0.10100000352E+00 0. -1.
</event>
<event>
 5   0  0.1453863E-04  0.1004293E+04  0.7818609E-02  0.9303849E-01
       -1   -1    0    0    0  501  0.00000000000E+00  0.00000000000E+00  0.51983367096E+03  0.51983367099E+03  0.50400001928E-02 0.  1.
        1   -1    0    0  501    0  0.00000000000E+00  0.00000000000E+00 -0.48506124761E+03  0.48506124764E+03  0.50400001928E-02 0. -1.
    10030    2    1    2    0    0  0.00000000000E+00  0.00000000000E+00  0.34772423349E+02  0.10048949186E+04  0.10042931226E+04 0.  0.
        1    1    3    3  502    0 -0.22573945617E+03 -0.42638457012E+03  0.15671427421E+03  0.50726863443E+03  0.50400001928E-02 0.  1.
       -1    1    3    3    0  502  0.22573945617E+03  0.42638457012E+03 -0.12194185086E+03  0.49762628420E+03  0.50400001928E-02 0. -1.
</event>
<event>
 5   0  0.2503680E-04  0.1000122E+04  0.7818609E-02  0.9308412E-01
       -2   -1    0    0    0  501  0.00000000000E+00  0.00000000000E+00  0.82968199466E+03  0.82968199466E+03  0.25500000920E-02 0. -1.
        2   -1    0    0  501    0  0.00000000000E+00  0.00000000000E+00 -0.30139350814E+03  0.30139350815E+03  0.25500000920E-02 0.  1.
    10030    2    1    2    0    0  0.00000000000E+00  0.00000000000E+00  0.52828848652E+03  0.11310755028E+04  0.10001215267E+04 0.  0.
        2    1    3    3  502    0  0.34757860664E+03  0.96193139311E+02 -0.12761890378E+03  0.38255795960E+03  0.25500000920E-02 0.  1.
       -2    1    3    3    0  502 -0.34757860664E+03 -0.96193139311E+02  0.65590739030E+03  0.74851754321E+03  0.25500000920E-02 0. -1.
</event>
<event>
 5   0  0.1430675E-04  0.1000350E+04  0.7818609E-02  0.9308161E-01
       -1   -1    0    0    0  501  0.00000000000E+00  0.00000000000E+00  0.10245089164E+04  0.10245089164E+04  0.50400001928E-02 0.  1.
        1   -1    0    0  501    0  0.00000000000E+00  0.00000000000E+00 -0.24418998778E+03  0.24418998783E+03  0.50400001928E-02 0. -1.
    10030    2    1    2    0    0  0.00000000000E+00  0.00000000000E+00  0.78031892862E+03  0.12686989042E+04  0.10003495785E+04 0.  0.
        5    1    3    3  502    0 -0.59580960133E+02  0.30128171745E+03 -0.11049180839E+03  0.32642165032E+03  0.46999998093E+01 0. -1.
       -5    1    3    3    0  502  0.59580960133E+02 -0.30128171745E+03  0.89081073701E+03  0.94227725391E+03  0.46999998093E+01 0.  1.
</event>
<event>
 5   0  0.1414165E-04  0.1000135E+04  0.7818609E-02  0.9308397E-01
       -1   -1    0    0    0  501  0.00000000000E+00  0.00000000000E+00  0.35217101373E+03  0.35217101376E+03  0.50400001928E-02 0.  1.
        1   -1    0    0  501    0  0.00000000000E+00  0.00000000000E+00 -0.71007367609E+03  0.71007367611E+03  0.50400001928E-02 0. -1.
    10030    2    1    2    0    0  0.00000000000E+00  0.00000000000E+00 -0.35790266236E+03  0.10622446899E+04  0.10001347236E+04 0.  0.
        4    1    3    3  502    0 -0.21134422288E+02 -0.20733296710E+03 -0.66174880565E+03  0.69379155208E+03  0.12699999809E+01 0. -1.
       -4    1    3    3    0  502  0.21134422288E+02  0.20733296710E+03  0.30384614329E+03  0.36845313779E+03  0.12699999809E+01 0.  1.
</event>
<event>
 5   0  0.1506454E-04  0.1000027E+04  0.7818609E-02  0.9308515E-01
        1   -1    0    0  501    0  0.00000000000E+00  0.00000000000E+00  0.57000567844E+03  0.57000567847E+03  0.50400001928E-02 0.  1.
       -1   -1    0    0    0  501  0.00000000000E+00  0.00000000000E+00 -0.43861578298E+03  0.43861578301E+03  0.50400001928E-02 0. -1.
    10030    2    1    2    0    0  0.00000000000E+00  0.00000000000E+00  0.13138989546E+03  0.10086214615E+04  0.10000269736E+04 0.  0.
        3    1    3    3  502    0  0.48047423042E+03  0.10494111377E+03  0.15672220441E+03  0.51616856065E+03  0.10100000352E+00 0. -1.
       -3    1    3    3    0  502 -0.48047423042E+03 -0.10494111377E+03 -0.25332308948E+02  0.49245290082E+03  0.10100000352E+00 0.  1.
</event>
<event>
 5   0  0.9650500E-05  0.1000627E+04  0.7818609E-02  0.9307858E-01
        3   -1    0    0  501    0  0.00000000000E+00  0.00000000000E+00  0.61160215873E+03  0.61160216706E+03  0.10100000352E+00 0.  1.
       -3   -1    0    0    0  501  0.00000000000E+00  0.00000000000E+00 -0.40927487848E+03  0.40927489094E+03  0.10100000352E+00 0. -1.
    10030    2    1    2    0    0  0.00000000000E+00  0.00000000000E+00  0.20232728024E+03  0.10208770580E+04  0.10006266233E+04 0.  0.
        4    1    3    3  502    0  0.48819496267E+03  0.10588830350E+03  0.72942629777E+02  0.50484541647E+03  0.12699999809E+01 0. -1.
       -4    1    3    3    0  502 -0.48819496267E+03 -0.10588830350E+03  0.12938465047E+03  0.51603164154E+03  0.12699999809E+01 0.  1.
</event>
<event>
 5   0  0.2484904E-04  0.1000702E+04  0.7818609E-02  0.9307775E-01
       -2   -1    0    0    0  501  0.00000000000E+00  0.00000000000E+00  0.22582326922E+03  0.22582326923E+03  0.25500000920E-02 0. -1.
        2   -1    0    0  501    0  0.00000000000E+00  0.00000000000E+00 -0.11086146953E+04  0.11086146953E+04  0.25500000920E-02 0.  1.
    10030    2    1    2    0    0  0.00000000000E+00  0.00000000000E+00 -0.88279142606E+03  0.13344379645E+04  0.10007017434E+04 0.  0.
        3    1    3    3  502    0  0.80812753315E+02  0.29782286259E+03 -0.96660232739E+03  0.10146670528E+04  0.10100000352E+00 0.  1.
       -3    1    3    3    0  502 -0.80812753315E+02 -0.29782286259E+03  0.83810901331E+02  0.31977091169E+03  0.10100000352E+00 0. -1.
</event>
<event>
 5   0  0.2353916E-04  0.1000273E+04  0.7818609E-02  0.9308246E-01
       -2   -1    0    0    0  501  0.00000000000E+00  0.00000000000E+00  0.10280725843E+03  0.10280725846E+03  0.25500000920E-02 0. -1.
        2   -1    0    0  501    0  0.00000000000E+00  0.00000000000E+00 -0.24330624492E+04  0.24330624492E+04  0.25500000920E-02 0.  1.
    10030    2    1    2    0    0  0.00000000000E+00  0.00000000000E+00 -0.23302551907E+04  0.25358697076E+04  0.10002729228E+04 0.  0.
        4    1    3    3  502    0 -0.33975011655E+03 -0.22872144673E+03 -0.43743341156E+03  0.59924389387E+03  0.12699999809E+01 0. -1.
       -4    1    3    3    0  502  0.33975011655E+03  0.22872144673E+03 -0.18928217792E+04  0.19366258138E+04  0.12699999809E+01 0.  1.
</event>
<event>
 5   0  0.1414165E-04  0.9999899E+03  0.7818609E-02  0.9308556E-01
        1   -1    0    0  501    0  0.00000000000E+00  0.00000000000E+00  0.92141664200E+03  0.92141664202E+03  0.50400001928E-02 0.  1.
       -1   -1    0    0    0  501  0.00000000000E+00  0.00000000000E+00 -0.27131585742E+03  0.27131585746E+03  0.50400001928E-02 0. -1.
    10030    2    1    2    0    0  0.00000000000E+00  0.00000000000E+00  0.65010078459E+03  0.11927324995E+04  0.99998989254E+03 0.  0.
        4    1    3    3  502    0  0.22155888196E+03 -0.23887611944E+03  0.77741862870E+03  0.84293029116E+03  0.12699999809E+01 0.  1.
       -4    1    3    3    0  502 -0.22155888196E+03  0.23887611944E+03 -0.12731784411E+03  0.34980220831E+03  0.12699999809E+01 0. -1.
</event>
<event>
 5   0  0.1430675E-04  0.9999436E+03  0.7818609E-02  0.9308607E-01
       -1   -1    0    0    0  501  0.00000000000E+00  0.00000000000E+00  0.61543696792E+03  0.61543696794E+03  0.50400001928E-02 0. -1.
        1   -1    0    0  501    0  0.00000000000E+00  0.00000000000E+00 -0.40616959415E+03  0.40616959418E+03  0.50400001928E-02 0.  1.
    10030    2    1    2    0    0  0.00000000000E+00  0.00000000000E+00  0.20926737377E+03  0.10216065621E+04  0.99994356543E+03 0.  0.
        5    1    3    3  502    0 -0.73267186789E+02 -0.48985796356E+03  0.35184650550E+02  0.49657723947E+03  0.46999998093E+01 0.  1.
       -5    1    3    3    0  502  0.73267186789E+02  0.48985796356E+03  0.17408272322E+03  0.52502932265E+03  0.46999998093E+01 0. -1.
</event>
<event>
 5   0  0.2484904E-04  0.1000133E+04  0.7818609E-02  0.9308399E-01
       -2   -1    0    0    0  501  0.00000000000E+00  0.00000000000E+00  0.11144791058E+04  0.11144791058E+04  0.25500000920E-02 0. -1.
        2   -1    0    0  501    0  0.00000000000E+00  0.00000000000E+00 -0.22437986378E+03  0.22437986379E+03  0.25500000920E-02 0.  1.
    10030    2    1    2    0    0  0.00000000000E+00  0.00000000000E+00  0.89009924203E+03  0.13388589696E+04  0.10001333310E+04 0.  0.
        3    1    3    3  502    0  0.24825903786E+03  0.34345812400E+03  0.80041981469E+03  0.90568643734E+03  0.10100000352E+00 0. -1.
       -3    1    3    3    0  502 -0.24825903786E+03 -0.34345812400E+03  0.89679427332E+02  0.43317253226E+03  0.10100000352E+00 0.  1.
</event>
<event>
 5   0  0.1414165E-04  0.9993554E+03  0.7818609E-02  0.9309252E-01
        1   -1    0    0  501    0  0.00000000000E+00  0.00000000000E+00  0.77127177986E+03  0.77127177987E+03  0.50400001928E-02 0.  1.
       -1   -1    0    0    0  501  0.00000000000E+00  0.00000000000E+00 -0.32372218693E+03  0.32372218697E+03  0.50400001928E-02 0. -1.
    10030    2    1    2    0    0  0.00000000000E+00  0.00000000000E+00  0.44754959293E+03  0.10949939668E+04  0.99935536687E+03 0.  0.
        4    1    3    3  502    0  0.17103228852E+03 -0.20738341432E+03 -0.23774302417E+03  0.35886387766E+03  0.12699999809E+01 0. -1.
       -4    1    3    3    0  502 -0.17103228852E+03  0.20738341432E+03  0.68529261709E+03  0.73613008918E+03  0.12699999809E+01 0.  1.
</event>
<event>
 5   0  0.2484904E-04  0.9998222E+03  0.7818609E-02  0.9308740E-01
       -2   -1    0    0    0  501  0.00000000000E+00  0.00000000000E+00  0.24232155097E+03  0.24232155098E+03  0.25500000920E-02 0. -1.
        2   -1    0    0  501    0  0.00000000000E+00  0.00000000000E+00 -0.10313202912E+04  0.10313202912E+04  0.25500000920E-02 0.  1.
    10030    2    1    2    0    0  0.00000000000E+00  0.00000000000E+00 -0.78899874022E+03  0.12736418422E+04  0.99982224923E+03 0.  0.
        3    1    3    3  502    0 -0.18295129248E+03 -0.26623256767E+03  0.91511288251E+02  0.33574585863E+03  0.10100000352E+00 0. -1.
       -3    1    3    3    0  502  0.18295129248E+03  0.26623256767E+03 -0.88051002847E+03  0.93789598354E+03  0.10100000352E+00 0.  1.
</event>
<event>
 5   0  0.1430675E-04  0.9999536E+03  0.7818609E-02  0.9308596E-01
        1   -1    0    0  501    0  0.00000000000E+00  0.00000000000E+00  0.55335314494E+03  0.55335314496E+03  0.50400001928E-02 0.  1.
       -1   -1    0    0    0  501  0.00000000000E+00  0.00000000000E+00 -0.45174911928E+03  0.45174911930E+03  0.50400001928E-02 0. -1.
    10030    2    1    2    0    0  0.00000000000E+00  0.00000000000E+00  0.10160402566E+03  0.10051022643E+04  0.99995359073E+03 0.  0.
        5    1    3    3  502    0 -0.18463947792E+03  0.17656053912E+03  0.48276976629E+03  0.54621799497E+03  0.46999998093E+01 0.  1.
       -5    1    3    3    0  502  0.18463947792E+03 -0.17656053912E+03 -0.38116574063E+03  0.45888426930E+03  0.46999998093E+01 0. -1.
</event>
<event>
 5   0  0.1461334E-04  0.9995280E+03  0.7818609E-02  0.9309063E-01
       -1   -1    0    0    0  501  0.00000000000E+00  0.00000000000E+00  0.43536650534E+03  0.43536650537E+03  0.50400001928E-02 0. -1.
        1   -1    0    0  501    0  0.00000000000E+00  0.00000000000E+00 -0.57368688286E+03  0.57368688288E+03  0.50400001928E-02 0.  1.
    10030    2    1    2    0    0  0.00000000000E+00  0.00000000000E+00 -0.13832037752E+03  0.10090533882E+04  0.99952799535E+03 0.  0.
        2    1    3    3  502    0 -0.21983233981E+03 -0.41413761127E+03  0.10548508226E+03  0.48058643477E+03  0.25500000920E-02 0. -1.
       -2    1    3    3    0  502  0.21983233981E+03  0.41413761127E+03 -0.24380545978E+03  0.52846695348E+03  0.25500000920E-02 0.  1.
</event>
<event>
 5   0  0.2473312E-04  0.9995183E+03  0.7818609E-02  0.9309073E-01
       -2   -1    0    0    0  501  0.00000000000E+00  0.00000000000E+00  0.81407960523E+03  0.81407960523E+03  0.25500000920E-02 0. -1.
        2   -1    0    0  501    0  0.00000000000E+00  0.00000000000E+00 -0.30679949899E+03  0.30679949900E+03  0.25500000920E-02 0.  1.
    10030    2    1    2    0    0  0.00000000000E+00  0.00000000000E+00  0.50728010624E+03  0.11208791042E+04  0.99951831405E+03 0.  0.
        5    1    3    3  502    0  0.15200311532E+03  0.38684209810E+02  0.78573631752E+03  0.80125218616E+03  0.46999998093E+01 0. -1.
       -5    1    3    3    0  502 -0.15200311532E+03 -0.38684209810E+02 -0.27845621128E+03  0.31962691807E+03  0.46999998093E+01 0.  1.
</event>
<event>
 5   0  0.1453863E-04  0.1000111E+04  0.7818609E-02  0.9308423E-01
       -1   -1    0    0    0  501  0.00000000000E+00  0.00000000000E+00  0.23297495865E+03  0.23297495870E+03  0.50400001928E-02 0.  1.
        1   -1    0    0  501    0  0.00000000000E+00  0.00000000000E+00 -0.10733145396E+04  0.10733145396E+04  0.50400001928E-02 0. -1.
    10030    2    1    2    0    0  0.00000000000E+00  0.00000000000E+00 -0.84033958098E+03  0.13062894983E+04  0.10001108149E+04 0.  0.
        1    1    3    3  502    0 -0.31249068528E+03  0.11532971543E+03 -0.90731807969E+03  0.96652856627E+03  0.50400001928E-02 0. -1.
       -1    1    3    3    0  502  0.31249068528E+03 -0.11532971543E+03  0.66978498713E+02  0.33976093208E+03  0.50400001928E-02 0.  1.
</event>
<event>
 5   0  0.1453863E-04  0.9993084E+03  0.7818609E-02  0.9309304E-01
        1   -1    0    0  501    0  0.00000000000E+00  0.00000000000E+00  0.30323743585E+03  0.30323743590E+03  0.50400001928E-02 0. -1.
       -1   -1    0    0    0  501  0.00000000000E+00  0.00000000000E+00 -0.82329645122E+03  0.82329645124E+03  0.50400001928E-02 0.  1.
    10030    2    1    2    0    0  0.00000000000E+00  0.00000000000E+00 -0.52005901537E+03  0.11265338871E+04  0.99930837052E+03 0.  0.
        1    1    3    3  502    0 -0.92269675704E+02  0.32658562775E+03  0.15337720511E+03  0.37241969924E+03  0.50400001928E-02 0. -1.
       -1    1    3    3    0  502  0.92269675704E+02 -0.32658562775E+03 -0.67343622047E+03  0.75411418789E+03  0.50400001928E-02 0.  1.
</event>
<event>
 5   0  0.2484904E-04  0.9998957E+03  0.7818609E-02  0.9308659E-01
        2   -1    0    0  501    0  0.00000000000E+00  0.00000000000E+00  0.60830936306E+03  0.60830936306E+03  0.25500000920E-02 0.  1.
       -2   -1    0    0    0  501  0.00000000000E+00  0.00000000000E+00 -0.41088939954E+03  0.41088939955E+03  0.25500000920E-02 0. -1.
    10030    2    1    2    0    0  0.00000000000E+00  0.00000000000E+00  0.19741996351E+03  0.10191987626E+04  0.99989573242E+03 0.  0.
        3    1    3    3  502    0  0.37757969125E+03 -0.21091246913E+03  0.35434503305E+03  0.55911618249E+03  0.10100000352E+00 0.  1.
       -3    1    3    3    0  502 -0.37757969125E+03  0.21091246913E+03 -0.15692506954E+03  0.46008258012E+03  0.10100000352E+00 0. -1.
</event>
<event>
 5   0  0.1414165E-04  0.1000184E+04  0.7818609E-02  0.9308343E-01
        1   -1    0    0  501    0  0.00000000000E+00  0.00000000000E+00  0.35604987259E+03  0.35604987263E+03  0.50400001928E-02 0. -1.
       -1   -1    0    0    0  501  0.00000000000E+00  0.00000000000E+00 -0.70240722709E+03  0.70240722711E+03  0.50400001928E-02 0.  1.
    10030    2    1    2    0    0  0.00000000000E+00  0.00000000000E+00 -0.34635735450E+03  0.10584570997E+04  0.10001839906E+04 0.  0.
        4    1    3    3  502    0  0.29136323970E+03  0.22652954511E+03 -0.53030455534E+03  0.64609032385E+03  0.12699999809E+01 0.  1.
       -4    1    3    3    0  502 -0.29136323970E+03 -0.22652954511E+03  0.18394720084E+03  0.41236677589E+03  0.12699999809E+01 0. -1.
</event>
<event>
 5   0  0.1453863E-04  0.1001370E+04  0.7818609E-02  0.9307044E-01
        1   -1    0    0  501    0  0.00000000000E+00  0.00000000000E+00  0.92164390495E+03  0.92164390497E+03  0.50400001928E-02 0.  1.
       -1   -1    0    0    0  501  0.00000000000E+00  0.00000000000E+00 -0.27199813999E+03  0.27199814004E+03  0.50400001928E-02 0. -1.
    10030    2    1    2    0    0  0.00000000000E+00  0.00000000000E+00  0.64964576496E+03  0.11936420450E+04  0.10013699175E+04 0.  0.
        1    1    3    3  502    0 -0.44376607475E+02  0.49015253080E+03  0.43450482770E+03  0.65651598005E+03  0.50400001928E-02 0.  1.
       -1    1    3    3    0  502  0.44376607475E+02 -0.49015253080E+03  0.21514093727E+03  0.53712606495E+03  0.50400001928E-02 0. -1.
</event>
<event>
 5   0  0.2473312E-04  0.9996212E+03  0.7818609E-02  0.9308960E-01
       -2   -1    0    0    0  501  0.00000000000E+00  0.00000000000E+00  0.86647657963E+03  0.86647657963E+03  0.25500000920E-02 0. -1.
        2   -1    0    0  501    0  0.00000000000E+00  0.00000000000E+00 -0.28830627152E+03  0.28830627153E+03  0.25500000920E-02 0.  1.
    10030    2    1    2    0    0  0.00000000000E+00  0.00000000000E+00  0.57817030811E+03  0.11547828512E+04  0.99962119234E+03 0.  0.
        5    1    3    3  502    0  0.12143540252E+03  0.45455877790E+03  0.94341220683E+02  0.47988810724E+03  0.46999998093E+01 0. -1.
       -5    1    3    3    0  502 -0.12143540252E+03 -0.45455877790E+03  0.48382908742E+03  0.67489474393E+03  0.46999998093E+01 0.  1.
</event>
<event>
 5   0  0.1430675E-04  0.9996951E+03  0.7818609E-02  0.9308879E-01
        1   -1    0    0  501    0  0.00000000000E+00  0.00000000000E+00  0.40755502618E+03  0.40755502621E+03  0.50400001928E-02 0. -1.
       -1   -1    0    0    0  501  0.00000000000E+00  0.00000000000E+00 -0.61304009968E+03  0.61304009970E+03  0.50400001928E-02 0.  1.
    10030    2    1    2    0    0  0.00000000000E+00  0.00000000000E+00 -0.20548507350E+03  0.10205951259E+04  0.99969510132E+03 0.  0.
        5    1    3    3  502    0 -0.44672840442E+03 -0.82712555196E+02  0.10998322225E+03  0.46746768153E+03  0.46999998093E+01 0. -1.
       -5    1    3    3    0  502  0.44672840442E+03  0.82712555196E+02 -0.31546829575E+03  0.55312744438E+03  0.46999998093E+01 0.  1.
</event>
<event>
 5   0  0.2484904E-04  0.1000611E+04  0.7818609E-02  0.9307875E-01
       -2   -1    0    0    0  501  0.00000000000E+00  0.00000000000E+00  0.21833264880E+03  0.21833264881E+03  0.25500000920E-02 0.  1.
        2   -1    0    0  501    0  0.00000000000E+00  0.00000000000E+00 -0.11464411226E+04  0.11464411226E+04  0.25500000920E-02 0. -1.
    10030    2    1    2    0    0  0.00000000000E+00  0.00000000000E+00 -0.92810847377E+03  0.13647737714E+04  0.10006108674E+04 0.  0.
        3    1    3    3  502    0 -0.15487444060E+03 -0.12182496673E+03 -0.10912861605E+04  0.11089332302E+04  0.10100000352E+00 0. -1.
       -3    1    3    3    0  502  0.15487444060E+03  0.12182496673E+03  0.16317768669E+03  0.25584054116E+03  0.10100000352E+00 0.  1.
</event>
<event>
 5   0  0.1461334E-04  0.9999772E+03  0.7818609E-02  0.9308570E-01
        1   -1    0    0  501    0  0.00000000000E+00  0.00000000000E+00  0.92175501529E+03  0.92175501531E+03  0.50400001928E-02 0. -1.
       -1   -1    0    0    0  501  0.00000000000E+00  0.00000000000E+00 -0.27120938851E+03  0.27120938856E+03  0.50400001928E-02 0.  1.
    10030    2    1    2    0    0  0.00000000000E+00  0.00000000000E+00  0.65054562678E+03  0.11929644039E+04  0.99997722793E+03 0.  0.
        2    1    3    3  502    0 -0.42261813065E+03 -0.25630735293E+03  0.41525530934E+03  0.64555132675E+03  0.25500000920E-02 0. -1.
       -2    1    3    3    0  502  0.42261813065E+03  0.25630735293E+03  0.23529031744E+03  0.54741307712E+03  0.25500000920E-02 0.  1.
</event>
<event>
 5   0  0.1414165E-04  0.9999353E+03  0.7818609E-02  0.9308616E-01
        1   -1    0    0  501    0  0.00000000000E+00  0.00000000000E+00  0.52220581648E+03  0.52220581650E+03  0.50400001928E-02 0. -1.
       -1   -1    0    0    0  501  0.00000000000E+00  0.00000000000E+00 -0.47867647223E+03  0.47867647225E+03  0.50400001928E-02 0.  1.
    10030    2    1    2    0    0  0.00000000000E+00  0.00000000000E+00  0.43529344252E+02  0.10008822888E+04  0.99993527397E+03 0.  0.
        4    1    3    3  502    0  0.48539322908E+03  0.74849033987E+01 -0.97945478613E+02  0.49523483348E+03  0.12699999809E+01 0. -1.
       -4    1    3    3    0  502 -0.48539322908E+03 -0.74849033987E+01  0.14147482287E+03  0.50564745527E+03  0.12699999809E+01 0.  1.
</event>
<event>
 5   0  0.1453863E-04  0.1000040E+04  0.7818609E-02  0.9308501E-01
        1   -1    0    0  501    0  0.00000000000E+00  0.00000000000E+00  0.11108682350E+04  0.11108682350E+04  0.50400001928E-02 0. -1.
       -1   -1    0    0    0  501  0.00000000000E+00  0.00000000000E+00 -0.22506721754E+03  0.22506721760E+03  0.50400001928E-02 0.  1.
    10030    2    1    2    0    0  0.00000000000E+00  0.00000000000E+00  0.88580101745E+03  0.13359354526E+04  0.10000400447E+04 0.  0.
        1    1    3    3  502    0 -0.31713121190E+03 -0.36823977138E+03  0.60009975010E+03  0.77219974416E+03  0.50400001928E-02 0.  1.
       -1    1    3    3    0  502  0.31713121190E+03  0.36823977138E+03  0.28570126735E+03  0.56373570845E+03  0.50400001928E-02 0. -1.
</event>
<event>
 5   0  0.1414165E-04  0.1000215E+04  0.7818609E-02  0.9308309E-01
        1   -1    0    0  501    0  0.00000000000E+00  0.00000000000E+00  0.34296803744E+03  0.34296803748E+03  0.50400001928E-02 0. -1.
       -1   -1    0    0    0  501  0.00000000000E+00  0.00000000000E+00 -0.72924486929E+03  0.72924486930E+03  0.50400001928E-02 0.  1.
    10030    2    1    2    0    0  0.00000000000E+00  0.00000000000E+00 -0.38627683185E+03  0.10722129068E+04  0.10002153401E+04 0.  0.
        4    1    3    3  502    0 -0.18364460269E+03 -0.70293235938E+02 -0.68606322105E+03  0.71368819192E+03  0.12699999809E+01 0.  1.
       -4    1    3    3    0  502  0.18364460269E+03  0.70293235938E+02  0.29978638920E+03  0.35852471486E+03  0.12699999809E+01 0. -1.
</event>
<event>
 5   0  0.2503680E-04  0.1001072E+04  0.7818609E-02  0.9307370E-01
        2   -1    0    0  501    0  0.00000000000E+00  0.00000000000E+00  0.13289281988E+04  0.13289281988E+04  0.25500000920E-02 0.  1.
       -2   -1    0    0    0  501  0.00000000000E+00  0.00000000000E+00 -0.18852500859E+03  0.18852500860E+03  0.25500000920E-02 0. -1.
    10030    2    1    2    0    0  0.00000000000E+00  0.00000000000E+00  0.11404031902E+04  0.15174532074E+04  0.10010718258E+04 0.  0.
        2    1    3    3  502    0 -0.35113081591E+03  0.35352830751E+03  0.64228057160E+03  0.81289571702E+03  0.25500000920E-02 0. -1.
       -2    1    3    3    0  502  0.35113081591E+03 -0.35352830751E+03  0.49812261865E+03  0.70455749042E+03  0.25500000920E-02 0.  1.
</event>
<event>
 5   0  0.2403037E-04  0.1000121E+04  0.7818609E-02  0.9308413E-01
        2   -1    0    0  501    0  0.00000000000E+00  0.00000000000E+00  0.99399724040E+03  0.99399724040E+03  0.25500000920E-02 0. -1.
       -2   -1    0    0    0  501  0.00000000000E+00  0.00000000000E+00 -0.25157042686E+03  0.25157042687E+03  0.25500000920E-02 0.  1.
    10030    2    1    2    0    0  0.00000000000E+00  0.00000000000E+00  0.74242681354E+03  0.12455676673E+04  0.10001206129E+04 0.  0.
        1    1    3    3  502    0 -0.42358247254E+03 -0.23864647792E+03  0.51691158758E+03  0.70962796018E+03  0.50400001928E-02 0.  1.
       -1    1    3    3    0  502  0.42358247254E+03  0.23864647792E+03  0.22551522596E+03  0.53593970709E+03  0.50400001928E-02 0. -1.
</event>
<event>
 5   0  0.2484904E-04  0.1002032E+04  0.7818609E-02  0.9306319E-01
       -2   -1    0    0    0  501  0.00000000000E+00  0.00000000000E+00  0.64049710662E+03  0.64049710663E+03  0.25500000920E-02 0. -1.
        2   -1    0    0  501    0  0.00000000000E+00  0.00000000000E+00 -0.39190961289E+03  0.39190961290E+03  0.25500000920E-02 0.  1.
    10030    2    1    2    0    0  0.00000000000E+00  0.00000000000E+00  0.24858749373E+03  0.10324067195E+04  0.10020318820E+04 0.  0.
        3    1    3    3  502    0 -0.45793744395E+03  0.19234211009E+03  0.19197186289E+03  0.53249919833E+03  0.10100000352E+00 0. -1.
       -3    1    3    3    0  502  0.45793744395E+03 -0.19234211009E+03  0.56615630844E+02  0.49990752119E+03  0.10100000352E+00 0.  1.
</event>
<event>
 5   0  0.2403037E-04  0.1001045E+04  0.7818609E-02  0.9307399E-01
        2   -1    0    0  501    0  0.00000000000E+00  0.00000000000E+00  0.81090574829E+03  0.81090574829E+03  0.25500000920E-02 0.  1.
       -2   -1    0    0    0  501  0.00000000000E+00  0.00000000000E+00 -0.30894188633E+03  0.30894188634E+03  0.25500000920E-02 0. -1.
    10030    2    1    2    0    0  0.00000000000E+00  0.00000000000E+00  0.50196386196E+03  0.11198476346E+04  0.10010449571E+04 0.  0.
        1    1    3    3  502    0 -0.40331718975E+03  0.18657475620E+02  0.58191025140E+03  0.70826012005E+03  0.50400001928E-02 0.  1.
       -1    1    3    3    0  502  0.40331718975E+03 -0.18657475620E+02 -0.79946389449E+02  0.41158751458E+03  0.50400001928E-02 0. -1.
</event>
<event>
 5   0  0.2353916E-04  0.1000450E+04  0.7818609E-02  0.9308052E-01
        2   -1    0    0  501    0  0.00000000000E+00  0.00000000000E+00  0.18466914331E+04  0.18466914331E+04  0.25500000920E-02 0.  1.
       -2   -1    0    0    0  501  0.00000000000E+00  0.00000000000E+00 -0.13549906026E+03  0.13549906029E+03  0.25500000920E-02 0. -1.
    10030    2    1    2    0    0  0.00000000000E+00  0.00000000000E+00  0.17111923729E+04  0.19821904934E+04  0.10004498064E+04 0.  0.
        4    1    3    3  502    0  0.89815311707E+02 -0.44020885172E+03  0.12913591618E+04  0.13672822390E+04  0.12699999809E+01 0.  1.
       -4    1    3    3    0  502 -0.89815311707E+02  0.44020885172E+03  0.41983321101E+03  0.61490825439E+03  0.12699999809E+01 0. -1.
</event>
<event>
 5   0  0.1506454E-04  0.9998238E+03  0.7818609E-02  0.9308738E-01
       -1   -1    0    0    0  501  0.00000000000E+00  0.00000000000E+00  0.25061328031E+03  0.25061328036E+03  0.50400001928E-02 0.  1.
        1   -1    0    0  501    0  0.00000000000E+00  0.00000000000E+00 -0.99720140711E+03  0.99720140713E+03  0.50400001928E-02 0. -1.
    10030    2    1    2    0    0  0.00000000000E+00  0.00000000000E+00 -0.74658812680E+03  0.12478146875E+04  0.99982381609E+03 0.  0.
        3    1    3    3  502    0  0.24212383703E+03 -0.43736439656E+03 -0.37256873212E+03  0.62347336606E+03  0.10100000352E+00 0.  1.
       -3    1    3    3    0  502 -0.24212383703E+03  0.43736439656E+03 -0.37401939469E+03  0.62434132142E+03  0.10100000352E+00 0. -1.
</event>
<event>
 5   0  0.1453863E-04  0.1000111E+04  0.7818609E-02  0.9308423E-01
        1   -1    0    0  501    0  0.00000000000E+00  0.00000000000E+00  0.88529359278E+03  0.88529359280E+03  0.50400001928E-02 0. -1.
       -1   -1    0    0    0  501  0.00000000000E+00  0.00000000000E+00 -0.28245490064E+03  0.28245490068E+03  0.50400001928E-02 0.  1.
    10030    2    1    2    0    0  0.00000000000E+00  0.00000000000E+00  0.60283869215E+03  0.11677484935E+04  0.10001110215E+04 0.  0.
        1    1    3    3  502    0  0.32937823010E+03  0.16060431676E+03  0.69870455744E+03  0.78896883566E+03  0.50400001928E-02 0. -1.
       -1    1    3    3    0  502 -0.32937823010E+03 -0.16060431676E+03 -0.95865865298E+02  0.37877965782E+03  0.50400001928E-02 0.  1.
</event>
<event>
 5   0  0.1430675E-04  0.9995088E+03  0.7818609E-02  0.9309084E-01
       -1   -1    0    0    0  501  0.00000000000E+00  0.00000000000E+00  0.48161523529E+03  0.48161523532E+03  0.50400001928E-02 0. -1.
        1   -1    0    0  501    0  0.00000000000E+00  0.00000000000E+00 -0.51857679058E+03  0.51857679060E+03  0.50400001928E-02 0.  1.
    10030    2    1    2    0    0  0.00000000000E+00  0.00000000000E+00 -0.36961555289E+02  0.10001920259E+04  0.99950884546E+03 0.  0.
        5    1    3    3  502    0  0.44097414323E+02 -0.45813698276E+03  0.17632718434E+03  0.49289699010E+03  0.46999998093E+01 0. -1.
       -5    1    3    3    0  502 -0.44097414323E+02  0.45813698276E+03 -0.21328873963E+03  0.50729503582E+03  0.46999998093E+01 0.  1.
</event>
<event>
 5   0  0.1453863E-04  0.9994761E+03  0.7818609E-02  0.9309120E-01
       -1   -1    0    0    0  501  0.00000000000E+00  0.00000000000E+00  0.50067572333E+03  0.50067572336E+03  0.50400001928E-02 0.  1.
        1   -1    0    0  501    0  0.00000000000E+00  0.00000000000E+00 -0.49880215611E+03  0.49880215613E+03  0.50400001928E-02 0. -1.
    10030    2    1    2    0    0  0.00000000000E+00  0.00000000000E+00  0.18735672269E+01  0.99947787949E+03  0.99947612344E+03 0.  0.
        1    1    3    3  502    0  0.11598651672E+03 -0.50135653194E+02 -0.48256347076E+03  0.49883259629E+03  0.50400001928E-02 0. -1.
       -1    1    3    3    0  502 -0.11598651672E+03  0.50135653194E+02  0.48443703799E+03  0.50064528320E+03  0.50400001928E-02 0.  1.
</event>
<event>
 5   0  0.1414165E-04  0.9994161E+03  0.7818609E-02  0.9309185E-01
        1   -1    0    0  501    0  0.00000000000E+00  0.00000000000E+00  0.69438458617E+03  0.69438458619E+03  0.50400001928E-02 0. -1.
       -1   -1    0    0    0  501  0.00000000000E+00  0.00000000000E+00 -0.35961069416E+03  0.35961069420E+03  0.50400001928E-02 0.  1.
    10030    2    1    2    0    0  0.00000000000E+00  0.00000000000E+00  0.33477389201E+03  0.10539952804E+04  0.99941607567E+03 0.  0.
        4    1    3    3  502    0  0.12863862206E+03  0.42402694718E+03 -0.76225393223E+02  0.44962058504E+03  0.12699999809E+01 0.  1.
       -4    1    3    3    0  502 -0.12863862206E+03 -0.42402694718E+03  0.41099928523E+03  0.60437469535E+03  0.12699999809E+01 0. -1.
</event>
<event>
 5   0  0.1506454E-04  0.9997342E+03  0.7818609E-02  0.9308836E-01
       -1   -1    0    0    0  501  0.00000000000E+00  0.00000000000E+00  0.24493047621E+03  0.24493047626E+03  0.50400001928E-02 0. -1.
        1   -1    0    0  501    0  0.00000000000E+00  0.00000000000E+00 -0.10201552572E+04  0.10201552572E+04  0.50400001928E-02 0.  1.
    10030    2    1    2    0    0  0.00000000000E+00  0.00000000000E+00 -0.77522478101E+03  0.12650857335E+04  0.99973419066E+03 0.  0.
        3    1    3    3  502    0  0.21325716393E+03  0.21402553653E+03  0.11630778717E+03  0.32374845144E+03  0.10100000352E+00 0. -1.
       -3    1    3    3    0  502 -0.21325716393E+03 -0.21402553653E+03 -0.89153256818E+03  0.94133728205E+03  0.10100000352E+00 0.  1.
</event>
<event>
 5   0  0.2353916E-04  0.9992489E+03  0.7818609E-02  0.9309369E-01
       -2   -1    0    0    0  501  0.00000000000E+00  0.00000000000E+00  0.20465312485E+03  0.20465312487E+03  0.25500000920E-02 0. -1.
        2   -1    0    0  501    0  0.00000000000E+00  0.00000000000E+00 -0.12197447375E+04  0.12197447375E+04  0.25500000920E-02 0.  1.
    10030    2    1    2    0    0  0.00000000000E+00  0.00000000000E+00 -0.10150916126E+04  0.14243978624E+04  0.99924886203E+03 0.  0.
        4    1    3    3  502    0 -0.62588966929E+02  0.73835051330E+02 -0.12062493297E+04  0.12101272875E+04  0.12699999809E+01 0.  1.
       -4    1    3    3    0  502  0.62588966929E+02 -0.73835051330E+02  0.19115771704E+03  0.21427057491E+03  0.12699999809E+01 0. -1.
</event>
<event>
 5   0  0.1461334E-04  0.9994280E+03  0.7818609E-02  0.9309172E-01
        1   -1    0    0  501    0  0.00000000000E+00  0.00000000000E+00  0.35624299916E+03  0.35624299919E+03  0.50400001928E-02 0.  1.
       -1   -1    0    0    0  501  0.00000000000E+00  0.00000000000E+00 -0.70096557560E+03  0.70096557562E+03  0.50400001928E-02 0. -1.
    10030    2    1    2    0    0  0.00000000000E+00  0.00000000000E+00 -0.34472257644E+03  0.10572085748E+04  0.99942799438E+03 0.  0.
        2    1    3    3  502    0  0.42018906117E+03 -0.11271659102E+03  0.87719363637E+02  0.44380013946E+03  0.25500000920E-02 0.  1.
       -2    1    3    3    0  502 -0.42018906117E+03  0.11271659102E+03 -0.43244194008E+03  0.61340843536E+03  0.25500000920E-02 0. -1.
</event>
<event>
 5   0  0.1506454E-04  0.1000437E+04  0.7818609E-02  0.9308066E-01
        1   -1    0    0  501    0  0.00000000000E+00  0.00000000000E+00  0.31309721014E+03  0.31309721018E+03  0.50400001928E-02 0.  1.
       -1   -1    0    0    0  501  0.00000000000E+00  0.00000000000E+00 -0.79917199408E+03  0.79917199410E+03  0.50400001928E-02 0. -1.
    10030    2    1    2    0    0  0.00000000000E+00  0.00000000000E+00 -0.48607478394E+03  0.11122692043E+04  0.10004369481E+04 0.  0.
        3    1    3    3  502    0 -0.14400622222E+03  0.20572786245E+02 -0.77513637575E+03  0.78866814490E+03  0.10100000352E+00 0. -1.
       -3    1    3    3    0  502  0.14400622222E+03 -0.20572786245E+02  0.28906159180E+03  0.32360105938E+03  0.10100000352E+00 0.  1.
</event>
<event>
 5   0  0.2473312E-04  0.9998332E+03  0.7818609E-02  0.9308728E-01
       -2   -1    0    0    0  501  0.00000000000E+00  0.00000000000E+00  0.14159133133E+04  0.14159133133E+04  0.25500000920E-02 0.  1.
        2   -1    0    0  501    0  0.00000000000E+00  0.00000000000E+00 -0.17650557948E+03  0.17650557949E+03  0.25500000920E-02 0. -1.
    10030    2    1    2    0    0  0.00000000000E+00  0.00000000000E+00  0.12394077338E+04  0.15924188928E+04  0.99983318583E+03 0.  0.
        5    1    3    3  502    0 -0.44997737758E+03 -0.21544207076E+03  0.67005849051E+03  0.83540133881E+03  0.46999998093E+01 0. -1.
       -5    1    3    3    0  502  0.44997737758E+03  0.21544207076E+03  0.56934924333E+03  0.75701755400E+03  0.46999998093E+01 0.  1.
</event>
<event>
 5   0  0.1461334E-04  0.1000289E+04  0.7818609E-02  0.9308228E-01
        1   -1    0    0  501    0  0.00000000000E+00  0.00000000000E+00  0.68867567060E+03  0.68867567062E+03  0.50400001928E-02 0.  1.
       -1   -1    0    0    0  501  0.00000000000E+00  0.00000000000E+00 -0.36322543003E+03  0.36322543007E+03  0.50400001928E-02 0. -1.
    10030    2    1    2    0    0  0.00000000000E+00  0.00000000000E+00  0.32545024057E+03  0.10519011007E+04  0.10002889915E+04 0.  0.
        2    1    3    3  502    0  0.30980307875E+03 -0.38759720094E+03  0.22869119179E+03  0.54635995368E+03  0.25500000920E-02 0.  1.
       -2    1    3    3    0  502 -0.30980307875E+03  0.38759720094E+03  0.96759048773E+02  0.50554114700E+03  0.25500000920E-02 0. -1.
</event>
<event>
 5   0  0.1506454E-04  0.1000027E+04  0.7818609E-02  0.9308516E-01
        1   -1    0    0  501    0  0.00000000000E+00  0.00000000000E+00  0.12741095017E+04  0.12741095017E+04  0.50400001928E-02 0. -1.
       -1   -1    0    0    0  501  0.00000000000E+00  0.00000000000E+00 -0.19622593576E+03  0.19622593583E+03  0.50400001928E-02 0.  1.
    10030    2    1    2    0    0  0.00000000000E+00  0.00000000000E+00  0.10778835659E+04  0.14703354375E+04  0.10000266582E+04 0.  0.
        3    1    3    3  502    0  0.20408905782E+03 -0.25796762253E+03  0.10926282549E+04  0.11410679872E+04  0.10100000352E+00 0. -1.
       -3    1    3    3    0  502 -0.20408905782E+03  0.25796762253E+03 -0.14744688971E+02  0.32926745033E+03  0.10100000352E+00 0.  1.
</event>
<event>
 5   0  0.1430675E-04  0.9990903E+03  0.7818609E-02  0.9309543E-01
        1   -1    0    0  501    0  0.00000000000E+00  0.00000000000E+00  0.45743683740E+03  0.45743683743E+03  0.50400001928E-02 0. -1.
       -1   -1    0    0    0  501  0.00000000000E+00  0.00000000000E+00 -0.54552967580E+03  0.54552967583E+03  0.50400001928E-02 0.  1.
    10030    2    1    2    0    0  0.00000000000E+00  0.00000000000E+00 -0.88092838401E+02  0.10029665133E+04  0.99909032551E+03 0.  0.
        5    1    3    3  502    0  0.11198409048E+03 -0.27160429981E+03 -0.44961127471E+03  0.53710494370E+03  0.46999998093E+01 0.  1.
       -5    1    3    3    0  502 -0.11198409048E+03  0.27160429981E+03  0.36151843631E+03  0.46586156956E+03  0.46999998093E+01 0. -1.
</event>
<event>
 5   0  0.2503680E-04  0.1000078E+04  0.7818609E-02  0.9308460E-01
       -2   -1    0    0    0  501  0.00000000000E+00  0.00000000000E+00  0.70784150675E+03  0.70784150675E+03  0.25500000920E-02 0. -1.
        2   -1    0    0  501    0  0.00000000000E+00  0.00000000000E+00 -0.35324120125E+03  0.35324120125E+03  0.25500000920E-02 0.  1.
    10030    2    1    2    0    0  0.00000000000E+00  0.00000000000E+00  0.35460030550E+03  0.10610827080E+04  0.10000775653E+04 0.  0.
        2    1    3    3  502    0 -0.39789412777E+03 -0.35153130748E+02 -0.14185347032E+03  0.42388428440E+03  0.25500000920E-02 0.  1.
       -2    1    3    3    0  502  0.39789412777E+03  0.35153130748E+02  0.49645377582E+03  0.63719842361E+03  0.25500000920E-02 0. -1.
</event>
<event>
 5   0  0.2503680E-04  0.9998019E+03  0.7818609E-02  0.9308762E-01
        2   -1    0    0  501    0  0.00000000000E+00  0.00000000000E+00  0.13729831489E+04  0.13729831489E+04  0.25500000920E-02 0. -1.
       -2   -1    0    0    0  501  0.00000000000E+00  0.00000000000E+00 -0.18201314338E+03  0.18201314340E+03  0.25500000920E-02 0.  1.
    10030    2    1    2    0    0  0.00000000000E+00  0.00000000000E+00  0.11909700056E+04  0.15549962923E+04  0.99980193791E+03 0.  0.
        2    1    3    3  502    0  0.23871651658E+03 -0.19855523339E+03  0.12048214507E+04  0.12441882832E+04  0.25500000920E-02 0. -1.
       -2    1    3    3    0  502 -0.23871651658E+03  0.19855523339E+03 -0.13851445158E+02  0.31080800912E+03  0.25500000920E-02 0.  1.
</event>
<event>
 5   0  0.2484904E-04  0.9999172E+03  0.7818609E-02  0.9308636E-01
       -2   -1    0    0    0  501  0.00000000000E+00  0.00000000000E+00  0.19995094508E+03  0.19995094509E+03  0.25500000920E-02 0.  1.
        2   -1    0    0  501    0  0.00000000000E+00  0.00000000000E+00 -0.12500995865E+04  0.12500995865E+04  0.25500000920E-02 0. -1.
    10030    2    1    2    0    0  0.00000000000E+00  0.00000000000E+00 -0.10501486414E+04  0.14500505316E+04  0.99991718410E+03 0.  0.
        3    1    3    3  502    0  0.43156177395E+03 -0.14957522637E+03 -0.23022117753E+03  0.51148813658E+03  0.10100000352E+00 0. -1.
       -3    1    3    3    0  502 -0.43156177395E+03  0.14957522637E+03 -0.81992746386E+03  0.93856239498E+03  0.10100000352E+00 0.  1.
</event>
<event>
 5   0  0.2353916E-04  0.1000156E+04  0.7818609E-02  0.9308373E-01
        2   -1    0    0  501    0  0.00000000000E+00  0.00000000000E+00  0.69981591344E+03  0.69981591344E+03  0.25500000920E-02 0.  1.
       -2   -1    0    0    0  501  0.00000000000E+00  0.00000000000E+00 -0.35734852362E+03  0.35734852362E+03  0.25500000920E-02 0. -1.
    10030    2    1    2    0    0  0.00000000000E+00  0.00000000000E+00  0.34246738982E+03  0.10571644371E+04  0.10001563547E+04 0.  0.
        4    1    3    3  502    0  0.20716416126E+03 -0.11907689085E+03 -0.29310096962E+03  0.37816145617E+03  0.12699999809E+01 0. -1.
       -4    1    3    3    0  502 -0.20716416126E+03  0.11907689085E+03  0.63556835944E+03  0.67900298089E+03  0.12699999809E+01 0.  1.
</event>
<event>
 5   0  0.1453863E-04  0.9997533E+03  0.7818609E-02  0.9308815E-01
       -1   -1    0    0    0  501  0.00000000000E+00  0.00000000000E+00  0.24965725293E+03  0.24965725298E+03  0.50400001928E-02 0.  1.
        1   -1    0    0  501    0  0.00000000000E+00  0.00000000000E+00 -0.10008788418E+04  0.10008788418E+04  0.50400001928E-02 0. -1.
    10030    2    1    2    0    0  0.00000000000E+00  0.00000000000E+00 -0.75122158883E+03  0.12505360947E+04  0.99975329393E+03 0.  0.
        1    1    3    3  502    0 -0.36880977687E+03 -0.32894228377E+03 -0.28156437002E+03  0.56877251345E+03  0.50400001928E-02 0. -1.
       -1    1    3    3    0  502  0.36880977687E+03  0.32894228377E+03 -0.46965721880E+03  0.68176358129E+03  0.50400001928E-02 0.  1.
</event>
<event>
 5   0  0.2353916E-04  0.1000350E+04  0.7818609E-02  0.9308161E-01
        2   -1    0    0  501    0  0.00000000000E+00  0.00000000000E+00  0.46462507559E+03  0.46462507560E+03  0.25500000920E-02 0.  1.
       -2   -1    0    0    0  501  0.00000000000E+00  0.00000000000E+00 -0.53844542656E+03  0.53844542657E+03  0.25500000920E-02 0. -1.
    10030    2    1    2    0    0  0.00000000000E+00  0.00000000000E+00 -0.73820350967E+02  0.10030705022E+04  0.10003504326E+04 0.  0.
        4    1    3    3  502    0 -0.20881929864E+03 -0.35929094915E+03  0.24219565676E+03  0.48099463061E+03  0.12699999809E+01 0.  1.
       -4    1    3    3    0  502  0.20881929864E+03  0.35929094915E+03 -0.31601600773E+03  0.52207587156E+03  0.12699999809E+01 0. -1.
</event>
<event>
 5   0  0.1414165E-04  0.9994553E+03  0.7818609E-02  0.9309142E-01
        1   -1    0    0  501    0  0.00000000000E+00  0.00000000000E+00  0.75517839033E+03  0.75517839035E+03  0.50400001928E-02 0.  1.
       -1   -1    0    0    0  501  0.00000000000E+00  0.00000000000E+00 -0.33068706056E+03  0.33068706060E+03  0.50400001928E-02 0. -1.
    10030    2    1    2    0    0  0.00000000000E+00  0.00000000000E+00  0.42449132978E+03  0.10858654509E+04  0.99945529590E+03 0.  0.
        4    1    3    3  502    0  0.46904708679E+03  0.17231392631E+03  0.21808130555E+03  0.54521401996E+03  0.12699999809E+01 0.  1.
       -4    1    3    3    0  502 -0.46904708679E+03 -0.17231392631E+03  0.20641002422E+03  0.54065143099E+03  0.12699999809E+01 0. -1.
</event>
<event>
 5   0  0.2403037E-04  0.9997833E+03  0.7818609E-02  0.9308782E-01
        2   -1    0    0  501    0  0.00000000000E+00  0.00000000000E+00  0.58065691364E+03  0.58065691364E+03  0.25500000920E-02 0.  1.
       -2   -1    0    0    0  501  0.00000000000E+00  0.00000000000E+00 -0.43036028073E+03  0.43036028073E+03  0.25500000920E-02 0. -1.
    10030    2    1    2    0    0  0.00000000000E+00  0.00000000000E+00  0.15029663291E+03  0.10110171944E+04  0.99978332126E+03 0.  0.
        1    1    3    3  502    0 -0.17914846502E+03  0.70279328767E+02  0.54169807074E+03  0.57486533765E+03  0.50400001928E-02 0.  1.
       -1    1    3    3    0  502  0.17914846502E+03 -0.70279328767E+02 -0.39140143782E+03  0.43615185673E+03  0.50400001928E-02 0. -1.
</event>
<event>
 5   0  0.1506454E-04  0.1000300E+04  0.7818609E-02  0.9308216E-01
        1   -1    0    0  501    0  0.00000000000E+00  0.00000000000E+00  0.76984889625E+03  0.76984889626E+03  0.50400001928E-02 0. -1.
       -1   -1    0    0    0  501  0.00000000000E+00  0.00000000000E+00 -0.32493379008E+03  0.32493379012E+03  0.50400001928E-02 0.  1.
    10030    2    1    2    0    0  0.00000000000E+00  0.00000000000E+00  0.44491510616E+03  0.10947826864E+04  0.10002997944E+04 0.  0.
        3    1    3    3  502    0  0.16004345992E+03  0.24490065770E+03  0.66643350047E+03  0.72782131183E+03  0.10100000352E+00 0. -1.
       -3    1    3    3    0  502 -0.16004345992E+03 -0.24490065770E+03 -0.22151839430E+03  0.36696137456E+03  0.10100000352E+00 0.  1.
</event>
<event>
 5   0  0.2484904E-04  0.1000113E+04  0.7818609E-02  0.9308421E-01
        2   -1    0    0  501    0  0.00000000000E+00  0.00000000000E+00  0.76944857531E+03  0.76944857532E+03  0.25500000920E-02 0. -1.
       -2   -1    0    0    0  501  0.00000000000E+00  0.00000000000E+00 -0.32498113392E+03  0.32498113393E+03  0.25500000920E-02 0.  1.
    10030    2    1    2    0    0  0.00000000000E+00  0.00000000000E+00  0.44446744139E+03  0.10944297092E+04  0.10001125347E+04 0.  0.
        3    1    3    3  502    0 -0.28511527434E+03  0.37539468094E+03  0.39630794026E+02  0.47305654649E+03  0.10100000352E+00 0.  1.
       -3    1    3    3    0  502  0.28511527434E+03 -0.37539468094E+03  0.40483664737E+03  0.62137316276E+03  0.10100000352E+00 0. -1.
</event>
<event>
 5   0  0.1430675E-04  0.1000224E+04  0.7818609E-02  0.9308299E-01
       -1   -1    0    0    0  501  0.00000000000E+00  0.00000000000E+00  0.72828105600E+03  0.72828105601E+03  0.50400001928E-02 0. -1.
        1   -1    0    0  501    0  0.00000000000E+00  0.00000000000E+00 -0.34342815945E+03  0.34342815949E+03  0.50400001928E-02 0.  1.
    10030    2    1    2    0    0  0.00000000000E+00  0.00000000000E+00  0.38485289654E+03  0.10717092155E+04  0.10002244201E+04 0.  0.
        5    1    3    3  502    0 -0.16445353992E+03 -0.45703754661E+02 -0.31122807450E+03  0.35499127361E+03  0.46999998093E+01 0.  1.
       -5    1    3    3    0  502  0.16445353992E+03  0.45703754661E+02  0.69608097105E+03  0.71671794189E+03  0.46999998093E+01 0. -1.
</event>
<event>
 5   0  0.2403037E-04  0.9999444E+03  0.7818609E-02  0.9308606E-01
       -2   -1    0    0    0  501  0.00000000000E+00  0.00000000000E+00  0.84487523339E+03  0.84487523340E+03  0.25500000920E-02 0.  1.
        2   -1    0    0  501    0  0.00000000000E+00  0.00000000000E+00 -0.29586879724E+03  0.29586879725E+03  0.25500000920E-02 0. -1.
    10030    2    1    2    0    0  0.00000000000E+00  0.00000000000E+00  0.54900643615E+03  0.11407440306E+04  0.99994443672E+03 0.  0.
        1    1    3    3  502    0 -0.56049304474E+02  0.11459250465E+03 -0.27699104360E+03  0.30495410296E+03  0.50400001928E-02 0. -1.
       -1    1    3    3    0  502  0.56049304474E+02 -0.11459250465E+03  0.82599747975E+03  0.83578992769E+03  0.50400001928E-02 0.  1.
</event>
<event>
 5   0  0.2484904E-04  0.1000408E+04  0.7818609E-02  0.9308098E-01
       -2   -1    0    0    0  501  0.00000000000E+00  0.00000000000E+00  0.25083754035E+03  0.25083754036E+03  0.25500000920E-02 0. -1.
        2   -1    0    0  501    0  0.00000000000E+00  0.00000000000E+00 -0.99747352814E+03  0.99747352814E+03  0.25500000920E-02 0.  1.
    10030    2    1    2    0    0  0.00000000000E+00  0.00000000000E+00 -0.74663598779E+03  0.12483110685E+04  0.10004075297E+04 0.  0.
        3    1    3    3  502    0  0.14617841230E+03  0.35702045543E+03 -0.77060559415E+03  0.86177997526E+03  0.10100000352E+00 0.  1.
       -3    1    3    3    0  502 -0.14617841230E+03 -0.35702045543E+03  0.23969606358E+02  0.38653109325E+03  0.10100000352E+00 0. -1.
</event>
<event>
 5   0  0.1430675E-04  0.1002256E+04  0.7818609E-02  0.9306074E-01
        1   -1    0    0  501    0  0.00000000000E+00  0.00000000000E+00  0.12913697766E+04  0.12913697767E+04  0.50400001928E-02 0. -1.
       -1   -1    0    0    0  501  0.00000000000E+00  0.00000000000E+00 -0.19446742533E+03  0.19446742539E+03  0.50400001928E-02 0.  1.
    10030    2    1    2    0    0  0.00000000000E+00  0.00000000000E+00  0.10969023513E+04  0.14858372020E+04  0.10022561662E+04 0.  0.
        5    1    3    3  502    0 -0.36141200351E+03 -0.17726327620E+03  0.99088604117E+03  0.10695410894E+04  0.46999998093E+01 0. -1.
       -5    1    3    3    0  502  0.36141200351E+03  0.17726327620E+03  0.10601631014E+03  0.41629611262E+03  0.46999998093E+01 0.  1.
</event>
<event>
 5   0  0.1414165E-04  0.9997100E+03  0.7818609E-02  0.9308863E-01
       -1   -1    0    0    0  501  0.00000000000E+00  0.00000000000E+00  0.10581769850E+04  0.10581769851E+04  0.50400001928E-02 0. -1.
        1   -1    0    0  501    0  0.00000000000E+00  0.00000000000E+00 -0.23611838595E+03  0.23611838600E+03  0.50400001928E-02 0.  1.
    10030    2    1    2    0    0  0.00000000000E+00  0.00000000000E+00  0.82205859910E+03  0.12942953711E+04  0.99971004156E+03 0.  0.
        4    1    3    3  502    0  0.30894952550E+03 -0.19923057407E+03  0.84952111743E+03  0.92565132356E+03  0.12699999809E+01 0. -1.
       -4    1    3    3    0  502 -0.30894952550E+03  0.19923057407E+03 -0.27462518326E+02  0.36864404750E+03  0.12699999809E+01 0.  1.
</event>
<event>
 5   0  0.1461334E-04  0.9995798E+03  0.7818609E-02  0.9309006E-01
       -1   -1    0    0    0  501  0.00000000000E+00  0.00000000000E+00  0.13632868882E+03  0.13632868892E+03  0.50400001928E-02 0.  1.
        1   -1    0    0  501    0  0.00000000000E+00  0.00000000000E+00 -0.18322623424E+04  0.18322623424E+04  0.50400001928E-02 0. -1.
    10030    2    1    2    0    0  0.00000000000E+00  0.00000000000E+00 -0.16959336536E+04  0.19685910313E+04  0.99957975734E+03 0.  0.
        2    1    3    3  502    0 -0.16340712379E+03 -0.28518548223E+03 -0.15894660977E+04  0.16230943051E+04  0.25500000920E-02 0. -1.
       -2    1    3    3    0  502  0.16340712379E+03  0.28518548223E+03 -0.10646755584E+03  0.34549672623E+03  0.25500000920E-02 0.  1.
</event>
<event>
 5   0  0.2353916E-04  0.1000517E+04  0.7818609E-02  0.9307978E-01
        2   -1    0    0  501    0  0.00000000000E+00  0.00000000000E+00  0.15330731039E+04  0.15330731039E+04  0.25500000920E-02 0.  1.
       -2   -1    0    0    0  501  0.00000000000E+00  0.00000000000E+00 -0.16323987748E+03  0.16323987750E+03  0.25500000920E-02 0. -1.
    10030    2    1    2    0    0  0.00000000000E+00  0.00000000000E+00  0.13698332264E+04  0.16963129814E+04  0.10005171976E+04 0.  0.
        4    1    3    3  502    0 -0.38151395229E+03 -0.16989298098E+03  0.11518254709E+04  0.12252020442E+04  0.12699999809E+01 0.  1.
       -4    1    3    3    0  502  0.38151395229E+03  0.16989298098E+03  0.21800775550E+03  0.47111093719E+03  0.12699999809E+01 0. -1.
</event>
<event>
 5   0  0.2403037E-04  0.1000296E+04  0.7818609E-02  0.9308220E-01
        2   -1    0    0  501    0  0.00000000000E+00  0.00000000000E+00  0.56040667369E+03  0.56040667370E+03  0.25500000920E-02 0. -1.
       -2   -1    0    0    0  501  0.00000000000E+00  0.00000000000E+00 -0.44636876873E+03  0.44636876874E+03  0.25500000920E-02 0.  1.
    10030    2    1    2    0    0  0.00000000000E+00  0.00000000000E+00  0.11403790496E+03  0.10067754424E+04  0.10002960300E+04 0.  0.
        1    1    3    3  502    0 -0.34060576596E+02  0.39740904731E+02 -0.44360478927E+03  0.44668184593E+03  0.50400001928E-02 0.  1.
       -1    1    3    3    0  502  0.34060576596E+02 -0.39740904731E+02  0.55764269424E+03  0.56009359651E+03  0.50400001928E-02 0. -1.
</event>
<event>
 5   0  0.1453863E-04  0.9999979E+03  0.7818609E-02  0.9308547E-01
       -1   -1    0    0    0  501  0.00000000000E+00  0.00000000000E+00  0.21357488696E+03  0.21357488702E+03  0.50400001928E-02 0. -1.
        1   -1    0    0  501    0  0.00000000000E+00  0.00000000000E+00 -0.11705447862E+04  0.11705447862E+04  0.50400001928E-02 0.  1.
    10030    2    1    2    0    0  0.00000000000E+00  0.00000000000E+00 -0.95696989923E+03  0.13841196732E+04  0.99999794087E+03 0.  0.
        1    1    3    3  502    0 -0.19281691400E+03  0.45875602809E+03 -0.41119445874E+03  0.64553569890E+03  0.50400001928E-02 0. -1.
       -1    1    3    3    0  502  0.19281691400E+03 -0.45875602809E+03 -0.54577544049E+03  0.73858397430E+03  0.50400001928E-02 0.  1.
</event>
<event>
 5   0  0.2473312E-04  0.1000232E+04  0.7818609E-02  0.9308291E-01
        2   -1    0    0  501    0  0.00000000000E+00  0.00000000000E+00  0.10316083109E+04  0.10316083109E+04  0.25500000920E-02 0. -1.
       -2   -1    0    0    0  501  0.00000000000E+00  0.00000000000E+00 -0.24245232402E+03  0.24245232403E+03  0.25500000920E-02 0.  1.
    10030    2    1    2    0    0  0.00000000000E+00  0.00000000000E+00  0.78915598687E+03  0.12740606349E+04  0.10002316381E+04 0.  0.
        5    1    3    3  502    0 -0.41951780146E+03  0.23873389085E+03  0.22798870856E+03  0.53384454443E+03  0.46999998093E+01 0.  1.
       -5    1    3    3    0  502  0.41951780146E+03 -0.23873389085E+03  0.56116727831E+03  0.74021609050E+03  0.46999998093E+01 0. -1.
</event>
<event>
 5   0  0.1414165E-04  0.1002335E+04  0.7818609E-02  0.9305988E-01
       -1   -1    0    0    0  501  0.00000000000E+00  0.00000000000E+00  0.15362390305E+03  0.15362390313E+03  0.50400001928E-02 0. -1.
        1   -1    0    0  501    0  0.00000000000E+00  0.00000000000E+00 -0.16349581876E+04  0.16349581876E+04  0.50400001928E-02 0.  1.
    10030    2    1    2    0    0  0.00000000000E+00  0.00000000000E+00 -0.14813342845E+04  0.17885820907E+04  0.10023345912E+04 0.  0.
        4    1    3    3  502    0  0.40355829768E+03 -0.26595709250E+03 -0.97722562212E+03  0.10902128251E+04  0.12699999809E+01 0.  1.
       -4    1    3    3    0  502 -0.40355829768E+03  0.26595709250E+03 -0.50410866240E+03  0.69836926557E+03  0.12699999809E+01 0. -1.
</event>
<event>
 5   0  0.1506454E-04  0.1003910E+04  0.7818609E-02  0.9304267E-01
        1   -1    0    0  501    0  0.00000000000E+00  0.00000000000E+00  0.58009497143E+03  0.58009497145E+03  0.50400001928E-02 0.  1.
       -1   -1    0    0    0  501  0.00000000000E+00  0.00000000000E+00 -0.43434054354E+03  0.43434054357E+03  0.50400001928E-02 0. -1.
    10030    2    1    2    0    0  0.00000000000E+00  0.00000000000E+00  0.14575442789E+03  0.10144355150E+04  0.10039098868E+04 0.  0.
        3    1    3    3  502    0 -0.40332634202E+03  0.22562186801E+03 -0.12508853657E+03  0.47877397347E+03  0.10100000352E+00 0. -1.
       -3    1    3    3    0  502  0.40332634202E+03 -0.22562186801E+03  0.27084296446E+03  0.53566154155E+03  0.10100000352E+00 0.  1.
</event>
<event>
 5   0  0.9650500E-05  0.1000224E+04  0.7818609E-02  0.9308300E-01
        3   -1    0    0  501    0  0.00000000000E+00  0.00000000000E+00  0.30794907391E+03  0.30794909047E+03  0.10100000352E+00 0. -1.
       -3   -1    0    0    0  501  0.00000000000E+00  0.00000000000E+00 -0.81218569919E+03  0.81218570547E+03  0.10100000352E+00 0.  1.
    10030    2    1    2    0    0  0.00000000000E+00  0.00000000000E+00 -0.50423662528E+03  0.11201347959E+04  0.10002236684E+04 0.  0.
        4    1    3    3  502    0 -0.36512950481E+03 -0.25605400162E+03 -0.50558607820E+03  0.67416771088E+03  0.12699999809E+01 0.  1.
       -4    1    3    3    0  502  0.36512950481E+03  0.25605400162E+03  0.13494529174E+01  0.44596708506E+03  0.12699999809E+01 0. -1.
</event>
<event>
 5   0  0.1461334E-04  0.1001660E+04  0.7818609E-02  0.9306726E-01
       -1   -1    0    0    0  501  0.00000000000E+00  0.00000000000E+00  0.49015427884E+03  0.49015427887E+03  0.50400001928E-02 0. -1.
        1   -1    0    0  501    0  0.00000000000E+00  0.00000000000E+00 -0.51173860506E+03  0.51173860509E+03  0.50400001928E-02 0.  1.
    10030    2    1    2    0    0  0.00000000000E+00  0.00000000000E+00 -0.21584326220E+02  0.10018928840E+04  0.10016603555E+04 0.  0.
        2    1    3    3  502    0  0.21624333487E+03  0.44343494624E+03  0.75455085842E+02  0.49908837034E+03  0.25500000920E-02 0. -1.
       -2    1    3    3    0  502 -0.21624333487E+03 -0.44343494624E+03 -0.97039412062E+02  0.50280451362E+03  0.25500000920E-02 0.  1.
</event>
<event>
 5   0  0.9650500E-05  0.9998020E+03  0.7818609E-02  0.9308762E-01
       -3   -1    0    0    0  501  0.00000000000E+00  0.00000000000E+00  0.33628148127E+03  0.33628149644E+03  0.10100000352E+00 0.  1.
        3   -1    0    0  501    0  0.00000000000E+00  0.00000000000E+00 -0.74313042279E+03  0.74313042965E+03  0.10100000352E+00 0. -1.
    10030    2    1    2    0    0  0.00000000000E+00  0.00000000000E+00 -0.40684894152E+03  0.10794119261E+04  0.99980200289E+03 0.  0.
        1    1    3    3  502    0 -0.28932092461E+03 -0.26095769445E+03  0.13471645891E+03  0.41225482415E+03  0.50400001928E-02 0.  1.
       -1    1    3    3    0  502  0.28932092461E+03  0.26095769445E+03 -0.54156540042E+03  0.66715710194E+03  0.50400001928E-02 0. -1.
</event>
<event>
 5   0  0.2353916E-04  0.9998020E+03  0.7818609E-02  0.9308762E-01
       -2   -1    0    0    0  501  0.00000000000E+00  0.00000000000E+00  0.25032138363E+03  0.25032138364E+03  0.25500000920E-02 0.  1.
        2   -1    0    0  501    0  0.00000000000E+00  0.00000000000E+00 -0.99832059580E+03  0.99832059580E+03  0.25500000920E-02 0. -1.
    10030    2    1    2    0    0  0.00000000000E+00  0.00000000000E+00 -0.74799921217E+03  0.12486419794E+04  0.99980196610E+03 0.  0.
        4    1    3    3  502    0 -0.16014429402E+03 -0.40282208352E+03 -0.68493932060E+03  0.81058948407E+03  0.12699999809E+01 0. -1.
       -4    1    3    3    0  502  0.16014429402E+03  0.40282208352E+03 -0.63059891568E+02  0.43805249537E+03  0.12699999809E+01 0.  1.
</event>
<event>
 5   0  0.1453863E-04  0.1000457E+04  0.7818609E-02  0.9308043E-01
        1   -1    0    0  501    0  0.00000000000E+00  0.00000000000E+00  0.77766991886E+03  0.77766991887E+03  0.50400001928E-02 0. -1.
       -1   -1    0    0    0  501  0.00000000000E+00  0.00000000000E+00 -0.32176735869E+03  0.32176735873E+03  0.50400001928E-02 0.  1.
    10030    2    1    2    0    0  0.00000000000E+00  0.00000000000E+00  0.45590256017E+03  0.10994372776E+04  0.10004574869E+04 0.  0.
        1    1    3    3  502    0  0.28147342089E+03 -0.43168936701E+02 -0.22400076227E+03  0.36230813583E+03  0.50400001928E-02 0.  1.
       -1    1    3    3    0  502 -0.28147342089E+03  0.43168936701E+02  0.67990332244E+03  0.73712914177E+03  0.50400001928E-02 0. -1.
</event>
<event>
 5   0  0.1506454E-04  0.1000092E+04  0.7818609E-02  0.9308444E-01
        1   -1    0    0  501    0  0.00000000000E+00  0.00000000000E+00  0.16378824592E+04  0.16378824592E+04  0.50400001928E-02 0. -1.
       -1   -1    0    0    0  501  0.00000000000E+00  0.00000000000E+00 -0.15266425437E+03  0.15266425445E+03  0.50400001928E-02 0.  1.
    10030    2    1    2    0    0  0.00000000000E+00  0.00000000000E+00  0.14852182048E+04  0.17905467136E+04  0.10000922047E+04 0.  0.
        3    1    3    3  502    0  0.40620050110E+03  0.27903616244E+03  0.59083724430E+03  0.76938201597E+03  0.10100000352E+00 0.  1.
       -3    1    3    3    0  502 -0.40620050110E+03 -0.27903616244E+03  0.89438096049E+03  0.10211646977E+04  0.10100000352E+00 0. -1.
</event>
<event>
 5   0  0.2503680E-04  0.1003339E+04  0.7818609E-02  0.9304891E-01
       -2   -1    0    0    0  501  0.00000000000E+00  0.00000000000E+00  0.19068516179E+03  0.19068516181E+03  0.25500000920E-02 0. -1.
        2   -1    0    0  501    0  0.00000000000E+00  0.00000000000E+00 -0.13198305893E+04  0.13198305893E+04  0.25500000920E-02 0.  1.
    10030    2    1    2    0    0  0.00000000000E+00  0.00000000000E+00 -0.11291454275E+04  0.15105157511E+04  0.10033386457E+04 0.  0.
        2    1    3    3  502    0  0.45315545612E+03 -0.12883204297E+03 -0.82413126334E+03  0.94928388900E+03  0.25500000920E-02 0.  1.
       -2    1    3    3    0  502 -0.45315545612E+03  0.12883204297E+03 -0.30501416420E+03  0.56123186214E+03  0.25500000920E-02 0. -1.
</event>
<event>
 5   0  0.2353916E-04  0.9999943E+03  0.7818609E-02  0.9308551E-01
       -2   -1    0    0    0  501  0.00000000000E+00  0.00000000000E+00  0.34588192327E+03  0.34588192328E+03  0.25500000920E-02 0. -1.
        2   -1    0    0  501    0  0.00000000000E+00  0.00000000000E+00 -0.72278182888E+03  0.72278182888E+03  0.25500000920E-02 0.  1.
    10030    2    1    2    0    0  0.00000000000E+00  0.00000000000E+00 -0.37689990560E+03  0.10686637522E+04  0.99999433815E+03 0.  0.
        4    1    3    3  502    0  0.97968112880E+02 -0.48699290796E+03 -0.24923944430E+03  0.55577131721E+03  0.12699999809E+01 0. -1.
       -4    1    3    3    0  502 -0.97968112880E+02  0.48699290796E+03 -0.12766046131E+03  0.51289243495E+03  0.12699999809E+01 0.  1.
</event>
<event>
 5   0  0.1430675E-04  0.1000076E+04  0.7818609E-02  0.9308461E-01
       -1   -1    0    0    0  501  0.00000000000E+00  0.00000000000E+00  0.26024218220E+03  0.26024218225E+03  0.50400001928E-02 0.  1.
        1   -1    0    0  501    0  0.00000000000E+00  0.00000000000E+00 -0.96079030102E+03  0.96079030103E+03  0.50400001928E-02 0. -1.
    10030    2    1    2    0    0  0.00000000000E+00  0.00000000000E+00 -0.70054811882E+03  0.12210324833E+04  0.10000763263E+04 0.  0.
        5    1    3    3  502    0 -0.42928093442E+03 -0.23600439905E+03 -0.47258681446E+03  0.68069125470E+03  0.46999998093E+01 0. -1.
       -5    1    3    3    0  502  0.42928093442E+03  0.23600439905E+03 -0.22796130435E+03  0.54034122858E+03  0.46999998093E+01 0.  1.
</event>
<event>
 5   0  0.2353916E-04  0.1000165E+04  0.7818609E-02  0.9308364E-01
        2   -1    0    0  501    0  0.00000000000E+00  0.00000000000E+00  0.23810559435E+04  0.23810559435E+04  0.25500000920E-02 0. -1.
       -2   -1    0    0    0  501  0.00000000000E+00  0.00000000000E+00 -0.10503008764E+03  0.10503008767E+03  0.25500000920E-02 0.  1.
    10030    2    1    2    0    0  0.00000000000E+00  0.00000000000E+00  0.22760258559E+04  0.24860860312E+04  0.10001650153E+04 0.  0.
        4    1    3    3  502    0  0.28627277699E+03 -0.40850412060E+03  0.10500192237E+04  0.11624842805E+04  0.12699999809E+01 0. -1.
       -4    1    3    3    0  502 -0.28627277699E+03  0.40850412060E+03  0.12260066322E+04  0.13236017507E+04  0.12699999809E+01 0.  1.
</event>
<event>
 5   0  0.1461334E-04  0.9996409E+03  0.7818609E-02  0.9308939E-01
       -1   -1    0    0    0  501  0.00000000000E+00  0.00000000000E+00  0.10500130914E+04  0.10500130914E+04  0.50400001928E-02 0.  1.
        1   -1    0    0  501    0  0.00000000000E+00  0.00000000000E+00 -0.23792132486E+03  0.23792132491E+03  0.50400001928E-02 0. -1.
    10030    2    1    2    0    0  0.00000000000E+00  0.00000000000E+00  0.81209176656E+03  0.12879344163E+04  0.99964094727E+03 0.  0.
        2    1    3    3  502    0  0.40533837728E+03 -0.79669114949E+02  0.76857373943E+03  0.87255484694E+03  0.25500000920E-02 0.  1.
       -2    1    3    3    0  502 -0.40533837728E+03  0.79669114949E+02  0.43518027129E+02  0.41537956939E+03  0.25500000920E-02 0. -1.
</event>
<event>
 5   0  0.2473312E-04  0.9994999E+03  0.7818609E-02  0.9309094E-01
        2   -1    0    0  501    0  0.00000000000E+00  0.00000000000E+00  0.27098961428E+03  0.27098961429E+03  0.25500000920E-02 0.  1.
       -2   -1    0    0    0  501  0.00000000000E+00  0.00000000000E+00 -0.92162202437E+03  0.92162202438E+03  0.25500000920E-02 0. -1.
    10030    2    1    2    0    0  0.00000000000E+00  0.00000000000E+00 -0.65063241010E+03  0.11926116387E+04  0.99949986874E+03 0.  0.
        5    1    3    3  502    0 -0.11393597228E+03 -0.44982606489E+03 -0.10399932548E+03  0.47556581473E+03  0.46999998093E+01 0.  1.
       -5    1    3    3    0  502  0.11393597228E+03  0.44982606489E+03 -0.54663308461E+03  0.71704582394E+03  0.46999998093E+01 0. -1.
</event>
<event>
 5   0  0.1461334E-04  0.9993967E+03  0.7818609E-02  0.9309207E-01
        1   -1    0    0  501    0  0.00000000000E+00  0.00000000000E+00  0.73588893587E+03  0.73588893589E+03  0.50400001928E-02 0. -1.
       -1   -1    0    0    0  501  0.00000000000E+00  0.00000000000E+00 -0.33931536495E+03  0.33931536499E+03  0.50400001928E-02 0.  1.
    10030    2    1    2    0    0  0.00000000000E+00  0.00000000000E+00  0.39657357092E+03  0.10752043009E+04  0.99939666372E+03 0.  0.
        2    1    3    3  502    0 -0.69935192895E+02  0.34631969630E+02 -0.33271866175E+03  0.34174846365E+03  0.25500000920E-02 0.  1.
       -2    1    3    3    0  502  0.69935192895E+02 -0.34631969630E+02  0.72929223266E+03  0.73345583722E+03  0.25500000920E-02 0. -1.
</event>
<event>
 5   0  0.2484904E-04  0.9997493E+03  0.7818609E-02  0.9308820E-01
       -2   -1    0    0    0  501  0.00000000000E+00  0.00000000000E+00  0.11547148967E+03  0.11547148970E+03  0.25500000920E-02 0. -1.
        2   -1    0    0  501    0  0.00000000000E+00  0.00000000000E+00 -0.21639513608E+04  0.21639513608E+04  0.25500000920E-02 0.  1.
    10030    2    1    2    0    0  0.00000000000E+00  0.00000000000E+00 -0.20484798711E+04  0.22794228505E+04  0.99974934308E+03 0.  0.
        3    1    3    3  502    0  0.16775077464E+03  0.25924494998E+03 -0.12797763621E+03  0.33425521994E+03  0.10100000352E+00 0. -1.
       -3    1    3    3    0  502 -0.16775077464E+03 -0.25924494998E+03 -0.19205022349E+04  0.19451676305E+04  0.10100000352E+00 0.  1.
</event>
<event>
 5   0  0.9650500E-05  0.1000140E+04  0.7818609E-02  0.9308391E-01
       -4   -1    0    0    0  501  0.00000000000E+00  0.00000000000E+00  0.31905988951E+03  0.31906241708E+03  0.12699999809E+01 0. -1.
        4   -1    0    0  501    0  0.00000000000E+00  0.00000000000E+00 -0.78376565305E+03  0.78376668200E+03  0.12699999809E+01 0.  1.
    10030    2    1    2    0    0  0.00000000000E+00  0.00000000000E+00 -0.46470576355E+03  0.11028290991E+04  0.10001402777E+04 0.  0.
        2    1    3    3  502    0  0.12804766073E+03  0.47127482097E+03 -0.35098129685E+03  0.60140172185E+03  0.25500000920E-02 0.  1.
       -2    1    3    3    0  502 -0.12804766073E+03 -0.47127482097E+03 -0.11372446670E+03  0.50142737723E+03  0.25500000920E-02 0. -1.
</event>
<event>
 5   0  0.2503680E-04  0.1000296E+04  0.7818609E-02  0.9308220E-01
       -2   -1    0    0    0  501  0.00000000000E+00  0.00000000000E+00  0.17059736924E+03  0.17059736926E+03  0.25500000920E-02 0. -1.
        2   -1    0    0  501    0  0.00000000000E+00  0.00000000000E+00 -0.14663076587E+04  0.14663076587E+04  0.25500000920E-02 0.  1.
    10030    2    1    2    0    0  0.00000000000E+00  0.00000000000E+00 -0.12957102895E+04  0.16369050280E+04  0.10002964143E+04 0.  0.
        2    1    3    3  502    0  0.40387233641E+03 -0.27867200131E+03 -0.48939019110E+03  0.69301782631E+03  0.25500000920E-02 0. -1.
       -2    1    3    3    0  502 -0.40387233641E+03  0.27867200131E+03 -0.80632009841E+03  0.94388720170E+03  0.25500000920E-02 0.  1.
</event>
<event>
 5   0  0.1430675E-04  0.9997267E+03  0.7818609E-02  0.9308845E-01
       -1   -1    0    0    0  501  0.00000000000E+00  0.00000000000E+00  0.53380636657E+03  0.53380636659E+03  0.50400001928E-02 0. -1.
        1   -1    0    0  501    0  0.00000000000E+00  0.00000000000E+00 -0.46807868247E+03  0.46807868249E+03  0.50400001928E-02 0.  1.
    10030    2    1    2    0    0  0.00000000000E+00  0.00000000000E+00  0.65727684102E+02  0.10018850491E+04  0.99972672422E+03 0.  0.
        5    1    3    3  502    0 -0.33469030028E+03 -0.17932752471E+03  0.35862766750E+03  0.52231394019E+03  0.46999998093E+01 0. -1.
       -5    1    3    3    0  502  0.33469030028E+03  0.17932752471E+03 -0.29289998340E+03  0.47957110890E+03  0.46999998093E+01 0.  1.
</event>
<event>
 5   0  0.2353916E-04  0.9999096E+03  0.7818609E-02  0.9308644E-01
       -2   -1    0    0    0  501  0.00000000000E+00  0.00000000000E+00  0.15606657802E+03  0.15606657804E+03  0.25500000920E-02 0.  1.
        2   -1    0    0  501    0  0.00000000000E+00  0.00000000000E+00 -0.16015908929E+04  0.16015908929E+04  0.25500000920E-02 0. -1.
    10030    2    1    2    0    0  0.00000000000E+00  0.00000000000E+00 -0.14455243148E+04  0.17576574709E+04  0.99990961603E+03 0.  0.
        4    1    3    3  502    0  0.21936730425E+02 -0.13098428230E+02 -0.16004397166E+04  0.16006441480E+04  0.12699999809E+01 0. -1.
       -4    1    3    3    0  502 -0.21936730425E+02  0.13098428230E+02  0.15491540180E+03  0.15701332293E+03  0.12699999809E+01 0.  1.
</event>
<event>
 5   0  0.2473312E-04  0.1001783E+04  0.7818609E-02  0.9306592E-01
        2   -1    0    0  501    0  0.00000000000E+00  0.00000000000E+00  0.50061644194E+03  0.50061644195E+03  0.25500000920E-02 0. -1.
       -2   -1    0    0    0  501  0.00000000000E+00  0.00000000000E+00 -0.50116634714E+03  0.50116634714E+03  0.25500000920E-02 0.  1.
    10030    2    1    2    0    0  0.00000000000E+00  0.00000000000E+00 -0.54990519783E+00  0.10017827891E+04  0.10017826382E+04 0.  0.
        5    1    3    3  502    0 -0.13928532071E+03  0.30999795865E+03  0.36765293353E+03  0.50068942915E+03  0.46999998093E+01 0. -1.
       -5    1    3    3    0  502  0.13928532071E+03 -0.30999795865E+03 -0.36820283873E+03  0.50109335994E+03  0.46999998093E+01 0.  1.
</event>
<event>
 5   0  0.1414165E-04  0.1000563E+04  0.7818609E-02  0.9307927E-01
       -1   -1    0    0    0  501  0.00000000000E+00  0.00000000000E+00  0.20149906934E+03  0.20149906941E+03  0.50400001928E-02 0. -1.
        1   -1    0    0  501    0  0.00000000000E+00  0.00000000000E+00 -0.12420990649E+04  0.12420990649E+04  0.50400001928E-02 0.  1.
    10030    2    1    2    0    0  0.00000000000E+00  0.00000000000E+00 -0.10405999956E+04  0.14435981343E+04  0.10005634526E+04 0.  0.
        4    1    3    3  502    0  0.18767998023E+03 -0.34138138727E+03 -0.67451195036E+02  0.39536856623E+03  0.12699999809E+01 0. -1.
       -4    1    3    3    0  502 -0.18767998023E+03  0.34138138727E+03 -0.97314880055E+03  0.10482295681E+04  0.12699999809E+01 0.  1.
</event>
<event>
 5   0  0.9650500E-05  0.9925359E+03  0.7818609E-02  0.9316769E-01
        4   -1    0    0  501    0  0.00000000000E+00  0.00000000000E+00  0.11314761552E+04  0.11314768680E+04  0.12699999809E+01 0. -1.
       -4   -1    0    0    0  501  0.00000000000E+00  0.00000000000E+00 -0.21766159133E+03  0.21766529636E+03  0.12699999809E+01 0.  1.
    10030    2    1    2    0    0  0.00000000000E+00  0.00000000000E+00  0.91381456390E+03  0.13491421643E+04  0.99253590483E+03 0.  0.
        4    1    3    3  502    0 -0.28937468764E+02 -0.49422947900E+03  0.41021197566E+03  0.64294294683E+03  0.12699999809E+01 0.  1.
       -4    1    3    3    0  502  0.28937468764E+02  0.49422947900E+03  0.50360258824E+03  0.70619921750E+03  0.12699999809E+01 0. -1.
</event>
<event>
 5   0  0.2473312E-04  0.1000697E+04  0.7818609E-02  0.9307781E-01
       -2   -1    0    0    0  501  0.00000000000E+00  0.00000000000E+00  0.38835759036E+03  0.38835759037E+03  0.25500000920E-02 0. -1.
        2   -1    0    0  501    0  0.00000000000E+00  0.00000000000E+00 -0.64463394238E+03  0.64463394238E+03  0.25500000920E-02 0.  1.
    10030    2    1    2    0    0  0.00000000000E+00  0.00000000000E+00 -0.25627635202E+03  0.10329915327E+04  0.10006967263E+04 0.  0.
        5    1    3    3  502    0  0.30453608086E+02  0.93762120521E+02 -0.63448604512E+03  0.64211633599E+03  0.46999998093E+01 0.  1.
       -5    1    3    3    0  502 -0.30453608086E+02 -0.93762120521E+02  0.37820969310E+03  0.39087519676E+03  0.46999998093E+01 0. -1.
</event>
<event>
 5   0  0.1506454E-04  0.1000483E+04  0.7818609E-02  0.9308016E-01
        1   -1    0    0  501    0  0.00000000000E+00  0.00000000000E+00  0.53904037961E+03  0.53904037963E+03  0.50400001928E-02 0. -1.
       -1   -1    0    0    0  501  0.00000000000E+00  0.00000000000E+00 -0.46423494409E+03  0.46423494411E+03  0.50400001928E-02 0.  1.
    10030    2    1    2    0    0  0.00000000000E+00  0.00000000000E+00  0.74805435523E+02  0.10032753237E+04  0.10004826446E+04 0.  0.
        3    1    3    3  502    0  0.25679434876E+03 -0.40807280718E+03  0.17109634140E+03  0.51160602201E+03  0.10100000352E+00 0. -1.
       -3    1    3    3    0  502 -0.25679434876E+03  0.40807280718E+03 -0.96290905876E+02  0.49166930174E+03  0.10100000352E+00 0.  1.
</event>
<event>
 5   0  0.2403037E-04  0.9999949E+03  0.7818609E-02  0.9308550E-01
       -2   -1    0    0    0  501  0.00000000000E+00  0.00000000000E+00  0.42016254779E+03  0.42016254780E+03  0.25500000920E-02 0. -1.
        2   -1    0    0  501    0  0.00000000000E+00  0.00000000000E+00 -0.59500172973E+03  0.59500172974E+03  0.25500000920E-02 0.  1.
    10030    2    1    2    0    0  0.00000000000E+00  0.00000000000E+00 -0.17483918195E+03  0.10151642775E+04  0.99999488541E+03 0.  0.
        1    1    3    3  502    0 -0.44441240085E+03 -0.16627895856E+03 -0.24743802284E+03  0.53514170951E+03  0.50400001928E-02 0. -1.
       -1    1    3    3    0  502  0.44441240085E+03  0.16627895856E+03  0.72598840900E+02  0.48002256802E+03  0.50400001928E-02 0.  1.
</event>
<event>
 5   0  0.1453863E-04  0.1000224E+04  0.7818609E-02  0.9308299E-01
        1   -1    0    0  501    0  0.00000000000E+00  0.00000000000E+00  0.32312158569E+03  0.32312158573E+03  0.50400001928E-02 0.  1.
       -1   -1    0    0    0  501  0.00000000000E+00  0.00000000000E+00 -0.77404925753E+03  0.77404925754E+03  0.50400001928E-02 0. -1.
    10030    2    1    2    0    0  0.00000000000E+00  0.00000000000E+00 -0.45092767183E+03  0.10971708433E+04  0.10002240220E+04 0.  0.
        1    1    3    3  502    0 -0.23007730336E+02 -0.16127736206E+03 -0.74412765738E+03  0.76175174018E+03  0.50400001928E-02 0. -1.
       -1    1    3    3    0  502  0.23007730336E+02  0.16127736206E+03  0.29319998555E+03  0.33541910309E+03  0.50400001928E-02 0.  1.
</event>
<event>
 5   0  0.2403037E-04  0.1000237E+04  0.7818609E-02  0.9308285E-01
       -2   -1    0    0    0  501  0.00000000000E+00  0.00000000000E+00  0.17114548639E+03  0.17114548641E+03  0.25500000920E-02 0.  1.
        2   -1    0    0  501    0  0.00000000000E+00  0.00000000000E+00 -0.14614379676E+04  0.14614379676E+04  0.25500000920E-02 0. -1.
    10030    2    1    2    0    0  0.00000000000E+00  0.00000000000E+00 -0.12902924812E+04  0.16325834540E+04  0.10002369956E+04 0.  0.
        1    1    3    3  502    0  0.44548038149E+02  0.45515212064E+03 -0.97552207596E+03  0.10774002512E+04  0.50400001928E-02 0. -1.
       -1    1    3    3    0  502 -0.44548038149E+02 -0.45515212064E+03 -0.31477040527E+03  0.55518320281E+03  0.50400001928E-02 0.  1.
</event>
<event>
 5   0  0.2403037E-04  0.1000105E+04  0.7818609E-02  0.9308429E-01
       -2   -1    0    0    0  501  0.00000000000E+00  0.00000000000E+00  0.30029663178E+03  0.30029663180E+03  0.25500000920E-02 0.  1.
        2   -1    0    0  501    0  0.00000000000E+00  0.00000000000E+00 -0.83268551308E+03  0.83268551308E+03  0.25500000920E-02 0. -1.
    10030    2    1    2    0    0  0.00000000000E+00  0.00000000000E+00 -0.53238888130E+03  0.11329821449E+04  0.10001053043E+04 0.  0.
        1    1    3    3  502    0 -0.15278874692E+03  0.46134336212E+03 -0.39961546452E+03  0.62918567885E+03  0.50400001928E-02 0. -1.
       -1    1    3    3    0  502  0.15278874692E+03 -0.46134336212E+03 -0.13277341678E+03  0.50379646603E+03  0.50400001928E-02 0.  1.
</event>
<event>
 5   0  0.2473312E-04  0.1000084E+04  0.7818609E-02  0.9308452E-01
       -2   -1    0    0    0  501  0.00000000000E+00  0.00000000000E+00  0.27846924849E+03  0.27846924851E+03  0.25500000920E-02 0.  1.
        2   -1    0    0  501    0  0.00000000000E+00  0.00000000000E+00 -0.89791645287E+03  0.89791645288E+03  0.25500000920E-02 0. -1.
    10030    2    1    2    0    0  0.00000000000E+00  0.00000000000E+00 -0.61944720438E+03  0.11763857014E+04  0.10000842362E+04 0.  0.
        5    1    3    3  502    0 -0.38205729322E+03 -0.97530398420E+02  0.51953595253E+02  0.39774516965E+03  0.46999998093E+01 0. -1.
       -5    1    3    3    0  502  0.38205729322E+03  0.97530398420E+02 -0.67140079963E+03  0.77864053174E+03  0.46999998093E+01 0.  1.
</event>
<event>
 5   0  0.2484904E-04  0.9991260E+03  0.7818609E-02  0.9309504E-01
       -2   -1    0    0    0  501  0.00000000000E+00  0.00000000000E+00  0.72846744065E+03  0.72846744066E+03  0.25500000920E-02 0.  1.
        2   -1    0    0  501    0  0.00000000000E+00  0.00000000000E+00 -0.34258661470E+03  0.34258661471E+03  0.25500000920E-02 0. -1.
    10030    2    1    2    0    0  0.00000000000E+00  0.00000000000E+00  0.38588082595E+03  0.10710540554E+04  0.99912600690E+03 0.  0.
        3    1    3    3  502    0  0.69832633652E+02 -0.40846089060E+03  0.49203605250E+03  0.64328561544E+03  0.10100000352E+00 0.  1.
       -3    1    3    3    0  502 -0.69832633652E+02  0.40846089060E+03 -0.10615522655E+03  0.42776843992E+03  0.10100000352E+00 0. -1.
</event>
<event>
 5   0  0.1461334E-04  0.1000225E+04  0.7818609E-02  0.9308298E-01
       -1   -1    0    0    0  501  0.00000000000E+00  0.00000000000E+00  0.14349053517E+03  0.14349053526E+03  0.50400001928E-02 0. -1.
        1   -1    0    0  501    0  0.00000000000E+00  0.00000000000E+00 -0.17430590608E+04  0.17430590608E+04  0.50400001928E-02 0.  1.
    10030    2    1    2    0    0  0.00000000000E+00  0.00000000000E+00 -0.15995685256E+04  0.18865495961E+04  0.10002249298E+04 0.  0.
        2    1    3    3  502    0  0.14261174021E+03  0.39787663300E+02  0.10120601325E+03  0.17934275486E+03  0.25500000920E-02 0. -1.
       -2    1    3    3    0  502 -0.14261174021E+03 -0.39787663300E+02 -0.17007745389E+04  0.17072068412E+04  0.25500000920E-02 0.  1.
</event>
<event>
 5   0  0.1506454E-04  0.9992528E+03  0.7818609E-02  0.9309365E-01
       -1   -1    0    0    0  501  0.00000000000E+00  0.00000000000E+00  0.32334445094E+03  0.32334445098E+03  0.50400001928E-02 0. -1.
        1   -1    0    0  501    0  0.00000000000E+00  0.00000000000E+00 -0.77201432953E+03  0.77201432955E+03  0.50400001928E-02 0.  1.
    10030    2    1    2    0    0  0.00000000000E+00  0.00000000000E+00 -0.44866987859E+03  0.10953587805E+04  0.99925281993E+03 0.  0.
        3    1    3    3  502    0  0.35467555931E+03  0.23461042550E+03  0.63168358285E+02  0.42991517281E+03  0.10100000352E+00 0.  1.
       -3    1    3    3    0  502 -0.35467555931E+03 -0.23461042550E+03 -0.51183823687E+03  0.66544360772E+03  0.10100000352E+00 0. -1.
</event>
<event>
 5   0  0.1430675E-04  0.9999930E+03  0.7818609E-02  0.9308553E-01
       -1   -1    0    0    0  501  0.00000000000E+00  0.00000000000E+00  0.11409262818E+03  0.11409262829E+03  0.50400001928E-02 0.  1.
        1   -1    0    0  501    0  0.00000000000E+00  0.00000000000E+00 -0.21911712205E+04  0.21911712205E+04  0.50400001928E-02 0. -1.
    10030    2    1    2    0    0  0.00000000000E+00  0.00000000000E+00 -0.20770785923E+04  0.23052638488E+04  0.99999296693E+03 0.  0.
        5    1    3    3  502    0 -0.68639258654E+02 -0.38595138981E+03 -0.17539363432E+04  0.17972157937E+04  0.46999998093E+01 0. -1.
       -5    1    3    3    0  502  0.68639258654E+02  0.38595138981E+03 -0.32314224912E+03  0.50804805510E+03  0.46999998093E+01 0.  1.
</event>
<event>
 5   0  0.9650500E-05  0.1000299E+04  0.7818609E-02  0.9308217E-01
       -3   -1    0    0    0  501  0.00000000000E+00  0.00000000000E+00  0.82842842453E+03  0.82842843068E+03  0.10100000352E+00 0.  1.
        3   -1    0    0  501    0  0.00000000000E+00  0.00000000000E+00 -0.30195656304E+03  0.30195657993E+03  0.10100000352E+00 0. -1.
    10030    2    1    2    0    0  0.00000000000E+00  0.00000000000E+00  0.52647186149E+03  0.11303850106E+04  0.10002987810E+04 0.  0.
        3    1    3    3  502    0  0.48180824213E+03 -0.13403583234E+03  0.25568774817E+03  0.56167697237E+03  0.10100000352E+00 0. -1.
       -3    1    3    3    0  502 -0.48180824213E+03  0.13403583234E+03  0.27078411332E+03  0.56870803824E+03  0.10100000352E+00 0.  1.
</event>
<event>
 5   0  0.1461334E-04  0.1000127E+04  0.7818609E-02  0.9308405E-01
        1   -1    0    0  501    0  0.00000000000E+00  0.00000000000E+00  0.53392720232E+03  0.53392720234E+03  0.50400001928E-02 0. -1.
       -1   -1    0    0    0  501  0.00000000000E+00  0.00000000000E+00 -0.46834800750E+03  0.46834800753E+03  0.50400001928E-02 0.  1.
    10030    2    1    2    0    0  0.00000000000E+00  0.00000000000E+00  0.65579194821E+02  0.10022752099E+04  0.10001274746E+04 0.  0.
        2    1    3    3  502    0 -0.72819709418E+02 -0.29205332820E+03  0.43297894493E+03  0.52732212484E+03  0.25500000920E-02 0. -1.
       -2    1    3    3    0  502  0.72819709418E+02  0.29205332820E+03 -0.36739975011E+03  0.47495308503E+03  0.25500000920E-02 0.  1.
</event>
<event>
 5   0  0.1453863E-04  0.9997925E+03  0.7818609E-02  0.9308772E-01
       -1   -1    0    0    0  501  0.00000000000E+00  0.00000000000E+00  0.70409351506E+03  0.70409351508E+03  0.50400001928E-02 0.  1.
        1   -1    0    0  501    0  0.00000000000E+00  0.00000000000E+00 -0.35491910247E+03  0.35491910251E+03  0.50400001928E-02 0. -1.
    10030    2    1    2    0    0  0.00000000000E+00  0.00000000000E+00  0.34917441259E+03  0.10590126176E+04  0.99979245536E+03 0.  0.
        1    1    3    3  502    0 -0.29354312292E+03  0.38167833780E+03  0.31689665313E+03  0.57642814587E+03  0.50400001928E-02 0.  1.
       -1    1    3    3    0  502  0.29354312292E+03 -0.38167833780E+03  0.32277759454E+02  0.48258447172E+03  0.50400001928E-02 0. -1.
</event>
<event>
 5   0  0.2353916E-04  0.1000245E+04  0.7818609E-02  0.9308276E-01
       -2   -1    0    0    0  501  0.00000000000E+00  0.00000000000E+00  0.31699798586E+03  0.31699798587E+03  0.25500000920E-02 0. -1.
        2   -1    0    0  501    0  0.00000000000E+00  0.00000000000E+00 -0.78903476821E+03  0.78903476822E+03  0.25500000920E-02 0.  1.
    10030    2    1    2    0    0  0.00000000000E+00  0.00000000000E+00 -0.47203678235E+03  0.11060327541E+04  0.10002448346E+04 0.  0.
        4    1    3    3  502    0 -0.20041826985E+03 -0.35326884053E+03 -0.55869343513E+03  0.69072883532E+03  0.12699999809E+01 0.  1.
       -4    1    3    3    0  502  0.20041826985E+03  0.35326884053E+03  0.86656652784E+02  0.41530391877E+03  0.12699999809E+01 0. -1.
</event>
<event>
 5   0  0.1506454E-04  0.9999681E+03  0.7818609E-02  0.9308580E-01
       -1   -1    0    0    0  501  0.00000000000E+00  0.00000000000E+00  0.53551178074E+03  0.53551178076E+03  0.50400001928E-02 0. -1.
        1   -1    0    0  501    0  0.00000000000E+00  0.00000000000E+00 -0.46681332644E+03  0.46681332647E+03  0.50400001928E-02 0.  1.
    10030    2    1    2    0    0  0.00000000000E+00  0.00000000000E+00  0.68698454301E+02  0.10023251072E+04  0.99996807097E+03 0.  0.
        3    1    3    3  502    0 -0.12608466793E+03  0.38345752209E+03  0.33008196707E+03  0.52143180755E+03  0.10100000352E+00 0. -1.
       -3    1    3    3    0  502  0.12608466793E+03 -0.38345752209E+03 -0.26138351277E+03  0.48089329969E+03  0.10100000352E+00 0.  1.
</event>
<event>
 5   0  0.2503680E-04  0.9997433E+03  0.7818609E-02  0.9308826E-01
       -2   -1    0    0    0  501  0.00000000000E+00  0.00000000000E+00  0.21431849018E+03  0.21431849019E+03  0.25500000920E-02 0.  1.
        2   -1    0    0  501    0  0.00000000000E+00  0.00000000000E+00 -0.11658894619E+04  0.11658894619E+04  0.25500000920E-02 0. -1.
    10030    2    1    2    0    0  0.00000000000E+00  0.00000000000E+00 -0.95157097169E+03  0.13802079521E+04  0.99974330544E+03 0.  0.
        2    1    3    3  502    0  0.46572326957E+02  0.19732969573E+03 -0.11065735852E+04  0.11249947066E+04  0.25500000920E-02 0. -1.
       -2    1    3    3    0  502 -0.46572326957E+02 -0.19732969573E+03  0.15500261350E+03  0.25521324545E+03  0.25500000920E-02 0.  1.
</event>
<event>
 5   0  0.1430675E-04  0.1000151E+04  0.7818609E-02  0.9308379E-01
       -1   -1    0    0    0  501  0.00000000000E+00  0.00000000000E+00  0.22048486333E+03  0.22048486339E+03  0.50400001928E-02 0. -1.
        1   -1    0    0  501    0  0.00000000000E+00  0.00000000000E+00 -0.11342075907E+04  0.11342075907E+04  0.50400001928E-02 0.  1.
    10030    2    1    2    0    0  0.00000000000E+00  0.00000000000E+00 -0.91372272739E+03  0.13546924541E+04  0.10001511999E+04 0.  0.
        5    1    3    3  502    0 -0.80099858558E+02 -0.39387450418E+03 -0.85980813132E+03  0.94912866624E+03  0.46999998093E+01 0.  1.
       -5    1    3    3    0  502  0.80099858558E+02  0.39387450418E+03 -0.53914596070E+02  0.40556378789E+03  0.46999998093E+01 0. -1.
</event>
<event>
 5   0  0.2353916E-04  0.9984539E+03  0.7818609E-02  0.9310242E-01
       -2   -1    0    0    0  501  0.00000000000E+00  0.00000000000E+00  0.13903340475E+03  0.13903340477E+03  0.25500000920E-02 0. -1.
        2   -1    0    0  501    0  0.00000000000E+00  0.00000000000E+00 -0.17925730098E+04  0.17925730098E+04  0.25500000920E-02 0.  1.
    10030    2    1    2    0    0  0.00000000000E+00  0.00000000000E+00 -0.16535396051E+04  0.19316064146E+04  0.99845386241E+03 0.  0.
        4    1    3    3  502    0  0.40691132586E+02  0.24759225741E+03  0.81793377263E+01  0.25105021144E+03  0.12699999809E+01 0. -1.
       -4    1    3    3    0  502 -0.40691132586E+02 -0.24759225741E+03 -0.16617189428E+04  0.16805562032E+04  0.12699999809E+01 0.  1.
</event>
<event>
 5   0  0.2403037E-04  0.9998104E+03  0.7818609E-02  0.9308753E-01
       -2   -1    0    0    0  501  0.00000000000E+00  0.00000000000E+00  0.13484264549E+03  0.13484264552E+03  0.25500000920E-02 0. -1.
        2   -1    0    0  501    0  0.00000000000E+00  0.00000000000E+00 -0.18533097268E+04  0.18533097268E+04  0.25500000920E-02 0.  1.
    10030    2    1    2    0    0  0.00000000000E+00  0.00000000000E+00 -0.17184670813E+04  0.19881523723E+04  0.99981035503E+03 0.  0.
        1    1    3    3  502    0 -0.42700602591E+03  0.16774373640E+03 -0.12541110338E+04  0.13353900525E+04  0.50400001928E-02 0.  1.
       -1    1    3    3    0  502  0.42700602591E+03 -0.16774373640E+03 -0.46435604754E+03  0.65276231982E+03  0.50400001928E-02 0. -1.
</event>
<event>
 5   0  0.2403037E-04  0.9999762E+03  0.7818609E-02  0.9308571E-01
       -2   -1    0    0    0  501  0.00000000000E+00  0.00000000000E+00  0.34242086351E+03  0.34242086352E+03  0.25500000920E-02 0. -1.
        2   -1    0    0  501    0  0.00000000000E+00  0.00000000000E+00 -0.73006089645E+03  0.73006089646E+03  0.25500000920E-02 0.  1.
    10030    2    1    2    0    0  0.00000000000E+00  0.00000000000E+00 -0.38764003294E+03  0.10724817600E+04  0.99997616488E+03 0.  0.
        1    1    3    3  502    0  0.36697517211E+02 -0.39824541472E+03 -0.51564721667E+03  0.65256277108E+03  0.50400001928E-02 0.  1.
       -1    1    3    3    0  502 -0.36697517211E+02  0.39824541472E+03  0.12800718373E+03  0.41991898889E+03  0.50400001928E-02 0. -1.
</event>
<event>
 5   0  0.1461334E-04  0.1000084E+04  0.7818609E-02  0.9308453E-01
        1   -1    0    0  501    0  0.00000000000E+00  0.00000000000E+00  0.11136728524E+04  0.11136728524E+04  0.50400001928E-02 0.  1.
       -1   -1    0    0    0  501  0.00000000000E+00  0.00000000000E+00 -0.22452013403E+03  0.22452013409E+03  0.50400001928E-02 0. -1.
    10030    2    1    2    0    0  0.00000000000E+00  0.00000000000E+00  0.88915271841E+03  0.13381929865E+04  0.10000839528E+04 0.  0.
        2    1    3    3  502    0 -0.41243116229E+03 -0.28235926083E+03  0.46423122575E+03  0.68215602817E+03  0.25500000920E-02 0. -1.
       -2    1    3    3    0  502  0.41243116229E+03  0.28235926083E+03  0.42492149266E+03  0.65603695836E+03  0.25500000920E-02 0.  1.
</event>
<event>
 5   0  0.2353916E-04  0.9991746E+03  0.7818609E-02  0.9309451E-01
       -2   -1    0    0    0  501  0.00000000000E+00  0.00000000000E+00  0.23573195740E+03  0.23573195741E+03  0.25500000920E-02 0. -1.
        2   -1    0    0  501    0  0.00000000000E+00  0.00000000000E+00 -0.10587766396E+04  0.10587766396E+04  0.25500000920E-02 0.  1.
    10030    2    1    2    0    0  0.00000000000E+00  0.00000000000E+00 -0.82304468218E+03  0.12945085970E+04  0.99917463881E+03 0.  0.
        4    1    3    3  502    0 -0.82570195714E+02 -0.43128767738E+03 -0.10286200563E+03  0.45100898326E+03  0.12699999809E+01 0. -1.
       -4    1    3    3    0  502  0.82570195714E+02  0.43128767738E+03 -0.72018267655E+03  0.84349961374E+03  0.12699999809E+01 0.  1.
</event>
<event>
 5   0  0.2353916E-04  0.1000158E+04  0.7818609E-02  0.9308372E-01
       -2   -1    0    0    0  501  0.00000000000E+00  0.00000000000E+00  0.42496454699E+03  0.42496454700E+03  0.25500000920E-02 0. -1.
        2   -1    0    0  501    0  0.00000000000E+00  0.00000000000E+00 -0.58847010605E+03  0.58847010606E+03  0.25500000920E-02 0.  1.
    10030    2    1    2    0    0  0.00000000000E+00  0.00000000000E+00 -0.16350555906E+03  0.10134346531E+04  0.10001578516E+04 0.  0.
        4    1    3    3  502    0  0.33495716695E+03 -0.30745163711E+03  0.12922869542E+03  0.47267798920E+03  0.12699999809E+01 0.  1.
       -4    1    3    3    0  502 -0.33495716695E+03  0.30745163711E+03 -0.29273425448E+03  0.54075666385E+03  0.12699999809E+01 0. -1.
</event>
<event>
 5   0  0.9650500E-05  0.9995214E+03  0.7818609E-02  0.9309070E-01
        4   -1    0    0  501    0  0.00000000000E+00  0.00000000000E+00  0.11817596448E+04  0.11817603272E+04  0.12699999809E+01 0. -1.
       -4   -1    0    0    0  501  0.00000000000E+00  0.00000000000E+00 -0.21134382927E+03  0.21134764505E+03  0.12699999809E+01 0.  1.
    10030    2    1    2    0    0  0.00000000000E+00  0.00000000000E+00  0.97041581553E+03  0.13931079723E+04  0.99952136913E+03 0.  0.
        4    1    3    3  502    0  0.10138183003E+03  0.15320879958E+03 -0.16257208263E+03  0.24532123161E+03  0.12699999809E+01 0.  1.
       -4    1    3    3    0  502 -0.10138183003E+03 -0.15320879958E+03  0.11329878982E+04  0.11477867407E+04  0.12699999809E+01 0. -1.
</event>
<event>
 5   0  0.2353916E-04  0.1000245E+04  0.7818609E-02  0.9308277E-01
        2   -1    0    0  501    0  0.00000000000E+00  0.00000000000E+00  0.56293820155E+03  0.56293820156E+03  0.25500000920E-02 0. -1.
       -2   -1    0    0    0  501  0.00000000000E+00  0.00000000000E+00 -0.44431578653E+03  0.44431578654E+03  0.25500000920E-02 0.  1.
    10030    2    1    2    0    0  0.00000000000E+00  0.00000000000E+00  0.11862241502E+03  0.10072539881E+04  0.10002446297E+04 0.  0.
        4    1    3    3  502    0 -0.26583885222E+03  0.22032148371E+03 -0.30503755315E+03  0.46071832313E+03  0.12699999809E+01 0.  1.
       -4    1    3    3    0  502  0.26583885222E+03 -0.22032148371E+03  0.42365996817E+03  0.54653566496E+03  0.12699999809E+01 0. -1.
</event>
<event>
 5   0  0.1506454E-04  0.1000158E+04  0.7818609E-02  0.9308372E-01
        1   -1    0    0  501    0  0.00000000000E+00  0.00000000000E+00  0.77637534317E+03  0.77637534318E+03  0.50400001928E-02 0.  1.
       -1   -1    0    0    0  501  0.00000000000E+00  0.00000000000E+00 -0.32211071560E+03  0.32211071564E+03  0.50400001928E-02 0. -1.
    10030    2    1    2    0    0  0.00000000000E+00  0.00000000000E+00  0.45426462757E+03  0.10984860588E+04  0.10001576224E+04 0.  0.
        3    1    3    3  502    0  0.39498038339E+03 -0.26241016601E+03  0.40151939987E+03  0.62135854156E+03  0.10100000352E+00 0. -1.
       -3    1    3    3    0  502 -0.39498038339E+03  0.26241016601E+03  0.52745227692E+02  0.47712751727E+03  0.10100000352E+00 0.  1.
</event>
<event>
 5   0  0.1430675E-04  0.9994036E+03  0.7818609E-02  0.9309199E-01
       -1   -1    0    0    0  501  0.00000000000E+00  0.00000000000E+00  0.36972969835E+03  0.36972969839E+03  0.50400001928E-02 0.  1.
        1   -1    0    0  501    0  0.00000000000E+00  0.00000000000E+00 -0.67536341620E+03  0.67536341622E+03  0.50400001928E-02 0. -1.
    10030    2    1    2    0    0  0.00000000000E+00  0.00000000000E+00 -0.30563371785E+03  0.10450931146E+04  0.99940364654E+03 0.  0.
        5    1    3    3  502    0  0.25170632818E+03  0.16921225436E+03  0.26244061202E+03  0.40110600533E+03  0.46999998093E+01 0.  1.
       -5    1    3    3    0  502 -0.25170632818E+03 -0.16921225436E+03 -0.56807432986E+03  0.64398710928E+03  0.46999998093E+01 0. -1.
</event>
<event>
 5   0  0.1506454E-04  0.1000488E+04  0.7818609E-02  0.9308010E-01
       -1   -1    0    0    0  501  0.00000000000E+00  0.00000000000E+00  0.70637430178E+03  0.70637430180E+03  0.50400001928E-02 0.  1.
        1   -1    0    0  501    0  0.00000000000E+00  0.00000000000E+00 -0.35426545463E+03  0.35426545467E+03  0.50400001928E-02 0. -1.
    10030    2    1    2    0    0  0.00000000000E+00  0.00000000000E+00  0.35210884715E+03  0.10606397565E+04  0.10004879074E+04 0.  0.
        3    1    3    3  502    0 -0.11905649317E+03  0.44250905833E+03 -0.36645593938E+02  0.45970819552E+03  0.10100000352E+00 0. -1.
       -3    1    3    3    0  502  0.11905649317E+03 -0.44250905833E+03  0.38875444109E+03  0.60093156095E+03  0.10100000352E+00 0.  1.
</event>
<event>
 5   0  0.9650500E-05  0.9996427E+03  0.7818609E-02  0.9308937E-01
        4   -1    0    0  501    0  0.00000000000E+00  0.00000000000E+00  0.41814562237E+03  0.41814755100E+03  0.12699999809E+01 0.  1.
       -4   -1    0    0    0  501  0.00000000000E+00  0.00000000000E+00 -0.59744670357E+03  0.59744805340E+03  0.12699999809E+01 0. -1.
    10030    2    1    2    0    0  0.00000000000E+00  0.00000000000E+00 -0.17930108120E+03  0.10155956044E+04  0.99964271315E+03 0.  0.
        5    1    3    3  502    0 -0.36302182615E+03 -0.11936914653E+03  0.23761660898E+03  0.45001953543E+03  0.46999998093E+01 0.  1.
       -5    1    3    3    0  502  0.36302182615E+03  0.11936914653E+03 -0.41691769018E+03  0.56557606897E+03  0.46999998093E+01 0. -1.
</event>
<event>
 5   0  0.2484904E-04  0.9997546E+03  0.7818609E-02  0.9308814E-01
        2   -1    0    0  501    0  0.00000000000E+00  0.00000000000E+00  0.43426019390E+03  0.43426019390E+03  0.25500000920E-02 0. -1.
       -2   -1    0    0    0  501  0.00000000000E+00  0.00000000000E+00 -0.57540924171E+03  0.57540924171E+03  0.25500000920E-02 0.  1.
    10030    2    1    2    0    0  0.00000000000E+00  0.00000000000E+00 -0.14114904781E+03  0.10096694356E+04  0.99975462766E+03 0.  0.
        3    1    3    3  502    0  0.28486293200E+03 -0.27489779028E+03  0.23767636250E+03  0.46174208019E+03  0.10100000352E+00 0. -1.
       -3    1    3    3    0  502 -0.28486293200E+03  0.27489779028E+03 -0.37882541031E+03  0.54792735543E+03  0.10100000352E+00 0.  1.
</event>
<event>
 5   0  0.2473312E-04  0.1000144E+04  0.7818609E-02  0.9308387E-01
       -2   -1    0    0    0  501  0.00000000000E+00  0.00000000000E+00  0.73602652978E+03  0.73602652978E+03  0.25500000920E-02 0.  1.
        2   -1    0    0  501    0  0.00000000000E+00  0.00000000000E+00 -0.33975944738E+03  0.33975944739E+03  0.25500000920E-02 0. -1.
    10030    2    1    2    0    0  0.00000000000E+00  0.00000000000E+00  0.39626708240E+03  0.10757859772E+04  0.10001439237E+04 0.  0.
        5    1    3    3  502    0  0.38707323525E+03  0.73555377357E+02 -0.13307317968E+03  0.41589258726E+03  0.46999998093E+01 0. -1.
       -5    1    3    3    0  502 -0.38707323525E+03 -0.73555377357E+02  0.52934026208E+03  0.65989338991E+03  0.46999998093E+01 0.  1.
</event>
<event>
 5   0  0.2503680E-04  0.1000804E+04  0.7818609E-02  0.9307664E-01
       -2   -1    0    0    0  501  0.00000000000E+00  0.00000000000E+00  0.43404891850E+03  0.43404891851E+03  0.25500000920E-02 0.  1.
        2   -1    0    0  501    0  0.00000000000E+00  0.00000000000E+00 -0.57689809813E+03  0.57689809814E+03  0.25500000920E-02 0. -1.
    10030    2    1    2    0    0  0.00000000000E+00  0.00000000000E+00 -0.14284917963E+03  0.10109470166E+04  0.10008036682E+04 0.  0.
        2    1    3    3  502    0 -0.49520091686E+03  0.70769409142E+02 -0.58264181415E+02  0.50361391181E+03  0.25500000920E-02 0. -1.
       -2    1    3    3    0  502  0.49520091686E+03 -0.70769409142E+02 -0.84584998220E+02  0.50733310483E+03  0.25500000920E-02 0.  1.
</event>
<event>
 5   0  0.1461334E-04  0.1000030E+04  0.7818609E-02  0.9308512E-01
       -1   -1    0    0    0  501  0.00000000000E+00  0.00000000000E+00  0.27215761335E+03  0.27215761340E+03  0.50400001928E-02 0.  1.
        1   -1    0    0  501    0  0.00000000000E+00  0.00000000000E+00 -0.91864024806E+03  0.91864024807E+03  0.50400001928E-02 0. -1.
    10030    2    1    2    0    0  0.00000000000E+00  0.00000000000E+00 -0.64648263471E+03  0.11907978615E+04  0.10000298745E+04 0.  0.
        2    1    3    3  502    0  0.23365104430E+03 -0.19353615861E+03 -0.79650885964E+03  0.85233527363E+03  0.25500000920E-02 0. -1.
       -2    1    3    3    0  502 -0.23365104430E+03  0.19353615861E+03  0.15002622493E+03  0.33846258784E+03  0.25500000920E-02 0.  1.
</event>
<event>
 5   0  0.2403037E-04  0.9997425E+03  0.7818609E-02  0.9308827E-01
       -2   -1    0    0    0  501  0.00000000000E+00  0.00000000000E+00  0.33321908833E+03  0.33321908834E+03  0.25500000920E-02 0.  1.
        2   -1    0    0  501    0  0.00000000000E+00  0.00000000000E+00 -0.74987081767E+03  0.74987081768E+03  0.25500000920E-02 0. -1.
    10030    2    1    2    0    0  0.00000000000E+00  0.00000000000E+00 -0.41665172934E+03  0.10830899060E+04  0.99974250733E+03 0.  0.
        1    1    3    3  502    0 -0.42338599529E+03 -0.26562759140E+03 -0.20010710749E+03  0.53838329544E+03  0.50400001928E-02 0.  1.
       -1    1    3    3    0  502  0.42338599529E+03  0.26562759140E+03 -0.21654462186E+03  0.54470661057E+03  0.50400001928E-02 0. -1.
</event>
<event>
 5   0  0.9650500E-05  0.1000463E+04  0.7818609E-02  0.9308037E-01
       -3   -1    0    0    0  501  0.00000000000E+00  0.00000000000E+00  0.10949107577E+04  0.10949107624E+04  0.10100000352E+00 0.  1.
        3   -1    0    0  501    0  0.00000000000E+00  0.00000000000E+00 -0.22854064891E+03  0.22854067123E+03  0.10100000352E+00 0. -1.
    10030    2    1    2    0    0  0.00000000000E+00  0.00000000000E+00  0.86637010880E+03  0.13234514336E+04  0.10004631586E+04 0.  0.
        2    1    3    3  502    0  0.33284517224E+03 -0.19356469173E+03  0.85562120654E+03  0.93826480678E+03  0.25500000920E-02 0.  1.
       -2    1    3    3    0  502 -0.33284517224E+03  0.19356469173E+03  0.10748902260E+02  0.38518662681E+03  0.25500000920E-02 0. -1.
</event>
<event>
 5   0  0.9650500E-05  0.9997231E+03  0.7818609E-02  0.9308849E-01
       -4   -1    0    0    0  501  0.00000000000E+00  0.00000000000E+00  0.33303174233E+03  0.33303416386E+03  0.12699999809E+01 0. -1.
        4   -1    0    0  501    0  0.00000000000E+00  0.00000000000E+00 -0.75025786866E+03  0.75025894356E+03  0.12699999809E+01 0.  1.
    10030    2    1    2    0    0  0.00000000000E+00  0.00000000000E+00 -0.41722612633E+03  0.10832931074E+04  0.99972311971E+03 0.  0.
        4    1    3    3  502    0  0.17799191726E+03 -0.33541804379E+03 -0.56086180718E+03  0.67731378723E+03  0.12699999809E+01 0.  1.
       -4    1    3    3    0  502 -0.17799191726E+03  0.33541804379E+03  0.14363568085E+03  0.40597932019E+03  0.12699999809E+01 0. -1.
</event>
<event>
 5   0  0.1453863E-04  0.1000949E+04  0.7818609E-02  0.9307504E-01
        1   -1    0    0  501    0  0.00000000000E+00  0.00000000000E+00  0.13460225428E+04  0.13460225428E+04  0.50400001928E-02 0. -1.
       -1   -1    0    0    0  501  0.00000000000E+00  0.00000000000E+00 -0.18608516544E+03  0.18608516550E+03  0.50400001928E-02 0.  1.
    10030    2    1    2    0    0  0.00000000000E+00  0.00000000000E+00  0.11599373773E+04  0.15321077083E+04  0.10009492047E+04 0.  0.
        1    1    3    3  502    0 -0.41907965849E+03 -0.20579534142E+02  0.99754172772E+03  0.10821925780E+04  0.50400001928E-02 0. -1.
       -1    1    3    3    0  502  0.41907965849E+03  0.20579534142E+02  0.16239564961E+03  0.44991513024E+03  0.50400001928E-02 0.  1.
</event>
<event>
 5   0  0.9650500E-05  0.1003218E+04  0.7818609E-02  0.9305022E-01
        3   -1    0    0  501    0  0.00000000000E+00  0.00000000000E+00  0.12276488097E+04  0.12276488138E+04  0.10100000352E+00 0. -1.
       -3   -1    0    0    0  501  0.00000000000E+00  0.00000000000E+00 -0.20495407194E+03  0.20495409682E+03  0.10100000352E+00 0.  1.
    10030    2    1    2    0    0  0.00000000000E+00  0.00000000000E+00  0.10226947378E+04  0.14326029107E+04  0.10032181084E+04 0.  0.
        5    1    3    3  502    0 -0.21110118759E+03  0.44685688296E+03  0.38896481612E+03  0.62893600901E+03  0.46999998093E+01 0. -1.
       -5    1    3    3    0  502  0.21110118759E+03 -0.44685688296E+03  0.63372992163E+03  0.80366690166E+03  0.46999998093E+01 0.  1.
</event>
<event>
 5   0  0.1506454E-04  0.1000049E+04  0.7818609E-02  0.9308491E-01
        1   -1    0    0  501    0  0.00000000000E+00  0.00000000000E+00  0.87079643367E+03  0.87079643369E+03  0.50400001928E-02 0.  1.
       -1   -1    0    0    0  501  0.00000000000E+00  0.00000000000E+00 -0.28712144927E+03  0.28712144931E+03  0.50400001928E-02 0. -1.
    10030    2    1    2    0    0  0.00000000000E+00  0.00000000000E+00  0.58367498440E+03  0.11579178830E+04  0.10000486670E+04 0.  0.
        3    1    3    3  502    0 -0.39669188448E+03  0.20385329728E+03  0.55358516159E+03  0.71089883904E+03  0.10100000352E+00 0.  1.
       -3    1    3    3    0  502  0.39669188448E+03 -0.20385329728E+03  0.30089822811E+02  0.44701904395E+03  0.10100000352E+00 0. -1.
</event>
<event>
 5   0  0.1461334E-04  0.1001166E+04  0.7818609E-02  0.9307267E-01
       -1   -1    0    0    0  501  0.00000000000E+00  0.00000000000E+00  0.85949763829E+03  0.85949763830E+03  0.50400001928E-02 0. -1.
        1   -1    0    0  501    0  0.00000000000E+00  0.00000000000E+00 -0.29154614451E+03  0.29154614456E+03  0.50400001928E-02 0.  1.
    10030    2    1    2    0    0  0.00000000000E+00  0.00000000000E+00  0.56795149378E+03  0.11510437829E+04  0.10011657659E+04 0.  0.
        2    1    3    3  502    0  0.33326550040E+03  0.15604746805E+03 -0.10618984614E+03  0.38300520815E+03  0.25500000920E-02 0.  1.
       -2    1    3    3    0  502 -0.33326550040E+03 -0.15604746805E+03  0.67414133992E+03  0.76803857471E+03  0.25500000920E-02 0. -1.
</event>
<event>
 5   0  0.1506454E-04  0.9997698E+03  0.7818609E-02  0.9308797E-01
       -1   -1    0    0    0  501  0.00000000000E+00  0.00000000000E+00  0.30508313496E+03  0.30508313500E+03  0.50400001928E-02 0. -1.
        1   -1    0    0  501    0  0.00000000000E+00  0.00000000000E+00 -0.81907155227E+03  0.81907155228E+03  0.50400001928E-02 0.  1.
    10030    2    1    2    0    0  0.00000000000E+00  0.00000000000E+00 -0.51398841731E+03  0.11241546873E+04  0.99976980741E+03 0.  0.
        3    1    3    3  502    0  0.48672641493E+03  0.89551702701E+02 -0.17778251781E+03  0.52586000445E+03  0.10100000352E+00 0. -1.
       -3    1    3    3    0  502 -0.48672641493E+03 -0.89551702701E+02 -0.33620589949E+03  0.59829468283E+03  0.10100000352E+00 0.  1.
</event>
<event>
 5   0  0.1414165E-04  0.1000252E+04  0.7818609E-02  0.9308268E-01
        1   -1    0    0  501    0  0.00000000000E+00  0.00000000000E+00  0.16471648277E+04  0.16471648277E+04  0.50400001928E-02 0. -1.
       -1   -1    0    0    0  501  0.00000000000E+00  0.00000000000E+00 -0.15185247474E+03  0.15185247482E+03  0.50400001928E-02 0.  1.
    10030    2    1    2    0    0  0.00000000000E+00  0.00000000000E+00  0.14953123530E+04  0.17990173025E+04  0.10002520792E+04 0.  0.
        4    1    3    3  502    0 -0.35342603584E+03 -0.61173853863E+02  0.13745072825E+04  0.14205365485E+04  0.12699999809E+01 0. -1.
       -4    1    3    3    0  502  0.35342603584E+03  0.61173853863E+02  0.12080507050E+03  0.37848075402E+03  0.12699999809E+01 0.  1.
</event>
<event>
 5   0  0.9650500E-05  0.9973924E+03  0.7818609E-02  0.9311409E-01
       -4   -1    0    0    0  501  0.00000000000E+00  0.00000000000E+00  0.46576655153E+03  0.46576828297E+03  0.12699999809E+01 0.  1.
        4   -1    0    0  501    0  0.00000000000E+00  0.00000000000E+00 -0.53395046681E+03  0.53395197715E+03  0.12699999809E+01 0. -1.
    10030    2    1    2    0    0  0.00000000000E+00  0.00000000000E+00 -0.68183915279E+02  0.99972026013E+03  0.99739237625E+03 0.  0.
        5    1    3    3  502    0 -0.56233439359E+02  0.39604335013E+03  0.26436678481E+03  0.47950435013E+03  0.46999998093E+01 0.  1.
       -5    1    3    3    0  502  0.56233439359E+02 -0.39604335013E+03 -0.33255070009E+03  0.52021591000E+03  0.46999998093E+01 0. -1.
</event>
<event>
 5   0  0.2503680E-04  0.9994839E+03  0.7818609E-02  0.9309111E-01
       -2   -1    0    0    0  501  0.00000000000E+00  0.00000000000E+00  0.34404935821E+03  0.34404935822E+03  0.25500000920E-02 0. -1.
        2   -1    0    0  501    0  0.00000000000E+00  0.00000000000E+00 -0.72589009089E+03  0.72589009090E+03  0.25500000920E-02 0.  1.
    10030    2    1    2    0    0  0.00000000000E+00  0.00000000000E+00 -0.38184073268E+03  0.10699394491E+04  0.99948390665E+03 0.  0.
        2    1    3    3  502    0  0.25212071158E+03 -0.18716178151E+03 -0.60710311274E+03  0.68349731175E+03  0.25500000920E-02 0.  1.
       -2    1    3    3    0  502 -0.25212071158E+03  0.18716178151E+03  0.22526238006E+03  0.38644213738E+03  0.25500000920E-02 0. -1.
</event>
<event>
 5   0  0.1461334E-04  0.9989163E+03  0.7818609E-02  0.9309734E-01
       -1   -1    0    0    0  501  0.00000000000E+00  0.00000000000E+00  0.19528637925E+03  0.19528637932E+03  0.50400001928E-02 0. -1.
        1   -1    0    0  501    0  0.00000000000E+00  0.00000000000E+00 -0.12773980369E+04  0.12773980369E+04  0.50400001928E-02 0.  1.
    10030    2    1    2    0    0  0.00000000000E+00  0.00000000000E+00 -0.10821116576E+04  0.14726844162E+04  0.99891628787E+03 0.  0.
        2    1    3    3  502    0 -0.46116697709E+03  0.58813857895E+02 -0.81018556184E+03  0.93409565638E+03  0.25500000920E-02 0.  1.
       -2    1    3    3    0  502  0.46116697709E+03 -0.58813857895E+02 -0.27192609578E+03  0.53858875982E+03  0.25500000920E-02 0. -1.
</event>
<event>
 5   0  0.1430675E-04  0.9983911E+03  0.7818609E-02  0.9310311E-01
        1   -1    0    0  501    0  0.00000000000E+00  0.00000000000E+00  0.39419327095E+03  0.39419327098E+03  0.50400001928E-02 0.  1.
       -1   -1    0    0    0  501  0.00000000000E+00  0.00000000000E+00 -0.63216757686E+03  0.63216757688E+03  0.50400001928E-02 0. -1.
    10030    2    1    2    0    0  0.00000000000E+00  0.00000000000E+00 -0.23797430591E+03  0.10263608479E+04  0.99839111561E+03 0.  0.
        5    1    3    3  502    0 -0.31057599479E+03  0.38931525957E+03 -0.84121002789E+02  0.50509628091E+03  0.46999998093E+01 0.  1.
       -5    1    3    3    0  502  0.31057599479E+03 -0.38931525957E+03 -0.15385330312E+03  0.52126456695E+03  0.46999998093E+01 0. -1.
</event>
<event>
 5   0  0.1430675E-04  0.9969109E+03  0.7818609E-02  0.9311939E-01
        1   -1    0    0  501    0  0.00000000000E+00  0.00000000000E+00  0.46191644159E+03  0.46191644161E+03  0.50400001928E-02 0.  1.
       -1   -1    0    0    0  501  0.00000000000E+00  0.00000000000E+00 -0.53788476033E+03  0.53788476035E+03  0.50400001928E-02 0. -1.
    10030    2    1    2    0    0  0.00000000000E+00  0.00000000000E+00 -0.75968318741E+02  0.99980120197E+03  0.99691085760E+03 0.  0.
        5    1    3    3  502    0  0.53713311720E+02  0.44058510419E+03 -0.26543537654E+03  0.51718312328E+03  0.46999998093E+01 0. -1.
       -5    1    3    3    0  502 -0.53713311720E+02 -0.44058510419E+03  0.18946705780E+03  0.48261807869E+03  0.46999998093E+01 0.  1.
</event>
<event>
 5   0  0.2484904E-04  0.1000156E+04  0.7818609E-02  0.9308373E-01
        2   -1    0    0  501    0  0.00000000000E+00  0.00000000000E+00  0.10961032964E+04  0.10961032964E+04  0.25500000920E-02 0. -1.
       -2   -1    0    0    0  501  0.00000000000E+00  0.00000000000E+00 -0.22815205260E+03  0.22815205261E+03  0.25500000920E-02 0.  1.
    10030    2    1    2    0    0  0.00000000000E+00  0.00000000000E+00  0.86795124384E+03  0.13242553490E+04  0.10001564217E+04 0.  0.
        3    1    3    3  502    0  0.13056483802E+03  0.21915442174E+03 -0.13552270591E+03  0.28886372482E+03  0.10100000352E+00 0.  1.
       -3    1    3    3    0  502 -0.13056483802E+03 -0.21915442174E+03  0.10034739498E+04  0.10353916242E+04  0.10100000352E+00 0. -1.
</event>
<event>
 5   0  0.2484904E-04  0.9999155E+03  0.7818609E-02  0.9308638E-01
       -2   -1    0    0    0  501  0.00000000000E+00  0.00000000000E+00  0.98997198818E+02  0.98997198851E+02  0.25500000920E-02 0. -1.
        2   -1    0    0  501    0  0.00000000000E+00  0.00000000000E+00 -0.25248969803E+04  0.25248969803E+04  0.25500000920E-02 0.  1.
    10030    2    1    2    0    0  0.00000000000E+00  0.00000000000E+00 -0.24258997815E+04  0.26238941792E+04  0.99991545323E+03 0.  0.
        3    1    3    3  502    0  0.15122936335E+03  0.34005808682E+03 -0.33691990540E+03  0.50202077208E+03  0.10100000352E+00 0. -1.
       -3    1    3    3    0  502 -0.15122936335E+03 -0.34005808682E+03 -0.20889798761E+04  0.21218734071E+04  0.10100000352E+00 0.  1.
</event>
<event>
 5   0  0.2353916E-04  0.9999029E+03  0.7818609E-02  0.9308651E-01
        2   -1    0    0  501    0  0.00000000000E+00  0.00000000000E+00  0.71843516673E+03  0.71843516673E+03  0.25500000920E-02 0. -1.
       -2   -1    0    0    0  501  0.00000000000E+00  0.00000000000E+00 -0.34791090668E+03  0.34791090669E+03  0.25500000920E-02 0.  1.
    10030    2    1    2    0    0  0.00000000000E+00  0.00000000000E+00  0.37052426004E+03  0.10663460734E+04  0.99990285579E+03 0.  0.
        4    1    3    3  502    0  0.35537722325E+03  0.87060665405E+02 -0.17807852103E+03  0.40692272340E+03  0.12699999809E+01 0. -1.
       -4    1    3    3    0  502 -0.35537722325E+03 -0.87060665405E+02  0.54860278107E+03  0.65942335003E+03  0.12699999809E+01 0.  1.
</event>
<event>
 5   0  0.2484904E-04  0.1000052E+04  0.7818609E-02  0.9308488E-01
        2   -1    0    0  501    0  0.00000000000E+00  0.00000000000E+00  0.70509623246E+03  0.70509623246E+03  0.25500000920E-02 0. -1.
       -2   -1    0    0    0  501  0.00000000000E+00  0.00000000000E+00 -0.35459808196E+03  0.35459808197E+03  0.25500000920E-02 0.  1.
    10030    2    1    2    0    0  0.00000000000E+00  0.00000000000E+00  0.35049815050E+03  0.10596943144E+04  0.10000515419E+04 0.  0.
        3    1    3    3  502    0  0.95369989488E+02  0.37700212884E+03 -0.15782135678E+03  0.41968277413E+03  0.10100000352E+00 0.  1.
       -3    1    3    3    0  502 -0.95369989488E+02 -0.37700212884E+03  0.50831950728E+03  0.64001154031E+03  0.10100000352E+00 0. -1.
</event>
<event>
 5   0  0.2403037E-04  0.9955901E+03  0.7818609E-02  0.9313395E-01
        2   -1    0    0  501    0  0.00000000000E+00  0.00000000000E+00  0.60703819854E+03  0.60703819854E+03  0.25500000920E-02 0. -1.
       -2   -1    0    0    0  501  0.00000000000E+00  0.00000000000E+00 -0.40821138273E+03  0.40821138274E+03  0.25500000920E-02 0.  1.
    10030    2    1    2    0    0  0.00000000000E+00  0.00000000000E+00  0.19882681581E+03  0.10152495813E+04  0.99559008111E+03 0.  0.
        1    1    3    3  502    0 -0.29714220012E+02 -0.45800135956E+03 -0.97140522612E+02  0.46913160349E+03  0.50400001928E-02 0.  1.
       -1    1    3    3    0  502  0.29714220012E+02  0.45800135956E+03  0.29596733842E+03  0.54611797779E+03  0.50400001928E-02 0. -1.
</event>
<event>
 5   0  0.2484904E-04  0.9999550E+03  0.7818609E-02  0.9308594E-01
        2   -1    0    0  501    0  0.00000000000E+00  0.00000000000E+00  0.13357173215E+04  0.13357173215E+04  0.25500000920E-02 0. -1.
       -2   -1    0    0    0  501  0.00000000000E+00  0.00000000000E+00 -0.18714849018E+03  0.18714849019E+03  0.25500000920E-02 0.  1.
    10030    2    1    2    0    0  0.00000000000E+00  0.00000000000E+00  0.11485688313E+04  0.15228658117E+04  0.99995495907E+03 0.  0.
        3    1    3    3  502    0  0.82680865313E+02  0.47772107442E+03  0.38823742661E+03  0.62111340354E+03  0.10100000352E+00 0. -1.
       -3    1    3    3    0  502 -0.82680865313E+02 -0.47772107442E+03  0.76033140474E+03  0.90175240818E+03  0.10100000352E+00 0.  1.
</event>
<event>
 5   0  0.2473312E-04  0.9997866E+03  0.7818609E-02  0.9308779E-01
       -2   -1    0    0    0  501  0.00000000000E+00  0.00000000000E+00  0.29185122319E+03  0.29185122320E+03  0.25500000920E-02 0. -1.
        2   -1    0    0  501    0  0.00000000000E+00  0.00000000000E+00 -0.85623527939E+03  0.85623527939E+03  0.25500000920E-02 0.  1.
    10030    2    1    2    0    0  0.00000000000E+00  0.00000000000E+00 -0.56438405620E+03  0.11480865026E+04  0.99978660451E+03 0.  0.
        5    1    3    3  502    0  0.44963248760E+03 -0.41556336000E+02 -0.52841455946E+03  0.69508297318E+03  0.46999998093E+01 0.  1.
       -5    1    3    3    0  502 -0.44963248760E+03  0.41556336000E+02 -0.35969496735E+02  0.45300352941E+03  0.46999998093E+01 0. -1.
</event>
<event>
 5   0  0.1506454E-04  0.9999308E+03  0.7818609E-02  0.9308621E-01
        1   -1    0    0  501    0  0.00000000000E+00  0.00000000000E+00  0.11682072147E+04  0.11682072147E+04  0.50400001928E-02 0. -1.
       -1   -1    0    0    0  501  0.00000000000E+00  0.00000000000E+00 -0.21397352956E+03  0.21397352962E+03  0.50400001928E-02 0.  1.
    10030    2    1    2    0    0  0.00000000000E+00  0.00000000000E+00  0.95423368509E+03  0.13821807443E+04  0.99993083966E+03 0.  0.
        3    1    3    3  502    0  0.22099264197E+03 -0.29128602738E+03  0.57624068097E+01  0.36567542040E+03  0.10100000352E+00 0.  1.
       -3    1    3    3    0  502 -0.22099264197E+03  0.29128602738E+03  0.94847127828E+03  0.10165053239E+04  0.10100000352E+00 0. -1.
</event>
<event>
 5   0  0.9650500E-05  0.9999142E+03  0.7818609E-02  0.9308639E-01
        3   -1    0    0  501    0  0.00000000000E+00  0.00000000000E+00  0.42342649698E+03  0.42342650902E+03  0.10100000352E+00 0.  1.
       -3   -1    0    0    0  501  0.00000000000E+00  0.00000000000E+00 -0.59031991251E+03  0.59031992115E+03  0.10100000352E+00 0. -1.
    10030    2    1    2    0    0  0.00000000000E+00  0.00000000000E+00 -0.16689341554E+03  0.10137464302E+04  0.99991420259E+03 0.  0.
        5    1    3    3  502    0  0.17907980319E+03 -0.39060781668E+03 -0.34250241450E+03  0.54952164316E+03  0.46999998093E+01 0. -1.
       -5    1    3    3    0  502 -0.17907980319E+03  0.39060781668E+03  0.17560899896E+03  0.46422478702E+03  0.46999998093E+01 0.  1.
</event>
<event>
 5   0  0.1453863E-04  0.1000151E+04  0.7818609E-02  0.9308380E-01
       -1   -1    0    0    0  501  0.00000000000E+00  0.00000000000E+00  0.12847929286E+03  0.12847929296E+03  0.50400001928E-02 0.  1.
        1   -1    0    0  501    0  0.00000000000E+00  0.00000000000E+00 -0.19464252344E+04  0.19464252344E+04  0.50400001928E-02 0. -1.
    10030    2    1    2    0    0  0.00000000000E+00  0.00000000000E+00 -0.18179459415E+04  0.20749045273E+04  0.10001506643E+04 0.  0.
        1    1    3    3  502    0 -0.31094842977E+03 -0.23713250332E+03 -0.26233031850E+03  0.47089058829E+03  0.50400001928E-02 0.  1.
       -1    1    3    3    0  502  0.31094842977E+03  0.23713250332E+03 -0.15556156230E+04  0.16040139390E+04  0.50400001928E-02 0. -1.
</event>
<event>
 5   0  0.1506454E-04  0.1000107E+04  0.7818609E-02  0.9308427E-01
        1   -1    0    0  501    0  0.00000000000E+00  0.00000000000E+00  0.11614492383E+04  0.11614492383E+04  0.50400001928E-02 0. -1.
       -1   -1    0    0    0  501  0.00000000000E+00  0.00000000000E+00 -0.21529442370E+03  0.21529442376E+03  0.50400001928E-02 0.  1.
    10030    2    1    2    0    0  0.00000000000E+00  0.00000000000E+00  0.94615481458E+03  0.13767436621E+04  0.10001070832E+04 0.  0.
        3    1    3    3  502    0 -0.90748411684E+02 -0.40901317498E+03  0.84888183733E+03  0.94664007705E+03  0.10100000352E+00 0. -1.
       -3    1    3    3    0  502  0.90748411684E+02  0.40901317498E+03  0.97272977251E+02  0.43010358501E+03  0.10100000352E+00 0.  1.
</event>
<event>
 5   0  0.1414165E-04  0.1000103E+04  0.7818609E-02  0.9308432E-01
        1   -1    0    0  501    0  0.00000000000E+00  0.00000000000E+00  0.52957578080E+03  0.52957578082E+03  0.50400001928E-02 0. -1.
       -1   -1    0    0    0  501  0.00000000000E+00  0.00000000000E+00 -0.47217312118E+03  0.47217312120E+03  0.50400001928E-02 0.  1.
    10030    2    1    2    0    0  0.00000000000E+00  0.00000000000E+00  0.57402659624E+02  0.10017489020E+04  0.10001028934E+04 0.  0.
        4    1    3    3  502    0  0.50339045682E+02 -0.29498533100E+03  0.42998454507E+03  0.52386895969E+03  0.12699999809E+01 0. -1.
       -4    1    3    3    0  502 -0.50339045682E+02  0.29498533100E+03 -0.37258188544E+03  0.47787994234E+03  0.12699999809E+01 0.  1.
</event>
<event>
 5   0  0.1414165E-04  0.9999271E+03  0.7818609E-02  0.9308625E-01
        1   -1    0    0  501    0  0.00000000000E+00  0.00000000000E+00  0.18169866843E+04  0.18169866843E+04  0.50400001928E-02 0. -1.
       -1   -1    0    0    0  501  0.00000000000E+00  0.00000000000E+00 -0.13757038106E+03  0.13757038115E+03  0.50400001928E-02 0.  1.
    10030    2    1    2    0    0  0.00000000000E+00  0.00000000000E+00  0.16794163032E+04  0.19545570654E+04  0.99992709860E+03 0.  0.
        4    1    3    3  502    0 -0.96319999240E+02  0.25516358535E+03  0.20654185155E+02  0.27352185617E+03  0.12699999809E+01 0.  1.
       -4    1    3    3    0  502  0.96319999240E+02 -0.25516358535E+03  0.16587621181E+04  0.16810352092E+04  0.12699999809E+01 0. -1.
</event>
<event>
 5   0  0.2353916E-04  0.9998196E+03  0.7818609E-02  0.9308743E-01
        2   -1    0    0  501    0  0.00000000000E+00  0.00000000000E+00  0.44313700718E+03  0.44313700719E+03  0.25500000920E-02 0.  1.
       -2   -1    0    0    0  501  0.00000000000E+00  0.00000000000E+00 -0.56395603253E+03  0.56395603254E+03  0.25500000920E-02 0. -1.
    10030    2    1    2    0    0  0.00000000000E+00  0.00000000000E+00 -0.12081902535E+03  0.10070930397E+04  0.99981956061E+03 0.  0.
        4    1    3    3  502    0 -0.48517475746E+03 -0.11353974165E+03 -0.19837997765E+02  0.49867923284E+03  0.12699999809E+01 0.  1.
       -4    1    3    3    0  502  0.48517475746E+03  0.11353974165E+03 -0.10098102758E+03  0.50841380689E+03  0.12699999809E+01 0. -1.
</event>
<event>
 5   0  0.2473312E-04  0.1000150E+04  0.7818609E-02  0.9308380E-01
        2   -1    0    0  501    0  0.00000000000E+00  0.00000000000E+00  0.14394365239E+04  0.14394365239E+04  0.25500000920E-02 0. -1.
       -2   -1    0    0    0  501  0.00000000000E+00  0.00000000000E+00 -0.17373128001E+03  0.17373128003E+03  0.25500000920E-02 0.  1.
    10030    2    1    2    0    0  0.00000000000E+00  0.00000000000E+00  0.12657052439E+04  0.16131678040E+04  0.10001502883E+04 0.  0.
        5    1    3    3  502    0 -0.26629356005E+03 -0.38470574745E+03  0.34821681279E+03  0.58325621382E+03  0.46999998093E+01 0.  1.
       -5    1    3    3    0  502  0.26629356005E+03  0.38470574745E+03  0.91748843115E+03  0.10299115902E+04  0.46999998093E+01 0. -1.
</event>
<event>
 5   0  0.1414165E-04  0.9998452E+03  0.7818609E-02  0.9308715E-01
       -1   -1    0    0    0  501  0.00000000000E+00  0.00000000000E+00  0.24755309502E+03  0.24755309507E+03  0.50400001928E-02 0.  1.
        1   -1    0    0  501    0  0.00000000000E+00  0.00000000000E+00 -0.10095718042E+04  0.10095718043E+04  0.50400001928E-02 0. -1.
    10030    2    1    2    0    0  0.00000000000E+00  0.00000000000E+00 -0.76201870923E+03  0.12571248993E+04  0.99984523767E+03 0.  0.
        4    1    3    3  502    0  0.15336600205E+03 -0.36311168893E+03  0.56031649110E+01  0.39421344165E+03  0.12699999809E+01 0.  1.
       -4    1    3    3    0  502 -0.15336600205E+03  0.36311168893E+03 -0.76762187414E+03  0.86291145767E+03  0.12699999809E+01 0. -1.
</event>
<event>
 5   0  0.2484904E-04  0.1000151E+04  0.7818609E-02  0.9308380E-01
       -2   -1    0    0    0  501  0.00000000000E+00  0.00000000000E+00  0.77814516177E+03  0.77814516178E+03  0.25500000920E-02 0. -1.
        2   -1    0    0  501    0  0.00000000000E+00  0.00000000000E+00 -0.32137353802E+03  0.32137353803E+03  0.25500000920E-02 0.  1.
    10030    2    1    2    0    0  0.00000000000E+00  0.00000000000E+00  0.45677162376E+03  0.10995186998E+04  0.10001505161E+04 0.  0.
        3    1    3    3  502    0 -0.40813980642E+03  0.17336324417E+03  0.48252988106E+03  0.65533809010E+03  0.10100000352E+00 0. -1.
       -3    1    3    3    0  502  0.40813980642E+03 -0.17336324417E+03 -0.25758257301E+02  0.44418060971E+03  0.10100000352E+00 0.  1.
</event>
<event>
 5   0  0.2403037E-04  0.9996427E+03  0.7818609E-02  0.9308937E-01
       -2   -1    0    0    0  501  0.00000000000E+00  0.00000000000E+00  0.16916624817E+03  0.16916624819E+03  0.25500000920E-02 0. -1.
        2   -1    0    0  501    0  0.00000000000E+00  0.00000000000E+00 -0.14767802426E+04  0.14767802426E+04  0.25500000920E-02 0.  1.
    10030    2    1    2    0    0  0.00000000000E+00  0.00000000000E+00 -0.13076139945E+04  0.16459464908E+04  0.99964268225E+03 0.  0.
        1    1    3    3  502    0 -0.31399611813E+03 -0.36275003584E+03 -0.42305571609E+03  0.63965403903E+03  0.50400001928E-02 0. -1.
       -1    1    3    3    0  502  0.31399611813E+03  0.36275003584E+03 -0.88455827838E+03  0.10062924518E+04  0.50400001928E-02 0.  1.
</event>
<event>
 5   0  0.2503680E-04  0.1000896E+04  0.7818609E-02  0.9307562E-01
        2   -1    0    0  501    0  0.00000000000E+00  0.00000000000E+00  0.95967443610E+03  0.95967443610E+03  0.25500000920E-02 0. -1.
       -2   -1    0    0    0  501  0.00000000000E+00  0.00000000000E+00 -0.26097228026E+03  0.26097228027E+03  0.25500000920E-02 0.  1.
    10030    2    1    2    0    0  0.00000000000E+00  0.00000000000E+00  0.69870215583E+03  0.12206467164E+04  0.10008964500E+04 0.  0.
        2    1    3    3  502    0  0.81582179952E+02  0.47031006975E+03  0.16600707717E+03  0.50537665505E+03  0.25500000920E-02 0.  1.
       -2    1    3    3    0  502 -0.81582179952E+02 -0.47031006975E+03  0.53269507867E+03  0.71527006133E+03  0.25500000920E-02 0. -1.
</event>
<event>
 5   0  0.9650500E-05  0.1001021E+04  0.7818609E-02  0.9307426E-01
       -4   -1    0    0    0  501  0.00000000000E+00  0.00000000000E+00  0.12302670393E+04  0.12302676948E+04  0.12699999809E+01 0.  1.
        4   -1    0    0  501    0  0.00000000000E+00  0.00000000000E+00 -0.20362025257E+03  0.20362421309E+03  0.12699999809E+01 0. -1.
    10030    2    1    2    0    0  0.00000000000E+00  0.00000000000E+00  0.10266467867E+04  0.14338919079E+04  0.10010206685E+04 0.  0.
        4    1    3    3  502    0  0.22582140803E+02  0.38111779104E+03  0.49719820873E+02  0.38501220399E+03  0.12699999809E+01 0. -1.
       -4    1    3    3    0  502 -0.22582140803E+02 -0.38111779104E+03  0.97692696584E+03  0.10488797039E+04  0.12699999809E+01 0.  1.
</event>
<event>
 5   0  0.1414165E-04  0.9928429E+03  0.7818609E-02  0.9316430E-01
       -1   -1    0    0    0  501  0.00000000000E+00  0.00000000000E+00  0.18324737452E+03  0.18324737459E+03  0.50400001928E-02 0. -1.
        1   -1    0    0  501    0  0.00000000000E+00  0.00000000000E+00 -0.13448173830E+04  0.13448173830E+04  0.50400001928E-02 0.  1.
    10030    2    1    2    0    0  0.00000000000E+00  0.00000000000E+00 -0.11615700085E+04  0.15280647576E+04  0.99284289734E+03 0.  0.
        4    1    3    3  502    0  0.15906183126E+03 -0.19095704719E+03  0.80603012779E+02  0.26127326423E+03  0.12699999809E+01 0. -1.
       -4    1    3    3    0  502 -0.15906183126E+03  0.19095704719E+03 -0.12421730212E+04  0.12667914933E+04  0.12699999809E+01 0.  1.
</event>
<event>
 5   0  0.2473312E-04  0.1000327E+04  0.7818609E-02  0.9308186E-01
       -2   -1    0    0    0  501  0.00000000000E+00  0.00000000000E+00  0.16267748179E+03  0.16267748181E+03  0.25500000920E-02 0. -1.
        2   -1    0    0  501    0  0.00000000000E+00  0.00000000000E+00 -0.15377890538E+04  0.15377890538E+04  0.25500000920E-02 0.  1.
    10030    2    1    2    0    0  0.00000000000E+00  0.00000000000E+00 -0.13751115720E+04  0.17004665356E+04  0.10003272481E+04 0.  0.
        5    1    3    3  502    0  0.31595863906E+03  0.37427082727E+03 -0.51559537407E+03  0.71117451691E+03  0.46999998093E+01 0.  1.
       -5    1    3    3    0  502 -0.31595863906E+03 -0.37427082727E+03 -0.85951619791E+03  0.98929201868E+03  0.46999998093E+01 0. -1.
</event>
<event>
 5   0  0.9650500E-05  0.9972521E+03  0.7818609E-02  0.9311564E-01
        4   -1    0    0  501    0  0.00000000000E+00  0.00000000000E+00  0.41378040067E+03  0.41378234965E+03  0.12699999809E+01 0. -1.
       -4   -1    0    0    0  501  0.00000000000E+00  0.00000000000E+00 -0.60086526166E+03  0.60086660381E+03  0.12699999809E+01 0.  1.
    10030    2    1    2    0    0  0.00000000000E+00  0.00000000000E+00 -0.18708486099E+03  0.10146489535E+04  0.99725210130E+03 0.  0.
        2    1    3    3  502    0 -0.13298852233E+03 -0.81883473901E+02  0.38825510501E+03  0.41848880145E+03  0.25500000920E-02 0. -1.
       -2    1    3    3    0  502  0.13298852233E+03  0.81883473901E+02 -0.57533996600E+03  0.59616015201E+03  0.25500000920E-02 0.  1.
</event>
<event>
 5   0  0.1430675E-04  0.1000079E+04  0.7818609E-02  0.9308458E-01
        1   -1    0    0  501    0  0.00000000000E+00  0.00000000000E+00  0.10382702178E+04  0.10382702178E+04  0.50400001928E-02 0.  1.
       -1   -1    0    0    0  501  0.00000000000E+00  0.00000000000E+00 -0.24082303752E+03  0.24082303757E+03  0.50400001928E-02 0. -1.
    10030    2    1    2    0    0  0.00000000000E+00  0.00000000000E+00  0.79744718025E+03  0.12790932554E+04  0.10000787722E+04 0.  0.
        5    1    3    3  502    0  0.36779941818E+03 -0.20060836979E+03  0.49633210508E+02  0.42190718840E+03  0.46999998093E+01 0. -1.
       -5    1    3    3    0  502 -0.36779941818E+03  0.20060836979E+03  0.74781396975E+03  0.85718606696E+03  0.46999998093E+01 0.  1.
</event>
<event>
 5   0  0.1414165E-04  0.9975536E+03  0.7818609E-02  0.9311232E-01
        1   -1    0    0  501    0  0.00000000000E+00  0.00000000000E+00  0.72683785153E+03  0.72683785155E+03  0.50400001928E-02 0. -1.
       -1   -1    0    0    0  501  0.00000000000E+00  0.00000000000E+00 -0.34227478939E+03  0.34227478943E+03  0.50400001928E-02 0.  1.
    10030    2    1    2    0    0  0.00000000000E+00  0.00000000000E+00  0.38456306213E+03  0.10691126410E+04  0.99755355262E+03 0.  0.
        4    1    3    3  502    0  0.88516756636E+02 -0.48668913008E+03  0.12386544909E+03  0.50994684813E+03  0.12699999809E+01 0. -1.
       -4    1    3    3    0  502 -0.88516756636E+02  0.48668913008E+03  0.26069761305E+03  0.55916579285E+03  0.12699999809E+01 0.  1.
</event>
<event>
 5   0  0.1506454E-04  0.9993042E+03  0.7818609E-02  0.9309308E-01
       -1   -1    0    0    0  501  0.00000000000E+00  0.00000000000E+00  0.26064973859E+03  0.26064973864E+03  0.50400001928E-02 0. -1.
        1   -1    0    0  501    0  0.00000000000E+00  0.00000000000E+00 -0.95780728957E+03  0.95780728959E+03  0.50400001928E-02 0.  1.
    10030    2    1    2    0    0  0.00000000000E+00  0.00000000000E+00 -0.69715755098E+03  0.12184570282E+04  0.99930419730E+03 0.  0.
        3    1    3    3  502    0  0.21384981810E+03  0.24238914449E+03 -0.81314529082E+03  0.87503686565E+03  0.10100000352E+00 0. -1.
       -3    1    3    3    0  502 -0.21384981810E+03 -0.24238914449E+03  0.11598773984E+03  0.34342016258E+03  0.10100000352E+00 0.  1.
</event>
<event>
 5   0  0.9650500E-05  0.9990408E+03  0.7818609E-02  0.9309597E-01
       -3   -1    0    0    0  501  0.00000000000E+00  0.00000000000E+00  0.32490522006E+03  0.32490523576E+03  0.10100000352E+00 0.  1.
        3   -1    0    0  501    0  0.00000000000E+00  0.00000000000E+00 -0.76797977125E+03  0.76797977789E+03  0.10100000352E+00 0. -1.
    10030    2    1    2    0    0  0.00000000000E+00  0.00000000000E+00 -0.44307455119E+03  0.10928850137E+04  0.99904083758E+03 0.  0.
        4    1    3    3  502    0 -0.11513944832E+03 -0.26858039636E+03 -0.66471773383E+03  0.72611555584E+03  0.12699999809E+01 0. -1.
       -4    1    3    3    0  502  0.11513944832E+03  0.26858039636E+03  0.22164318264E+03  0.36676945781E+03  0.12699999809E+01 0.  1.
</event>
<event>
 5   0  0.1430675E-04  0.1001735E+04  0.7818609E-02  0.9306644E-01
       -1   -1    0    0    0  501  0.00000000000E+00  0.00000000000E+00  0.22460317853E+03  0.22460317858E+03  0.50400001928E-02 0. -1.
        1   -1    0    0  501    0  0.00000000000E+00  0.00000000000E+00 -0.11169395251E+04  0.11169395251E+04  0.50400001928E-02 0.  1.
    10030    2    1    2    0    0  0.00000000000E+00  0.00000000000E+00 -0.89233634657E+03  0.13415427037E+04  0.10017348304E+04 0.  0.
        5    1    3    3  502    0  0.10566578114E+03  0.13379656241E+03  0.18451643387E+03  0.25126715221E+03  0.46999998093E+01 0. -1.
       -5    1    3    3    0  502 -0.10566578114E+03 -0.13379656241E+03 -0.10768527804E+04  0.10902755515E+04  0.46999998093E+01 0.  1.
</event>
<event>
 5   0  0.1414165E-04  0.1000263E+04  0.7818609E-02  0.9308257E-01
       -1   -1    0    0    0  501  0.00000000000E+00  0.00000000000E+00  0.40726171961E+03  0.40726171964E+03  0.50400001928E-02 0.  1.
        1   -1    0    0  501    0  0.00000000000E+00  0.00000000000E+00 -0.61417856468E+03  0.61417856470E+03  0.50400001928E-02 0. -1.
    10030    2    1    2    0    0  0.00000000000E+00  0.00000000000E+00 -0.20691684508E+03  0.10214402843E+04  0.10002628023E+04 0.  0.
        4    1    3    3  502    0  0.94318609669E+02  0.37287569485E+03 -0.42991020570E+03  0.57685065815E+03  0.12699999809E+01 0. -1.
       -4    1    3    3    0  502 -0.94318609669E+02 -0.37287569485E+03  0.22299336063E+03  0.44458962619E+03  0.12699999809E+01 0.  1.
</event>
<event>
 5   0  0.1430675E-04  0.9996763E+03  0.7818609E-02  0.9308900E-01
        1   -1    0    0  501    0  0.00000000000E+00  0.00000000000E+00  0.49288685432E+03  0.49288685435E+03  0.50400001928E-02 0.  1.
       -1   -1    0    0    0  501  0.00000000000E+00  0.00000000000E+00 -0.50688747886E+03  0.50688747888E+03  0.50400001928E-02 0. -1.
    10030    2    1    2    0    0  0.00000000000E+00  0.00000000000E+00 -0.14000624535E+02  0.99977433323E+03  0.99967629756E+03 0.  0.
        5    1    3    3  502    0  0.30737048649E+02 -0.54278307574E+02  0.48895676350E+03  0.49294189049E+03  0.46999998093E+01 0.  1.
       -5    1    3    3    0  502 -0.30737048649E+02  0.54278307574E+02 -0.50295738804E+03  0.50683244274E+03  0.46999998093E+01 0. -1.
</event>
<event>
 5   0  0.2403037E-04  0.9996451E+03  0.7818609E-02  0.9308934E-01
       -2   -1    0    0    0  501  0.00000000000E+00  0.00000000000E+00  0.22365805425E+03  0.22365805426E+03  0.25500000920E-02 0. -1.
        2   -1    0    0  501    0  0.00000000000E+00  0.00000000000E+00 -0.11169846059E+04  0.11169846059E+04  0.25500000920E-02 0.  1.
    10030    2    1    2    0    0  0.00000000000E+00  0.00000000000E+00 -0.89332655161E+03  0.13406426601E+04  0.99964514421E+03 0.  0.
        1    1    3    3  502    0  0.15095141435E+03 -0.97125665361E+02 -0.10722672411E+04  0.10871875463E+04  0.50400001928E-02 0.  1.
       -1    1    3    3    0  502 -0.15095141435E+03  0.97125665361E+02  0.17894068949E+03  0.25345511387E+03  0.50400001928E-02 0. -1.
</event>
<event>
 5   0  0.1453863E-04  0.1000065E+04  0.7818609E-02  0.9308473E-01
        1   -1    0    0  501    0  0.00000000000E+00  0.00000000000E+00  0.93248258325E+03  0.93248258326E+03  0.50400001928E-02 0.  1.
       -1   -1    0    0    0  501  0.00000000000E+00  0.00000000000E+00 -0.26813640867E+03  0.26813640871E+03  0.50400001928E-02 0. -1.
    10030    2    1    2    0    0  0.00000000000E+00  0.00000000000E+00  0.66434617458E+03  0.12006189920E+04  0.10000650600E+04 0.  0.
        1    1    3    3  502    0  0.49413073824E+03 -0.34686602459E+02  0.41416382607E+03  0.64567795511E+03  0.50400001928E-02 0.  1.
       -1    1    3    3    0  502 -0.49413073824E+03  0.34686602459E+02  0.25018234851E+03  0.55494103686E+03  0.50400001928E-02 0. -1.
</event>
<event>
 5   0  0.2353916E-04  0.9993834E+03  0.7818609E-02  0.9309221E-01
       -2   -1    0    0    0  501  0.00000000000E+00  0.00000000000E+00  0.32784456379E+03  0.32784456380E+03  0.25500000920E-02 0.  1.
        2   -1    0    0  501    0  0.00000000000E+00  0.00000000000E+00 -0.76161637710E+03  0.76161637710E+03  0.25500000920E-02 0. -1.
    10030    2    1    2    0    0  0.00000000000E+00  0.00000000000E+00 -0.43377181330E+03  0.10894609409E+04  0.99938338777E+03 0.  0.
        4    1    3    3  502    0 -0.30254124509E+03  0.38413905960E+03 -0.10467019498E+03  0.50005148206E+03  0.12699999809E+01 0.  1.
       -4    1    3    3    0  502  0.30254124509E+03 -0.38413905960E+03 -0.32910161833E+03  0.58940945885E+03  0.12699999809E+01 0. -1.
</event>
<event>
 5   0  0.2473312E-04  0.9998651E+03  0.7818609E-02  0.9308693E-01
       -2   -1    0    0    0  501  0.00000000000E+00  0.00000000000E+00  0.66687238463E+03  0.66687238463E+03  0.25500000920E-02 0. -1.
        2   -1    0    0  501    0  0.00000000000E+00  0.00000000000E+00 -0.37478318568E+03  0.37478318569E+03  0.25500000920E-02 0.  1.
    10030    2    1    2    0    0  0.00000000000E+00  0.00000000000E+00  0.29208919894E+03  0.10416555703E+04  0.99986510442E+03 0.  0.
        5    1    3    3  502    0 -0.32252185889E+03  0.35348682549E+03  0.29678922525E+03  0.56309787735E+03  0.46999998093E+01 0. -1.
       -5    1    3    3    0  502  0.32252185889E+03 -0.35348682549E+03 -0.47000263094E+01  0.47855769297E+03  0.46999998093E+01 0.  1.
</event>
<event>
 5   0  0.9650500E-05  0.9989390E+03  0.7818609E-02  0.9309709E-01
        4   -1    0    0  501    0  0.00000000000E+00  0.00000000000E+00  0.30394495090E+03  0.30394760417E+03  0.12699999809E+01 0. -1.
       -4   -1    0    0    0  501  0.00000000000E+00  0.00000000000E+00 -0.82076617032E+03  0.82076715287E+03  0.12699999809E+01 0.  1.
    10030    2    1    2    0    0  0.00000000000E+00  0.00000000000E+00 -0.51682121941E+03  0.11247147570E+04  0.99893899307E+03 0.  0.
        5    1    3    3  502    0 -0.49243837174E+03  0.28103861741E+02 -0.34679493122E+03  0.60297113640E+03  0.46999998093E+01 0.  1.
       -5    1    3    3    0  502  0.49243837174E+03 -0.28103861741E+02 -0.17002628819E+03  0.52174362065E+03  0.46999998093E+01 0. -1.
</event>
<event>
 5   0  0.1453863E-04  0.9999507E+03  0.7818609E-02  0.9308599E-01
        1   -1    0    0  501    0  0.00000000000E+00  0.00000000000E+00  0.31516786881E+03  0.31516786885E+03  0.50400001928E-02 0. -1.
       -1   -1    0    0    0  501  0.00000000000E+00  0.00000000000E+00 -0.79314986354E+03  0.79314986356E+03  0.50400001928E-02 0.  1.
    10030    2    1    2    0    0  0.00000000000E+00  0.00000000000E+00 -0.47798199473E+03  0.11083177324E+04  0.99995070312E+03 0.  0.
        1    1    3    3  502    0  0.40454832748E+03 -0.29031188182E+03 -0.18899106604E+03  0.53259549478E+03  0.50400001928E-02 0.  1.
       -1    1    3    3    0  502 -0.40454832748E+03  0.29031188182E+03 -0.28899092869E+03  0.57572223762E+03  0.50400001928E-02 0. -1.
</event>
<event>
 5   0  0.2503680E-04  0.9993591E+03  0.7818609E-02  0.9309248E-01
       -2   -1    0    0    0  501  0.00000000000E+00  0.00000000000E+00  0.12474334547E+03  0.12474334549E+03  0.25500000920E-02 0. -1.
        2   -1    0    0  501    0  0.00000000000E+00  0.00000000000E+00 -0.20015467420E+04  0.20015467420E+04  0.25500000920E-02 0.  1.
    10030    2    1    2    0    0  0.00000000000E+00  0.00000000000E+00 -0.18768033966E+04  0.21262900875E+04  0.99935906808E+03 0.  0.
        2    1    3    3  502    0 -0.26671498245E+03  0.10654897277E+03 -0.68427848619E+02  0.29524893892E+03  0.25500000920E-02 0. -1.
       -2    1    3    3    0  502  0.26671498245E+03 -0.10654897277E+03 -0.18083755480E+04  0.18310411486E+04  0.25500000920E-02 0.  1.
</event>
<event>
 5   0  0.1506454E-04  0.9999894E+03  0.7818609E-02  0.9308556E-01
        1   -1    0    0  501    0  0.00000000000E+00  0.00000000000E+00  0.87455762611E+03  0.87455762612E+03  0.50400001928E-02 0.  1.
       -1   -1    0    0    0  501  0.00000000000E+00  0.00000000000E+00 -0.28585273524E+03  0.28585273528E+03  0.50400001928E-02 0. -1.
    10030    2    1    2    0    0  0.00000000000E+00  0.00000000000E+00  0.58870489087E+03  0.11604103614E+04  0.99998937911E+03 0.  0.
        3    1    3    3  502    0 -0.32530906795E+02 -0.40693547411E+03 -0.40646007013E+02  0.41025217619E+03  0.10100000352E+00 0. -1.
       -3    1    3    3    0  502  0.32530906795E+02  0.40693547411E+03  0.62935089788E+03  0.75015818521E+03  0.10100000352E+00 0.  1.
</event>
<event>
 5   0  0.1506454E-04  0.9993082E+03  0.7818609E-02  0.9309304E-01
       -1   -1    0    0    0  501  0.00000000000E+00  0.00000000000E+00  0.21351241203E+03  0.21351241209E+03  0.50400001928E-02 0. -1.
        1   -1    0    0  501    0  0.00000000000E+00  0.00000000000E+00 -0.11692726072E+04  0.11692726073E+04  0.50400001928E-02 0.  1.
    10030    2    1    2    0    0  0.00000000000E+00  0.00000000000E+00 -0.95576019522E+03  0.13827850193E+04  0.99930819018E+03 0.  0.
        3    1    3    3  502    0 -0.23920601723E+03  0.43144401064E+03 -0.36812960321E+03  0.61553461963E+03  0.10100000352E+00 0. -1.
       -3    1    3    3    0  502  0.23920601723E+03 -0.43144401064E+03 -0.58763059201E+03  0.76725039972E+03  0.10100000352E+00 0.  1.
</event>
<event>
 5   0  0.2503680E-04  0.1001081E+04  0.7818609E-02  0.9307360E-01
        2   -1    0    0  501    0  0.00000000000E+00  0.00000000000E+00  0.26022203770E+04  0.26022203770E+04  0.25500000920E-02 0. -1.
       -2   -1    0    0    0  501  0.00000000000E+00  0.00000000000E+00 -0.96279572257E+02  0.96279572291E+02  0.25500000920E-02 0.  1.
    10030    2    1    2    0    0  0.00000000000E+00  0.00000000000E+00  0.25059408048E+04  0.26984999493E+04  0.10010807457E+04 0.  0.
        2    1    3    3  502    0 -0.57375012093E+02 -0.22023004182E+03  0.24546927698E+04  0.24652200222E+04  0.25500000920E-02 0. -1.
       -2    1    3    3    0  502  0.57375012093E+02  0.22023004182E+03  0.51248034942E+02  0.23327992717E+03  0.25500000920E-02 0.  1.
</event>
<event>
 5   0  0.1506454E-04  0.9999844E+03  0.7818609E-02  0.9308562E-01
        1   -1    0    0  501    0  0.00000000000E+00  0.00000000000E+00  0.32141430140E+03  0.32141430144E+03  0.50400001928E-02 0.  1.
       -1   -1    0    0    0  501  0.00000000000E+00  0.00000000000E+00 -0.77778798254E+03  0.77778798256E+03  0.50400001928E-02 0. -1.
    10030    2    1    2    0    0  0.00000000000E+00  0.00000000000E+00 -0.45637368114E+03  0.10992022840E+04  0.99998436203E+03 0.  0.
        3    1    3    3  502    0  0.11961228347E+03  0.76556077096E+02  0.29877883700E+03  0.33081223517E+03  0.10100000352E+00 0.  1.
       -3    1    3    3    0  502 -0.11961228347E+03 -0.76556077096E+02 -0.75515251814E+03  0.76839004883E+03  0.10100000352E+00 0. -1.
</event>
<event>
 5   0  0.2484904E-04  0.1000004E+04  0.7818609E-02  0.9308541E-01
        2   -1    0    0  501    0  0.00000000000E+00  0.00000000000E+00  0.79801069618E+03  0.79801069618E+03  0.25500000920E-02 0. -1.
       -2   -1    0    0    0  501  0.00000000000E+00  0.00000000000E+00 -0.31328127964E+03  0.31328127965E+03  0.25500000920E-02 0.  1.
    10030    2    1    2    0    0  0.00000000000E+00  0.00000000000E+00  0.48472941654E+03  0.11112919758E+04  0.10000036241E+04 0.  0.
        3    1    3    3  502    0  0.34333824507E+03  0.30917627807E+03  0.29964232464E+02  0.46299998583E+03  0.10100000352E+00 0.  1.
       -3    1    3    3    0  502 -0.34333824507E+03 -0.30917627807E+03  0.45476518408E+03  0.64829199000E+03  0.10100000352E+00 0. -1.
</event>
<event>
 5   0  0.2484904E-04  0.1001339E+04  0.7818609E-02  0.9307077E-01
       -2   -1    0    0    0  501  0.00000000000E+00  0.00000000000E+00  0.37578366399E+03  0.37578366400E+03  0.25500000920E-02 0. -1.
        2   -1    0    0  501    0  0.00000000000E+00  0.00000000000E+00 -0.66705979743E+03  0.66705979743E+03  0.25500000920E-02 0.  1.
    10030    2    1    2    0    0  0.00000000000E+00  0.00000000000E+00 -0.29127613344E+03  0.10428434614E+04  0.10013394525E+04 0.  0.
        3    1    3    3  502    0  0.22475220935E+03 -0.17744166524E+03 -0.57335661852E+03  0.64088760510E+03  0.10100000352E+00 0.  1.
       -3    1    3    3    0  502 -0.22475220935E+03  0.17744166524E+03  0.28208048508E+03  0.40195585633E+03  0.10100000352E+00 0. -1.
</event>
<event>
 5   0  0.2503680E-04  0.1001197E+04  0.7818609E-02  0.9307233E-01
       -2   -1    0    0    0  501  0.00000000000E+00  0.00000000000E+00  0.55393130181E+03  0.55393130181E+03  0.25500000920E-02 0.  1.
        2   -1    0    0  501    0  0.00000000000E+00  0.00000000000E+00 -0.45240047848E+03  0.45240047848E+03  0.25500000920E-02 0. -1.
    10030    2    1    2    0    0  0.00000000000E+00  0.00000000000E+00  0.10153082333E+03  0.10063317803E+04  0.10011968557E+04 0.  0.
        2    1    3    3  502    0 -0.19309866744E+03 -0.14247960203E+03  0.49234910425E+03  0.54771815090E+03  0.25500000920E-02 0.  1.
       -2    1    3    3    0  502  0.19309866744E+03  0.14247960203E+03 -0.39081828092E+03  0.45861362940E+03  0.25500000920E-02 0. -1.
</event>
<event>
 5   0  0.1414165E-04  0.9992969E+03  0.7818609E-02  0.9309316E-01
        1   -1    0    0  501    0  0.00000000000E+00  0.00000000000E+00  0.27560123644E+03  0.27560123649E+03  0.50400001928E-02 0.  1.
       -1   -1    0    0    0  501  0.00000000000E+00  0.00000000000E+00 -0.90583249901E+03  0.90583249903E+03  0.50400001928E-02 0. -1.
    10030    2    1    2    0    0  0.00000000000E+00  0.00000000000E+00 -0.63023126257E+03  0.11814337355E+04  0.99929686634E+03 0.  0.
        4    1    3    3  502    0  0.30694463308E+03  0.41097722129E+02 -0.77868250674E+03  0.83800482681E+03  0.12699999809E+01 0. -1.
       -4    1    3    3    0  502 -0.30694463308E+03 -0.41097722129E+02  0.14845124417E+03  0.34342890871E+03  0.12699999809E+01 0.  1.
</event>
<event>
 5   0  0.2403037E-04  0.9998961E+03  0.7818609E-02  0.9308659E-01
        2   -1    0    0  501    0  0.00000000000E+00  0.00000000000E+00  0.63479436603E+03  0.63479436603E+03  0.25500000920E-02 0. -1.
       -2   -1    0    0    0  501  0.00000000000E+00  0.00000000000E+00 -0.39374646767E+03  0.39374646768E+03  0.25500000920E-02 0.  1.
    10030    2    1    2    0    0  0.00000000000E+00  0.00000000000E+00  0.24104789836E+03  0.10285408337E+04  0.99989607326E+03 0.  0.
        1    1    3    3  502    0  0.27877815403E+03  0.17933134631E+03 -0.26445844132E+03  0.42404629246E+03  0.50400001928E-02 0.  1.
       -1    1    3    3    0  502 -0.27877815403E+03 -0.17933134631E+03  0.50550633968E+03  0.60449454126E+03  0.50400001928E-02 0. -1.
</event>
<event>
 5   0  0.2503680E-04  0.1000572E+04  0.7818609E-02  0.9307917E-01
       -2   -1    0    0    0  501  0.00000000000E+00  0.00000000000E+00  0.19128775419E+03  0.19128775421E+03  0.25500000920E-02 0.  1.
        2   -1    0    0  501    0  0.00000000000E+00  0.00000000000E+00 -0.13084277645E+04  0.13084277645E+04  0.25500000920E-02 0. -1.
    10030    2    1    2    0    0  0.00000000000E+00  0.00000000000E+00 -0.11171400103E+04  0.14997155187E+04  0.10005722535E+04 0.  0.
        2    1    3    3  502    0 -0.22705802433E+03 -0.29079123288E+03 -0.52117244068E+02  0.37260044910E+03  0.25500000920E-02 0.  1.
       -2    1    3    3    0  502  0.22705802433E+03  0.29079123288E+03 -0.10650227662E+04  0.11271150696E+04  0.25500000920E-02 0. -1.
</event>
<event>
 5   0  0.2403037E-04  0.9996898E+03  0.7818609E-02  0.9308885E-01
        2   -1    0    0  501    0  0.00000000000E+00  0.00000000000E+00  0.17622119623E+04  0.17622119623E+04  0.25500000920E-02 0.  1.
       -2   -1    0    0    0  501  0.00000000000E+00  0.00000000000E+00 -0.14177915918E+03  0.14177915921E+03  0.25500000920E-02 0. -1.
    10030    2    1    2    0    0  0.00000000000E+00  0.00000000000E+00  0.16204328031E+04  0.19039911215E+04  0.99968981257E+03 0.  0.
        1    1    3    3  502    0 -0.44475991400E+03  0.22806272701E+03  0.81893218054E+03  0.95941331286E+03  0.50400001928E-02 0.  1.
       -1    1    3    3    0  502  0.44475991400E+03 -0.22806272701E+03  0.80150062257E+03  0.94457780863E+03  0.50400001928E-02 0. -1.
</event>
<event>
 5   0  0.2484904E-04  0.1000867E+04  0.7818609E-02  0.9307594E-01
        2   -1    0    0  501    0  0.00000000000E+00  0.00000000000E+00  0.32571036429E+03  0.32571036430E+03  0.25500000920E-02 0. -1.
       -2   -1    0    0    0  501  0.00000000000E+00  0.00000000000E+00 -0.76888484121E+03  0.76888484121E+03  0.25500000920E-02 0.  1.
    10030    2    1    2    0    0  0.00000000000E+00  0.00000000000E+00 -0.44317447692E+03  0.10945952055E+04  0.10008671475E+04 0.  0.
        3    1    3    3  502    0  0.12657090999E+03  0.31848209741E+02  0.30676899242E+03  0.33337925645E+03  0.10100000352E+00 0. -1.
       -3    1    3    3    0  502 -0.12657090999E+03 -0.31848209741E+02 -0.74994346933E+03  0.76121594907E+03  0.10100000352E+00 0.  1.
</event>
<event>
 5   0  0.9650500E-05  0.1000847E+04  0.7818609E-02  0.9307616E-01
        4   -1    0    0  501    0  0.00000000000E+00  0.00000000000E+00  0.39058475171E+03  0.39058681643E+03  0.12699999809E+01 0. -1.
       -4   -1    0    0    0  501  0.00000000000E+00  0.00000000000E+00 -0.64114633350E+03  0.64114759132E+03  0.12699999809E+01 0.  1.
    10030    2    1    2    0    0  0.00000000000E+00  0.00000000000E+00 -0.25056158179E+03  0.10317344078E+04  0.10008470322E+04 0.  0.
        3    1    3    3  502    0  0.28811458427E+03 -0.40904995932E+03 -0.13515783929E+03  0.51826589180E+03  0.10100000352E+00 0. -1.
       -3    1    3    3    0  502 -0.28811458427E+03  0.40904995932E+03 -0.11540374250E+03  0.51346851595E+03  0.10100000352E+00 0.  1.
</event>
<event>
 5   0  0.2403037E-04  0.9997876E+03  0.7818609E-02  0.9308778E-01
        2   -1    0    0  501    0  0.00000000000E+00  0.00000000000E+00  0.70165143654E+03  0.70165143655E+03  0.25500000920E-02 0. -1.
       -2   -1    0    0    0  501  0.00000000000E+00  0.00000000000E+00 -0.35615095302E+03  0.35615095303E+03  0.25500000920E-02 0.  1.
    10030    2    1    2    0    0  0.00000000000E+00  0.00000000000E+00  0.34550048352E+03  0.10578023896E+04  0.99978763309E+03 0.  0.
        1    1    3    3  502    0 -0.27223315614E+03  0.91485343527E+02 -0.26015400940E+03  0.38750557159E+03  0.50400001928E-02 0.  1.
       -1    1    3    3    0  502  0.27223315614E+03 -0.91485343527E+02  0.60565449292E+03  0.67029681799E+03  0.50400001928E-02 0. -1.
</event>
<event>
 5   0  0.2353916E-04  0.9999751E+03  0.7818609E-02  0.9308572E-01
        2   -1    0    0  501    0  0.00000000000E+00  0.00000000000E+00  0.43197118074E+03  0.43197118075E+03  0.25500000920E-02 0. -1.
       -2   -1    0    0    0  501  0.00000000000E+00  0.00000000000E+00 -0.57871348482E+03  0.57871348483E+03  0.25500000920E-02 0.  1.
    10030    2    1    2    0    0  0.00000000000E+00  0.00000000000E+00 -0.14674230408E+03  0.10106846656E+04  0.99997509440E+03 0.  0.
        4    1    3    3  502    0 -0.44831227838E+03  0.15333771800E+02 -0.29656854443E+03  0.53774858247E+03  0.12699999809E+01 0.  1.
       -4    1    3    3    0  502  0.44831227838E+03 -0.15333771800E+02  0.14982624035E+03  0.47293608310E+03  0.12699999809E+01 0. -1.
</event>
<event>
 5   0  0.1453863E-04  0.1000014E+04  0.7818609E-02  0.9308530E-01
       -1   -1    0    0    0  501  0.00000000000E+00  0.00000000000E+00  0.33154578252E+03  0.33154578255E+03  0.50400001928E-02 0.  1.
        1   -1    0    0  501    0  0.00000000000E+00  0.00000000000E+00 -0.75406440508E+03  0.75406440509E+03  0.50400001928E-02 0. -1.
    10030    2    1    2    0    0  0.00000000000E+00  0.00000000000E+00 -0.42251862256E+03  0.10856101876E+04  0.10000137465E+04 0.  0.
        1    1    3    3  502    0 -0.15907597341E+03  0.72296827333E+02 -0.71984056385E+03  0.74074451328E+03  0.50400001928E-02 0. -1.
       -1    1    3    3    0  502  0.15907597341E+03 -0.72296827333E+02  0.29732194129E+03  0.34486567437E+03  0.50400001928E-02 0.  1.
</event>
<event>
 5   0  0.1461334E-04  0.9997400E+03  0.7818609E-02  0.9308830E-01
       -1   -1    0    0    0  501  0.00000000000E+00  0.00000000000E+00  0.45498607817E+03  0.45498607820E+03  0.50400001928E-02 0. -1.
        1   -1    0    0  501    0  0.00000000000E+00  0.00000000000E+00 -0.54918166762E+03  0.54918166765E+03  0.50400001928E-02 0.  1.
    10030    2    1    2    0    0  0.00000000000E+00  0.00000000000E+00 -0.94195589450E+02  0.10041677458E+04  0.99973999256E+03 0.  0.
        2    1    3    3  502    0  0.32614556184E+03 -0.37866301677E+03 -0.36401433352E+02  0.50108050464E+03  0.25500000920E-02 0.  1.
       -2    1    3    3    0  502 -0.32614556184E+03  0.37866301677E+03 -0.57794156098E+02  0.50308724120E+03  0.25500000920E-02 0. -1.
</event>
<event>
 5   0  0.1430675E-04  0.1000122E+04  0.7818609E-02  0.9308411E-01
        1   -1    0    0  501    0  0.00000000000E+00  0.00000000000E+00  0.86957676843E+03  0.86957676845E+03  0.50400001928E-02 0.  1.
       -1   -1    0    0    0  501  0.00000000000E+00  0.00000000000E+00 -0.28756654814E+03  0.28756654819E+03  0.50400001928E-02 0. -1.
    10030    2    1    2    0    0  0.00000000000E+00  0.00000000000E+00  0.58201022029E+03  0.11571433166E+04  0.10001223719E+04 0.  0.
        5    1    3    3  502    0  0.45600738949E+03  0.76942747794E+02  0.70942973213E+02  0.46788665418E+03  0.46999998093E+01 0. -1.
       -5    1    3    3    0  502 -0.45600738949E+03 -0.76942747794E+02  0.51106724707E+03  0.68925666246E+03  0.46999998093E+01 0.  1.
</event>
<event>
 5   0  0.1430675E-04  0.9993504E+03  0.7818609E-02  0.9309258E-01
        1   -1    0    0  501    0  0.00000000000E+00  0.00000000000E+00  0.11093864173E+04  0.11093864173E+04  0.50400001928E-02 0. -1.
       -1   -1    0    0    0  501  0.00000000000E+00  0.00000000000E+00 -0.22505712569E+03  0.22505712575E+03  0.50400001928E-02 0.  1.
    10030    2    1    2    0    0  0.00000000000E+00  0.00000000000E+00  0.88432929158E+03  0.13344435430E+04  0.99935042582E+03 0.  0.
        5    1    3    3  502    0  0.19817479283E+03 -0.45704342337E+03  0.39059866113E+03  0.63304924251E+03  0.46999998093E+01 0. -1.
       -5    1    3    3    0  502 -0.19817479283E+03  0.45704342337E+03  0.49373063045E+03  0.70139430053E+03  0.46999998093E+01 0.  1.
</event>
<event>
 5   0  0.1453863E-04  0.9998042E+03  0.7818609E-02  0.9308760E-01
        1   -1    0    0  501    0  0.00000000000E+00  0.00000000000E+00  0.10543555426E+04  0.10543555427E+04  0.50400001928E-02 0.  1.
       -1   -1    0    0    0  501  0.00000000000E+00  0.00000000000E+00 -0.23701882882E+03  0.23701882887E+03  0.50400001928E-02 0. -1.
    10030    2    1    2    0    0  0.00000000000E+00  0.00000000000E+00  0.81733671383E+03  0.12913743715E+04  0.99980421267E+03 0.  0.
        1    1    3    3  502    0  0.24817687982E+03  0.42689076498E+03  0.50933764763E+03  0.70940279687E+03  0.50400001928E-02 0. -1.
       -1    1    3    3    0  502 -0.24817687982E+03 -0.42689076498E+03  0.30799906620E+03  0.58197157465E+03  0.50400001928E-02 0.  1.
</event>
<event>
 5   0  0.2353916E-04  0.9992932E+03  0.7818609E-02  0.9309320E-01
       -2   -1    0    0    0  501  0.00000000000E+00  0.00000000000E+00  0.36041379001E+03  0.36041379002E+03  0.25500000920E-02 0.  1.
        2   -1    0    0  501    0  0.00000000000E+00  0.00000000000E+00 -0.69266689785E+03  0.69266689786E+03  0.25500000920E-02 0. -1.
    10030    2    1    2    0    0  0.00000000000E+00  0.00000000000E+00 -0.33225310784E+03  0.10530806879E+04  0.99929315394E+03 0.  0.
        4    1    3    3  502    0  0.27874943662E+03 -0.36523027903E+03  0.40785017714E+02  0.46125853456E+03  0.12699999809E+01 0.  1.
       -4    1    3    3    0  502 -0.27874943662E+03  0.36523027903E+03 -0.37303812556E+03  0.59182215332E+03  0.12699999809E+01 0. -1.
</event>
<event>
 5   0  0.1453863E-04  0.9950426E+03  0.7818609E-02  0.9313999E-01
        1   -1    0    0  501    0  0.00000000000E+00  0.00000000000E+00  0.20225168267E+04  0.20225168267E+04  0.50400001928E-02 0.  1.
       -1   -1    0    0    0  501  0.00000000000E+00  0.00000000000E+00 -0.12238586347E+03  0.12238586357E+03  0.50400001928E-02 0. -1.
    10030    2    1    2    0    0  0.00000000000E+00  0.00000000000E+00  0.19001309632E+04  0.21449026903E+04  0.99504264900E+03 0.  0.
        1    1    3    3  502    0  0.32556598855E+03  0.30851196172E+03  0.14141664064E+04  0.14835900607E+04  0.50400001928E-02 0.  1.
       -1    1    3    3    0  502 -0.32556598855E+03 -0.30851196172E+03  0.48596455684E+03  0.66131262951E+03  0.50400001928E-02 0. -1.
</event>
<event>
 5   0  0.2473312E-04  0.1000267E+04  0.7818609E-02  0.9308251E-01
       -2   -1    0    0    0  501  0.00000000000E+00  0.00000000000E+00  0.32862252225E+03  0.32862252226E+03  0.25500000920E-02 0. -1.
        2   -1    0    0  501    0  0.00000000000E+00  0.00000000000E+00 -0.76115827046E+03  0.76115827046E+03  0.25500000920E-02 0.  1.
    10030    2    1    2    0    0  0.00000000000E+00  0.00000000000E+00 -0.43253574821E+03  0.10897807927E+04  0.10002674656E+04 0.  0.
        5    1    3    3  502    0 -0.17701326484E+03 -0.45747767564E+03 -0.32241423204E+03  0.58702005643E+03  0.46999998093E+01 0. -1.
       -5    1    3    3    0  502  0.17701326484E+03  0.45747767564E+03 -0.11012151617E+03  0.50276073629E+03  0.46999998093E+01 0.  1.
</event>
<event>
 5   0  0.2473312E-04  0.1000128E+04  0.7818609E-02  0.9308405E-01
       -2   -1    0    0    0  501  0.00000000000E+00  0.00000000000E+00  0.53130473495E+03  0.53130473496E+03  0.25500000920E-02 0. -1.
        2   -1    0    0  501    0  0.00000000000E+00  0.00000000000E+00 -0.47066013805E+03  0.47066013806E+03  0.25500000920E-02 0.  1.
    10030    2    1    2    0    0  0.00000000000E+00  0.00000000000E+00  0.60644596904E+02  0.10019648730E+04  0.10001279116E+04 0.  0.
        5    1    3    3  502    0  0.44389422559E+03  0.22318317970E+03  0.86897737393E+02  0.50440670295E+03  0.46999998093E+01 0.  1.
       -5    1    3    3    0  502 -0.44389422559E+03 -0.22318317970E+03 -0.26253140489E+02  0.49755817007E+03  0.46999998093E+01 0. -1.
</event>
<event>
 5   0  0.2473312E-04  0.1000336E+04  0.7818609E-02  0.9308176E-01
        2   -1    0    0  501    0  0.00000000000E+00  0.00000000000E+00  0.67088130792E+03  0.67088130792E+03  0.25500000920E-02 0. -1.
       -2   -1    0    0    0  501  0.00000000000E+00  0.00000000000E+00 -0.37289498425E+03  0.37289498426E+03  0.25500000920E-02 0.  1.
    10030    2    1    2    0    0  0.00000000000E+00  0.00000000000E+00  0.29798632367E+03  0.10437762922E+04  0.10003364929E+04 0.  0.
        5    1    3    3  502    0  0.77367512165E+02  0.37420154500E+02 -0.36510972861E+03  0.37511758667E+03  0.46999998093E+01 0.  1.
       -5    1    3    3    0  502 -0.77367512165E+02 -0.37420154500E+02  0.66309605228E+03  0.66865870551E+03  0.46999998093E+01 0. -1.
</event>
<event>
 5   0  0.2503680E-04  0.9999355E+03  0.7818609E-02  0.9308615E-01
       -2   -1    0    0    0  501  0.00000000000E+00  0.00000000000E+00  0.92305700673E+03  0.92305700674E+03  0.25500000920E-02 0. -1.
        2   -1    0    0  501    0  0.00000000000E+00  0.00000000000E+00 -0.27080426508E+03  0.27080426510E+03  0.25500000920E-02 0.  1.
    10030    2    1    2    0    0  0.00000000000E+00  0.00000000000E+00  0.65225274165E+03  0.11938612718E+04  0.99993554662E+03 0.  0.
        2    1    3    3  502    0 -0.41455820763E+03 -0.91900124995E+02  0.10999875713E+02  0.42476480287E+03  0.25500000920E-02 0.  1.
       -2    1    3    3    0  502  0.41455820763E+03  0.91900124995E+02  0.64125286594E+03  0.76909646896E+03  0.25500000920E-02 0. -1.
</event>
<event>
 5   0  0.1414165E-04  0.1005901E+04  0.7818609E-02  0.9302097E-01
       -1   -1    0    0    0  501  0.00000000000E+00  0.00000000000E+00  0.62945467177E+03  0.62945467179E+03  0.50400001928E-02 0.  1.
        1   -1    0    0  501    0  0.00000000000E+00  0.00000000000E+00 -0.40187013721E+03  0.40187013724E+03  0.50400001928E-02 0. -1.
    10030    2    1    2    0    0  0.00000000000E+00  0.00000000000E+00  0.22758453455E+03  0.10313248090E+04  0.10059006618E+04 0.  0.
        4    1    3    3  502    0  0.26348165480E+03 -0.32576461612E+03 -0.17147059149E+03  0.45271287167E+03  0.12699999809E+01 0. -1.
       -4    1    3    3    0  502 -0.26348165480E+03  0.32576461612E+03  0.39905512605E+03  0.57861193736E+03  0.12699999809E+01 0.  1.
</event>
<event>
 5   0  0.2403037E-04  0.1000405E+04  0.7818609E-02  0.9308101E-01
       -2   -1    0    0    0  501  0.00000000000E+00  0.00000000000E+00  0.18253061937E+03  0.18253061939E+03  0.25500000920E-02 0.  1.
        2   -1    0    0  501    0  0.00000000000E+00  0.00000000000E+00 -0.13707420322E+04  0.13707420322E+04  0.25500000920E-02 0. -1.
    10030    2    1    2    0    0  0.00000000000E+00  0.00000000000E+00 -0.11882114129E+04  0.15532726516E+04  0.10004047024E+04 0.  0.
        1    1    3    3  502    0 -0.17188860870E+03  0.80421244231E+02 -0.13126783450E+04  0.13263248877E+04  0.50400001928E-02 0. -1.
       -1    1    3    3    0  502  0.17188860870E+03 -0.80421244231E+02  0.12446693214E+03  0.22694776391E+03  0.50400001928E-02 0.  1.
</event>
<event>
 5   0  0.2473312E-04  0.9997263E+03  0.7818609E-02  0.9308845E-01
       -2   -1    0    0    0  501  0.00000000000E+00  0.00000000000E+00  0.63701502002E+03  0.63701502003E+03  0.25500000920E-02 0. -1.
        2   -1    0    0  501    0  0.00000000000E+00  0.00000000000E+00 -0.39224058443E+03  0.39224058443E+03  0.25500000920E-02 0.  1.
    10030    2    1    2    0    0  0.00000000000E+00  0.00000000000E+00  0.24477443560E+03  0.10292556045E+04  0.99972625003E+03 0.  0.
        5    1    3    3  502    0  0.47421597604E+02  0.37869905039E+03  0.45468910703E+03  0.59365482626E+03  0.46999998093E+01 0. -1.
       -5    1    3    3    0  502 -0.47421597604E+02 -0.37869905039E+03 -0.20991467144E+03  0.43560077820E+03  0.46999998093E+01 0.  1.
</event>
<event>
 5   0  0.2353916E-04  0.9998438E+03  0.7818609E-02  0.9308716E-01
       -2   -1    0    0    0  501  0.00000000000E+00  0.00000000000E+00  0.34168128616E+03  0.34168128617E+03  0.25500000920E-02 0.  1.
        2   -1    0    0  501    0  0.00000000000E+00  0.00000000000E+00 -0.73144752040E+03  0.73144752040E+03  0.25500000920E-02 0. -1.
    10030    2    1    2    0    0  0.00000000000E+00  0.00000000000E+00 -0.38976623423E+03  0.10731288066E+04  0.99984384689E+03 0.  0.
        4    1    3    3  502    0 -0.75997619364E+02 -0.18056207397E+03  0.29876557887E+03  0.35726850508E+03  0.12699999809E+01 0.  1.
       -4    1    3    3    0  502  0.75997619364E+02  0.18056207397E+03 -0.68853181310E+03  0.71586030150E+03  0.12699999809E+01 0. -1.
</event>
<event>
 5   0  0.2484904E-04  0.1000553E+04  0.7818609E-02  0.9307939E-01
       -2   -1    0    0    0  501  0.00000000000E+00  0.00000000000E+00  0.29219718716E+03  0.29219718717E+03  0.25500000920E-02 0. -1.
        2   -1    0    0  501    0  0.00000000000E+00  0.00000000000E+00 -0.85653231932E+03  0.85653231933E+03  0.25500000920E-02 0.  1.
    10030    2    1    2    0    0  0.00000000000E+00  0.00000000000E+00 -0.56433513216E+03  0.11487295065E+04  0.10005525162E+04 0.  0.
        3    1    3    3  502    0  0.41975748927E+03 -0.21729389166E+03 -0.47034081576E+03  0.66680842700E+03  0.10100000352E+00 0.  1.
       -3    1    3    3    0  502 -0.41975748927E+03  0.21729389166E+03 -0.93994316406E+02  0.48192107950E+03  0.10100000352E+00 0. -1.
</event>
<event>
 5   0  0.2473312E-04  0.9998187E+03  0.7818609E-02  0.9308744E-01
       -2   -1    0    0    0  501  0.00000000000E+00  0.00000000000E+00  0.14192158533E+03  0.14192158535E+03  0.25500000920E-02 0. -1.
        2   -1    0    0  501    0  0.00000000000E+00  0.00000000000E+00 -0.17608974848E+04  0.17608974848E+04  0.25500000920E-02 0.  1.
    10030    2    1    2    0    0  0.00000000000E+00  0.00000000000E+00 -0.16189758995E+04  0.19028190702E+04  0.99981870891E+03 0.  0.
        5    1    3    3  502    0 -0.16039615504E+03 -0.25863425409E+03 -0.15642279044E+04  0.15935650695E+04  0.46999998093E+01 0.  1.
       -5    1    3    3    0  502  0.16039615504E+03  0.25863425409E+03 -0.54747995075E+02  0.30925400063E+03  0.46999998093E+01 0. -1.
</event>
<event>
 5   0  0.1414165E-04  0.9999752E+03  0.7818609E-02  0.9308572E-01
        1   -1    0    0  501    0  0.00000000000E+00  0.00000000000E+00  0.80929960216E+03  0.80929960217E+03  0.50400001928E-02 0. -1.
       -1   -1    0    0    0  501  0.00000000000E+00  0.00000000000E+00 -0.30889377571E+03  0.30889377575E+03  0.50400001928E-02 0.  1.
    10030    2    1    2    0    0  0.00000000000E+00  0.00000000000E+00  0.50040582645E+03  0.11181933779E+04  0.99997521934E+03 0.  0.
        4    1    3    3  502    0  0.11153767245E+03 -0.24786552786E+03 -0.21906110070E+03  0.34909504582E+03  0.12699999809E+01 0.  1.
       -4    1    3    3    0  502 -0.11153767245E+03  0.24786552786E+03  0.71946692715E+03  0.76909833210E+03  0.12699999809E+01 0. -1.
</event>
<event>
 5   0  0.1506454E-04  0.9997482E+03  0.7818609E-02  0.9308821E-01
       -1   -1    0    0    0  501  0.00000000000E+00  0.00000000000E+00  0.20482226505E+03  0.20482226511E+03  0.50400001928E-02 0. -1.
        1   -1    0    0  501    0  0.00000000000E+00  0.00000000000E+00 -0.12199559264E+04  0.12199559264E+04  0.50400001928E-02 0.  1.
    10030    2    1    2    0    0  0.00000000000E+00  0.00000000000E+00 -0.10151336613E+04  0.14247781915E+04  0.99974824061E+03 0.  0.
        3    1    3    3  502    0  0.13701881668E+03 -0.30496726749E+03 -0.10371637941E+04  0.10897192007E+04  0.10100000352E+00 0.  1.
       -3    1    3    3    0  502 -0.13701881668E+03  0.30496726749E+03  0.22030132781E+02  0.33505899080E+03  0.10100000352E+00 0. -1.
</event>
<event>
 5   0  0.1430675E-04  0.9999852E+03  0.7818609E-02  0.9308561E-01
        1   -1    0    0  501    0  0.00000000000E+00  0.00000000000E+00  0.78433431494E+03  0.78433431495E+03  0.50400001928E-02 0. -1.
       -1   -1    0    0    0  501  0.00000000000E+00  0.00000000000E+00 -0.31873216953E+03  0.31873216957E+03  0.50400001928E-02 0.  1.
    10030    2    1    2    0    0  0.00000000000E+00  0.00000000000E+00  0.46560214541E+03  0.11030664845E+04  0.99998515562E+03 0.  0.
        5    1    3    3  502    0 -0.48962762880E+03  0.55690191272E+02  0.32596995838E+03  0.59085964159E+03  0.46999998093E+01 0. -1.
       -5    1    3    3    0  502  0.48962762880E+03 -0.55690191272E+02  0.13963218703E+03  0.51220684293E+03  0.46999998093E+01 0.  1.
</event>
<event>
 5   0  0.2403037E-04  0.1000033E+04  0.7818609E-02  0.9308509E-01
        2   -1    0    0  501    0  0.00000000000E+00  0.00000000000E+00  0.87065953526E+03  0.87065953527E+03  0.25500000920E-02 0. -1.
       -2   -1    0    0    0  501  0.00000000000E+00  0.00000000000E+00 -0.28715738778E+03  0.28715738779E+03  0.25500000920E-02 0.  1.
    10030    2    1    2    0    0  0.00000000000E+00  0.00000000000E+00  0.58350214748E+03  0.11578169231E+04  0.10000326351E+04 0.  0.
        1    1    3    3  502    0 -0.44923855431E+03 -0.21929571467E+03  0.30391759856E+03  0.58503999512E+03  0.50400001928E-02 0.  1.
       -1    1    3    3    0  502  0.44923855431E+03  0.21929571467E+03  0.27958454892E+03  0.57277692793E+03  0.50400001928E-02 0. -1.
</event>
<event>
 5   0  0.2473312E-04  0.1002435E+04  0.7818609E-02  0.9305878E-01
       -2   -1    0    0    0  501  0.00000000000E+00  0.00000000000E+00  0.28405276152E+03  0.28405276153E+03  0.25500000920E-02 0. -1.
        2   -1    0    0  501    0  0.00000000000E+00  0.00000000000E+00 -0.88441001038E+03  0.88441001039E+03  0.25500000920E-02 0.  1.
    10030    2    1    2    0    0  0.00000000000E+00  0.00000000000E+00 -0.60035724886E+03  0.11684627719E+04  0.10024352463E+04 0.  0.
        5    1    3    3  502    0  0.24017144972E+03 -0.52863681653E+02  0.20886711775E+03  0.32268321458E+03  0.46999998093E+01 0. -1.
       -5    1    3    3    0  502 -0.24017144972E+03  0.52863681653E+02 -0.80922436661E+03  0.84577955734E+03  0.46999998093E+01 0.  1.
</event>
<event>
 5   0  0.1430675E-04  0.1000362E+04  0.7818609E-02  0.9308148E-01
       -1   -1    0    0    0  501  0.00000000000E+00  0.00000000000E+00  0.25470324118E+03  0.25470324123E+03  0.50400001928E-02 0. -1.
        1   -1    0    0  501    0  0.00000000000E+00  0.00000000000E+00 -0.98224467626E+03  0.98224467628E+03  0.50400001928E-02 0.  1.
    10030    2    1    2    0    0  0.00000000000E+00  0.00000000000E+00 -0.72754143508E+03  0.12369479175E+04  0.10003617400E+04 0.  0.
        5    1    3    3  502    0  0.43627750624E+03 -0.21060342177E+03 -0.20999184681E+03  0.52802512197E+03  0.46999998093E+01 0. -1.
       -5    1    3    3    0  502 -0.43627750624E+03  0.21060342177E+03 -0.51754958828E+03  0.70892279554E+03  0.46999998093E+01 0.  1.
</event>
<event>
 5   0  0.1453863E-04  0.1000072E+04  0.7818609E-02  0.9308466E-01
        1   -1    0    0  501    0  0.00000000000E+00  0.00000000000E+00  0.11972132347E+04  0.11972132347E+04  0.50400001928E-02 0.  1.
       -1   -1    0    0    0  501  0.00000000000E+00  0.00000000000E+00 -0.20884845149E+03  0.20884845155E+03  0.50400001928E-02 0. -1.
    10030    2    1    2    0    0  0.00000000000E+00  0.00000000000E+00  0.98836478317E+03  0.14060616862E+04  0.10000722578E+04 0.  0.
        1    1    3    3  502    0  0.19235894023E+03 -0.10717409288E+03 -0.13701052102E+03  0.25934558212E+03  0.50400001928E-02 0. -1.
       -1    1    3    3    0  502 -0.19235894023E+03  0.10717409288E+03  0.11253753042E+04  0.11467161041E+04  0.50400001928E-02 0.  1.
</event>
<event>
 5   0  0.2353916E-04  0.1000193E+04  0.7818609E-02  0.9308333E-01
        2   -1    0    0  501    0  0.00000000000E+00  0.00000000000E+00  0.58732210117E+03  0.58732210118E+03  0.25500000920E-02 0. -1.
       -2   -1    0    0    0  501  0.00000000000E+00  0.00000000000E+00 -0.42582531431E+03  0.42582531432E+03  0.25500000920E-02 0.  1.
    10030    2    1    2    0    0  0.00000000000E+00  0.00000000000E+00  0.16149678686E+03  0.10131474155E+04  0.10001932180E+04 0.  0.
        4    1    3    3  502    0  0.36485590940E+03 -0.22303471841E+03  0.34339542951E+03  0.54843992757E+03  0.12699999809E+01 0. -1.
       -4    1    3    3    0  502 -0.36485590940E+03  0.22303471841E+03 -0.18189864265E+03  0.46470748793E+03  0.12699999809E+01 0.  1.
</event>
<event>
 5   0  0.1414165E-04  0.9998276E+03  0.7818609E-02  0.9308734E-01
        1   -1    0    0  501    0  0.00000000000E+00  0.00000000000E+00  0.10959842319E+04  0.10959842319E+04  0.50400001928E-02 0. -1.
       -1   -1    0    0    0  501  0.00000000000E+00  0.00000000000E+00 -0.22802683892E+03  0.22802683898E+03  0.50400001928E-02 0.  1.
    10030    2    1    2    0    0  0.00000000000E+00  0.00000000000E+00  0.86795739301E+03  0.13240110709E+04  0.99982762506E+03 0.  0.
        4    1    3    3  502    0 -0.33417046136E+03 -0.36538559734E+03  0.34284952278E+03  0.60226567241E+03  0.12699999809E+01 0.  1.
       -4    1    3    3    0  502  0.33417046136E+03  0.36538559734E+03  0.52510787023E+03  0.72174539851E+03  0.12699999809E+01 0. -1.
</event>
<event>
 5   0  0.2353916E-04  0.9997567E+03  0.7818609E-02  0.9308812E-01
        2   -1    0    0  501    0  0.00000000000E+00  0.00000000000E+00  0.97531526492E+03  0.97531526493E+03  0.25500000920E-02 0.  1.
       -2   -1    0    0    0  501  0.00000000000E+00  0.00000000000E+00 -0.25620268301E+03  0.25620268302E+03  0.25500000920E-02 0. -1.
    10030    2    1    2    0    0  0.00000000000E+00  0.00000000000E+00  0.71911258191E+03  0.12315179480E+04  0.99975674574E+03 0.  0.
        4    1    3    3  502    0 -0.20168281517E+03  0.41448253598E+03  0.59779453998E+03  0.75487194642E+03  0.12699999809E+01 0.  1.
       -4    1    3    3    0  502  0.20168281517E+03 -0.41448253598E+03  0.12131804194E+03  0.47664600153E+03  0.12699999809E+01 0. -1.
</event>
<event>
 5   0  0.2403037E-04  0.9999087E+03  0.7818609E-02  0.9308645E-01
        2   -1    0    0  501    0  0.00000000000E+00  0.00000000000E+00  0.78374695650E+03  0.78374695650E+03  0.25500000920E-02 0.  1.
       -2   -1    0    0    0  501  0.00000000000E+00  0.00000000000E+00 -0.31892226346E+03  0.31892226347E+03  0.25500000920E-02 0. -1.
    10030    2    1    2    0    0  0.00000000000E+00  0.00000000000E+00  0.46482469304E+03  0.11026692200E+04  0.99990870254E+03 0.  0.
        1    1    3    3  502    0 -0.26577472253E+03  0.14656644249E+03 -0.20570306008E+03  0.36664925222E+03  0.50400001928E-02 0. -1.
       -1    1    3    3    0  502  0.26577472253E+03 -0.14656644249E+03  0.67052775312E+03  0.73601996775E+03  0.50400001928E-02 0.  1.
</event>
<event>
 5   0  0.2473312E-04  0.9990841E+03  0.7818609E-02  0.9309550E-01
       -2   -1    0    0    0  501  0.00000000000E+00  0.00000000000E+00  0.51387772743E+03  0.51387772744E+03  0.25500000920E-02 0.  1.
        2   -1    0    0  501    0  0.00000000000E+00  0.00000000000E+00 -0.48560629894E+03  0.48560629894E+03  0.25500000920E-02 0. -1.
    10030    2    1    2    0    0  0.00000000000E+00  0.00000000000E+00  0.28271428499E+02  0.99948402638E+03  0.99908410323E+03 0.  0.
        5    1    3    3  502    0 -0.93739400865E+02 -0.47084410968E+03 -0.12390111292E+03  0.49583750028E+03  0.46999998093E+01 0.  1.
       -5    1    3    3    0  502  0.93739400865E+02  0.47084410968E+03  0.15217254142E+03  0.50364652611E+03  0.46999998093E+01 0. -1.
</event>
<event>
 5   0  0.1453863E-04  0.9997654E+03  0.7818609E-02  0.9308802E-01
        1   -1    0    0  501    0  0.00000000000E+00  0.00000000000E+00  0.17697790117E+04  0.17697790117E+04  0.50400001928E-02 0. -1.
       -1   -1    0    0    0  501  0.00000000000E+00  0.00000000000E+00 -0.14119430968E+03  0.14119430977E+03  0.50400001928E-02 0.  1.
    10030    2    1    2    0    0  0.00000000000E+00  0.00000000000E+00  0.16285847021E+04  0.19109733215E+04  0.99976542435E+03 0.  0.
        1    1    3    3  502    0 -0.95981884579E+02 -0.43435436018E+03  0.37839392842E+03  0.58400188138E+03  0.50400001928E-02 0.  1.
       -1    1    3    3    0  502  0.95981884579E+02  0.43435436018E+03  0.12501907736E+04  0.13269714401E+04  0.50400001928E-02 0. -1.
</event>
<event>
 5   0  0.1430675E-04  0.1000168E+04  0.7818609E-02  0.9308360E-01
        1   -1    0    0  501    0  0.00000000000E+00  0.00000000000E+00  0.19034037716E+03  0.19034037722E+03  0.50400001928E-02 0.  1.
       -1   -1    0    0    0  501  0.00000000000E+00  0.00000000000E+00 -0.13138785720E+04  0.13138785720E+04  0.50400001928E-02 0. -1.
    10030    2    1    2    0    0  0.00000000000E+00  0.00000000000E+00 -0.11235381948E+04  0.15042189492E+04  0.10001682718E+04 0.  0.
        5    1    3    3  502    0 -0.48016702637E+03 -0.13400641189E+03 -0.50267335486E+03  0.70796940847E+03  0.46999998093E+01 0. -1.
       -5    1    3    3    0  502  0.48016702637E+03  0.13400641189E+03 -0.62086483998E+03  0.79624954076E+03  0.46999998093E+01 0.  1.
</event>
<event>
 5   0  0.2353916E-04  0.9983250E+03  0.7818609E-02  0.9310384E-01
        2   -1    0    0  501    0  0.00000000000E+00  0.00000000000E+00  0.11746864932E+04  0.11746864932E+04  0.25500000920E-02 0.  1.
       -2   -1    0    0    0  501  0.00000000000E+00  0.00000000000E+00 -0.21211039919E+03  0.21211039920E+03  0.25500000920E-02 0. -1.
    10030    2    1    2    0    0  0.00000000000E+00  0.00000000000E+00  0.96257609402E+03  0.13867968924E+04  0.99832503927E+03 0.  0.
        4    1    3    3  502    0  0.34310365521E+03  0.23315032954E+03  0.95615657469E+02  0.42570313745E+03  0.12699999809E+01 0. -1.
       -4    1    3    3    0  502 -0.34310365521E+03 -0.23315032954E+03  0.86696043655E+03  0.96109375496E+03  0.12699999809E+01 0.  1.
</event>
<event>
 5   0  0.9650500E-05  0.1000343E+04  0.7818609E-02  0.9308169E-01
       -3   -1    0    0    0  501  0.00000000000E+00  0.00000000000E+00  0.50106225373E+03  0.50106226391E+03  0.10100000352E+00 0. -1.
        3   -1    0    0  501    0  0.00000000000E+00  0.00000000000E+00 -0.49928244631E+03  0.49928245653E+03  0.10100000352E+00 0.  1.
    10030    2    1    2    0    0  0.00000000000E+00  0.00000000000E+00  0.17798074164E+01  0.10003447204E+04  0.10003431371E+04 0.  0.
        5    1    3    3  502    0  0.36160182865E+03 -0.29914795072E+03  0.17381828124E+03  0.50048003336E+03  0.46999998093E+01 0. -1.
       -5    1    3    3    0  502 -0.36160182865E+03  0.29914795072E+03 -0.17203847382E+03  0.49986468707E+03  0.46999998093E+01 0.  1.
</event>
<event>
 5   0  0.1414165E-04  0.1000638E+04  0.7818609E-02  0.9307845E-01
        1   -1    0    0  501    0  0.00000000000E+00  0.00000000000E+00  0.10533581368E+04  0.10533581369E+04  0.50400001928E-02 0. -1.
       -1   -1    0    0    0  501  0.00000000000E+00  0.00000000000E+00 -0.23763918093E+03  0.23763918099E+03  0.50400001928E-02 0.  1.
    10030    2    1    2    0    0  0.00000000000E+00  0.00000000000E+00  0.81571895591E+03  0.12909973178E+04  0.10006381262E+04 0.  0.
        4    1    3    3  502    0 -0.16965475075E+03 -0.45702359370E+03  0.26266902113E+03  0.55375981004E+03  0.12699999809E+01 0.  1.
       -4    1    3    3    0  502  0.16965475075E+03  0.45702359370E+03  0.55304993478E+03  0.73723750781E+03  0.12699999809E+01 0. -1.
</event>
<event>
 5   0  0.2353916E-04  0.1001127E+04  0.7818609E-02  0.9307310E-01
       -2   -1    0    0    0  501  0.00000000000E+00  0.00000000000E+00  0.16093071945E+03  0.16093071947E+03  0.25500000920E-02 0.  1.
        2   -1    0    0  501    0  0.00000000000E+00  0.00000000000E+00 -0.15569667092E+04  0.15569667092E+04  0.25500000920E-02 0. -1.
    10030    2    1    2    0    0  0.00000000000E+00  0.00000000000E+00 -0.13960359898E+04  0.17178974287E+04  0.10011269104E+04 0.  0.
        4    1    3    3  502    0 -0.11576157963E+03 -0.47666819506E+03 -0.86917492903E+03  0.99803806624E+03  0.12699999809E+01 0. -1.
       -4    1    3    3    0  502  0.11576157963E+03  0.47666819506E+03 -0.52686106075E+03  0.71985936247E+03  0.12699999809E+01 0.  1.
</event>
<event>
 5   0  0.9650500E-05  0.9998397E+03  0.7818609E-02  0.9308721E-01
        4   -1    0    0  501    0  0.00000000000E+00  0.00000000000E+00  0.42538902893E+03  0.42539092472E+03  0.12699999809E+01 0.  1.
       -4   -1    0    0    0  501  0.00000000000E+00  0.00000000000E+00 -0.58750502720E+03  0.58750639986E+03  0.12699999809E+01 0. -1.
    10030    2    1    2    0    0  0.00000000000E+00  0.00000000000E+00 -0.16211599826E+03  0.10128973246E+04  0.99983968378E+03 0.  0.
        5    1    3    3  502    0 -0.61335098462E+02  0.39786061496E+03 -0.38131136178E+03  0.55450474106E+03  0.46999998093E+01 0. -1.
       -5    1    3    3    0  502  0.61335098462E+02 -0.39786061496E+03  0.21919536352E+03  0.45839258352E+03  0.46999998093E+01 0.  1.
</event>
<event>
 5   0  0.2403037E-04  0.9969160E+03  0.7818609E-02  0.9311934E-01
       -2   -1    0    0    0  501  0.00000000000E+00  0.00000000000E+00  0.16592020415E+04  0.16592020415E+04  0.25500000920E-02 0.  1.
        2   -1    0    0  501    0  0.00000000000E+00  0.00000000000E+00 -0.14974691179E+03  0.14974691181E+03  0.25500000920E-02 0. -1.
    10030    2    1    2    0    0  0.00000000000E+00  0.00000000000E+00  0.15094551297E+04  0.18089489533E+04  0.99691600804E+03 0.  0.
        1    1    3    3  502    0 -0.26543998151E+03 -0.73210109642E+02  0.77969138245E+00  0.27535197817E+03  0.50400001928E-02 0. -1.
       -1    1    3    3    0  502  0.26543998151E+03  0.73210109642E+02  0.15086754383E+04  0.15335969751E+04  0.50400001928E-02 0.  1.
</event>
<event>
 5   0  0.1453863E-04  0.9999035E+03  0.7818609E-02  0.9308651E-01
       -1   -1    0    0    0  501  0.00000000000E+00  0.00000000000E+00  0.10861421226E+04  0.10861421226E+04  0.50400001928E-02 0. -1.
        1   -1    0    0  501    0  0.00000000000E+00  0.00000000000E+00 -0.23012801895E+03  0.23012801901E+03  0.50400001928E-02 0.  1.
    10030    2    1    2    0    0  0.00000000000E+00  0.00000000000E+00  0.85601410363E+03  0.13162701416E+04  0.99990346537E+03 0.  0.
        1    1    3    3  502    0  0.35863702369E+03  0.36509689535E+02  0.88401712445E+03  0.95469353645E+03  0.50400001928E-02 0. -1.
       -1    1    3    3    0  502 -0.35863702369E+03 -0.36509689535E+02 -0.28003020817E+02  0.36157660515E+03  0.50400001928E-02 0.  1.
</event>
<event>
 5   0  0.1414165E-04  0.9999737E+03  0.7818609E-02  0.9308574E-01
       -1   -1    0    0    0  501  0.00000000000E+00  0.00000000000E+00  0.83023993069E+03  0.83023993070E+03  0.50400001928E-02 0.  1.
        1   -1    0    0  501    0  0.00000000000E+00  0.00000000000E+00 -0.30110193964E+03  0.30110193968E+03  0.50400001928E-02 0. -1.
    10030    2    1    2    0    0  0.00000000000E+00  0.00000000000E+00  0.52913799105E+03  0.11313418704E+04  0.99997370671E+03 0.  0.
        4    1    3    3  502    0  0.38107748703E+03  0.31307131119E+03  0.17160670449E+03  0.52219169942E+03  0.12699999809E+01 0.  1.
       -4    1    3    3    0  502 -0.38107748703E+03 -0.31307131119E+03  0.35753128656E+03  0.60915017096E+03  0.12699999809E+01 0. -1.
</event>
<event>
 5   0  0.1506454E-04  0.9997122E+03  0.7818609E-02  0.9308861E-01
        1   -1    0    0  501    0  0.00000000000E+00  0.00000000000E+00  0.76004171436E+03  0.76004171438E+03  0.50400001928E-02 0. -1.
       -1   -1    0    0    0  501  0.00000000000E+00  0.00000000000E+00 -0.32873998022E+03  0.32873998026E+03  0.50400001928E-02 0.  1.
    10030    2    1    2    0    0  0.00000000000E+00  0.00000000000E+00  0.43130173414E+03  0.10887816946E+04  0.99971215492E+03 0.  0.
        3    1    3    3  502    0  0.42206178223E+03 -0.24022193194E+02  0.50614110449E+03  0.65946344981E+03  0.10100000352E+00 0. -1.
       -3    1    3    3    0  502 -0.42206178223E+03  0.24022193194E+02 -0.74839370345E+02  0.42931824482E+03  0.10100000352E+00 0.  1.
</event>
<event>
 5   0  0.2484904E-04  0.1002516E+04  0.7818609E-02  0.9305790E-01
       -2   -1    0    0    0  501  0.00000000000E+00  0.00000000000E+00  0.38186484851E+03  0.38186484851E+03  0.25500000920E-02 0. -1.
        2   -1    0    0  501    0  0.00000000000E+00  0.00000000000E+00 -0.65798021626E+03  0.65798021627E+03  0.25500000920E-02 0.  1.
    10030    2    1    2    0    0  0.00000000000E+00  0.00000000000E+00 -0.27611536776E+03  0.10398450648E+04  0.10025158664E+04 0.  0.
        3    1    3    3  502    0  0.18113851370E+03  0.83662266074E+01  0.34665252945E+03  0.39121495533E+03  0.10100000352E+00 0. -1.
       -3    1    3    3    0  502 -0.18113851370E+03 -0.83662266074E+01 -0.62276789721E+03  0.64863010945E+03  0.10100000352E+00 0.  1.
</event>
<event>
 5   0  0.2503680E-04  0.9987617E+03  0.7818609E-02  0.9309904E-01
        2   -1    0    0  501    0  0.00000000000E+00  0.00000000000E+00  0.13905588715E+04  0.13905588715E+04  0.25500000920E-02 0. -1.
       -2   -1    0    0    0  501  0.00000000000E+00  0.00000000000E+00 -0.17933885037E+03  0.17933885039E+03  0.25500000920E-02 0.  1.
    10030    2    1    2    0    0  0.00000000000E+00  0.00000000000E+00  0.12112200211E+04  0.15698977218E+04  0.99876169209E+03 0.  0.
        2    1    3    3  502    0  0.21985986372E+03 -0.44795025258E+03  0.63638930913E+03  0.80869595105E+03  0.25500000920E-02 0.  1.
       -2    1    3    3    0  502 -0.21985986372E+03  0.44795025258E+03  0.57483071196E+03  0.76120177080E+03  0.25500000920E-02 0. -1.
</event>
<event>
 5   0  0.1461334E-04  0.1000076E+04  0.7818609E-02  0.9308462E-01
       -1   -1    0    0    0  501  0.00000000000E+00  0.00000000000E+00  0.31706182639E+03  0.31706182643E+03  0.50400001928E-02 0. -1.
        1   -1    0    0  501    0  0.00000000000E+00  0.00000000000E+00 -0.78860922280E+03  0.78860922281E+03  0.50400001928E-02 0.  1.
    10030    2    1    2    0    0  0.00000000000E+00  0.00000000000E+00 -0.47154739640E+03  0.11056710492E+04  0.10000757582E+04 0.  0.
        2    1    3    3  502    0  0.37218411481E+03  0.31540215190E+03 -0.35707807774E+03  0.60456950498E+03  0.25500000920E-02 0. -1.
       -2    1    3    3    0  502 -0.37218411481E+03 -0.31540215190E+03 -0.11446931866E+03  0.50110154427E+03  0.25500000920E-02 0.  1.
</event>
<event>
 5   0  0.2403037E-04  0.1000150E+04  0.7818609E-02  0.9308380E-01
       -2   -1    0    0    0  501  0.00000000000E+00  0.00000000000E+00  0.11824696581E+03  0.11824696584E+03  0.25500000920E-02 0. -1.
        2   -1    0    0  501    0  0.00000000000E+00  0.00000000000E+00 -0.21148536704E+04  0.21148536704E+04  0.25500000920E-02 0.  1.
    10030    2    1    2    0    0  0.00000000000E+00  0.00000000000E+00 -0.19966067046E+04  0.22331006362E+04  0.10001500481E+04 0.  0.
        1    1    3    3  502    0 -0.14562304132E+03 -0.79921827102E+02 -0.20514529085E+04  0.20581672926E+04  0.50400001928E-02 0.  1.
       -1    1    3    3    0  502  0.14562304132E+03  0.79921827102E+02  0.54846203889E+02  0.17493334364E+03  0.50400001928E-02 0. -1.
</event>
<event>
 5   0  0.2473312E-04  0.1000171E+04  0.7818609E-02  0.9308358E-01
        2   -1    0    0  501    0  0.00000000000E+00  0.00000000000E+00  0.19348275485E+04  0.19348275485E+04  0.25500000920E-02 0.  1.
       -2   -1    0    0    0  501  0.00000000000E+00  0.00000000000E+00 -0.12925458406E+03  0.12925458409E+03  0.25500000920E-02 0. -1.
    10030    2    1    2    0    0  0.00000000000E+00  0.00000000000E+00  0.18055729644E+04  0.20640821326E+04  0.10001706455E+04 0.  0.
        5    1    3    3  502    0  0.49287590091E+03  0.17499650377E+02  0.73222761439E+03  0.88284328209E+03  0.46999998093E+01 0.  1.
       -5    1    3    3    0  502 -0.49287590091E+03 -0.17499650377E+02  0.10733453500E+04  0.11812388505E+04  0.46999998093E+01 0. -1.
</event>
<event>
 5   0  0.1414165E-04  0.9997642E+03  0.7818609E-02  0.9308803E-01
       -1   -1    0    0    0  501  0.00000000000E+00  0.00000000000E+00  0.17110776566E+03  0.17110776573E+03  0.50400001928E-02 0.  1.
        1   -1    0    0  501    0  0.00000000000E+00  0.00000000000E+00 -0.14603786037E+04  0.14603786037E+04  0.50400001928E-02 0. -1.
    10030    2    1    2    0    0  0.00000000000E+00  0.00000000000E+00 -0.12892708380E+04  0.16314863694E+04  0.99976421210E+03 0.  0.
        4    1    3    3  502    0  0.18300009133E+03  0.12295247382E+03  0.87480546272E+02  0.23719359840E+03  0.12699999809E+01 0.  1.
       -4    1    3    3    0  502 -0.18300009133E+03 -0.12295247382E+03 -0.13767513843E+04  0.13942927710E+04  0.12699999809E+01 0. -1.
</event>
<event>
 5   0  0.2403037E-04  0.9993547E+03  0.7818609E-02  0.9309253E-01
       -2   -1    0    0    0  501  0.00000000000E+00  0.00000000000E+00  0.64784035716E+03  0.64784035716E+03  0.25500000920E-02 0.  1.
        2   -1    0    0  501    0  0.00000000000E+00  0.00000000000E+00 -0.38539967241E+03  0.38539967242E+03  0.25500000920E-02 0. -1.
    10030    2    1    2    0    0  0.00000000000E+00  0.00000000000E+00  0.26244068475E+03  0.10332400296E+04  0.99935471466E+03 0.  0.
        1    1    3    3  502    0 -0.17907804698E+03 -0.34186950090E+02 -0.34978520637E+03  0.39444566811E+03  0.50400001928E-02 0. -1.
       -1    1    3    3    0  502  0.17907804698E+03  0.34186950090E+02  0.61222589112E+03  0.63879436147E+03  0.50400001928E-02 0.  1.
</event>
<event>
 5   0  0.1453863E-04  0.1000756E+04  0.7818609E-02  0.9307716E-01
       -1   -1    0    0    0  501  0.00000000000E+00  0.00000000000E+00  0.44227904032E+03  0.44227904034E+03  0.50400001928E-02 0. -1.
        1   -1    0    0  501    0  0.00000000000E+00  0.00000000000E+00 -0.56610915157E+03  0.56610915160E+03  0.50400001928E-02 0.  1.
    10030    2    1    2    0    0  0.00000000000E+00  0.00000000000E+00 -0.12383011126E+03  0.10083881919E+04  0.10007561387E+04 0.  0.
        1    1    3    3  502    0 -0.44646944436E+03 -0.16401227698E+03 -0.21848092339E+03  0.52342039094E+03  0.50400001928E-02 0.  1.
       -1    1    3    3    0  502  0.44646944436E+03  0.16401227698E+03  0.94650812130E+02  0.48496780100E+03  0.50400001928E-02 0. -1.
</event>
<event>
 5   0  0.2403037E-04  0.1001001E+04  0.7818609E-02  0.9307448E-01
        2   -1    0    0  501    0  0.00000000000E+00  0.00000000000E+00  0.28286271979E+03  0.28286271980E+03  0.25500000920E-02 0. -1.
       -2   -1    0    0    0  501  0.00000000000E+00  0.00000000000E+00 -0.88559115390E+03  0.88559115390E+03  0.25500000920E-02 0.  1.
    10030    2    1    2    0    0  0.00000000000E+00  0.00000000000E+00 -0.60272843410E+03  0.11684538737E+04  0.10010009439E+04 0.  0.
        1    1    3    3  502    0  0.17696648439E+03  0.35555761083E+03  0.54154939107E+02  0.40083800802E+03  0.50400001928E-02 0. -1.
       -1    1    3    3    0  502 -0.17696648439E+03 -0.35555761083E+03 -0.65688337321E+03  0.76761586568E+03  0.50400001928E-02 0.  1.
</event>
<event>
 5   0  0.1414165E-04  0.1000141E+04  0.7818609E-02  0.9308390E-01
        1   -1    0    0  501    0  0.00000000000E+00  0.00000000000E+00  0.31923699036E+03  0.31923699040E+03  0.50400001928E-02 0. -1.
       -1   -1    0    0    0  501  0.00000000000E+00  0.00000000000E+00 -0.78333877387E+03  0.78333877389E+03  0.50400001928E-02 0.  1.
    10030    2    1    2    0    0  0.00000000000E+00  0.00000000000E+00 -0.46410178351E+03  0.11025757643E+04  0.10001414153E+04 0.  0.
        4    1    3    3  502    0  0.34123372326E+03  0.69586633563E+02 -0.62767426501E+03  0.71781567921E+03  0.12699999809E+01 0.  1.
       -4    1    3    3    0  502 -0.34123372326E+03 -0.69586633563E+02  0.16357248150E+03  0.38476008507E+03  0.12699999809E+01 0. -1.
</event>
<event>
 5   0  0.2503680E-04  0.1000103E+04  0.7818609E-02  0.9308432E-01
       -2   -1    0    0    0  501  0.00000000000E+00  0.00000000000E+00  0.58628524238E+03  0.58628524238E+03  0.25500000920E-02 0. -1.
        2   -1    0    0  501    0  0.00000000000E+00  0.00000000000E+00 -0.42650123485E+03  0.42650123486E+03  0.25500000920E-02 0.  1.
    10030    2    1    2    0    0  0.00000000000E+00  0.00000000000E+00  0.15978400752E+03  0.10127864772E+04  0.10001027544E+04 0.  0.
        2    1    3    3  502    0 -0.11868145129E+03 -0.42139869047E+03  0.32459521540E+03  0.54499926337E+03  0.25500000920E-02 0. -1.
       -2    1    3    3    0  502  0.11868145129E+03  0.42139869047E+03 -0.16481120787E+03  0.46778721387E+03  0.25500000920E-02 0.  1.
</event>
<event>
 5   0  0.2503680E-04  0.1000052E+04  0.7818609E-02  0.9308487E-01
        2   -1    0    0  501    0  0.00000000000E+00  0.00000000000E+00  0.12472292479E+04  0.12472292479E+04  0.25500000920E-02 0.  1.
       -2   -1    0    0    0  501  0.00000000000E+00  0.00000000000E+00 -0.20046525175E+03  0.20046525177E+03  0.25500000920E-02 0. -1.
    10030    2    1    2    0    0  0.00000000000E+00  0.00000000000E+00  0.10467639962E+04  0.14476944997E+04  0.10000522490E+04 0.  0.
        2    1    3    3  502    0  0.21439333765E+03  0.45087571333E+03  0.56362249816E+03  0.75294337937E+03  0.25500000920E-02 0. -1.
       -2    1    3    3    0  502 -0.21439333765E+03 -0.45087571333E+03  0.48314149803E+03  0.69475112034E+03  0.25500000920E-02 0.  1.
</event>
<event>
 5   0  0.1414165E-04  0.1000119E+04  0.7818609E-02  0.9308414E-01
        1   -1    0    0  501    0  0.00000000000E+00  0.00000000000E+00  0.27432171718E+03  0.27432171722E+03  0.50400001928E-02 0. -1.
       -1   -1    0    0    0  501  0.00000000000E+00  0.00000000000E+00 -0.91155651078E+03  0.91155651079E+03  0.50400001928E-02 0.  1.
    10030    2    1    2    0    0  0.00000000000E+00  0.00000000000E+00 -0.63723479360E+03  0.11858782280E+04  0.10001194876E+04 0.  0.
        4    1    3    3  502    0  0.11162147286E+03  0.48704697893E+03 -0.29538114742E+03  0.58045305412E+03  0.12699999809E+01 0. -1.
       -4    1    3    3    0  502 -0.11162147286E+03 -0.48704697893E+03 -0.34185364618E+03  0.60542517390E+03  0.12699999809E+01 0.  1.
</event>
<event>
 5   0  0.1430675E-04  0.1000022E+04  0.7818609E-02  0.9308521E-01
        1   -1    0    0  501    0  0.00000000000E+00  0.00000000000E+00  0.43110084254E+03  0.43110084257E+03  0.50400001928E-02 0. -1.
       -1   -1    0    0    0  501  0.00000000000E+00  0.00000000000E+00 -0.57993587590E+03  0.57993587592E+03  0.50400001928E-02 0.  1.
    10030    2    1    2    0    0  0.00000000000E+00  0.00000000000E+00 -0.14883503336E+03  0.10110367185E+04  0.10000216893E+04 0.  0.
        5    1    3    3  502    0 -0.17322769075E+03 -0.62811549891E+02  0.39549845040E+03  0.43634188191E+03  0.46999998093E+01 0. -1.
       -5    1    3    3    0  502  0.17322769075E+03  0.62811549891E+02 -0.54433348377E+03  0.57469483658E+03  0.46999998093E+01 0.  1.
</event>
<event>
 5   0  0.9650500E-05  0.9977395E+03  0.7818609E-02  0.9311028E-01
       -4   -1    0    0    0  501  0.00000000000E+00  0.00000000000E+00  0.57059944386E+03  0.57060085719E+03  0.12699999809E+01 0.  1.
        4   -1    0    0  501    0  0.00000000000E+00  0.00000000000E+00 -0.43615426734E+03  0.43615611634E+03  0.12699999809E+01 0. -1.
    10030    2    1    2    0    0  0.00000000000E+00  0.00000000000E+00  0.13444517652E+03  0.10067569735E+04  0.99773949419E+03 0.  0.
        1    1    3    3  502    0  0.61987227242E+01  0.47638364843E+03  0.21651662623E+03  0.52331563527E+03  0.50400001928E-02 0.  1.
       -1    1    3    3    0  502 -0.61987227242E+01 -0.47638364843E+03 -0.82071449712E+02  0.48344133826E+03  0.50400001928E-02 0. -1.
</event>
<event>
 5   0  0.2484904E-04  0.1005365E+04  0.7818609E-02  0.9302680E-01
       -2   -1    0    0    0  501  0.00000000000E+00  0.00000000000E+00  0.22717461677E+03  0.22717461679E+03  0.25500000920E-02 0.  1.
        2   -1    0    0  501    0  0.00000000000E+00  0.00000000000E+00 -0.11123159342E+04  0.11123159342E+04  0.25500000920E-02 0. -1.
    10030    2    1    2    0    0  0.00000000000E+00  0.00000000000E+00 -0.88514131738E+03  0.13394905509E+04  0.10053654979E+04 0.  0.
        3    1    3    3  502    0  0.10929271459E+03 -0.25724628348E+03 -0.99924310059E+03  0.10375969025E+04  0.10100000352E+00 0. -1.
       -3    1    3    3    0  502 -0.10929271459E+03  0.25724628348E+03  0.11410178321E+03  0.30189364843E+03  0.10100000352E+00 0.  1.
</event>
<event>
 5   0  0.9650500E-05  0.1000122E+04  0.7818609E-02  0.9308411E-01
        4   -1    0    0  501    0  0.00000000000E+00  0.00000000000E+00  0.56985557090E+03  0.56985698608E+03  0.12699999809E+01 0. -1.
       -4   -1    0    0    0  501  0.00000000000E+00  0.00000000000E+00 -0.43881198776E+03  0.43881382556E+03  0.12699999809E+01 0.  1.
    10030    2    1    2    0    0  0.00000000000E+00  0.00000000000E+00  0.13104358314E+03  0.10086708116E+04  0.10001221853E+04 0.  0.
        5    1    3    3  502    0 -0.30849196793E+03  0.36755518031E+03  0.20734704148E+03  0.52276093050E+03  0.46999998093E+01 0. -1.
       -5    1    3    3    0  502  0.30849196793E+03 -0.36755518031E+03 -0.76303458342E+02  0.48590988115E+03  0.46999998093E+01 0.  1.
</event>
<event>
 5   0  0.1453863E-04  0.9998069E+03  0.7818609E-02  0.9308757E-01
        1   -1    0    0  501    0  0.00000000000E+00  0.00000000000E+00  0.10270174841E+04  0.10270174841E+04  0.50400001928E-02 0. -1.
       -1   -1    0    0    0  501  0.00000000000E+00  0.00000000000E+00 -0.24332931018E+03  0.24332931023E+03  0.50400001928E-02 0.  1.
    10030    2    1    2    0    0  0.00000000000E+00  0.00000000000E+00  0.78368817394E+03  0.12703467944E+04  0.99980689333E+03 0.  0.
        1    1    3    3  502    0 -0.17001550512E+03 -0.61664971606E+02  0.98399403569E+03  0.10004759382E+04  0.50400001928E-02 0. -1.
       -1    1    3    3    0  502  0.17001550512E+03  0.61664971606E+02 -0.20030586175E+03  0.26987085612E+03  0.50400001928E-02 0.  1.
</event>
<event>
 5   0  0.2403037E-04  0.1000081E+04  0.7818609E-02  0.9308456E-01
        2   -1    0    0  501    0  0.00000000000E+00  0.00000000000E+00  0.11314743069E+04  0.11314743069E+04  0.25500000920E-02 0.  1.
       -2   -1    0    0    0  501  0.00000000000E+00  0.00000000000E+00 -0.22098652164E+03  0.22098652165E+03  0.25500000920E-02 0. -1.
    10030    2    1    2    0    0  0.00000000000E+00  0.00000000000E+00  0.91048778531E+03  0.13524608286E+04  0.10000811396E+04 0.  0.
        1    1    3    3  502    0 -0.24688480407E+03 -0.30909703881E+03  0.86886769027E+03  0.95468536655E+03  0.50400001928E-02 0.  1.
       -1    1    3    3    0  502  0.24688480407E+03  0.30909703881E+03  0.41620095039E+02  0.39777546206E+03  0.50400001928E-02 0. -1.
</event>
<event>
 5   0  0.1430675E-04  0.9996351E+03  0.7818609E-02  0.9308945E-01
        1   -1    0    0  501    0  0.00000000000E+00  0.00000000000E+00  0.12949059212E+04  0.12949059213E+04  0.50400001928E-02 0.  1.
       -1   -1    0    0    0  501  0.00000000000E+00  0.00000000000E+00 -0.19292336192E+03  0.19292336198E+03  0.50400001928E-02 0. -1.
    10030    2    1    2    0    0  0.00000000000E+00  0.00000000000E+00  0.11019825593E+04  0.14878292832E+04  0.99963514094E+03 0.  0.
        5    1    3    3  502    0 -0.42919287545E+02  0.43401188126E+03  0.18767250459E+03  0.47481726726E+03  0.46999998093E+01 0. -1.
       -5    1    3    3    0  502  0.42919287545E+02 -0.43401188126E+03  0.91431005474E+03  0.10130120160E+04  0.46999998093E+01 0.  1.
</event>
<event>
 5   0  0.1430675E-04  0.1000255E+04  0.7818609E-02  0.9308265E-01
        1   -1    0    0  501    0  0.00000000000E+00  0.00000000000E+00  0.39004568559E+03  0.39004568562E+03  0.50400001928E-02 0. -1.
       -1   -1    0    0    0  501  0.00000000000E+00  0.00000000000E+00 -0.64127812318E+03  0.64127812320E+03  0.50400001928E-02 0.  1.
    10030    2    1    2    0    0  0.00000000000E+00  0.00000000000E+00 -0.25123243759E+03  0.10313238088E+04  0.10002554978E+04 0.  0.
        5    1    3    3  502    0 -0.22158135576E+03 -0.55121120118E+02 -0.58437325194E+03  0.62741598854E+03  0.46999998093E+01 0.  1.
       -5    1    3    3    0  502  0.22158135576E+03  0.55121120118E+02  0.33314081434E+03  0.40390782028E+03  0.46999998093E+01 0. -1.
</event>
<event>
 5   0  0.2503680E-04  0.9994681E+03  0.7818609E-02  0.9309128E-01
       -2   -1    0    0    0  501  0.00000000000E+00  0.00000000000E+00  0.17293659692E+03  0.17293659694E+03  0.25500000920E-02 0.  1.
        2   -1    0    0  501    0  0.00000000000E+00  0.00000000000E+00 -0.14440789739E+04  0.14440789739E+04  0.25500000920E-02 0. -1.
    10030    2    1    2    0    0  0.00000000000E+00  0.00000000000E+00 -0.12711423770E+04  0.16170155708E+04  0.99946806542E+03 0.  0.
        2    1    3    3  502    0 -0.21330893787E+03  0.32720902028E+02 -0.13648058676E+04  0.13817620695E+04  0.25500000920E-02 0. -1.
       -2    1    3    3    0  502  0.21330893787E+03 -0.32720902028E+02  0.93663490649E+02  0.23525350134E+03  0.25500000920E-02 0.  1.
</event>
<event>
 5   0  0.2503680E-04  0.9993894E+03  0.7818609E-02  0.9309215E-01
        2   -1    0    0  501    0  0.00000000000E+00  0.00000000000E+00  0.27971235031E+04  0.27971235031E+04  0.25500000920E-02 0. -1.
       -2   -1    0    0    0  501  0.00000000000E+00  0.00000000000E+00 -0.89268414273E+02  0.89268414309E+02  0.25500000920E-02 0.  1.
    10030    2    1    2    0    0  0.00000000000E+00  0.00000000000E+00  0.27078550888E+04  0.28863919174E+04  0.99938937297E+03 0.  0.
        2    1    3    3  502    0  0.77103461403E+02 -0.14497291738E+02 -0.71369630632E+02  0.10606007454E+03  0.25500000920E-02 0.  1.
       -2    1    3    3    0  502 -0.77103461403E+02  0.14497291738E+02  0.27792247194E+04  0.27803318428E+04  0.25500000920E-02 0. -1.
</event>
<event>
 5   0  0.1453863E-04  0.9998623E+03  0.7818609E-02  0.9308696E-01
        1   -1    0    0  501    0  0.00000000000E+00  0.00000000000E+00  0.37409852951E+03  0.37409852954E+03  0.50400001928E-02 0. -1.
       -1   -1    0    0    0  501  0.00000000000E+00  0.00000000000E+00 -0.66808913250E+03  0.66808913252E+03  0.50400001928E-02 0.  1.
    10030    2    1    2    0    0  0.00000000000E+00  0.00000000000E+00 -0.29399060299E+03  0.10421876621E+04  0.99986231467E+03 0.  0.
        1    1    3    3  502    0 -0.30678667107E+03  0.37778606734E+03 -0.27737000049E+02  0.48745226989E+03  0.50400001928E-02 0. -1.
       -1    1    3    3    0  502  0.30678667107E+03 -0.37778606734E+03 -0.26625360294E+03  0.55473539217E+03  0.50400001928E-02 0.  1.
</event>
<event>
 5   0  0.2473312E-04  0.9999694E+03  0.7818609E-02  0.9308578E-01
        2   -1    0    0  501    0  0.00000000000E+00  0.00000000000E+00  0.52633245906E+03  0.52633245906E+03  0.25500000920E-02 0. -1.
       -2   -1    0    0    0  501  0.00000000000E+00  0.00000000000E+00 -0.47495587307E+03  0.47495587308E+03  0.25500000920E-02 0.  1.
    10030    2    1    2    0    0  0.00000000000E+00  0.00000000000E+00  0.51376585985E+02  0.10012883321E+04  0.99996938478E+03 0.  0.
        5    1    3    3  502    0 -0.32549286583E+02 -0.75079265687E+02 -0.46818254443E+03  0.47530341583E+03  0.46999998093E+01 0.  1.
       -5    1    3    3    0  502  0.32549286583E+02  0.75079265687E+02  0.51955913041E+03  0.52598491631E+03  0.46999998093E+01 0. -1.
</event>
<event>
 5   0  0.1414165E-04  0.9999794E+03  0.7818609E-02  0.9308567E-01
       -1   -1    0    0    0  501  0.00000000000E+00  0.00000000000E+00  0.77768751939E+03  0.77768751940E+03  0.50400001928E-02 0. -1.
        1   -1    0    0  501    0  0.00000000000E+00  0.00000000000E+00 -0.32145261271E+03  0.32145261274E+03  0.50400001928E-02 0.  1.
    10030    2    1    2    0    0  0.00000000000E+00  0.00000000000E+00  0.45623490668E+03  0.10991401321E+04  0.99997936980E+03 0.  0.
        4    1    3    3  502    0 -0.79410407150E+02  0.49360829291E+03  0.23442328747E+03  0.55218751362E+03  0.12699999809E+01 0. -1.
       -4    1    3    3    0  502  0.79410407150E+02 -0.49360829291E+03  0.22181161921E+03  0.54695261852E+03  0.12699999809E+01 0.  1.
</event>
<event>
 5   0  0.2503680E-04  0.1000347E+04  0.7818609E-02  0.9308165E-01
        2   -1    0    0  501    0  0.00000000000E+00  0.00000000000E+00  0.11917022257E+04  0.11917022257E+04  0.25500000920E-02 0. -1.
       -2   -1    0    0    0  501  0.00000000000E+00  0.00000000000E+00 -0.20992941684E+03  0.20992941685E+03  0.25500000920E-02 0.  1.
    10030    2    1    2    0    0  0.00000000000E+00  0.00000000000E+00  0.98177280881E+03  0.14016316425E+04  0.10003466465E+04 0.  0.
        2    1    3    3  502    0 -0.28618721282E+03  0.13036708402E+03 -0.54075896130E+02  0.31909700707E+03  0.25500000920E-02 0.  1.
       -2    1    3    3    0  502  0.28618721282E+03 -0.13036708402E+03  0.10358487049E+04  0.10825346354E+04  0.25500000920E-02 0. -1.
</event>
<event>
 5   0  0.1506454E-04  0.9979689E+03  0.7818609E-02  0.9310775E-01
        1   -1    0    0  501    0  0.00000000000E+00  0.00000000000E+00  0.55856171924E+03  0.55856171926E+03  0.50400001928E-02 0.  1.
       -1   -1    0    0    0  501  0.00000000000E+00  0.00000000000E+00 -0.44576182805E+03  0.44576182808E+03  0.50400001928E-02 0. -1.
    10030    2    1    2    0    0  0.00000000000E+00  0.00000000000E+00  0.11279989119E+03  0.10043235473E+04  0.99796892352E+03 0.  0.
        3    1    3    3  502    0 -0.18761829227E+03  0.33829763154E+03  0.37358869116E+03  0.53778660402E+03  0.10100000352E+00 0.  1.
       -3    1    3    3    0  502  0.18761829227E+03 -0.33829763154E+03 -0.26078879997E+03  0.46653694333E+03  0.10100000352E+00 0. -1.
</event>
<event>
 5   0  0.1430675E-04  0.1000138E+04  0.7818609E-02  0.9308393E-01
       -1   -1    0    0    0  501  0.00000000000E+00  0.00000000000E+00  0.20088692208E+03  0.20088692214E+03  0.50400001928E-02 0. -1.
        1   -1    0    0  501    0  0.00000000000E+00  0.00000000000E+00 -0.12448254345E+04  0.12448254345E+04  0.50400001928E-02 0.  1.
    10030    2    1    2    0    0  0.00000000000E+00  0.00000000000E+00 -0.10439385124E+04  0.14457123566E+04  0.10001382907E+04 0.  0.
        5    1    3    3  502    0  0.68648969621E+02  0.89526206352E+02 -0.12261570508E+04  0.12313451287E+04  0.46999998093E+01 0.  1.
       -5    1    3    3    0  502 -0.68648969621E+02 -0.89526206352E+02  0.18221853845E+03  0.21436722792E+03  0.46999998093E+01 0. -1.
</event>
<event>
 5   0  0.1461334E-04  0.1000395E+04  0.7818609E-02  0.9308112E-01
       -1   -1    0    0    0  501  0.00000000000E+00  0.00000000000E+00  0.26047433320E+03  0.26047433325E+03  0.50400001928E-02 0.  1.
        1   -1    0    0  501    0  0.00000000000E+00  0.00000000000E+00 -0.96054492978E+03  0.96054492979E+03  0.50400001928E-02 0. -1.
    10030    2    1    2    0    0  0.00000000000E+00  0.00000000000E+00 -0.70007059658E+03  0.12210192630E+04  0.10003945224E+04 0.  0.
        2    1    3    3  502    0  0.25754023293E+03 -0.50801025767E+02  0.16964665667E+03  0.31255032223E+03  0.25500000920E-02 0.  1.
       -2    1    3    3    0  502 -0.25754023293E+03  0.50801025767E+02 -0.86971725325E+03  0.90846894081E+03  0.25500000920E-02 0. -1.
</event>
<event>
 5   0  0.1430675E-04  0.9997425E+03  0.7818609E-02  0.9308827E-01
        1   -1    0    0  501    0  0.00000000000E+00  0.00000000000E+00  0.11075090261E+04  0.11075090261E+04  0.50400001928E-02 0. -1.
       -1   -1    0    0    0  501  0.00000000000E+00  0.00000000000E+00 -0.22561556842E+03  0.22561556847E+03  0.50400001928E-02 0.  1.
    10030    2    1    2    0    0  0.00000000000E+00  0.00000000000E+00  0.88189345769E+03  0.13331245946E+04  0.99974252384E+03 0.  0.
        5    1    3    3  502    0 -0.24983178830E+03 -0.39587006329E+03  0.20722757491E+03  0.51195154776E+03  0.46999998093E+01 0.  1.
       -5    1    3    3    0  502  0.24983178830E+03  0.39587006329E+03  0.67466588279E+03  0.82117304683E+03  0.46999998093E+01 0. -1.
</event>
<event>
 5   0  0.2503680E-04  0.1000112E+04  0.7818609E-02  0.9308422E-01
       -2   -1    0    0    0  501  0.00000000000E+00  0.00000000000E+00  0.31545282176E+03  0.31545282177E+03  0.25500000920E-02 0.  1.
        2   -1    0    0  501    0  0.00000000000E+00  0.00000000000E+00 -0.79268968897E+03  0.79268968897E+03  0.25500000920E-02 0. -1.
    10030    2    1    2    0    0  0.00000000000E+00  0.00000000000E+00 -0.47723686721E+03  0.11081425107E+04  0.10001123920E+04 0.  0.
        2    1    3    3  502    0 -0.40693251742E+02  0.24463867301E+03 -0.71974859599E+03  0.76127660052E+03  0.25500000920E-02 0. -1.
       -2    1    3    3    0  502  0.40693251742E+02 -0.24463867301E+03  0.24251172878E+03  0.34686591022E+03  0.25500000920E-02 0.  1.
</event>
<event>
 5   0  0.2503680E-04  0.1000445E+04  0.7818609E-02  0.9308057E-01
       -2   -1    0    0    0  501  0.00000000000E+00  0.00000000000E+00  0.20009081226E+03  0.20009081227E+03  0.25500000920E-02 0.  1.
        2   -1    0    0  501    0  0.00000000000E+00  0.00000000000E+00 -0.12505441998E+04  0.12505441999E+04  0.25500000920E-02 0. -1.
    10030    2    1    2    0    0  0.00000000000E+00  0.00000000000E+00 -0.10504533876E+04  0.14506350121E+04  0.10004447106E+04 0.  0.
        2    1    3    3  502    0 -0.10705601215E+03 -0.36184988924E+03 -0.10013582397E+04  0.10701003020E+04  0.25500000920E-02 0. -1.
       -2    1    3    3    0  502  0.10705601215E+03  0.36184988924E+03 -0.49095147919E+02  0.38053471016E+03  0.25500000920E-02 0.  1.
</event>
<event>
 5   0  0.1461334E-04  0.9996014E+03  0.7818609E-02  0.9308982E-01
        1   -1    0    0  501    0  0.00000000000E+00  0.00000000000E+00  0.66146005680E+03  0.66146005682E+03  0.50400001928E-02 0. -1.
       -1   -1    0    0    0  501  0.00000000000E+00  0.00000000000E+00 -0.37765051281E+03  0.37765051284E+03  0.50400001928E-02 0.  1.
    10030    2    1    2    0    0  0.00000000000E+00  0.00000000000E+00  0.28380954399E+03  0.10391105697E+04  0.99960137991E+03 0.  0.
        2    1    3    3  502    0  0.88776307083E+02 -0.16815922302E+03 -0.33857842568E+03  0.38832216950E+03  0.25500000920E-02 0.  1.
       -2    1    3    3    0  502 -0.88776307083E+02  0.16815922302E+03  0.62238796967E+03  0.65078840016E+03  0.25500000920E-02 0. -1.
</event>
<event>
 5   0  0.2353916E-04  0.1000031E+04  0.7818609E-02  0.9308511E-01
        2   -1    0    0  501    0  0.00000000000E+00  0.00000000000E+00  0.26961038022E+03  0.26961038023E+03  0.25500000920E-02 0. -1.
       -2   -1    0    0    0  501  0.00000000000E+00  0.00000000000E+00 -0.92732066410E+03  0.92732066411E+03  0.25500000920E-02 0.  1.
    10030    2    1    2    0    0  0.00000000000E+00  0.00000000000E+00 -0.65771028389E+03  0.11969310443E+04  0.10000305532E+04 0.  0.
        4    1    3    3  502    0 -0.33981059636E+03 -0.41016124548E+02 -0.76512293205E+03  0.83819346092E+03  0.12699999809E+01 0. -1.
       -4    1    3    3    0  502  0.33981059636E+03  0.41016124548E+02  0.10741264816E+03  0.35873758342E+03  0.12699999809E+01 0.  1.
</event>
<event>
 5   0  0.1430675E-04  0.1000797E+04  0.7818609E-02  0.9307671E-01
       -1   -1    0    0    0  501  0.00000000000E+00  0.00000000000E+00  0.57670381103E+03  0.57670381105E+03  0.50400001928E-02 0.  1.
        1   -1    0    0  501    0  0.00000000000E+00  0.00000000000E+00 -0.43418941641E+03  0.43418941644E+03  0.50400001928E-02 0. -1.
    10030    2    1    2    0    0  0.00000000000E+00  0.00000000000E+00  0.14251439462E+03  0.10108932275E+04  0.10007970647E+04 0.  0.
        5    1    3    3  502    0 -0.50728716782E+02  0.18566197081E+03  0.53779636738E+03  0.57121869094E+03  0.46999998093E+01 0.  1.
       -5    1    3    3    0  502  0.50728716782E+02 -0.18566197081E+03 -0.39528197275E+03  0.43967453656E+03  0.46999998093E+01 0. -1.
</event>
<event>
 5   0  0.1430675E-04  0.1000308E+04  0.7818609E-02  0.9308207E-01
        1   -1    0    0  501    0  0.00000000000E+00  0.00000000000E+00  0.58969234337E+03  0.58969234340E+03  0.50400001928E-02 0. -1.
       -1   -1    0    0    0  501  0.00000000000E+00  0.00000000000E+00 -0.42421119523E+03  0.42421119526E+03  0.50400001928E-02 0.  1.
    10030    2    1    2    0    0  0.00000000000E+00  0.00000000000E+00  0.16548114815E+03  0.10139035387E+04  0.10003081402E+04 0.  0.
        5    1    3    3  502    0  0.29027447864E+03 -0.35924448877E+03 -0.11174253669E+03  0.47520980647E+03  0.46999998093E+01 0.  1.
       -5    1    3    3    0  502 -0.29027447864E+03  0.35924448877E+03  0.27722368484E+03  0.53869373218E+03  0.46999998093E+01 0. -1.
</event>
<event>
 5   0  0.1506454E-04  0.1000025E+04  0.7818609E-02  0.9308517E-01
        1   -1    0    0  501    0  0.00000000000E+00  0.00000000000E+00  0.12697470493E+04  0.12697470493E+04  0.50400001928E-02 0. -1.
       -1   -1    0    0    0  501  0.00000000000E+00  0.00000000000E+00 -0.19689947994E+03  0.19689948001E+03  0.50400001928E-02 0.  1.
    10030    2    1    2    0    0  0.00000000000E+00  0.00000000000E+00  0.10728475694E+04  0.14666465293E+04  0.10000250671E+04 0.  0.
        3    1    3    3  502    0 -0.16511301049E+03 -0.21701896963E+03 -0.78246670267E+02  0.28369365700E+03  0.10100000352E+00 0.  1.
       -3    1    3    3    0  502  0.16511301049E+03  0.21701896963E+03  0.11510942396E+04  0.11829528723E+04  0.10100000352E+00 0. -1.
</event>
<event>
 5   0  0.2503680E-04  0.9970108E+03  0.7818609E-02  0.9311829E-01
       -2   -1    0    0    0  501  0.00000000000E+00  0.00000000000E+00  0.16923511210E+03  0.16923511212E+03  0.25500000920E-02 0. -1.
        2   -1    0    0  501    0  0.00000000000E+00  0.00000000000E+00 -0.14684164011E+04  0.14684164011E+04  0.25500000920E-02 0.  1.
    10030    2    1    2    0    0  0.00000000000E+00  0.00000000000E+00 -0.12991812890E+04  0.16376515132E+04  0.99701076076E+03 0.  0.
        2    1    3    3  502    0 -0.28842060245E+02 -0.49107824361E+03 -0.78220049155E+03  0.92402776732E+03  0.25500000920E-02 0.  1.
       -2    1    3    3    0  502  0.28842060245E+02  0.49107824361E+03 -0.51698079745E+03  0.71362374591E+03  0.25500000920E-02 0. -1.
</event>
<event>
 5   0  0.1414165E-04  0.1000422E+04  0.7818609E-02  0.9308082E-01
       -1   -1    0    0    0  501  0.00000000000E+00  0.00000000000E+00  0.56528987165E+03  0.56528987167E+03  0.50400001928E-02 0.  1.
        1   -1    0    0  501    0  0.00000000000E+00  0.00000000000E+00 -0.44262406261E+03  0.44262406264E+03  0.50400001928E-02 0. -1.
    10030    2    1    2    0    0  0.00000000000E+00  0.00000000000E+00  0.12266580903E+03  0.10079139343E+04  0.10004217102E+04 0.  0.
        4    1    3    3  502    0  0.28068976642E+03  0.40934257621E+03 -0.12709857561E+01  0.49633790705E+03  0.12699999809E+01 0.  1.
       -4    1    3    3    0  502 -0.28068976642E+03 -0.40934257621E+03  0.12393679479E+03  0.51157602726E+03  0.12699999809E+01 0. -1.
</event>
<event>
 5   0  0.2503680E-04  0.9997380E+03  0.7818609E-02  0.9308832E-01
        2   -1    0    0  501    0  0.00000000000E+00  0.00000000000E+00  0.68641962695E+03  0.68641962696E+03  0.25500000920E-02 0. -1.
       -2   -1    0    0    0  501  0.00000000000E+00  0.00000000000E+00 -0.36401787067E+03  0.36401787068E+03  0.25500000920E-02 0.  1.
    10030    2    1    2    0    0  0.00000000000E+00  0.00000000000E+00  0.32240175628E+03  0.10504374976E+04  0.99973798767E+03 0.  0.
        2    1    3    3  502    0 -0.24181751638E+03 -0.24022898588E+03 -0.22296842170E+03  0.40730896622E+03  0.25500000920E-02 0.  1.
       -2    1    3    3    0  502  0.24181751638E+03  0.24022898588E+03  0.54537017798E+03  0.64312853142E+03  0.25500000920E-02 0. -1.
</event>
<event>
 5   0  0.2503680E-04  0.1001129E+04  0.7818609E-02  0.9307307E-01
        2   -1    0    0  501    0  0.00000000000E+00  0.00000000000E+00  0.20340472791E+04  0.20340472791E+04  0.25500000920E-02 0.  1.
       -2   -1    0    0    0  501  0.00000000000E+00  0.00000000000E+00 -0.12318546017E+03  0.12318546020E+03  0.25500000920E-02 0. -1.
    10030    2    1    2    0    0  0.00000000000E+00  0.00000000000E+00  0.19108618190E+04  0.21572327393E+04  0.10011294624E+04 0.  0.
        2    1    3    3  502    0  0.30320583318E+03 -0.25635019804E+03  0.16122589117E+04  0.16604300647E+04  0.25500000920E-02 0.  1.
       -2    1    3    3    0  502 -0.30320583318E+03  0.25635019804E+03  0.29860290724E+03  0.49680267464E+03  0.25500000920E-02 0. -1.
</event>
<event>
 5   0  0.1506454E-04  0.1000241E+04  0.7818609E-02  0.9308281E-01
       -1   -1    0    0    0  501  0.00000000000E+00  0.00000000000E+00  0.36396000405E+03  0.36396000409E+03  0.50400001928E-02 0. -1.
        1   -1    0    0  501    0  0.00000000000E+00  0.00000000000E+00 -0.68721962458E+03  0.68721962460E+03  0.50400001928E-02 0.  1.
    10030    2    1    2    0    0  0.00000000000E+00  0.00000000000E+00 -0.32325962053E+03  0.10511796287E+04  0.10002408857E+04 0.  0.
        3    1    3    3  502    0  0.13165936614E+02  0.22878497277E+03 -0.62879534382E+03  0.66925294192E+03  0.10100000352E+00 0.  1.
       -3    1    3    3    0  502 -0.13165936614E+02 -0.22878497277E+03  0.30553572330E+03  0.38192668677E+03  0.10100000352E+00 0. -1.
</event>
<event>
 5   0  0.1453863E-04  0.1000022E+04  0.7818609E-02  0.9308520E-01
        1   -1    0    0  501    0  0.00000000000E+00  0.00000000000E+00  0.12811434439E+04  0.12811434439E+04  0.50400001928E-02 0.  1.
       -1   -1    0    0    0  501  0.00000000000E+00  0.00000000000E+00 -0.19514696057E+03  0.19514696063E+03  0.50400001928E-02 0. -1.
    10030    2    1    2    0    0  0.00000000000E+00  0.00000000000E+00  0.10859964833E+04  0.14762904046E+04  0.10000224981E+04 0.  0.
        1    1    3    3  502    0  0.45452102870E+03  0.87568136385E+02  0.26385793373E+03  0.53280254622E+03  0.50400001928E-02 0. -1.
       -1    1    3    3    0  502 -0.45452102870E+03 -0.87568136385E+02  0.82213854962E+03  0.94348785834E+03  0.50400001928E-02 0.  1.
</event>
<event>
 5   0  0.1506454E-04  0.1000063E+04  0.7818609E-02  0.9308476E-01
       -1   -1    0    0    0  501  0.00000000000E+00  0.00000000000E+00  0.40147260538E+03  0.40147260541E+03  0.50400001928E-02 0. -1.
        1   -1    0    0  501    0  0.00000000000E+00  0.00000000000E+00 -0.62278581217E+03  0.62278581219E+03  0.50400001928E-02 0.  1.
    10030    2    1    2    0    0  0.00000000000E+00  0.00000000000E+00 -0.22131320679E+03  0.10242584176E+04  0.10000628833E+04 0.  0.
        3    1    3    3  502    0  0.43291990242E+03  0.73989809512E+02 -0.35547389245E+03  0.56502728451E+03  0.10100000352E+00 0.  1.
       -3    1    3    3    0  502 -0.43291990242E+03 -0.73989809512E+02  0.13416068566E+03  0.45923113309E+03  0.10100000352E+00 0. -1.
</event>
<event>
 5   0  0.1430675E-04  0.9987788E+03  0.7818609E-02  0.9309885E-01
       -1   -1    0    0    0  501  0.00000000000E+00  0.00000000000E+00  0.35947768257E+03  0.35947768261E+03  0.50400001928E-02 0. -1.
        1   -1    0    0  501    0  0.00000000000E+00  0.00000000000E+00 -0.69375596796E+03  0.69375596798E+03  0.50400001928E-02 0.  1.
    10030    2    1    2    0    0  0.00000000000E+00  0.00000000000E+00 -0.33427828538E+03  0.10532336506E+04  0.99877882969E+03 0.  0.
        5    1    3    3  502    0  0.81154281200E+02 -0.48070642298E+03 -0.53060516458E+02  0.49041022711E+03  0.46999998093E+01 0. -1.
       -5    1    3    3    0  502 -0.81154281200E+02  0.48070642298E+03 -0.28121776893E+03  0.56282342347E+03  0.46999998093E+01 0.  1.
</event>
<event>
 5   0  0.1414165E-04  0.9987394E+03  0.7818609E-02  0.9309928E-01
       -1   -1    0    0    0  501  0.00000000000E+00  0.00000000000E+00  0.63414931153E+03  0.63414931155E+03  0.50400001928E-02 0. -1.
        1   -1    0    0  501    0  0.00000000000E+00  0.00000000000E+00 -0.39323562579E+03  0.39323562582E+03  0.50400001928E-02 0.  1.
    10030    2    1    2    0    0  0.00000000000E+00  0.00000000000E+00  0.24091368575E+03  0.10273849374E+04  0.99873940823E+03 0.  0.
        4    1    3    3  502    0  0.12521899078E+03 -0.45238845104E+03 -0.54822131474E+02  0.47259092806E+03  0.12699999809E+01 0.  1.
       -4    1    3    3    0  502 -0.12521899078E+03  0.45238845104E+03  0.29573581722E+03  0.55479400931E+03  0.12699999809E+01 0. -1.
</event>
<event>
 5   0  0.1414165E-04  0.9984654E+03  0.7818609E-02  0.9310229E-01
       -1   -1    0    0    0  501  0.00000000000E+00  0.00000000000E+00  0.41385806671E+03  0.41385806674E+03  0.50400001928E-02 0.  1.
        1   -1    0    0  501    0  0.00000000000E+00  0.00000000000E+00 -0.60221927874E+03  0.60221927877E+03  0.50400001928E-02 0. -1.
    10030    2    1    2    0    0  0.00000000000E+00  0.00000000000E+00 -0.18836121204E+03  0.10160773455E+04  0.99846543548E+03 0.  0.
        4    1    3    3  502    0  0.11050055552E+03  0.40565787046E+03  0.17975717086E+03  0.45725587368E+03  0.12699999809E+01 0.  1.
       -4    1    3    3    0  502 -0.11050055552E+03 -0.40565787046E+03 -0.36811838290E+03  0.55882147182E+03  0.12699999809E+01 0. -1.
</event>
<event>
 5   0  0.2403037E-04  0.1001662E+04  0.7818609E-02  0.9306724E-01
        2   -1    0    0  501    0  0.00000000000E+00  0.00000000000E+00  0.47104469363E+03  0.47104469364E+03  0.25500000920E-02 0.  1.
       -2   -1    0    0    0  501  0.00000000000E+00  0.00000000000E+00 -0.53250065802E+03  0.53250065803E+03  0.25500000920E-02 0. -1.
    10030    2    1    2    0    0  0.00000000000E+00  0.00000000000E+00 -0.61455964392E+02  0.10035453517E+04  0.10016618378E+04 0.  0.
        1    1    3    3  502    0  0.13894670914E+03 -0.48074809827E+03 -0.10523571258E+02  0.50053538092E+03  0.50400001928E-02 0.  1.
       -1    1    3    3    0  502 -0.13894670914E+03  0.48074809827E+03 -0.50932393134E+02  0.50300997075E+03  0.50400001928E-02 0. -1.
</event>
<event>
 5   0  0.2484904E-04  0.9992618E+03  0.7818609E-02  0.9309355E-01
        2   -1    0    0  501    0  0.00000000000E+00  0.00000000000E+00  0.10625056855E+04  0.10625056855E+04  0.25500000920E-02 0.  1.
       -2   -1    0    0    0  501  0.00000000000E+00  0.00000000000E+00 -0.23494559328E+03  0.23494559330E+03  0.25500000920E-02 0. -1.
    10030    2    1    2    0    0  0.00000000000E+00  0.00000000000E+00  0.82756009218E+03  0.12974512788E+04  0.99926178482E+03 0.  0.
        3    1    3    3  502    0 -0.10377616019E+03  0.38157086391E+03  0.17254109903E+02  0.39580744070E+03  0.10100000352E+00 0. -1.
       -3    1    3    3    0  502  0.10377616019E+03 -0.38157086391E+03  0.81030598228E+03  0.90164383807E+03  0.10100000352E+00 0.  1.
</event>
<event>
 5   0  0.1430675E-04  0.9998861E+03  0.7818609E-02  0.9308670E-01
       -1   -1    0    0    0  501  0.00000000000E+00  0.00000000000E+00  0.28475470727E+03  0.28475470732E+03  0.50400001928E-02 0.  1.
        1   -1    0    0  501    0  0.00000000000E+00  0.00000000000E+00 -0.87774859509E+03  0.87774859511E+03  0.50400001928E-02 0. -1.
    10030    2    1    2    0    0  0.00000000000E+00  0.00000000000E+00 -0.59299388782E+03  0.11625033024E+04  0.99988608209E+03 0.  0.
        5    1    3    3  502    0 -0.49148396180E+03 -0.21152978993E+02 -0.19304835474E+03  0.52848244105E+03  0.46999998093E+01 0.  1.
       -5    1    3    3    0  502  0.49148396180E+03  0.21152978993E+02 -0.39994553307E+03  0.63402086137E+03  0.46999998093E+01 0. -1.
</event>
<event>
 5   0  0.2503680E-04  0.1001130E+04  0.7818609E-02  0.9307306E-01
       -2   -1    0    0    0  501  0.00000000000E+00  0.00000000000E+00  0.32106890442E+03  0.32106890443E+03  0.25500000920E-02 0. -1.
        2   -1    0    0  501    0  0.00000000000E+00  0.00000000000E+00 -0.78041041185E+03  0.78041041185E+03  0.25500000920E-02 0.  1.
    10030    2    1    2    0    0  0.00000000000E+00  0.00000000000E+00 -0.45934150743E+03  0.11014793163E+04  0.10011303930E+04 0.  0.
        2    1    3    3  502    0  0.10194571857E+03  0.27535883954E+03 -0.67570754308E+03  0.73674697409E+03  0.25500000920E-02 0.  1.
       -2    1    3    3    0  502 -0.10194571857E+03 -0.27535883954E+03  0.21636603565E+03  0.36473234219E+03  0.25500000920E-02 0. -1.
</event>
<event>
 5   0  0.2353916E-04  0.9999012E+03  0.7818609E-02  0.9308653E-01
        2   -1    0    0  501    0  0.00000000000E+00  0.00000000000E+00  0.88168634381E+03  0.88168634381E+03  0.25500000920E-02 0. -1.
       -2   -1    0    0    0  501  0.00000000000E+00  0.00000000000E+00 -0.28349154562E+03  0.28349154563E+03  0.25500000920E-02 0.  1.
    10030    2    1    2    0    0  0.00000000000E+00  0.00000000000E+00  0.59819479819E+03  0.11651778894E+04  0.99990124385E+03 0.  0.
        4    1    3    3  502    0 -0.24350985496E+03  0.57316061093E+02  0.80350483712E+03  0.84154846355E+03  0.12699999809E+01 0. -1.
       -4    1    3    3    0  502  0.24350985496E+03 -0.57316061093E+02 -0.20531003892E+03  0.32362942590E+03  0.12699999809E+01 0.  1.
</event>
<event>
 5   0  0.1414165E-04  0.1000233E+04  0.7818609E-02  0.9308289E-01
        1   -1    0    0  501    0  0.00000000000E+00  0.00000000000E+00  0.17288147173E+04  0.17288147173E+04  0.50400001928E-02 0.  1.
       -1   -1    0    0    0  501  0.00000000000E+00  0.00000000000E+00 -0.14467514952E+03  0.14467514961E+03  0.50400001928E-02 0. -1.
    10030    2    1    2    0    0  0.00000000000E+00  0.00000000000E+00  0.15841395678E+04  0.18734898669E+04  0.10002330285E+04 0.  0.
        4    1    3    3  502    0 -0.29458316621E+02  0.17804316641E+03  0.16656996221E+04  0.16754474046E+04  0.12699999809E+01 0.  1.
       -4    1    3    3    0  502  0.29458316621E+02 -0.17804316641E+03 -0.81560054337E+02  0.19804246233E+03  0.12699999809E+01 0. -1.
</event>
<event>
 5   0  0.2473312E-04  0.1000089E+04  0.7818609E-02  0.9308447E-01
       -2   -1    0    0    0  501  0.00000000000E+00  0.00000000000E+00  0.18743648246E+03  0.18743648248E+03  0.25500000920E-02 0. -1.
        2   -1    0    0  501    0  0.00000000000E+00  0.00000000000E+00 -0.13340228327E+04  0.13340228327E+04  0.25500000920E-02 0.  1.
    10030    2    1    2    0    0  0.00000000000E+00  0.00000000000E+00 -0.11465863503E+04  0.15214593152E+04  0.10000890906E+04 0.  0.
        5    1    3    3  502    0  0.16534547332E+03  0.24546691159E+03 -0.11864250244E+04  0.12227917070E+04  0.46999998093E+01 0.  1.
       -5    1    3    3    0  502 -0.16534547332E+03 -0.24546691159E+03  0.39838674131E+02  0.29866760820E+03  0.46999998093E+01 0. -1.
</event>
<event>
 5   0  0.2403037E-04  0.1000119E+04  0.7818609E-02  0.9308414E-01
        2   -1    0    0  501    0  0.00000000000E+00  0.00000000000E+00  0.20337143622E+04  0.20337143622E+04  0.25500000920E-02 0.  1.
       -2   -1    0    0    0  501  0.00000000000E+00  0.00000000000E+00 -0.12295712082E+03  0.12295712085E+03  0.25500000920E-02 0. -1.
    10030    2    1    2    0    0  0.00000000000E+00  0.00000000000E+00  0.19107572414E+04  0.21566714831E+04  0.10001193181E+04 0.  0.
        1    1    3    3  502    0 -0.44447915478E+03 -0.18185622183E+03  0.12559355583E+04  0.13446217056E+04  0.50400001928E-02 0.  1.
       -1    1    3    3    0  502  0.44447915478E+03  0.18185622183E+03  0.65482168304E+03  0.81204977745E+03  0.50400001928E-02 0. -1.
</event>
<event>
 5   0  0.1414165E-04  0.1000977E+04  0.7818609E-02  0.9307474E-01
       -1   -1    0    0    0  501  0.00000000000E+00  0.00000000000E+00  0.55130878821E+03  0.55130878824E+03  0.50400001928E-02 0. -1.
        1   -1    0    0  501    0  0.00000000000E+00  0.00000000000E+00 -0.45435247237E+03  0.45435247240E+03  0.50400001928E-02 0.  1.
    10030    2    1    2    0    0  0.00000000000E+00  0.00000000000E+00  0.96956315842E+02  0.10056612606E+04  0.10009765452E+04 0.  0.
        4    1    3    3  502    0  0.15935157013E+03  0.35206864504E+03 -0.27103799956E+03  0.47202591436E+03  0.12699999809E+01 0.  1.
       -4    1    3    3    0  502 -0.15935157013E+03 -0.35206864504E+03  0.36799431540E+03  0.53363534627E+03  0.12699999809E+01 0. -1.
</event>
<event>
 5   0  0.9650500E-05  0.1000607E+04  0.7818609E-02  0.9307879E-01
       -3   -1    0    0    0  501  0.00000000000E+00  0.00000000000E+00  0.52041533514E+03  0.52041534494E+03  0.10100000352E+00 0. -1.
        3   -1    0    0  501    0  0.00000000000E+00  0.00000000000E+00 -0.48096901721E+03  0.48096902782E+03  0.10100000352E+00 0.  1.
    10030    2    1    2    0    0  0.00000000000E+00  0.00000000000E+00  0.39446317932E+02  0.10013843728E+04  0.10006071407E+04 0.  0.
        1    1    3    3  502    0 -0.22363998186E+03  0.31025980662E+03  0.34250690286E+03  0.51340721423E+03  0.50400001928E-02 0. -1.
       -1    1    3    3    0  502  0.22363998186E+03 -0.31025980662E+03 -0.30306058493E+03  0.48797715853E+03  0.50400001928E-02 0.  1.
</event>
<event>
 5   0  0.1453863E-04  0.9983305E+03  0.7818609E-02  0.9310378E-01
        1   -1    0    0  501    0  0.00000000000E+00  0.00000000000E+00  0.18892163676E+03  0.18892163683E+03  0.50400001928E-02 0.  1.
       -1   -1    0    0    0  501  0.00000000000E+00  0.00000000000E+00 -0.13188850741E+04  0.13188850741E+04  0.50400001928E-02 0. -1.
    10030    2    1    2    0    0  0.00000000000E+00  0.00000000000E+00 -0.11299634373E+04  0.15078067109E+04  0.99833046022E+03 0.  0.
        1    1    3    3  502    0 -0.39482170060E+03  0.78674939820E+02 -0.10107000495E+04  0.10879285415E+04  0.50400001928E-02 0. -1.
       -1    1    3    3    0  502  0.39482170060E+03 -0.78674939820E+02 -0.11926338783E+03  0.41987816938E+03  0.50400001928E-02 0.  1.
</event>
<event>
 5   0  0.2353916E-04  0.1001250E+04  0.7818609E-02  0.9307175E-01
       -2   -1    0    0    0  501  0.00000000000E+00  0.00000000000E+00  0.34257040950E+03  0.34257040951E+03  0.25500000920E-02 0.  1.
        2   -1    0    0  501    0  0.00000000000E+00  0.00000000000E+00 -0.73160271397E+03  0.73160271397E+03  0.25500000920E-02 0. -1.
    10030    2    1    2    0    0  0.00000000000E+00  0.00000000000E+00 -0.38903230446E+03  0.10741731235E+04  0.10012501013E+04 0.  0.
        4    1    3    3  502    0 -0.10488824296E+01  0.13945768323E+03  0.32130775683E+03  0.35027108512E+03  0.12699999809E+01 0.  1.
       -4    1    3    3    0  502  0.10488824296E+01 -0.13945768323E+03 -0.71034006130E+03  0.72390203837E+03  0.12699999809E+01 0. -1.
</event>
<event>
 5   0  0.2484904E-04  0.1000309E+04  0.7818609E-02  0.9308206E-01
        2   -1    0    0  501    0  0.00000000000E+00  0.00000000000E+00  0.21414939080E+03  0.21414939081E+03  0.25500000920E-02 0.  1.
       -2   -1    0    0    0  501  0.00000000000E+00  0.00000000000E+00 -0.11681312646E+04  0.11681312646E+04  0.25500000920E-02 0. -1.
    10030    2    1    2    0    0  0.00000000000E+00  0.00000000000E+00 -0.95398187382E+03  0.13822806554E+04  0.10003091496E+04 0.  0.
        3    1    3    3  502    0 -0.37796866487E+03 -0.32637594914E+03 -0.51541085411E+03  0.71765585802E+03  0.10100000352E+00 0. -1.
       -3    1    3    3    0  502  0.37796866487E+03  0.32637594914E+03 -0.43857101970E+03  0.66462479741E+03  0.10100000352E+00 0.  1.
</event>
<event>
 5   0  0.2503680E-04  0.1000264E+04  0.7818609E-02  0.9308255E-01
       -2   -1    0    0    0  501  0.00000000000E+00  0.00000000000E+00  0.95733341585E+03  0.95733341585E+03  0.25500000920E-02 0. -1.
        2   -1    0    0  501    0  0.00000000000E+00  0.00000000000E+00 -0.26128015515E+03  0.26128015516E+03  0.25500000920E-02 0.  1.
    10030    2    1    2    0    0  0.00000000000E+00  0.00000000000E+00  0.69605326070E+03  0.12186135710E+04  0.10002644119E+04 0.  0.
        2    1    3    3  502    0  0.43669788817E+03 -0.17322232897E+03  0.55699540853E+03  0.72866652587E+03  0.25500000920E-02 0. -1.
       -2    1    3    3    0  502 -0.43669788817E+03  0.17322232897E+03  0.13905785217E+03  0.48994704514E+03  0.25500000920E-02 0.  1.
</event>
<event>
 5   0  0.2503680E-04  0.9999882E+03  0.7818609E-02  0.9308558E-01
        2   -1    0    0  501    0  0.00000000000E+00  0.00000000000E+00  0.14931861516E+04  0.14931861516E+04  0.25500000920E-02 0.  1.
       -2   -1    0    0    0  501  0.00000000000E+00  0.00000000000E+00 -0.16742326311E+03  0.16742326313E+03  0.25500000920E-02 0. -1.
    10030    2    1    2    0    0  0.00000000000E+00  0.00000000000E+00  0.13257628885E+04  0.16606094148E+04  0.99998819584E+03 0.  0.
        2    1    3    3  502    0  0.34878715617E+03 -0.35685115495E+03  0.61039740029E+03  0.78840358535E+03  0.25500000920E-02 0. -1.
       -2    1    3    3    0  502 -0.34878715617E+03  0.35685115495E+03  0.71536548822E+03  0.87220582941E+03  0.25500000920E-02 0.  1.
</event>
<event>
 5   0  0.2353916E-04  0.1000042E+04  0.7818609E-02  0.9308498E-01
        2   -1    0    0  501    0  0.00000000000E+00  0.00000000000E+00  0.25974535704E+03  0.25974535705E+03  0.25500000920E-02 0.  1.
       -2   -1    0    0    0  501  0.00000000000E+00  0.00000000000E+00 -0.96256279490E+03  0.96256279491E+03  0.25500000920E-02 0. -1.
    10030    2    1    2    0    0  0.00000000000E+00  0.00000000000E+00 -0.70281743787E+03  0.12223081520E+04  0.10000424328E+04 0.  0.
        4    1    3    3  502    0 -0.35236299228E+02 -0.49606928075E+03 -0.41483988561E+03  0.64762649087E+03  0.12699999809E+01 0.  1.
       -4    1    3    3    0  502  0.35236299228E+02  0.49606928075E+03 -0.28797755226E+03  0.57468166109E+03  0.12699999809E+01 0. -1.
</event>
<event>
 5   0  0.2473312E-04  0.9995547E+03  0.7818609E-02  0.9309033E-01
        2   -1    0    0  501    0  0.00000000000E+00  0.00000000000E+00  0.15616751049E+04  0.15616751049E+04  0.25500000920E-02 0.  1.
       -2   -1    0    0    0  501  0.00000000000E+00  0.00000000000E+00 -0.15994196719E+03  0.15994196721E+03  0.25500000920E-02 0. -1.
    10030    2    1    2    0    0  0.00000000000E+00  0.00000000000E+00  0.14017331377E+04  0.17216170721E+04  0.99955467766E+03 0.  0.
        5    1    3    3  502    0  0.12856289265E+03 -0.31790643199E+03  0.13270245675E+04  0.13706236571E+04  0.46999998093E+01 0.  1.
       -5    1    3    3    0  502 -0.12856289265E+03  0.31790643199E+03  0.74708570206E+02  0.35099341494E+03  0.46999998093E+01 0. -1.
</event>
<event>
 5   0  0.2473312E-04  0.1000059E+04  0.7818609E-02  0.9308480E-01
       -2   -1    0    0    0  501  0.00000000000E+00  0.00000000000E+00  0.24950846343E+03  0.24950846345E+03  0.25500000920E-02 0.  1.
        2   -1    0    0  501    0  0.00000000000E+00  0.00000000000E+00 -0.10020875905E+04  0.10020875905E+04  0.25500000920E-02 0. -1.
    10030    2    1    2    0    0  0.00000000000E+00  0.00000000000E+00 -0.75257912705E+03  0.12515960539E+04  0.10000586682E+04 0.  0.
        5    1    3    3  502    0 -0.37030162775E+02  0.16817494947E+03 -0.96377673270E+03  0.97905144251E+03  0.46999998093E+01 0. -1.
       -5    1    3    3    0  502  0.37030162775E+02 -0.16817494947E+03  0.21119760565E+03  0.27254461143E+03  0.46999998093E+01 0.  1.
</event>
<event>
 5   0  0.2484904E-04  0.9997920E+03  0.7818609E-02  0.9308773E-01
        2   -1    0    0  501    0  0.00000000000E+00  0.00000000000E+00  0.47977536871E+03  0.47977536872E+03  0.25500000920E-02 0.  1.
       -2   -1    0    0    0  501  0.00000000000E+00  0.00000000000E+00 -0.52086048377E+03  0.52086048378E+03  0.25500000920E-02 0. -1.
    10030    2    1    2    0    0  0.00000000000E+00  0.00000000000E+00 -0.41085115064E+02  0.10006358525E+04  0.99979203969E+03 0.  0.
        3    1    3    3  502    0 -0.27953521253E+02  0.21147337195E+03  0.43193815071E+03  0.48173951741E+03  0.10100000352E+00 0.  1.
       -3    1    3    3    0  502  0.27953521253E+02 -0.21147337195E+03 -0.47302326578E+03  0.51889633508E+03  0.10100000352E+00 0. -1.
</event>
<event>
 5   0  0.1414165E-04  0.9997135E+03  0.7818609E-02  0.9308859E-01
       -1   -1    0    0    0  501  0.00000000000E+00  0.00000000000E+00  0.52949238052E+03  0.52949238054E+03  0.50400001928E-02 0. -1.
        1   -1    0    0  501    0  0.00000000000E+00  0.00000000000E+00 -0.47187981956E+03  0.47187981959E+03  0.50400001928E-02 0.  1.
    10030    2    1    2    0    0  0.00000000000E+00  0.00000000000E+00  0.57612560960E+02  0.10013722001E+04  0.99971349697E+03 0.  0.
        4    1    3    3  502    0 -0.13069253109E+03  0.13529782589E+03 -0.43507020334E+03  0.47399760981E+03  0.12699999809E+01 0.  1.
       -4    1    3    3    0  502  0.13069253109E+03 -0.13529782589E+03  0.49268276430E+03  0.52737459032E+03  0.12699999809E+01 0. -1.
</event>
<event>
 5   0  0.1453863E-04  0.9999184E+03  0.7818609E-02  0.9308634E-01
        1   -1    0    0  501    0  0.00000000000E+00  0.00000000000E+00  0.18179502119E+04  0.18179502119E+04  0.50400001928E-02 0. -1.
       -1   -1    0    0    0  501  0.00000000000E+00  0.00000000000E+00 -0.13749508245E+03  0.13749508254E+03  0.50400001928E-02 0.  1.
    10030    2    1    2    0    0  0.00000000000E+00  0.00000000000E+00  0.16804551294E+04  0.19554452944E+04  0.99991842540E+03 0.  0.
        1    1    3    3  502    0  0.14170352563E+03 -0.65029231360E+02  0.17691923961E+04  0.17760491054E+04  0.50400001928E-02 0. -1.
       -1    1    3    3    0  502 -0.14170352563E+03  0.65029231360E+02 -0.88737266731E+02  0.17939618903E+03  0.50400001928E-02 0.  1.
</event>
<event>
 5   0  0.2503680E-04  0.9999438E+03  0.7818609E-02  0.9308606E-01
       -2   -1    0    0    0  501  0.00000000000E+00  0.00000000000E+00  0.55252642434E+03  0.55252642434E+03  0.25500000920E-02 0. -1.
        2   -1    0    0  501    0  0.00000000000E+00  0.00000000000E+00 -0.45241619649E+03  0.45241619649E+03  0.25500000920E-02 0.  1.
    10030    2    1    2    0    0  0.00000000000E+00  0.00000000000E+00  0.10011022785E+03  0.10049426208E+04  0.99994380515E+03 0.  0.
        2    1    3    3  502    0 -0.24620219751E+03  0.86134927309E+02  0.47872835221E+03  0.54517481873E+03  0.25500000920E-02 0. -1.
       -2    1    3    3    0  502  0.24620219751E+03 -0.86134927309E+02 -0.37861812436E+03  0.45976780211E+03  0.25500000920E-02 0.  1.
</event>
<event>
 5   0  0.2353916E-04  0.9996932E+03  0.7818609E-02  0.9308881E-01
       -2   -1    0    0    0  501  0.00000000000E+00  0.00000000000E+00  0.89579671117E+02  0.89579671153E+02  0.25500000920E-02 0. -1.
        2   -1    0    0  501    0  0.00000000000E+00  0.00000000000E+00 -0.27890997839E+04  0.27890997839E+04  0.25500000920E-02 0.  1.
    10030    2    1    2    0    0  0.00000000000E+00  0.00000000000E+00 -0.26995201128E+04  0.28786794551E+04  0.99969323577E+03 0.  0.
        4    1    3    3  502    0  0.16686465392E+03 -0.82561730665E+02 -0.13988085140E+02  0.18670171806E+03  0.12699999809E+01 0. -1.
       -4    1    3    3    0  502 -0.16686465392E+03  0.82561730665E+02 -0.26855320277E+04  0.26919777370E+04  0.12699999809E+01 0.  1.
</event>
<event>
 5   0  0.1430675E-04  0.1000099E+04  0.7818609E-02  0.9308436E-01
        1   -1    0    0  501    0  0.00000000000E+00  0.00000000000E+00  0.17241829586E+03  0.17241829594E+03  0.50400001928E-02 0.  1.
       -1   -1    0    0    0  501  0.00000000000E+00  0.00000000000E+00 -0.14502505163E+04  0.14502505163E+04  0.50400001928E-02 0. -1.
    10030    2    1    2    0    0  0.00000000000E+00  0.00000000000E+00 -0.12778322204E+04  0.16226688122E+04  0.10000994404E+04 0.  0.
        5    1    3    3  502    0 -0.14214579481E+03 -0.13932835802E+02  0.13858175234E+03  0.19906416798E+03  0.46999998093E+01 0.  1.
       -5    1    3    3    0  502  0.14214579481E+03  0.13932835802E+02 -0.14164139728E+04  0.14236046443E+04  0.46999998093E+01 0. -1.
</event>
<event>
 5   0  0.9650500E-05  0.9999879E+03  0.7818609E-02  0.9308558E-01
        3   -1    0    0  501    0  0.00000000000E+00  0.00000000000E+00  0.38112028444E+03  0.38112029782E+03  0.10100000352E+00 0.  1.
       -3   -1    0    0    0  501  0.00000000000E+00  0.00000000000E+00 -0.65594501906E+03  0.65594502683E+03  0.10100000352E+00 0. -1.
    10030    2    1    2    0    0  0.00000000000E+00  0.00000000000E+00 -0.27482473462E+03  0.10370653247E+04  0.99998792635E+03 0.  0.
        2    1    3    3  502    0  0.11075698914E+03  0.37336433514E+03 -0.46260850517E+03  0.60471039883E+03  0.25500000920E-02 0. -1.
       -2    1    3    3    0  502 -0.11075698914E+03 -0.37336433514E+03  0.18778377055E+03  0.43235492582E+03  0.25500000920E-02 0.  1.
</event>
<event>
 5   0  0.2353916E-04  0.1000070E+04  0.7818609E-02  0.9308468E-01
       -2   -1    0    0    0  501  0.00000000000E+00  0.00000000000E+00  0.58273156011E+03  0.58273156011E+03  0.25500000920E-02 0.  1.
        2   -1    0    0  501    0  0.00000000000E+00  0.00000000000E+00 -0.42907412796E+03  0.42907412796E+03  0.25500000920E-02 0. -1.
    10030    2    1    2    0    0  0.00000000000E+00  0.00000000000E+00  0.15365743215E+03  0.10118056881E+04  0.10000700695E+04 0.  0.
        4    1    3    3  502    0 -0.33988332490E+03 -0.18197575788E+03 -0.24533784767E+03  0.45697715851E+03  0.12699999809E+01 0. -1.
       -4    1    3    3    0  502  0.33988332490E+03  0.18197575788E+03  0.39899527982E+03  0.55482852957E+03  0.12699999809E+01 0.  1.
</event>
<event>
 5   0  0.1430675E-04  0.1000175E+04  0.7818609E-02  0.9308353E-01
       -1   -1    0    0    0  501  0.00000000000E+00  0.00000000000E+00  0.22979546356E+03  0.22979546362E+03  0.50400001928E-02 0. -1.
        1   -1    0    0  501    0  0.00000000000E+00  0.00000000000E+00 -0.10883038519E+04  0.10883038519E+04  0.50400001928E-02 0.  1.
    10030    2    1    2    0    0  0.00000000000E+00  0.00000000000E+00 -0.85850838832E+03  0.13180993155E+04  0.10001745611E+04 0.  0.
        5    1    3    3  502    0  0.55159813633E+02  0.16866378605E+02 -0.10838759799E+04  0.10854198770E+04  0.46999998093E+01 0.  1.
       -5    1    3    3    0  502 -0.55159813633E+02 -0.16866378605E+02  0.22536759154E+03  0.23267943846E+03  0.46999998093E+01 0. -1.
</event>
<event>
 5   0  0.1414165E-04  0.9993682E+03  0.7818609E-02  0.9309238E-01
        1   -1    0    0  501    0  0.00000000000E+00  0.00000000000E+00  0.79803353224E+03  0.79803353225E+03  0.50400001928E-02 0.  1.
       -1   -1    0    0    0  501  0.00000000000E+00  0.00000000000E+00 -0.31287429515E+03  0.31287429519E+03  0.50400001928E-02 0. -1.
    10030    2    1    2    0    0  0.00000000000E+00  0.00000000000E+00  0.48515923708E+03  0.11109078274E+04  0.99936815827E+03 0.  0.
        4    1    3    3  502    0 -0.26058835576E+03 -0.18748018755E+03  0.66823699701E+03  0.74134837220E+03  0.12699999809E+01 0.  1.
       -4    1    3    3    0  502  0.26058835576E+03  0.18748018755E+03 -0.18307775993E+03  0.36955945525E+03  0.12699999809E+01 0. -1.
</event>
<event>
 5   0  0.1414165E-04  0.1000413E+04  0.7818609E-02  0.9308092E-01
       -1   -1    0    0    0  501  0.00000000000E+00  0.00000000000E+00  0.59064152060E+03  0.59064152063E+03  0.50400001928E-02 0.  1.
        1   -1    0    0  501    0  0.00000000000E+00  0.00000000000E+00 -0.42361826864E+03  0.42361826867E+03  0.50400001928E-02 0. -1.
    10030    2    1    2    0    0  0.00000000000E+00  0.00000000000E+00  0.16702325196E+03  0.10142597893E+04  0.10004129915E+04 0.  0.
        4    1    3    3  502    0  0.44496028551E+03  0.72846792583E+02 -0.13607009701E+03  0.47097026983E+03  0.12699999809E+01 0. -1.
       -4    1    3    3    0  502 -0.44496028551E+03 -0.72846792583E+02  0.30309334897E+03  0.54328951946E+03  0.12699999809E+01 0.  1.
</event>
<event>
 5   0  0.1453863E-04  0.1001235E+04  0.7818609E-02  0.9307191E-01
        1   -1    0    0  501    0  0.00000000000E+00  0.00000000000E+00  0.94573551392E+03  0.94573551394E+03  0.50400001928E-02 0.  1.
       -1   -1    0    0    0  501  0.00000000000E+00  0.00000000000E+00 -0.26499797142E+03  0.26499797147E+03  0.50400001928E-02 0. -1.
    10030    2    1    2    0    0  0.00000000000E+00  0.00000000000E+00  0.68073754251E+03  0.12107334854E+04  0.10012352226E+04 0.  0.
        1    1    3    3  502    0 -0.26178620963E+02 -0.44730941424E+03  0.70388658006E+02  0.45356983526E+03  0.50400001928E-02 0. -1.
       -1    1    3    3    0  502  0.26178620963E+02  0.44730941424E+03  0.61034888450E+03  0.75716365014E+03  0.50400001928E-02 0.  1.
</event>
<event>
 5   0  0.1453863E-04  0.1000063E+04  0.7818609E-02  0.9308475E-01
       -1   -1    0    0    0  501  0.00000000000E+00  0.00000000000E+00  0.80095155465E+03  0.80095155467E+03  0.50400001928E-02 0.  1.
        1   -1    0    0  501    0  0.00000000000E+00  0.00000000000E+00 -0.31216830443E+03  0.31216830447E+03  0.50400001928E-02 0. -1.
    10030    2    1    2    0    0  0.00000000000E+00  0.00000000000E+00  0.48878325023E+03  0.11131198591E+04  0.10000633755E+04 0.  0.
        1    1    3    3  502    0 -0.90993134320E+02  0.36566795822E+03 -0.12145954649E+03  0.39591063085E+03  0.50400001928E-02 0.  1.
       -1    1    3    3    0  502  0.90993134320E+02 -0.36566795822E+03  0.61024279672E+03  0.71720922828E+03  0.50400001928E-02 0. -1.
</event>
<event>
 5   0  0.9650500E-05  0.1000053E+04  0.7818609E-02  0.9308487E-01
       -4   -1    0    0    0  501  0.00000000000E+00  0.00000000000E+00  0.74630854602E+03  0.74630962660E+03  0.12699999809E+01 0. -1.
        4   -1    0    0  501    0  0.00000000000E+00  0.00000000000E+00 -0.33501480396E+03  0.33501721116E+03  0.12699999809E+01 0.  1.
    10030    2    1    2    0    0  0.00000000000E+00  0.00000000000E+00  0.41129374205E+03  0.10813268378E+04  0.10000525925E+04 0.  0.
        4    1    3    3  502    0 -0.40086695398E+03 -0.11535934902E+03 -0.92482986299E+02  0.42726667300E+03  0.12699999809E+01 0.  1.
       -4    1    3    3    0  502  0.40086695398E+03  0.11535934902E+03  0.50377672835E+03  0.65406016476E+03  0.12699999809E+01 0. -1.
</event>
<event>
 5   0  0.1430675E-04  0.1000200E+04  0.7818609E-02  0.9308325E-01
       -1   -1    0    0    0  501  0.00000000000E+00  0.00000000000E+00  0.25127618238E+03  0.25127618243E+03  0.50400001928E-02 0. -1.
        1   -1    0    0  501    0  0.00000000000E+00  0.00000000000E+00 -0.99531972722E+03  0.99531972723E+03  0.50400001928E-02 0.  1.
    10030    2    1    2    0    0  0.00000000000E+00  0.00000000000E+00 -0.74404354484E+03  0.12465959097E+04  0.10002002626E+04 0.  0.
        5    1    3    3  502    0  0.33568546535E+03  0.36655304983E+02 -0.83173557232E+03  0.89768284783E+03  0.46999998093E+01 0.  1.
       -5    1    3    3    0  502 -0.33568546535E+03 -0.36655304983E+02  0.87692027486E+02  0.34891306183E+03  0.46999998093E+01 0. -1.
</event>
<event>
 5   0  0.2484904E-04  0.9998649E+03  0.7818609E-02  0.9308693E-01
        2   -1    0    0  501    0  0.00000000000E+00  0.00000000000E+00  0.51520794949E+03  0.51520794949E+03  0.25500000920E-02 0.  1.
       -2   -1    0    0    0  501  0.00000000000E+00  0.00000000000E+00 -0.48510984570E+03  0.48510984571E+03  0.25500000920E-02 0. -1.
    10030    2    1    2    0    0  0.00000000000E+00  0.00000000000E+00  0.30098103782E+02  0.10003177952E+04  0.99986488865E+03 0.  0.
        3    1    3    3  502    0  0.27552015794E+03  0.38335832325E+03  0.17961513325E+03  0.50511045102E+03  0.10100000352E+00 0.  1.
       -3    1    3    3    0  502 -0.27552015794E+03 -0.38335832325E+03 -0.14951702947E+03  0.49520734419E+03  0.10100000352E+00 0. -1.
</event>
<event>
 5   0  0.1506454E-04  0.1000217E+04  0.7818609E-02  0.9308306E-01
       -1   -1    0    0    0  501  0.00000000000E+00  0.00000000000E+00  0.36793589565E+03  0.36793589569E+03  0.50400001928E-02 0.  1.
        1   -1    0    0  501    0  0.00000000000E+00  0.00000000000E+00 -0.67976173896E+03  0.67976173898E+03  0.50400001928E-02 0. -1.
    10030    2    1    2    0    0  0.00000000000E+00  0.00000000000E+00 -0.31182584331E+03  0.10476976347E+04  0.10002174649E+04 0.  0.
        3    1    3    3  502    0  0.12629457445E+03  0.94834377872E+02 -0.65295348445E+03  0.67178280852E+03  0.10100000352E+00 0. -1.
       -3    1    3    3    0  502 -0.12629457445E+03 -0.94834377872E+02  0.34112764114E+03  0.37591482614E+03  0.10100000352E+00 0.  1.
</event>
<event>
 5   0  0.9650500E-05  0.1000334E+04  0.7818609E-02  0.9308178E-01
        4   -1    0    0  501    0  0.00000000000E+00  0.00000000000E+00  0.35806502310E+03  0.35806727534E+03  0.12699999809E+01 0.  1.
       -4   -1    0    0    0  501  0.00000000000E+00  0.00000000000E+00 -0.69865893167E+03  0.69866008595E+03  0.12699999809E+01 0. -1.
    10030    2    1    2    0    0  0.00000000000E+00  0.00000000000E+00 -0.34059390857E+03  0.10567273613E+04  0.10003341969E+04 0.  0.
        5    1    3    3  502    0 -0.36725948235E+03  0.25029148984E+03  0.72024537859E+02  0.45026101465E+03  0.46999998093E+01 0.  1.
       -5    1    3    3    0  502  0.36725948235E+03 -0.25029148984E+03 -0.41261844643E+03  0.60646634663E+03  0.46999998093E+01 0. -1.
</event>
<event>
 5   0  0.2473312E-04  0.1000299E+04  0.7818609E-02  0.9308217E-01
       -2   -1    0    0    0  501  0.00000000000E+00  0.00000000000E+00  0.39907930226E+03  0.39907930227E+03  0.25500000920E-02 0. -1.
        2   -1    0    0  501    0  0.00000000000E+00  0.00000000000E+00 -0.62681648485E+03  0.62681648485E+03  0.25500000920E-02 0.  1.
    10030    2    1    2    0    0  0.00000000000E+00  0.00000000000E+00 -0.22773718259E+03  0.10258957871E+04  0.10002989262E+04 0.  0.
        5    1    3    3  502    0 -0.22813237389E+03  0.40925153242E+03  0.65525105501E+02  0.47312453567E+03  0.46999998093E+01 0.  1.
       -5    1    3    3    0  502  0.22813237389E+03 -0.40925153242E+03 -0.29326228809E+03  0.55277125144E+03  0.46999998093E+01 0. -1.
</event>
<event>
 5   0  0.2484904E-04  0.9995132E+03  0.7818609E-02  0.9309079E-01
        2   -1    0    0  501    0  0.00000000000E+00  0.00000000000E+00  0.10778506457E+04  0.10778506457E+04  0.25500000920E-02 0.  1.
       -2   -1    0    0    0  501  0.00000000000E+00  0.00000000000E+00 -0.23171731094E+03  0.23171731096E+03  0.25500000920E-02 0. -1.
    10030    2    1    2    0    0  0.00000000000E+00  0.00000000000E+00  0.84613333472E+03  0.13095679566E+04  0.99951318795E+03 0.  0.
        3    1    3    3  502    0 -0.46336124363E+02 -0.20438783979E+03 -0.17136146169E+03  0.27071421504E+03  0.10100000352E+00 0. -1.
       -3    1    3    3    0  502  0.46336124363E+02  0.20438783979E+03  0.10174947964E+04  0.10388537416E+04  0.10100000352E+00 0.  1.
</event>
<event>
 5   0  0.1453863E-04  0.1001638E+04  0.7818609E-02  0.9306750E-01
       -1   -1    0    0    0  501  0.00000000000E+00  0.00000000000E+00  0.13865343565E+03  0.13865343574E+03  0.50400001928E-02 0.  1.
        1   -1    0    0  501    0  0.00000000000E+00  0.00000000000E+00 -0.18089682549E+04  0.18089682549E+04  0.50400001928E-02 0. -1.
    10030    2    1    2    0    0  0.00000000000E+00  0.00000000000E+00 -0.16703148193E+04  0.19476216907E+04  0.10016379858E+04 0.  0.
        1    1    3    3  502    0 -0.29465366761E+03  0.33405982056E+03 -0.39004311281E+03  0.59207294941E+03  0.50400001928E-02 0.  1.
       -1    1    3    3    0  502  0.29465366761E+03 -0.33405982056E+03 -0.12802717064E+04  0.13555487412E+04  0.50400001928E-02 0. -1.
</event>
<event>
 5   0  0.2353916E-04  0.9998607E+03  0.7818609E-02  0.9308698E-01
       -2   -1    0    0    0  501  0.00000000000E+00  0.00000000000E+00  0.76247888097E+03  0.76247888098E+03  0.25500000920E-02 0. -1.
        2   -1    0    0  501    0  0.00000000000E+00  0.00000000000E+00 -0.32778661040E+03  0.32778661041E+03  0.25500000920E-02 0.  1.
    10030    2    1    2    0    0  0.00000000000E+00  0.00000000000E+00  0.43469227057E+03  0.10902654914E+04  0.99986072611E+03 0.  0.
        4    1    3    3  502    0  0.44355664134E+03 -0.20463042398E+03  0.33332395538E+03  0.59137346628E+03  0.12699999809E+01 0. -1.
       -4    1    3    3    0  502 -0.44355664134E+03  0.20463042398E+03  0.10136831519E+03  0.49889202511E+03  0.12699999809E+01 0.  1.
</event>
<event>
 5   0  0.2403037E-04  0.9998403E+03  0.7818609E-02  0.9308720E-01
        2   -1    0    0  501    0  0.00000000000E+00  0.00000000000E+00  0.35969194358E+03  0.35969194359E+03  0.25500000920E-02 0. -1.
       -2   -1    0    0    0  501  0.00000000000E+00  0.00000000000E+00 -0.69481717502E+03  0.69481717502E+03  0.25500000920E-02 0.  1.
    10030    2    1    2    0    0  0.00000000000E+00  0.00000000000E+00 -0.33512523144E+03  0.10545091186E+04  0.99984026748E+03 0.  0.
        1    1    3    3  502    0  0.61885030562E+02  0.22353383789E+03 -0.63463478137E+03  0.67569108285E+03  0.50400001928E-02 0.  1.
       -1    1    3    3    0  502 -0.61885030562E+02 -0.22353383789E+03  0.29950954993E+03  0.37881803576E+03  0.50400001928E-02 0. -1.
</event>
<event>
 5   0  0.2484904E-04  0.9982958E+03  0.7818609E-02  0.9310416E-01
        2   -1    0    0  501    0  0.00000000000E+00  0.00000000000E+00  0.31912437462E+03  0.31912437463E+03  0.25500000920E-02 0.  1.
       -2   -1    0    0    0  501  0.00000000000E+00  0.00000000000E+00 -0.78072575059E+03  0.78072575060E+03  0.25500000920E-02 0. -1.
    10030    2    1    2    0    0  0.00000000000E+00  0.00000000000E+00 -0.46160137597E+03  0.10998501252E+04  0.99829578165E+03 0.  0.
        3    1    3    3  502    0 -0.34475749919E+03  0.13078066553E+03  0.13985707937E+03  0.39436192587E+03  0.10100000352E+00 0.  1.
       -3    1    3    3    0  502  0.34475749919E+03 -0.13078066553E+03 -0.60145845535E+03  0.70548819936E+03  0.10100000352E+00 0. -1.
</event>
<event>
 5   0  0.1430675E-04  0.9998172E+03  0.7818609E-02  0.9308745E-01
        1   -1    0    0  501    0  0.00000000000E+00  0.00000000000E+00  0.55389277808E+03  0.55389277810E+03  0.50400001928E-02 0. -1.
       -1   -1    0    0    0  501  0.00000000000E+00  0.00000000000E+00 -0.45118587498E+03  0.45118587501E+03  0.50400001928E-02 0.  1.
    10030    2    1    2    0    0  0.00000000000E+00  0.00000000000E+00  0.10270690310E+03  0.10050786531E+04  0.99981717879E+03 0.  0.
        5    1    3    3  502    0  0.10104551751E+03  0.48481897329E+03 -0.17025636462E+02  0.49555180937E+03  0.46999998093E+01 0.  1.
       -5    1    3    3    0  502 -0.10104551751E+03 -0.48481897329E+03  0.11973253956E+03  0.50952684375E+03  0.46999998093E+01 0. -1.
</event>
<event>
 5   0  0.1461334E-04  0.9994009E+03  0.7818609E-02  0.9309202E-01
        1   -1    0    0  501    0  0.00000000000E+00  0.00000000000E+00  0.85743284678E+03  0.85743284680E+03  0.50400001928E-02 0. -1.
       -1   -1    0    0    0  501  0.00000000000E+00  0.00000000000E+00 -0.29121876128E+03  0.29121876132E+03  0.50400001928E-02 0.  1.
    10030    2    1    2    0    0  0.00000000000E+00  0.00000000000E+00  0.56621408551E+03  0.11486516081E+04  0.99940088363E+03 0.  0.
        2    1    3    3  502    0  0.48357627279E+03 -0.30889005475E+02  0.42340372576E+03  0.64348337760E+03  0.25500000920E-02 0. -1.
       -2    1    3    3    0  502 -0.48357627279E+03  0.30889005475E+02  0.14281035975E+03  0.50516823051E+03  0.25500000920E-02 0.  1.
</event>
<event>
 5   0  0.1453863E-04  0.9984567E+03  0.7818609E-02  0.9310239E-01
       -1   -1    0    0    0  501  0.00000000000E+00  0.00000000000E+00  0.34981105736E+03  0.34981105739E+03  0.50400001928E-02 0.  1.
        1   -1    0    0  501    0  0.00000000000E+00  0.00000000000E+00 -0.71246725506E+03  0.71246725508E+03  0.50400001928E-02 0. -1.
    10030    2    1    2    0    0  0.00000000000E+00  0.00000000000E+00 -0.36265619771E+03  0.10622783125E+04  0.99845665676E+03 0.  0.
        1    1    3    3  502    0 -0.20679847636E+03 -0.44625717730E+03 -0.90315666251E+02  0.50006799309E+03  0.50400001928E-02 0.  1.
       -1    1    3    3    0  502  0.20679847636E+03  0.44625717730E+03 -0.27234053146E+03  0.56221031938E+03  0.50400001928E-02 0. -1.
</event>
<event>
 5   0  0.2503680E-04  0.1000719E+04  0.7818609E-02  0.9307757E-01
        2   -1    0    0  501    0  0.00000000000E+00  0.00000000000E+00  0.84281510356E+03  0.84281510357E+03  0.25500000920E-02 0.  1.
       -2   -1    0    0    0  501  0.00000000000E+00  0.00000000000E+00 -0.29705160759E+03  0.29705160760E+03  0.25500000920E-02 0. -1.
    10030    2    1    2    0    0  0.00000000000E+00  0.00000000000E+00  0.54576349598E+03  0.11398667112E+04  0.10007189044E+04 0.  0.
        2    1    3    3  502    0 -0.50397696893E+02 -0.24597160619E+03  0.76586400076E+03  0.80597123184E+03  0.25500000920E-02 0.  1.
       -2    1    3    3    0  502  0.50397696893E+02  0.24597160619E+03 -0.22010050478E+03  0.33389547932E+03  0.25500000920E-02 0. -1.
</event>
<event>
 5   0  0.2353916E-04  0.9999067E+03  0.7818609E-02  0.9308647E-01
       -2   -1    0    0    0  501  0.00000000000E+00  0.00000000000E+00  0.41354204629E+03  0.41354204630E+03  0.25500000920E-02 0. -1.
        2   -1    0    0  501    0  0.00000000000E+00  0.00000000000E+00 -0.60442067346E+03  0.60442067347E+03  0.25500000920E-02 0.  1.
    10030    2    1    2    0    0  0.00000000000E+00  0.00000000000E+00 -0.19087862717E+03  0.10179627198E+04  0.99990671991E+03 0.  0.
        4    1    3    3  502    0  0.13678400825E+03  0.47102008350E+03  0.31703089601E+01  0.49049102717E+03  0.12699999809E+01 0. -1.
       -4    1    3    3    0  502 -0.13678400825E+03 -0.47102008350E+03 -0.19404893613E+03  0.52747169259E+03  0.12699999809E+01 0.  1.
</event>
<event>
 5   0  0.1461334E-04  0.1000462E+04  0.7818609E-02  0.9308039E-01
        1   -1    0    0  501    0  0.00000000000E+00  0.00000000000E+00  0.59863093999E+03  0.59863094001E+03  0.50400001928E-02 0. -1.
       -1   -1    0    0    0  501  0.00000000000E+00  0.00000000000E+00 -0.41800513309E+03  0.41800513312E+03  0.50400001928E-02 0.  1.
    10030    2    1    2    0    0  0.00000000000E+00  0.00000000000E+00  0.18062580690E+03  0.10166360731E+04  0.10004615050E+04 0.  0.
        2    1    3    3  502    0 -0.31567288997E+03  0.35854327897E+03 -0.60505430695E+02  0.48152213189E+03  0.25500000920E-02 0.  1.
       -2    1    3    3    0  502  0.31567288997E+03 -0.35854327897E+03  0.24113123760E+03  0.53511394124E+03  0.25500000920E-02 0. -1.
</event>
<event>
 5   0  0.9650500E-05  0.1000169E+04  0.7818609E-02  0.9308359E-01
        3   -1    0    0  501    0  0.00000000000E+00  0.00000000000E+00  0.38176596871E+03  0.38176598207E+03  0.10100000352E+00 0. -1.
       -3   -1    0    0    0  501  0.00000000000E+00  0.00000000000E+00 -0.65507300536E+03  0.65507301314E+03  0.10100000352E+00 0.  1.
    10030    2    1    2    0    0  0.00000000000E+00  0.00000000000E+00 -0.27330703664E+03  0.10368389952E+04  0.10001691686E+04 0.  0.
        5    1    3    3  502    0  0.13767404171E+03 -0.31922029529E+03  0.23597876914E+03  0.42019496447E+03  0.46999998093E+01 0. -1.
       -5    1    3    3    0  502 -0.13767404171E+03  0.31922029529E+03 -0.50928580579E+03  0.61664403075E+03  0.46999998093E+01 0.  1.
</event>
<event>
 5   0  0.1430675E-04  0.1000639E+04  0.7818609E-02  0.9307844E-01
        1   -1    0    0  501    0  0.00000000000E+00  0.00000000000E+00  0.12194449443E+04  0.12194449443E+04  0.50400001928E-02 0. -1.
       -1   -1    0    0    0  501  0.00000000000E+00  0.00000000000E+00 -0.20527341788E+03  0.20527341794E+03  0.50400001928E-02 0.  1.
    10030    2    1    2    0    0  0.00000000000E+00  0.00000000000E+00  0.10141715264E+04  0.14247183622E+04  0.10006390592E+04 0.  0.
        5    1    3    3  502    0  0.95058837871E+02 -0.10032044801E+03  0.11916951102E+04  0.11996915022E+04  0.46999998093E+01 0. -1.
       -5    1    3    3    0  502 -0.95058837871E+02  0.10032044801E+03 -0.17752358375E+03  0.22502686002E+03  0.46999998093E+01 0.  1.
</event>
<event>
 5   0  0.1461334E-04  0.9997629E+03  0.7818609E-02  0.9308805E-01
        1   -1    0    0  501    0  0.00000000000E+00  0.00000000000E+00  0.10806187147E+04  0.10806187147E+04  0.50400001928E-02 0.  1.
       -1   -1    0    0    0  501  0.00000000000E+00  0.00000000000E+00 -0.23123925219E+03  0.23123925224E+03  0.50400001928E-02 0. -1.
    10030    2    1    2    0    0  0.00000000000E+00  0.00000000000E+00  0.84937946248E+03  0.13118579669E+04  0.99976289894E+03 0.  0.
        2    1    3    3  502    0 -0.47766390998E+01  0.49411414851E+03  0.52384193219E+03  0.72012636250E+03  0.25500000920E-02 0.  1.
       -2    1    3    3    0  502  0.47766390998E+01 -0.49411414851E+03  0.32553753029E+03  0.59173160442E+03  0.25500000920E-02 0. -1.
</event>
<event>
 5   0  0.9650500E-05  0.1000246E+04  0.7818609E-02  0.9308275E-01
       -3   -1    0    0    0  501  0.00000000000E+00  0.00000000000E+00  0.27450459997E+03  0.27450461855E+03  0.10100000352E+00 0. -1.
        3   -1    0    0  501    0  0.00000000000E+00  0.00000000000E+00 -0.91117999771E+03  0.91118000331E+03  0.10100000352E+00 0.  1.
    10030    2    1    2    0    0  0.00000000000E+00  0.00000000000E+00 -0.63667539774E+03  0.11856846219E+04  0.10002461999E+04 0.  0.
        2    1    3    3  502    0 -0.18791884633E+03  0.18918067652E+03 -0.81988674640E+03  0.86215839502E+03  0.25500000920E-02 0.  1.
       -2    1    3    3    0  502  0.18791884633E+03 -0.18918067652E+03  0.18321134865E+03  0.32352622684E+03  0.25500000920E-02 0. -1.
</event>
<event>
 5   0  0.2503680E-04  0.1001212E+04  0.7818609E-02  0.9307217E-01
        2   -1    0    0  501    0  0.00000000000E+00  0.00000000000E+00  0.21493273421E+04  0.21493273421E+04  0.25500000920E-02 0.  1.
       -2   -1    0    0    0  501  0.00000000000E+00  0.00000000000E+00 -0.11659749050E+03  0.11659749053E+03  0.25500000920E-02 0. -1.
    10030    2    1    2    0    0  0.00000000000E+00  0.00000000000E+00  0.20327298516E+04  0.22659248327E+04  0.10012116148E+04 0.  0.
        2    1    3    3  502    0 -0.46398512309E+03  0.18142938518E+03  0.90532223654E+03  0.10333475544E+04  0.25500000920E-02 0. -1.
       -2    1    3    3    0  502  0.46398512309E+03 -0.18142938518E+03  0.11274076151E+04  0.12325772782E+04  0.25500000920E-02 0.  1.
</event>
<event>
 5   0  0.2484904E-04  0.9998196E+03  0.7818609E-02  0.9308743E-01
       -2   -1    0    0    0  501  0.00000000000E+00  0.00000000000E+00  0.63501781192E+03  0.63501781193E+03  0.25500000920E-02 0. -1.
        2   -1    0    0  501    0  0.00000000000E+00  0.00000000000E+00 -0.39354774054E+03  0.39354774055E+03  0.25500000920E-02 0.  1.
    10030    2    1    2    0    0  0.00000000000E+00  0.00000000000E+00  0.24147007138E+03  0.10285655525E+04  0.99981963392E+03 0.  0.
        3    1    3    3  502    0  0.23140469225E+03 -0.16546606412E+03  0.54362890751E+03  0.61356299534E+03  0.10100000352E+00 0. -1.
       -3    1    3    3    0  502 -0.23140469225E+03  0.16546606412E+03 -0.30215883613E+03  0.41500255713E+03  0.10100000352E+00 0.  1.
</event>
<event>
 5   0  0.2503680E-04  0.9995368E+03  0.7818609E-02  0.9309053E-01
       -2   -1    0    0    0  501  0.00000000000E+00  0.00000000000E+00  0.54932141399E+03  0.54932141400E+03  0.25500000920E-02 0.  1.
        2   -1    0    0  501    0  0.00000000000E+00  0.00000000000E+00 -0.45468546634E+03  0.45468546635E+03  0.25500000920E-02 0. -1.
    10030    2    1    2    0    0  0.00000000000E+00  0.00000000000E+00  0.94635947651E+02  0.10040068804E+04  0.99953681933E+03 0.  0.
        2    1    3    3  502    0  0.23625555942E+03 -0.13980054840E+03  0.46680696813E+03  0.54154374541E+03  0.25500000920E-02 0.  1.
       -2    1    3    3    0  502 -0.23625555942E+03  0.13980054840E+03 -0.37217102048E+03  0.46246313494E+03  0.25500000920E-02 0. -1.
</event>
<event>
 5   0  0.1506454E-04  0.9999153E+03  0.7818609E-02  0.9308638E-01
       -1   -1    0    0    0  501  0.00000000000E+00  0.00000000000E+00  0.22474125396E+03  0.22474125401E+03  0.50400001928E-02 0.  1.
        1   -1    0    0  501    0  0.00000000000E+00  0.00000000000E+00 -0.11122018003E+04  0.11122018003E+04  0.50400001928E-02 0. -1.
    10030    2    1    2    0    0  0.00000000000E+00  0.00000000000E+00 -0.88746054634E+03  0.13369430543E+04  0.99991525100E+03 0.  0.
        3    1    3    3  502    0 -0.88531189782E+02  0.42399824871E+03 -0.77758050574E+03  0.89008074891E+03  0.10100000352E+00 0. -1.
       -3    1    3    3    0  502  0.88531189782E+02 -0.42399824871E+03 -0.10988004060E+03  0.44686230541E+03  0.10100000352E+00 0.  1.
</event>
<event>
 5   0  0.1430675E-04  0.1000157E+04  0.7818609E-02  0.9308373E-01
        1   -1    0    0  501    0  0.00000000000E+00  0.00000000000E+00  0.16951401300E+03  0.16951401308E+03  0.50400001928E-02 0. -1.
       -1   -1    0    0    0  501  0.00000000000E+00  0.00000000000E+00 -0.14752667453E+04  0.14752667453E+04  0.50400001928E-02 0.  1.
    10030    2    1    2    0    0  0.00000000000E+00  0.00000000000E+00 -0.13057527323E+04  0.16447807584E+04  0.10001567603E+04 0.  0.
        5    1    3    3  502    0 -0.17483523417E+03  0.34316124407E+03 -0.12835526388E+03  0.40598542130E+03  0.46999998093E+01 0. -1.
       -5    1    3    3    0  502  0.17483523417E+03 -0.34316124407E+03 -0.11773974684E+04  0.12387953371E+04  0.46999998093E+01 0.  1.
</event>
<event>
 5   0  0.2473312E-04  0.9990129E+03  0.7818609E-02  0.9309628E-01
       -2   -1    0    0    0  501  0.00000000000E+00  0.00000000000E+00  0.13367865293E+03  0.13367865295E+03  0.25500000920E-02 0.  1.
        2   -1    0    0  501    0  0.00000000000E+00  0.00000000000E+00 -0.18664664257E+04  0.18664664257E+04  0.25500000920E-02 0. -1.
    10030    2    1    2    0    0  0.00000000000E+00  0.00000000000E+00 -0.17327877728E+04  0.20001450786E+04  0.99901294795E+03 0.  0.
        5    1    3    3  502    0  0.19903625320E+03  0.18851224555E+03 -0.17023420521E+04  0.17242803859E+04  0.46999998093E+01 0. -1.
       -5    1    3    3    0  502 -0.19903625320E+03 -0.18851224555E+03 -0.30445720679E+02  0.27586469277E+03  0.46999998093E+01 0.  1.
</event>
<event>
 5   0  0.1430675E-04  0.9991180E+03  0.7818609E-02  0.9309513E-01
        1   -1    0    0  501    0  0.00000000000E+00  0.00000000000E+00  0.60826248333E+03  0.60826248335E+03  0.50400001928E-02 0. -1.
       -1   -1    0    0    0  501  0.00000000000E+00  0.00000000000E+00 -0.41028210854E+03  0.41028210857E+03  0.50400001928E-02 0.  1.
    10030    2    1    2    0    0  0.00000000000E+00  0.00000000000E+00  0.19798037479E+03  0.10185445919E+04  0.99911803954E+03 0.  0.
        5    1    3    3  502    0  0.16950678592E+03 -0.17074869158E+03 -0.34729969834E+03  0.42252436215E+03  0.46999998093E+01 0.  1.
       -5    1    3    3    0  502 -0.16950678592E+03  0.17074869158E+03  0.54528007312E+03  0.59602022977E+03  0.46999998093E+01 0. -1.
</event>
<event>
 5   0  0.1461334E-04  0.1003049E+04  0.7818609E-02  0.9305207E-01
       -1   -1    0    0    0  501  0.00000000000E+00  0.00000000000E+00  0.27989089444E+03  0.27989089448E+03  0.50400001928E-02 0. -1.
        1   -1    0    0  501    0  0.00000000000E+00  0.00000000000E+00 -0.89866104274E+03  0.89866104275E+03  0.50400001928E-02 0.  1.
    10030    2    1    2    0    0  0.00000000000E+00  0.00000000000E+00 -0.61877014830E+03  0.11785519372E+04  0.10030494366E+04 0.  0.
        2    1    3    3  502    0 -0.11057425246E+03 -0.42946757909E+03 -0.58458371136E+03  0.73376234735E+03  0.25500000920E-02 0.  1.
       -2    1    3    3    0  502  0.11057425246E+03  0.42946757909E+03 -0.34186436941E+02  0.44478958988E+03  0.25500000920E-02 0. -1.
</event>
<event>
 5   0  0.2473312E-04  0.9996386E+03  0.7818609E-02  0.9308941E-01
        2   -1    0    0  501    0  0.00000000000E+00  0.00000000000E+00  0.15687017594E+03  0.15687017596E+03  0.25500000920E-02 0.  1.
       -2   -1    0    0    0  501  0.00000000000E+00  0.00000000000E+00 -0.15925228045E+04  0.15925228045E+04  0.25500000920E-02 0. -1.
    10030    2    1    2    0    0  0.00000000000E+00  0.00000000000E+00 -0.14356526286E+04  0.17493929805E+04  0.99963859979E+03 0.  0.
        5    1    3    3  502    0 -0.33561213991E+03 -0.25104705730E+03 -0.11943255251E+04  0.12657391846E+04  0.46999998093E+01 0. -1.
       -5    1    3    3    0  502  0.33561213991E+03  0.25104705730E+03 -0.24132710350E+03  0.48365379593E+03  0.46999998093E+01 0.  1.
</event>
<event>
 5   0  0.1453863E-04  0.9999122E+03  0.7818609E-02  0.9308641E-01
        1   -1    0    0  501    0  0.00000000000E+00  0.00000000000E+00  0.84741624584E+03  0.84741624586E+03  0.50400001928E-02 0. -1.
       -1   -1    0    0    0  501  0.00000000000E+00  0.00000000000E+00 -0.29496261225E+03  0.29496261230E+03  0.50400001928E-02 0.  1.
    10030    2    1    2    0    0  0.00000000000E+00  0.00000000000E+00  0.55245363359E+03  0.11423788582E+04  0.99991221530E+03 0.  0.
        1    1    3    3  502    0 -0.39004152034E+03  0.31207896277E+03  0.25252366554E+03  0.55972660136E+03  0.50400001928E-02 0.  1.
       -1    1    3    3    0  502  0.39004152034E+03 -0.31207896277E+03  0.29992996805E+03  0.58265225679E+03  0.50400001928E-02 0. -1.
</event>
<event>
 5   0  0.2484904E-04  0.1000126E+04  0.7818609E-02  0.9308407E-01
        2   -1    0    0  501    0  0.00000000000E+00  0.00000000000E+00  0.93369778984E+03  0.93369778984E+03  0.25500000920E-02 0.  1.
       -2   -1    0    0    0  501  0.00000000000E+00  0.00000000000E+00 -0.26781992953E+03  0.26781992954E+03  0.25500000920E-02 0. -1.
    10030    2    1    2    0    0  0.00000000000E+00  0.00000000000E+00  0.66587786031E+03  0.12015177194E+04  0.10001257447E+04 0.  0.
        3    1    3    3  502    0 -0.44285652229E+03  0.22846196403E+03  0.28273822145E+03  0.57293776313E+03  0.10100000352E+00 0. -1.
       -3    1    3    3    0  502  0.44285652229E+03 -0.22846196403E+03  0.38313963885E+03  0.62857995625E+03  0.10100000352E+00 0.  1.
</event>
<event>
 5   0  0.2403037E-04  0.1000056E+04  0.7818609E-02  0.9308483E-01
       -2   -1    0    0    0  501  0.00000000000E+00  0.00000000000E+00  0.18197470571E+03  0.18197470573E+03  0.25500000920E-02 0.  1.
        2   -1    0    0  501    0  0.00000000000E+00  0.00000000000E+00 -0.13739725458E+04  0.13739725458E+04  0.25500000920E-02 0. -1.
    10030    2    1    2    0    0  0.00000000000E+00  0.00000000000E+00 -0.11919978400E+04  0.15559472515E+04  0.10000564978E+04 0.  0.
        1    1    3    3  502    0  0.10413015196E+03 -0.48683494437E+03 -0.66859102319E+03  0.83358581318E+03  0.50400001928E-02 0. -1.
       -1    1    3    3    0  502 -0.10413015196E+03  0.48683494437E+03 -0.52340681685E+03  0.72236143831E+03  0.50400001928E-02 0.  1.
</event>
<event>
 5   0  0.2484904E-04  0.1001073E+04  0.7818609E-02  0.9307369E-01
        2   -1    0    0  501    0  0.00000000000E+00  0.00000000000E+00  0.81764135961E+03  0.81764135961E+03  0.25500000920E-02 0.  1.
       -2   -1    0    0    0  501  0.00000000000E+00  0.00000000000E+00 -0.30641402404E+03  0.30641402405E+03  0.25500000920E-02 0. -1.
    10030    2    1    2    0    0  0.00000000000E+00  0.00000000000E+00  0.51122733557E+03  0.11240553837E+04  0.10010729828E+04 0.  0.
        3    1    3    3  502    0 -0.28318833057E+03  0.30896550879E+03 -0.51648507089E+02  0.42228295570E+03  0.10100000352E+00 0. -1.
       -3    1    3    3    0  502  0.28318833057E+03 -0.30896550879E+03  0.56287584265E+03  0.70177242796E+03  0.10100000352E+00 0.  1.
</event>
<event>
 5   0  0.9650500E-05  0.1000201E+04  0.7818609E-02  0.9308325E-01
        4   -1    0    0  501    0  0.00000000000E+00  0.00000000000E+00  0.29710526425E+03  0.29710797859E+03  0.12699999809E+01 0.  1.
       -4   -1    0    0    0  501  0.00000000000E+00  0.00000000000E+00 -0.84178327813E+03  0.84178423616E+03  0.12699999809E+01 0. -1.
    10030    2    1    2    0    0  0.00000000000E+00  0.00000000000E+00 -0.54467801389E+03  0.11388922148E+04  0.10002006489E+04 0.  0.
        1    1    3    3  502    0  0.41488247386E+03  0.81584018957E+02  0.31743731072E+02  0.42401778707E+03  0.50400001928E-02 0.  1.
       -1    1    3    3    0  502 -0.41488247386E+03 -0.81584018957E+02 -0.57642174496E+03  0.71487442768E+03  0.50400001928E-02 0. -1.
</event>
<event>
 5   0  0.2353916E-04  0.1000594E+04  0.7818609E-02  0.9307894E-01
       -2   -1    0    0    0  501  0.00000000000E+00  0.00000000000E+00  0.44973103995E+03  0.44973103996E+03  0.25500000920E-02 0. -1.
        2   -1    0    0  501    0  0.00000000000E+00  0.00000000000E+00 -0.55654799126E+03  0.55654799127E+03  0.25500000920E-02 0.  1.
    10030    2    1    2    0    0  0.00000000000E+00  0.00000000000E+00 -0.10681695131E+03  0.10062790312E+04  0.10005936376E+04 0.  0.
        4    1    3    3  502    0 -0.45375585911E+03 -0.12328030436E+03  0.11845102058E+03  0.48489655628E+03  0.12699999809E+01 0. -1.
       -4    1    3    3    0  502  0.45375585911E+03  0.12328030436E+03 -0.22526797190E+03  0.52138247494E+03  0.12699999809E+01 0.  1.
</event>
<event>
 5   0  0.1430675E-04  0.9997694E+03  0.7818609E-02  0.9308798E-01
       -1   -1    0    0    0  501  0.00000000000E+00  0.00000000000E+00  0.20747813306E+03  0.20747813312E+03  0.50400001928E-02 0. -1.
        1   -1    0    0  501    0  0.00000000000E+00  0.00000000000E+00 -0.12043906396E+04  0.12043906396E+04  0.50400001928E-02 0.  1.
    10030    2    1    2    0    0  0.00000000000E+00  0.00000000000E+00 -0.99691250656E+03  0.14118687728E+04  0.99976941628E+03 0.  0.
        5    1    3    3  502    0 -0.41828763048E+03 -0.27361908835E+03 -0.49063365028E+03  0.70041089091E+03  0.46999998093E+01 0. -1.
       -5    1    3    3    0  502  0.41828763048E+03  0.27361908835E+03 -0.50627885628E+03  0.71145788184E+03  0.46999998093E+01 0.  1.
</event>
<event>
 5   0  0.9650500E-05  0.9995811E+03  0.7818609E-02  0.9309004E-01
        4   -1    0    0  501    0  0.00000000000E+00  0.00000000000E+00  0.12071910001E+04  0.12071916681E+04  0.12699999809E+01 0. -1.
       -4   -1    0    0    0  501  0.00000000000E+00  0.00000000000E+00 -0.20691618186E+03  0.20692007929E+03  0.12699999809E+01 0.  1.
    10030    2    1    2    0    0  0.00000000000E+00  0.00000000000E+00  0.10002748183E+04  0.14141117474E+04  0.99958107336E+03 0.  0.
        2    1    3    3  502    0  0.14799748858E+03  0.10424324585E+03 -0.15890939037E+03  0.24087778081E+03  0.25500000920E-02 0.  1.
       -2    1    3    3    0  502 -0.14799748858E+03 -0.10424324585E+03  0.11591842086E+04  0.11732339666E+04  0.25500000920E-02 0. -1.
</event>
<event>
 5   0  0.9650500E-05  0.1000298E+04  0.7818609E-02  0.9308218E-01
       -3   -1    0    0    0  501  0.00000000000E+00  0.00000000000E+00  0.55804393963E+03  0.55804394877E+03  0.10100000352E+00 0. -1.
        3   -1    0    0  501    0  0.00000000000E+00  0.00000000000E+00 -0.44826061103E+03  0.44826062241E+03  0.10100000352E+00 0.  1.
    10030    2    1    2    0    0  0.00000000000E+00  0.00000000000E+00  0.10978332861E+03  0.10063045712E+04  0.10002982109E+04 0.  0.
        1    1    3    3  502    0  0.14567684292E+03 -0.23225611569E+03 -0.36593158111E+03  0.45724235140E+03  0.50400001928E-02 0.  1.
       -1    1    3    3    0  502 -0.14567684292E+03  0.23225611569E+03  0.47571490972E+03  0.54906221978E+03  0.50400001928E-02 0. -1.
</event>
<event>
 5   0  0.9650500E-05  0.1000716E+04  0.7818609E-02  0.9307760E-01
       -3   -1    0    0    0  501  0.00000000000E+00  0.00000000000E+00  0.14096002609E+04  0.14096002645E+04  0.10100000352E+00 0.  1.
        3   -1    0    0  501    0  0.00000000000E+00  0.00000000000E+00 -0.17760923380E+03  0.17760926252E+03  0.10100000352E+00 0. -1.
    10030    2    1    2    0    0  0.00000000000E+00  0.00000000000E+00  0.12319910270E+04  0.15872095270E+04  0.10007158397E+04 0.  0.
        3    1    3    3  502    0 -0.65876793088E+02  0.18979144333E+03  0.13428216626E+04  0.13577667589E+04  0.10100000352E+00 0.  1.
       -3    1    3    3    0  502  0.65876793088E+02 -0.18979144333E+03 -0.11083063558E+03  0.22944276805E+03  0.10100000352E+00 0. -1.
</event>
<event>
 5   0  0.1430675E-04  0.9990590E+03  0.7818609E-02  0.9309577E-01
        1   -1    0    0  501    0  0.00000000000E+00  0.00000000000E+00  0.87415891162E+03  0.87415891164E+03  0.50400001928E-02 0.  1.
       -1   -1    0    0    0  501  0.00000000000E+00  0.00000000000E+00 -0.28545120152E+03  0.28545120157E+03  0.50400001928E-02 0. -1.
    10030    2    1    2    0    0  0.00000000000E+00  0.00000000000E+00  0.58870771010E+03  0.11596101132E+04  0.99905898060E+03 0.  0.
        5    1    3    3  502    0 -0.19671775910E+03 -0.73351219130E+02 -0.23172652521E+03  0.31272599920E+03  0.46999998093E+01 0. -1.
       -5    1    3    3    0  502  0.19671775910E+03  0.73351219130E+02  0.82043423531E+03  0.84688411400E+03  0.46999998093E+01 0.  1.
</event>
<event>
 5   0  0.9650500E-05  0.1000673E+04  0.7818609E-02  0.9307807E-01
       -4   -1    0    0    0  501  0.00000000000E+00  0.00000000000E+00  0.48568430883E+03  0.48568596927E+03  0.12699999809E+01 0.  1.
        4   -1    0    0  501    0  0.00000000000E+00  0.00000000000E+00 -0.51542750016E+03  0.51542906478E+03  0.12699999809E+01 0. -1.
    10030    2    1    2    0    0  0.00000000000E+00  0.00000000000E+00 -0.29743191330E+02  0.10011150340E+04  0.10006731004E+04 0.  0.
        5    1    3    3  502    0  0.41684177127E+03 -0.21981238403E+03  0.15325031306E+03  0.49556260442E+03  0.46999998093E+01 0.  1.
       -5    1    3    3    0  502 -0.41684177127E+03  0.21981238403E+03 -0.18299350439E+03  0.50555242962E+03  0.46999998093E+01 0. -1.
</event>
<event>
 5   0  0.1506454E-04  0.1000002E+04  0.7818609E-02  0.9308543E-01
        1   -1    0    0  501    0  0.00000000000E+00  0.00000000000E+00  0.25041634301E+04  0.25041634301E+04  0.50400001928E-02 0.  1.
       -1   -1    0    0    0  501  0.00000000000E+00  0.00000000000E+00 -0.99834055806E+02  0.99834055933E+02  0.50400001928E-02 0. -1.
    10030    2    1    2    0    0  0.00000000000E+00  0.00000000000E+00  0.24043293743E+04  0.26039974860E+04  0.10000015836E+04 0.  0.
        3    1    3    3  502    0  0.43056736651E+01  0.49285559880E+03  0.14212037414E+04  0.15042424222E+04  0.10100000352E+00 0. -1.
       -3    1    3    3    0  502 -0.43056736651E+01 -0.49285559880E+03  0.98312563290E+03  0.10997550638E+04  0.10100000352E+00 0.  1.
</event>
<event>
 5   0  0.1430675E-04  0.9996981E+03  0.7818609E-02  0.9308876E-01
        1   -1    0    0  501    0  0.00000000000E+00  0.00000000000E+00  0.38789645583E+03  0.38789645587E+03  0.50400001928E-02 0. -1.
       -1   -1    0    0    0  501  0.00000000000E+00  0.00000000000E+00 -0.64411279137E+03  0.64411279139E+03  0.50400001928E-02 0.  1.
    10030    2    1    2    0    0  0.00000000000E+00  0.00000000000E+00 -0.25621633554E+03  0.10320092473E+04  0.99969809234E+03 0.  0.
        5    1    3    3  502    0 -0.32063889203E+03 -0.34210489807E+03 -0.30685750316E+03  0.56038261715E+03  0.46999998093E+01 0. -1.
       -5    1    3    3    0  502  0.32063889203E+03  0.34210489807E+03  0.50641167619E+02  0.47162663010E+03  0.46999998093E+01 0.  1.
</event>
<event>
 5   0  0.2473312E-04  0.1000492E+04  0.7818609E-02  0.9308006E-01
       -2   -1    0    0    0  501  0.00000000000E+00  0.00000000000E+00  0.15383713499E+03  0.15383713502E+03  0.25500000920E-02 0.  1.
        2   -1    0    0  501    0  0.00000000000E+00  0.00000000000E+00 -0.16266934068E+04  0.16266934068E+04  0.25500000920E-02 0. -1.
    10030    2    1    2    0    0  0.00000000000E+00  0.00000000000E+00 -0.14728562718E+04  0.17805305419E+04  0.10004915857E+04 0.  0.
        5    1    3    3  502    0  0.12515269780E+03  0.17915078061E+03  0.64348826074E+02  0.22786193490E+03  0.46999998093E+01 0.  1.
       -5    1    3    3    0  502 -0.12515269780E+03 -0.17915078061E+03 -0.15372050979E+04  0.15526686070E+04  0.46999998093E+01 0. -1.
</event>
<event>
 5   0  0.1453863E-04  0.9999333E+03  0.7818609E-02  0.9308618E-01
        1   -1    0    0  501    0  0.00000000000E+00  0.00000000000E+00  0.87849398371E+03  0.87849398373E+03  0.50400001928E-02 0. -1.
       -1   -1    0    0    0  501  0.00000000000E+00  0.00000000000E+00 -0.28453998863E+03  0.28453998868E+03  0.50400001928E-02 0.  1.
    10030    2    1    2    0    0  0.00000000000E+00  0.00000000000E+00  0.59395399508E+03  0.11630339724E+04  0.99993333413E+03 0.  0.
        1    1    3    3  502    0 -0.13157516499E+03 -0.35539324471E+03 -0.82329851599E+02  0.38780740957E+03  0.50400001928E-02 0.  1.
       -1    1    3    3    0  502  0.13157516499E+03  0.35539324471E+03  0.67628384668E+03  0.77522656284E+03  0.50400001928E-02 0. -1.
</event>
<event>
 5   0  0.1430675E-04  0.9997927E+03  0.7818609E-02  0.9308772E-01
       -1   -1    0    0    0  501  0.00000000000E+00  0.00000000000E+00  0.22997589065E+03  0.22997589070E+03  0.50400001928E-02 0. -1.
        1   -1    0    0  501    0  0.00000000000E+00  0.00000000000E+00 -0.10866197759E+04  0.10866197759E+04  0.50400001928E-02 0.  1.
    10030    2    1    2    0    0  0.00000000000E+00  0.00000000000E+00 -0.85664388522E+03  0.13165956666E+04  0.99979268010E+03 0.  0.
        5    1    3    3  502    0  0.30320364358E+03 -0.37887651382E+03 -0.27032843868E+03  0.55549925019E+03  0.46999998093E+01 0. -1.
       -5    1    3    3    0  502 -0.30320364358E+03  0.37887651382E+03 -0.58631544654E+03  0.76109641640E+03  0.46999998093E+01 0.  1.
</event>
<event>
 5   0  0.1414165E-04  0.9994636E+03  0.7818609E-02  0.9309133E-01
        1   -1    0    0  501    0  0.00000000000E+00  0.00000000000E+00  0.11051502723E+04  0.11051502723E+04  0.50400001928E-02 0. -1.
       -1   -1    0    0    0  501  0.00000000000E+00  0.00000000000E+00 -0.22597095929E+03  0.22597095934E+03  0.50400001928E-02 0.  1.
    10030    2    1    2    0    0  0.00000000000E+00  0.00000000000E+00  0.87917931301E+03  0.13311212317E+04  0.99946359060E+03 0.  0.
        4    1    3    3  502    0  0.36936490168E+03  0.63975116302E+02 -0.53519091502E+00  0.37486683693E+03  0.12699999809E+01 0.  1.
       -4    1    3    3    0  502 -0.36936490168E+03 -0.63975116302E+02  0.87971450393E+03  0.95625439472E+03  0.12699999809E+01 0. -1.
</event>
<event>
 5   0  0.1461334E-04  0.9998060E+03  0.7818609E-02  0.9308758E-01
        1   -1    0    0  501    0  0.00000000000E+00  0.00000000000E+00  0.54612282670E+03  0.54612282672E+03  0.50400001928E-02 0. -1.
       -1   -1    0    0    0  501  0.00000000000E+00  0.00000000000E+00 -0.45759484554E+03  0.45759484557E+03  0.50400001928E-02 0.  1.
    10030    2    1    2    0    0  0.00000000000E+00  0.00000000000E+00  0.88527981152E+02  0.10037176723E+04  0.99980596228E+03 0.  0.
        2    1    3    3  502    0 -0.34790191073E+03  0.29651651069E+03  0.24740490338E+03  0.51977588134E+03  0.25500000920E-02 0. -1.
       -2    1    3    3    0  502  0.34790191073E+03 -0.29651651069E+03 -0.15887692223E+03  0.48394179095E+03  0.25500000920E-02 0.  1.
</event>
<event>
 5   0  0.2503680E-04  0.1002994E+04  0.7818609E-02  0.9305267E-01
       -2   -1    0    0    0  501  0.00000000000E+00  0.00000000000E+00  0.26534340935E+03  0.26534340936E+03  0.25500000920E-02 0. -1.
        2   -1    0    0  501    0  0.00000000000E+00  0.00000000000E+00 -0.94782542292E+03  0.94782542292E+03  0.25500000920E-02 0.  1.
    10030    2    1    2    0    0  0.00000000000E+00  0.00000000000E+00 -0.68248201357E+03  0.12131688323E+04  0.10029939764E+04 0.  0.
        2    1    3    3  502    0 -0.32945742198E+02 -0.12577240405E+03 -0.92708556028E+03  0.93615797579E+03  0.25500000920E-02 0.  1.
       -2    1    3    3    0  502  0.32945742198E+02  0.12577240405E+03  0.24460354671E+03  0.27701085650E+03  0.25500000920E-02 0. -1.
</event>
<event>
 5   0  0.2484904E-04  0.9997300E+03  0.7818609E-02  0.9308841E-01
       -2   -1    0    0    0  501  0.00000000000E+00  0.00000000000E+00  0.17817889243E+03  0.17817889245E+03  0.25500000920E-02 0.  1.
        2   -1    0    0  501    0  0.00000000000E+00  0.00000000000E+00 -0.14023266918E+04  0.14023266918E+04  0.25500000920E-02 0. -1.
    10030    2    1    2    0    0  0.00000000000E+00  0.00000000000E+00 -0.12241477994E+04  0.15805055843E+04  0.99972999714E+03 0.  0.
        3    1    3    3  502    0 -0.21877063255E+03 -0.29162111422E+03 -0.11527471147E+04  0.12090200100E+04  0.10100000352E+00 0. -1.
       -3    1    3    3    0  502  0.21877063255E+03  0.29162111422E+03 -0.71400684697E+02  0.37148557429E+03  0.10100000352E+00 0.  1.
</event>
<event>
 5   0  0.2353916E-04  0.1000030E+04  0.7818609E-02  0.9308511E-01
       -2   -1    0    0    0  501  0.00000000000E+00  0.00000000000E+00  0.30878052550E+03  0.30878052551E+03  0.25500000920E-02 0.  1.
        2   -1    0    0  501    0  0.00000000000E+00  0.00000000000E+00 -0.80968590645E+03  0.80968590645E+03  0.25500000920E-02 0. -1.
    10030    2    1    2    0    0  0.00000000000E+00  0.00000000000E+00 -0.50090538095E+03  0.11184664320E+04  0.10000304789E+04 0.  0.
        4    1    3    3  502    0  0.46623694840E+03  0.15769354503E+03 -0.34903652597E+03  0.60338400340E+03  0.12699999809E+01 0. -1.
       -4    1    3    3    0  502 -0.46623694840E+03 -0.15769354503E+03 -0.15186885498E+03  0.51508242856E+03  0.12699999809E+01 0.  1.
</event>
<event>
 5   0  0.1506454E-04  0.1000187E+04  0.7818609E-02  0.9308340E-01
        1   -1    0    0  501    0  0.00000000000E+00  0.00000000000E+00  0.15578612971E+04  0.15578612972E+04  0.50400001928E-02 0. -1.
       -1   -1    0    0    0  501  0.00000000000E+00  0.00000000000E+00 -0.16053649974E+03  0.16053649982E+03  0.50400001928E-02 0.  1.
    10030    2    1    2    0    0  0.00000000000E+00  0.00000000000E+00  0.13973247974E+04  0.17183977970E+04  0.10001871821E+04 0.  0.
        3    1    3    3  502    0 -0.28462175404E+03 -0.27523379446E+03  0.12235351152E+04  0.12860020889E+04  0.10100000352E+00 0. -1.
       -3    1    3    3    0  502  0.28462175404E+03  0.27523379446E+03  0.17378968223E+03  0.43239570805E+03  0.10100000352E+00 0.  1.
</event>
<event>
 5   0  0.2403037E-04  0.9998099E+03  0.7818609E-02  0.9308753E-01
        2   -1    0    0  501    0  0.00000000000E+00  0.00000000000E+00  0.79915129908E+03  0.79915129909E+03  0.25500000920E-02 0.  1.
       -2   -1    0    0    0  501  0.00000000000E+00  0.00000000000E+00 -0.31271294582E+03  0.31271294583E+03  0.25500000920E-02 0. -1.
    10030    2    1    2    0    0  0.00000000000E+00  0.00000000000E+00  0.48643835326E+03  0.11118642449E+04  0.99980989573E+03 0.  0.
        1    1    3    3  502    0  0.37138268340E+03  0.16145240178E+03  0.56917874088E+03  0.69853877106E+03  0.50400001928E-02 0.  1.
       -1    1    3    3    0  502 -0.37138268340E+03 -0.16145240178E+03 -0.82740387620E+02  0.41332547386E+03  0.50400001928E-02 0. -1.
</event>
<event>
 5   0  0.2473312E-04  0.1000036E+04  0.7818609E-02  0.9308505E-01
       -2   -1    0    0    0  501  0.00000000000E+00  0.00000000000E+00  0.60007668978E+03  0.60007668978E+03  0.25500000920E-02 0. -1.
        2   -1    0    0  501    0  0.00000000000E+00  0.00000000000E+00 -0.41664378312E+03  0.41664378313E+03  0.25500000920E-02 0.  1.
    10030    2    1    2    0    0  0.00000000000E+00  0.00000000000E+00  0.18343290665E+03  0.10167204729E+04  0.10000364437E+04 0.  0.
        5    1    3    3  502    0 -0.37121671007E+03  0.94395506014E+02  0.41845606815E+03  0.56730937623E+03  0.46999998093E+01 0. -1.
       -5    1    3    3    0  502  0.37121671007E+03 -0.94395506014E+02 -0.23502316149E+03  0.44941109669E+03  0.46999998093E+01 0.  1.
</event>
<event>
 5   0  0.1414165E-04  0.9991140E+03  0.7818609E-02  0.9309517E-01
       -1   -1    0    0    0  501  0.00000000000E+00  0.00000000000E+00  0.40685297193E+03  0.40685297196E+03  0.50400001928E-02 0.  1.
        1   -1    0    0  501    0  0.00000000000E+00  0.00000000000E+00 -0.61338417990E+03  0.61338417992E+03  0.50400001928E-02 0. -1.
    10030    2    1    2    0    0  0.00000000000E+00  0.00000000000E+00 -0.20653120797E+03  0.10202371519E+04  0.99911396057E+03 0.  0.
        4    1    3    3  502    0  0.28204865486E+03 -0.30710864910E+03  0.17766610577E+03  0.45324830292E+03  0.12699999809E+01 0.  1.
       -4    1    3    3    0  502 -0.28204865486E+03  0.30710864910E+03 -0.38419731374E+03  0.56698884896E+03  0.12699999809E+01 0. -1.
</event>
<event>
 5   0  0.1461334E-04  0.1000043E+04  0.7818609E-02  0.9308497E-01
       -1   -1    0    0    0  501  0.00000000000E+00  0.00000000000E+00  0.95689439013E+02  0.95689439146E+02  0.50400001928E-02 0. -1.
        1   -1    0    0  501    0  0.00000000000E+00  0.00000000000E+00 -0.26128456024E+04  0.26128456025E+04  0.50400001928E-02 0.  1.
    10030    2    1    2    0    0  0.00000000000E+00  0.00000000000E+00 -0.25171561634E+04  0.27085350416E+04  0.10000434593E+04 0.  0.
        2    1    3    3  502    0 -0.61133793972E+02 -0.20412654773E+03 -0.24837193453E+04  0.24928431107E+04  0.25500000920E-02 0.  1.
       -2    1    3    3    0  502  0.61133793972E+02  0.20412654773E+03 -0.33436818152E+02  0.21569193093E+03  0.25500000920E-02 0. -1.
</event>
<event>
 5   0  0.1461334E-04  0.1000494E+04  0.7818609E-02  0.9308003E-01
        1   -1    0    0  501    0  0.00000000000E+00  0.00000000000E+00  0.13227345273E+04  0.13227345274E+04  0.50400001928E-02 0. -1.
       -1   -1    0    0    0  501  0.00000000000E+00  0.00000000000E+00 -0.18918928234E+03  0.18918928241E+03  0.50400001928E-02 0.  1.
    10030    2    1    2    0    0  0.00000000000E+00  0.00000000000E+00  0.11335452450E+04  0.15119238098E+04  0.10004942699E+04 0.  0.
        2    1    3    3  502    0 -0.94023060789E+02  0.73539057748E+01  0.13091785891E+04  0.13125711387E+04  0.25500000920E-02 0. -1.
       -2    1    3    3    0  502  0.94023060789E+02 -0.73539057748E+01 -0.17563334412E+03  0.19935267107E+03  0.25500000920E-02 0.  1.
</event>
<event>
 5   0  0.1506454E-04  0.1000044E+04  0.7818609E-02  0.9308497E-01
        1   -1    0    0  501    0  0.00000000000E+00  0.00000000000E+00  0.12102573061E+04  0.12102573061E+04  0.50400001928E-02 0.  1.
       -1   -1    0    0    0  501  0.00000000000E+00  0.00000000000E+00 -0.20658578376E+03  0.20658578382E+03  0.50400001928E-02 0. -1.
    10030    2    1    2    0    0  0.00000000000E+00  0.00000000000E+00  0.10036715223E+04  0.14168430899E+04  0.10000439074E+04 0.  0.
        3    1    3    3  502    0  0.22854477925E+03  0.40984166341E+03  0.74648817672E+03  0.88172984149E+03  0.10100000352E+00 0.  1.
       -3    1    3    3    0  502 -0.22854477925E+03 -0.40984166341E+03  0.25718334560E+03  0.53511324843E+03  0.10100000352E+00 0. -1.
</event>
<event>
 5   0  0.1461334E-04  0.9984212E+03  0.7818609E-02  0.9310278E-01
       -1   -1    0    0    0  501  0.00000000000E+00  0.00000000000E+00  0.20516256150E+03  0.20516256156E+03  0.50400001928E-02 0. -1.
        1   -1    0    0  501    0  0.00000000000E+00  0.00000000000E+00 -0.12147013739E+04  0.12147013739E+04  0.50400001928E-02 0.  1.
    10030    2    1    2    0    0  0.00000000000E+00  0.00000000000E+00 -0.10095388124E+04  0.14198639355E+04  0.99842124452E+03 0.  0.
        2    1    3    3  502    0  0.40886688320E+03  0.22950196844E+03 -0.26106138018E+03  0.53665289147E+03  0.25500000920E-02 0. -1.
       -2    1    3    3    0  502 -0.40886688320E+03 -0.22950196844E+03 -0.74847743224E+03  0.88321104401E+03  0.25500000920E-02 0.  1.
</event>
<event>
 5   0  0.2503680E-04  0.1000646E+04  0.7818609E-02  0.9307836E-01
        2   -1    0    0  501    0  0.00000000000E+00  0.00000000000E+00  0.21795403130E+04  0.21795403130E+04  0.25500000920E-02 0. -1.
       -2   -1    0    0    0  501  0.00000000000E+00  0.00000000000E+00 -0.11485136719E+03  0.11485136722E+03  0.25500000920E-02 0.  1.
    10030    2    1    2    0    0  0.00000000000E+00  0.00000000000E+00  0.20646889458E+04  0.22943916803E+04  0.10006461609E+04 0.  0.
        2    1    3    3  502    0  0.19922718914E+03  0.12359838486E+03  0.20457877811E+04  0.20591783990E+04  0.25500000920E-02 0. -1.
       -2    1    3    3    0  502 -0.19922718914E+03 -0.12359838486E+03  0.18901164732E+02  0.23521328123E+03  0.25500000920E-02 0.  1.
</event>
<event>
 5   0  0.2503680E-04  0.9994636E+03  0.7818609E-02  0.9309133E-01
        2   -1    0    0  501    0  0.00000000000E+00  0.00000000000E+00  0.12014110161E+04  0.12014110161E+04  0.25500000920E-02 0.  1.
       -2   -1    0    0    0  501  0.00000000000E+00  0.00000000000E+00 -0.20786547357E+03  0.20786547359E+03  0.25500000920E-02 0. -1.
    10030    2    1    2    0    0  0.00000000000E+00  0.00000000000E+00  0.99354554253E+03  0.14092764897E+04  0.99946359579E+03 0.  0.
        2    1    3    3  502    0  0.43623314043E+03 -0.90168101942E+02  0.17740039462E+03  0.47947944631E+03  0.25500000920E-02 0. -1.
       -2    1    3    3    0  502 -0.43623314043E+03  0.90168101942E+02  0.81614514791E+03  0.92979704338E+03  0.25500000920E-02 0.  1.
</event>
<event>
 5   0  0.2484904E-04  0.1001741E+04  0.7818609E-02  0.9306637E-01
        2   -1    0    0  501    0  0.00000000000E+00  0.00000000000E+00  0.76118441851E+03  0.76118441851E+03  0.25500000920E-02 0.  1.
       -2   -1    0    0    0  501  0.00000000000E+00  0.00000000000E+00 -0.32958022738E+03  0.32958022739E+03  0.25500000920E-02 0. -1.
    10030    2    1    2    0    0  0.00000000000E+00  0.00000000000E+00  0.43160419113E+03  0.10907646459E+04  0.10017411517E+04 0.  0.
        3    1    3    3  502    0  0.31587748802E+03 -0.19096203758E+03 -0.15285071939E+03  0.39951024999E+03  0.10100000352E+00 0. -1.
       -3    1    3    3    0  502 -0.31587748802E+03  0.19096203758E+03  0.58445491052E+03  0.69125439591E+03  0.10100000352E+00 0.  1.
</event>
<event>
 5   0  0.9650500E-05  0.9999193E+03  0.7818609E-02  0.9308633E-01
       -3   -1    0    0    0  501  0.00000000000E+00  0.00000000000E+00  0.34581426559E+03  0.34581428033E+03  0.10100000352E+00 0. -1.
        3   -1    0    0  501    0  0.00000000000E+00  0.00000000000E+00 -0.72281467089E+03  0.72281467795E+03  0.10100000352E+00 0.  1.
    10030    2    1    2    0    0  0.00000000000E+00  0.00000000000E+00 -0.37700040531E+03  0.10686289583E+04  0.99991926918E+03 0.  0.
        3    1    3    3  502    0 -0.36278637209E+02  0.10643656859E+03  0.33212400895E+03  0.35064405054E+03  0.10100000352E+00 0. -1.
       -3    1    3    3    0  502  0.36278637209E+02 -0.10643656859E+03 -0.70912441426E+03  0.71798490775E+03  0.10100000352E+00 0.  1.
</event>
<event>
 5   0  0.1414165E-04  0.1000096E+04  0.7818609E-02  0.9308440E-01
       -1   -1    0    0    0  501  0.00000000000E+00  0.00000000000E+00  0.10637540374E+03  0.10637540386E+03  0.50400001928E-02 0.  1.
        1   -1    0    0  501    0  0.00000000000E+00  0.00000000000E+00 -0.23506166738E+04  0.23506166738E+04  0.50400001928E-02 0. -1.
    10030    2    1    2    0    0  0.00000000000E+00  0.00000000000E+00 -0.22442412701E+04  0.24569920777E+04  0.10000955911E+04 0.  0.
        4    1    3    3  502    0 -0.38702897667E+03  0.79592944988E+02 -0.18750264240E+04  0.19162077573E+04  0.12699999809E+01 0. -1.
       -4    1    3    3    0  502  0.38702897667E+03 -0.79592944988E+02 -0.36921484612E+03  0.54078432038E+03  0.12699999809E+01 0.  1.
</event>
<event>
 5   0  0.1461334E-04  0.9987946E+03  0.7818609E-02  0.9309868E-01
        1   -1    0    0  501    0  0.00000000000E+00  0.00000000000E+00  0.46081361406E+03  0.46081361409E+03  0.50400001928E-02 0. -1.
       -1   -1    0    0    0  501  0.00000000000E+00  0.00000000000E+00 -0.54121153974E+03  0.54121153977E+03  0.50400001928E-02 0.  1.
    10030    2    1    2    0    0  0.00000000000E+00  0.00000000000E+00 -0.80397925682E+02  0.10020251539E+04  0.99879456472E+03 0.  0.
        2    1    3    3  502    0  0.21952172144E+03 -0.44425009844E+03  0.22047751347E+02  0.49601818464E+03  0.25500000920E-02 0.  1.
       -2    1    3    3    0  502 -0.21952172144E+03  0.44425009844E+03 -0.10244567703E+03  0.50600696922E+03  0.25500000920E-02 0. -1.
</event>
<event>
 5   0  0.1461334E-04  0.1000158E+04  0.7818609E-02  0.9308371E-01
       -1   -1    0    0    0  501  0.00000000000E+00  0.00000000000E+00  0.26797912031E+03  0.26797912036E+03  0.50400001928E-02 0. -1.
        1   -1    0    0  501    0  0.00000000000E+00  0.00000000000E+00 -0.93320378501E+03  0.93320378502E+03  0.50400001928E-02 0.  1.
    10030    2    1    2    0    0  0.00000000000E+00  0.00000000000E+00 -0.66522466470E+03  0.12011829054E+04  0.10001582463E+04 0.  0.
        2    1    3    3  502    0  0.77324364436E+02 -0.35186381910E+02  0.25924931424E+03  0.27281375652E+03  0.25500000920E-02 0. -1.
       -2    1    3    3    0  502 -0.77324364436E+02  0.35186381910E+02 -0.92447397894E+03  0.92836914886E+03  0.25500000920E-02 0.  1.
</event>
<event>
 5   0  0.2484904E-04  0.9997031E+03  0.7818609E-02  0.9308871E-01
       -2   -1    0    0    0  501  0.00000000000E+00  0.00000000000E+00  0.11030025239E+04  0.11030025239E+04  0.25500000920E-02 0. -1.
        2   -1    0    0  501    0  0.00000000000E+00  0.00000000000E+00 -0.22651947782E+03  0.22651947783E+03  0.25500000920E-02 0.  1.
    10030    2    1    2    0    0  0.00000000000E+00  0.00000000000E+00  0.87648304611E+03  0.13295220018E+04  0.99970306744E+03 0.  0.
        3    1    3    3  502    0  0.34651329667E+03 -0.34698280031E+03  0.30941782632E+03  0.57983439870E+03  0.10100000352E+00 0.  1.
       -3    1    3    3    0  502 -0.34651329667E+03  0.34698280031E+03  0.56706521979E+03  0.74968760306E+03  0.10100000352E+00 0. -1.
</event>
<event>
 5   0  0.2503680E-04  0.1000045E+04  0.7818609E-02  0.9308495E-01
       -2   -1    0    0    0  501  0.00000000000E+00  0.00000000000E+00  0.32055245006E+03  0.32055245007E+03  0.25500000920E-02 0.  1.
        2   -1    0    0  501    0  0.00000000000E+00  0.00000000000E+00 -0.77997420966E+03  0.77997420966E+03  0.25500000920E-02 0. -1.
    10030    2    1    2    0    0  0.00000000000E+00  0.00000000000E+00 -0.45942175960E+03  0.11005266597E+04  0.10000452868E+04 0.  0.
        2    1    3    3  502    0  0.16325977749E+03  0.25639739696E+03 -0.66662826292E+03  0.73265723298E+03  0.25500000920E-02 0. -1.
       -2    1    3    3    0  502 -0.16325977749E+03 -0.25639739696E+03  0.20720650332E+03  0.36786942675E+03  0.25500000920E-02 0.  1.
</event>
<event>
 5   0  0.2503680E-04  0.9986550E+03  0.7818609E-02  0.9310021E-01
        2   -1    0    0  501    0  0.00000000000E+00  0.00000000000E+00  0.20924331560E+04  0.20924331560E+04  0.25500000920E-02 0.  1.
       -2   -1    0    0    0  501  0.00000000000E+00  0.00000000000E+00 -0.11915694410E+03  0.11915694413E+03  0.25500000920E-02 0. -1.
    10030    2    1    2    0    0  0.00000000000E+00  0.00000000000E+00  0.19732762119E+04  0.22115901001E+04  0.99865497672E+03 0.  0.
        2    1    3    3  502    0 -0.43001555863E+03  0.19268239844E+03  0.62081136851E+03  0.77938863387E+03  0.25500000920E-02 0. -1.
       -2    1    3    3    0  502  0.43001555863E+03 -0.19268239844E+03  0.13524648434E+04  0.14322014663E+04  0.25500000920E-02 0.  1.
</event>
<event>
 5   0  0.1461334E-04  0.1000501E+04  0.7818609E-02  0.9307995E-01
        1   -1    0    0  501    0  0.00000000000E+00  0.00000000000E+00  0.11104789673E+04  0.11104789673E+04  0.50400001928E-02 0. -1.
       -1   -1    0    0    0  501  0.00000000000E+00  0.00000000000E+00 -0.22535381401E+03  0.22535381407E+03  0.50400001928E-02 0.  1.
    10030    2    1    2    0    0  0.00000000000E+00  0.00000000000E+00  0.88512515326E+03  0.13358327813E+04  0.10005012158E+04 0.  0.
        2    1    3    3  502    0  0.36323366717E+03 -0.15512876887E+03  0.85245352981E+03  0.93951085805E+03  0.25500000920E-02 0. -1.
       -2    1    3    3    0  502 -0.36323366717E+03  0.15512876887E+03  0.32671623447E+02  0.39632192329E+03  0.25500000920E-02 0.  1.
</event>
<event>
 5   0  0.1430675E-04  0.1000278E+04  0.7818609E-02  0.9308240E-01
       -1   -1    0    0    0  501  0.00000000000E+00  0.00000000000E+00  0.80182370200E+03  0.80182370201E+03  0.50400001928E-02 0.  1.
        1   -1    0    0  501    0  0.00000000000E+00  0.00000000000E+00 -0.31196255181E+03  0.31196255185E+03  0.50400001928E-02 0. -1.
    10030    2    1    2    0    0  0.00000000000E+00  0.00000000000E+00  0.48986115018E+03  0.11137862539E+04  0.10002778978E+04 0.  0.
        5    1    3    3  502    0 -0.27898072685E+03 -0.40541090348E+03  0.34407774003E+03  0.60049964846E+03  0.46999998093E+01 0.  1.
       -5    1    3    3    0  502  0.27898072685E+03  0.40541090348E+03  0.14578341015E+03  0.51328660541E+03  0.46999998093E+01 0. -1.
</event>
<event>
 5   0  0.2403037E-04  0.1003331E+04  0.7818609E-02  0.9304899E-01
       -2   -1    0    0    0  501  0.00000000000E+00  0.00000000000E+00  0.21407064645E+03  0.21407064647E+03  0.25500000920E-02 0.  1.
        2   -1    0    0  501    0  0.00000000000E+00  0.00000000000E+00 -0.11756307375E+04  0.11756307375E+04  0.25500000920E-02 0. -1.
    10030    2    1    2    0    0  0.00000000000E+00  0.00000000000E+00 -0.96156009109E+03  0.13897013840E+04  0.10033305178E+04 0.  0.
        1    1    3    3  502    0 -0.21145584322E+03 -0.49147154169E+01  0.14929099022E+03  0.25889288876E+03  0.50400001928E-02 0.  1.
       -1    1    3    3    0  502  0.21145584322E+03  0.49147154169E+01 -0.11108510813E+04  0.11308084953E+04  0.50400001928E-02 0. -1.
</event>
<event>
 5   0  0.2484904E-04  0.9995829E+03  0.7818609E-02  0.9309002E-01
       -2   -1    0    0    0  501  0.00000000000E+00  0.00000000000E+00  0.28961727049E+03  0.28961727050E+03  0.25500000920E-02 0.  1.
        2   -1    0    0  501    0  0.00000000000E+00  0.00000000000E+00 -0.86248827733E+03  0.86248827734E+03  0.25500000920E-02 0. -1.
    10030    2    1    2    0    0  0.00000000000E+00  0.00000000000E+00 -0.57287100684E+03  0.11521055478E+04  0.99958291446E+03 0.  0.
        3    1    3    3  502    0 -0.23753718301E+01 -0.49768852337E+02  0.28674752779E+03  0.29104421649E+03  0.10100000352E+00 0.  1.
       -3    1    3    3    0  502  0.23753718301E+01  0.49768852337E+02 -0.85961853464E+03  0.86106133135E+03  0.10100000352E+00 0. -1.
</event>
<event>
 5   0  0.9650500E-05  0.9995697E+03  0.7818609E-02  0.9309017E-01
       -4   -1    0    0    0  501  0.00000000000E+00  0.00000000000E+00  0.33391430475E+03  0.33391671989E+03  0.12699999809E+01 0. -1.
        4   -1    0    0  501    0  0.00000000000E+00  0.00000000000E+00 -0.74804521680E+03  0.74804629488E+03  0.12699999809E+01 0.  1.
    10030    2    1    2    0    0  0.00000000000E+00  0.00000000000E+00 -0.41413091205E+03  0.10819630148E+04  0.99956968392E+03 0.  0.
        4    1    3    3  502    0  0.23508542012E+02  0.30088029295E+03 -0.63827671533E+03  0.70603143022E+03  0.12699999809E+01 0.  1.
       -4    1    3    3    0  502 -0.23508542012E+02 -0.30088029295E+03  0.22414580328E+03  0.37593158455E+03  0.12699999809E+01 0. -1.
</event>
<event>
 5   0  0.2484904E-04  0.1001219E+04  0.7818609E-02  0.9307208E-01
        2   -1    0    0  501    0  0.00000000000E+00  0.00000000000E+00  0.86280061341E+03  0.86280061342E+03  0.25500000920E-02 0.  1.
       -2   -1    0    0    0  501  0.00000000000E+00  0.00000000000E+00 -0.29046116616E+03  0.29046116617E+03  0.25500000920E-02 0. -1.
    10030    2    1    2    0    0  0.00000000000E+00  0.00000000000E+00  0.57233944725E+03  0.11532617796E+04  0.10012194012E+04 0.  0.
        3    1    3    3  502    0 -0.44598783426E+03  0.22039752479E+03  0.35061039424E+03  0.60861143268E+03  0.10100000352E+00 0. -1.
       -3    1    3    3    0  502  0.44598783426E+03 -0.22039752479E+03  0.22172905301E+03  0.54465034691E+03  0.10100000352E+00 0.  1.
</event>
<event>
 5   0  0.2503680E-04  0.1003442E+04  0.7818609E-02  0.9304778E-01
       -2   -1    0    0    0  501  0.00000000000E+00  0.00000000000E+00  0.40384019376E+03  0.40384019376E+03  0.25500000920E-02 0.  1.
        2   -1    0    0  501    0  0.00000000000E+00  0.00000000000E+00 -0.62332557061E+03  0.62332557062E+03  0.25500000920E-02 0. -1.
    10030    2    1    2    0    0  0.00000000000E+00  0.00000000000E+00 -0.21948537686E+03  0.10271657644E+04  0.10034419150E+04 0.  0.
        2    1    3    3  502    0 -0.27282568261E+03  0.83779744763E+02  0.31265221285E+03  0.42332529446E+03  0.25500000920E-02 0.  1.
       -2    1    3    3    0  502  0.27282568261E+03 -0.83779744763E+02 -0.53213758971E+03  0.60384046992E+03  0.25500000920E-02 0. -1.
</event>
<event>
 5   0  0.2484904E-04  0.1000078E+04  0.7818609E-02  0.9308460E-01
       -2   -1    0    0    0  501  0.00000000000E+00  0.00000000000E+00  0.42659729533E+03  0.42659729533E+03  0.25500000920E-02 0. -1.
        2   -1    0    0  501    0  0.00000000000E+00  0.00000000000E+00 -0.58612386134E+03  0.58612386135E+03  0.25500000920E-02 0.  1.
    10030    2    1    2    0    0  0.00000000000E+00  0.00000000000E+00 -0.15952656602E+03  0.10127211567E+04  0.10000777049E+04 0.  0.
        3    1    3    3  502    0 -0.30225651484E+03  0.14928097371E+03 -0.45374934461E+03  0.56527187071E+03  0.10100000352E+00 0.  1.
       -3    1    3    3    0  502  0.30225651484E+03 -0.14928097371E+03  0.29422277860E+03  0.44744928598E+03  0.10100000352E+00 0. -1.
</event>
<event>
 5   0  0.1506454E-04  0.9985895E+03  0.7818609E-02  0.9310093E-01
       -1   -1    0    0    0  501  0.00000000000E+00  0.00000000000E+00  0.24480714705E+03  0.24480714710E+03  0.50400001928E-02 0. -1.
        1   -1    0    0  501    0  0.00000000000E+00  0.00000000000E+00 -0.10183332781E+04  0.10183332781E+04  0.50400001928E-02 0.  1.
    10030    2    1    2    0    0  0.00000000000E+00  0.00000000000E+00 -0.77352613103E+03  0.12631404252E+04  0.99858953447E+03 0.  0.
        3    1    3    3  502    0  0.38889551844E+03  0.21246190741E+03 -0.67773824519E+03  0.80975856004E+03  0.10100000352E+00 0. -1.
       -3    1    3    3    0  502 -0.38889551844E+03 -0.21246190741E+03 -0.95787885833E+02  0.45338186514E+03  0.10100000352E+00 0.  1.
</event>
<event>
 5   0  0.1430675E-04  0.1000738E+04  0.7818609E-02  0.9307736E-01
       -1   -1    0    0    0  501  0.00000000000E+00  0.00000000000E+00  0.83493882976E+03  0.83493882977E+03  0.50400001928E-02 0. -1.
        1   -1    0    0  501    0  0.00000000000E+00  0.00000000000E+00 -0.29986534293E+03  0.29986534297E+03  0.50400001928E-02 0.  1.
    10030    2    1    2    0    0  0.00000000000E+00  0.00000000000E+00  0.53507348682E+03  0.11348041727E+04  0.10007381646E+04 0.  0.
        5    1    3    3  502    0  0.10421806096E+03 -0.18298532511E+03  0.78221554393E+03  0.81007918168E+03  0.46999998093E+01 0. -1.
       -5    1    3    3    0  502 -0.10421806096E+03  0.18298532511E+03 -0.24714205710E+03  0.32472499106E+03  0.46999998093E+01 0.  1.
</event>
<event>
 5   0  0.2403037E-04  0.9999275E+03  0.7818609E-02  0.9308624E-01
        2   -1    0    0  501    0  0.00000000000E+00  0.00000000000E+00  0.15965368598E+04  0.15965368598E+04  0.25500000920E-02 0. -1.
       -2   -1    0    0    0  501  0.00000000000E+00  0.00000000000E+00 -0.15656624046E+03  0.15656624048E+03  0.25500000920E-02 0.  1.
    10030    2    1    2    0    0  0.00000000000E+00  0.00000000000E+00  0.14399706193E+04  0.17531031003E+04  0.99992754518E+03 0.  0.
        1    1    3    3  502    0 -0.31615979758E+03 -0.73185070306E+02  0.13867908477E+04  0.14242548674E+04  0.50400001928E-02 0. -1.
       -1    1    3    3    0  502  0.31615979758E+03  0.73185070306E+02  0.53179771668E+02  0.32884823287E+03  0.50400001928E-02 0.  1.
</event>
<event>
 5   0  0.1461334E-04  0.9994140E+03  0.7818609E-02  0.9309188E-01
        1   -1    0    0  501    0  0.00000000000E+00  0.00000000000E+00  0.63955413338E+03  0.63955413340E+03  0.50400001928E-02 0.  1.
       -1   -1    0    0    0  501  0.00000000000E+00  0.00000000000E+00 -0.39043933895E+03  0.39043933898E+03  0.50400001928E-02 0. -1.
    10030    2    1    2    0    0  0.00000000000E+00  0.00000000000E+00  0.24911479443E+03  0.10299934724E+04  0.99941401448E+03 0.  0.
        2    1    3    3  502    0 -0.29657101633E+03 -0.22909809045E+03 -0.21611200636E+03  0.43260224465E+03  0.25500000920E-02 0. -1.
       -2    1    3    3    0  502  0.29657101633E+03  0.22909809045E+03  0.46522680079E+03  0.59739122772E+03  0.25500000920E-02 0.  1.
</event>
<event>
 5   0  0.2503680E-04  0.1000228E+04  0.7818609E-02  0.9308295E-01
       -2   -1    0    0    0  501  0.00000000000E+00  0.00000000000E+00  0.46798128771E+03  0.46798128772E+03  0.25500000920E-02 0.  1.
        2   -1    0    0  501    0  0.00000000000E+00  0.00000000000E+00 -0.53445279795E+03  0.53445279795E+03  0.25500000920E-02 0. -1.
    10030    2    1    2    0    0  0.00000000000E+00  0.00000000000E+00 -0.66471510235E+02  0.10024340857E+04  0.10002277913E+04 0.  0.
        2    1    3    3  502    0 -0.15651394828E+03 -0.47456035000E+03 -0.12948406371E+02  0.49987178659E+03  0.25500000920E-02 0.  1.
       -2    1    3    3    0  502  0.15651394828E+03  0.47456035000E+03 -0.53523103864E+02  0.50256229907E+03  0.25500000920E-02 0. -1.
</event>
<event>
 5   0  0.1453863E-04  0.1000678E+04  0.7818609E-02  0.9307802E-01
       -1   -1    0    0    0  501  0.00000000000E+00  0.00000000000E+00  0.21248097814E+03  0.21248097820E+03  0.50400001928E-02 0. -1.
        1   -1    0    0  501    0  0.00000000000E+00  0.00000000000E+00 -0.11781716627E+04  0.11781716627E+04  0.50400001928E-02 0.  1.
    10030    2    1    2    0    0  0.00000000000E+00  0.00000000000E+00 -0.96569068459E+03  0.13906526409E+04  0.10006779049E+04 0.  0.
        1    1    3    3  502    0 -0.23152870819E+02  0.39974193754E+02 -0.11752016983E+04  0.11761092735E+04  0.50400001928E-02 0.  1.
       -1    1    3    3    0  502  0.23152870819E+02 -0.39974193754E+02  0.20951101372E+03  0.21454336739E+03  0.50400001928E-02 0. -1.
</event>
<event>
 5   0  0.2353916E-04  0.1000044E+04  0.7818609E-02  0.9308496E-01
       -2   -1    0    0    0  501  0.00000000000E+00  0.00000000000E+00  0.74690475624E+03  0.74690475625E+03  0.25500000920E-02 0.  1.
        2   -1    0    0  501    0  0.00000000000E+00  0.00000000000E+00 -0.33474437875E+03  0.33474437876E+03  0.25500000920E-02 0. -1.
    10030    2    1    2    0    0  0.00000000000E+00  0.00000000000E+00  0.41216037749E+03  0.10816491350E+04  0.10000443363E+04 0.  0.
        4    1    3    3  502    0 -0.46230027962E+03 -0.28755931214E+02  0.23709973508E+01  0.46320156157E+03  0.12699999809E+01 0. -1.
       -4    1    3    3    0  502  0.46230027962E+03  0.28755931214E+02  0.40978938014E+03  0.61844757344E+03  0.12699999809E+01 0.  1.
</event>
<event>
 5   0  0.1414165E-04  0.9999112E+03  0.7818609E-02  0.9308642E-01
       -1   -1    0    0    0  501  0.00000000000E+00  0.00000000000E+00  0.27966384844E+03  0.27966384848E+03  0.50400001928E-02 0.  1.
        1   -1    0    0  501    0  0.00000000000E+00  0.00000000000E+00 -0.89377150369E+03  0.89377150371E+03  0.50400001928E-02 0. -1.
    10030    2    1    2    0    0  0.00000000000E+00  0.00000000000E+00 -0.61410765526E+03  0.11734353522E+04  0.99991115282E+03 0.  0.
        4    1    3    3  502    0 -0.36769099362E+01  0.36513662973E+03 -0.70780633110E+03  0.79644817364E+03  0.12699999809E+01 0. -1.
       -4    1    3    3    0  502  0.36769099362E+01 -0.36513662973E+03  0.93698675848E+02  0.37698717855E+03  0.12699999809E+01 0.  1.
</event>
<event>
 5   0  0.2473312E-04  0.9997191E+03  0.7818609E-02  0.9308853E-01
        2   -1    0    0  501    0  0.00000000000E+00  0.00000000000E+00  0.82460956065E+03  0.82460956065E+03  0.25500000920E-02 0. -1.
       -2   -1    0    0    0  501  0.00000000000E+00  0.00000000000E+00 -0.30300349332E+03  0.30300349333E+03  0.25500000920E-02 0.  1.
    10030    2    1    2    0    0  0.00000000000E+00  0.00000000000E+00  0.52160606733E+03  0.11276130540E+04  0.99971911557E+03 0.  0.
        5    1    3    3  502    0 -0.43037211086E+03  0.19639731109E+03  0.44283508520E+03  0.64801007731E+03  0.46999998093E+01 0.  1.
       -5    1    3    3    0  502  0.43037211086E+03 -0.19639731109E+03  0.78770982134E+02  0.47960297667E+03  0.46999998093E+01 0. -1.
</event>
<event>
 5   0  0.1461334E-04  0.9999482E+03  0.7818609E-02  0.9308602E-01
        1   -1    0    0  501    0  0.00000000000E+00  0.00000000000E+00  0.71136358673E+03  0.71136358675E+03  0.50400001928E-02 0.  1.
       -1   -1    0    0    0  501  0.00000000000E+00  0.00000000000E+00 -0.35140133660E+03  0.35140133663E+03  0.50400001928E-02 0. -1.
    10030    2    1    2    0    0  0.00000000000E+00  0.00000000000E+00  0.35996225014E+03  0.10627649234E+04  0.99994822909E+03 0.  0.
        2    1    3    3  502    0  0.90988836349E+02 -0.12203555870E+02 -0.34236673435E+03  0.35446138847E+03  0.25500000920E-02 0. -1.
       -2    1    3    3    0  502 -0.90988836349E+02  0.12203555870E+02  0.70232898449E+03  0.70830353492E+03  0.25500000920E-02 0.  1.
</event>
<event>
 5   0  0.1506454E-04  0.1000042E+04  0.7818609E-02  0.9308499E-01
       -1   -1    0    0    0  501  0.00000000000E+00  0.00000000000E+00  0.42975647062E+03  0.42975647065E+03  0.50400001928E-02 0. -1.
        1   -1    0    0  501    0  0.00000000000E+00  0.00000000000E+00 -0.58177375428E+03  0.58177375430E+03  0.50400001928E-02 0.  1.
    10030    2    1    2    0    0  0.00000000000E+00  0.00000000000E+00 -0.15201728367E+03  0.10115302249E+04  0.10000420698E+04 0.  0.
        3    1    3    3  502    0 -0.27085916222E+03  0.36419050393E+03  0.13621491340E+03  0.47387120797E+03  0.10100000352E+00 0. -1.
       -3    1    3    3    0  502  0.27085916222E+03 -0.36419050393E+03 -0.28823219707E+03  0.53765901698E+03  0.10100000352E+00 0.  1.
</event>
<event>
 5   0  0.2403037E-04  0.9998338E+03  0.7818609E-02  0.9308727E-01
       -2   -1    0    0    0  501  0.00000000000E+00  0.00000000000E+00  0.36514547118E+03  0.36514547119E+03  0.25500000920E-02 0. -1.
        2   -1    0    0  501    0  0.00000000000E+00  0.00000000000E+00 -0.68443112939E+03  0.68443112939E+03  0.25500000920E-02 0.  1.
    10030    2    1    2    0    0  0.00000000000E+00  0.00000000000E+00 -0.31928565821E+03  0.10495766006E+04  0.99983384067E+03 0.  0.
        1    1    3    3  502    0  0.44901340397E+03  0.12149572932E+03  0.32615504923E+02  0.46630249879E+03  0.50400001928E-02 0. -1.
       -1    1    3    3    0  502 -0.44901340397E+03 -0.12149572932E+03 -0.35190116313E+03  0.58327410180E+03  0.50400001928E-02 0.  1.
</event>
<event>
 5   0  0.1506454E-04  0.9994947E+03  0.7818609E-02  0.9309099E-01
       -1   -1    0    0    0  501  0.00000000000E+00  0.00000000000E+00  0.39649340514E+03  0.39649340517E+03  0.50400001928E-02 0.  1.
        1   -1    0    0  501    0  0.00000000000E+00  0.00000000000E+00 -0.62989047380E+03  0.62989047382E+03  0.50400001928E-02 0. -1.
    10030    2    1    2    0    0  0.00000000000E+00  0.00000000000E+00 -0.23339706866E+03  0.10263838790E+04  0.99949471005E+03 0.  0.
        3    1    3    3  502    0 -0.10362367549E+03  0.35493745015E+03  0.22854389739E+03  0.43468469363E+03  0.10100000352E+00 0.  1.
       -3    1    3    3    0  502  0.10362367549E+03 -0.35493745015E+03 -0.46194096605E+03  0.59169918536E+03  0.10100000352E+00 0. -1.
</event>
<event>
 5   0  0.2403037E-04  0.9993060E+03  0.7818609E-02  0.9309306E-01
       -2   -1    0    0    0  501  0.00000000000E+00  0.00000000000E+00  0.39530479878E+03  0.39530479878E+03  0.25500000920E-02 0.  1.
        2   -1    0    0  501    0  0.00000000000E+00  0.00000000000E+00 -0.63154587138E+03  0.63154587139E+03  0.25500000920E-02 0. -1.
    10030    2    1    2    0    0  0.00000000000E+00  0.00000000000E+00 -0.23624107260E+03  0.10268506702E+04  0.99930598640E+03 0.  0.
        1    1    3    3  502    0 -0.40311241887E+03  0.29497732455E+03 -0.13035973752E+03  0.51624113110E+03  0.50400001928E-02 0. -1.
       -1    1    3    3    0  502  0.40311241887E+03 -0.29497732455E+03 -0.10588133509E+03  0.51060953907E+03  0.50400001928E-02 0.  1.
</event>
<event>
 5   0  0.1506454E-04  0.1000065E+04  0.7818609E-02  0.9308474E-01
       -1   -1    0    0    0  501  0.00000000000E+00  0.00000000000E+00  0.52360385643E+03  0.52360385645E+03  0.50400001928E-02 0. -1.
        1   -1    0    0  501    0  0.00000000000E+00  0.00000000000E+00 -0.47752181269E+03  0.47752181272E+03  0.50400001928E-02 0.  1.
    10030    2    1    2    0    0  0.00000000000E+00  0.00000000000E+00  0.46082043739E+02  0.10011256692E+04  0.10000645233E+04 0.  0.
        3    1    3    3  502    0 -0.22285815245E+01  0.21380798081E+03 -0.42944903108E+03  0.47973461386E+03  0.10100000352E+00 0.  1.
       -3    1    3    3    0  502  0.22285815245E+01 -0.21380798081E+03  0.47553107482E+03  0.52139105531E+03  0.10100000352E+00 0. -1.
</event>
<event>
 5   0  0.1430675E-04  0.1000183E+04  0.7818609E-02  0.9308345E-01
       -1   -1    0    0    0  501  0.00000000000E+00  0.00000000000E+00  0.41049647993E+03  0.41049647996E+03  0.50400001928E-02 0.  1.
        1   -1    0    0  501    0  0.00000000000E+00  0.00000000000E+00 -0.60924093821E+03  0.60924093824E+03  0.50400001928E-02 0. -1.
    10030    2    1    2    0    0  0.00000000000E+00  0.00000000000E+00 -0.19874445828E+03  0.10197374182E+04  0.10001825045E+04 0.  0.
        5    1    3    3  502    0  0.45189169374E+02 -0.19430659024E+03 -0.56689189657E+03  0.60098720822E+03  0.46999998093E+01 0. -1.
       -5    1    3    3    0  502 -0.45189169374E+02  0.19430659024E+03  0.36814743829E+03  0.41875020998E+03  0.46999998093E+01 0.  1.
</event>
<event>
 5   0  0.2353916E-04  0.1000004E+04  0.7818609E-02  0.9308540E-01
       -2   -1    0    0    0  501  0.00000000000E+00  0.00000000000E+00  0.51982998407E+03  0.51982998408E+03  0.25500000920E-02 0. -1.
        2   -1    0    0  501    0  0.00000000000E+00  0.00000000000E+00 -0.48093054290E+03  0.48093054290E+03  0.25500000920E-02 0.  1.
    10030    2    1    2    0    0  0.00000000000E+00  0.00000000000E+00  0.38899441173E+02  0.10007605270E+04  0.10000042329E+04 0.  0.
        4    1    3    3  502    0  0.15082717448E+03  0.58304870758E+02  0.49293776885E+03  0.51878468691E+03  0.12699999809E+01 0. -1.
       -4    1    3    3    0  502 -0.15082717448E+03 -0.58304870758E+02 -0.45403832767E+03  0.48197584007E+03  0.12699999809E+01 0.  1.
</event>
<event>
 5   0  0.2503680E-04  0.9999396E+03  0.7818609E-02  0.9308611E-01
       -2   -1    0    0    0  501  0.00000000000E+00  0.00000000000E+00  0.72947749084E+03  0.72947749084E+03  0.25500000920E-02 0.  1.
        2   -1    0    0  501    0  0.00000000000E+00  0.00000000000E+00 -0.34266967103E+03  0.34266967104E+03  0.25500000920E-02 0. -1.
    10030    2    1    2    0    0  0.00000000000E+00  0.00000000000E+00  0.38680781981E+03  0.10721471619E+04  0.99993962181E+03 0.  0.
        2    1    3    3  502    0 -0.96001574078E+02  0.10137047412E+02  0.71938996778E+03  0.72583812776E+03  0.25500000920E-02 0.  1.
       -2    1    3    3    0  502  0.96001574078E+02 -0.10137047412E+02 -0.33258214798E+03  0.34630903412E+03  0.25500000920E-02 0. -1.
</event>
<event>
 5   0  0.1414165E-04  0.9994117E+03  0.7818609E-02  0.9309190E-01
       -1   -1    0    0    0  501  0.00000000000E+00  0.00000000000E+00  0.31886321926E+03  0.31886321930E+03  0.50400001928E-02 0. -1.
        1   -1    0    0  501    0  0.00000000000E+00  0.00000000000E+00 -0.78311298758E+03  0.78311298760E+03  0.50400001928E-02 0.  1.
    10030    2    1    2    0    0  0.00000000000E+00  0.00000000000E+00 -0.46424976832E+03  0.11019762069E+04  0.99941168353E+03 0.  0.
        4    1    3    3  502    0 -0.12956038504E+02 -0.42071110233E+03 -0.52909479903E+03  0.67609807707E+03  0.12699999809E+01 0.  1.
       -4    1    3    3    0  502  0.12956038504E+02  0.42071110233E+03  0.64845030710E+02  0.42587812983E+03  0.12699999809E+01 0. -1.
</event>
<event>
 5   0  0.9650500E-05  0.1000525E+04  0.7818609E-02  0.9307969E-01
        3   -1    0    0  501    0  0.00000000000E+00  0.00000000000E+00  0.11413527541E+04  0.11413527586E+04  0.10100000352E+00 0. -1.
       -3   -1    0    0    0  501  0.00000000000E+00  0.00000000000E+00 -0.21926842651E+03  0.21926844977E+03  0.10100000352E+00 0.  1.
    10030    2    1    2    0    0  0.00000000000E+00  0.00000000000E+00  0.92208432761E+03  0.13606212084E+04  0.10005251448E+04 0.  0.
        4    1    3    3  502    0  0.13084281918E+03 -0.35070053341E+03  0.91238038407E+03  0.98617964165E+03  0.12699999809E+01 0. -1.
       -4    1    3    3    0  502 -0.13084281918E+03  0.35070053341E+03  0.97039435339E+01  0.37444156671E+03  0.12699999809E+01 0.  1.
</event>
<event>
 5   0  0.2473312E-04  0.9999560E+03  0.7818609E-02  0.9308593E-01
        2   -1    0    0  501    0  0.00000000000E+00  0.00000000000E+00  0.54598399565E+03  0.54598399566E+03  0.25500000920E-02 0.  1.
       -2   -1    0    0    0  501  0.00000000000E+00  0.00000000000E+00 -0.45784856509E+03  0.45784856510E+03  0.25500000920E-02 0. -1.
    10030    2    1    2    0    0  0.00000000000E+00  0.00000000000E+00  0.88135430562E+02  0.10038325608E+04  0.99995597699E+03 0.  0.
        5    1    3    3  502    0 -0.35240182269E+03 -0.96932238120E+02 -0.29838964499E+03  0.47184888859E+03  0.46999998093E+01 0. -1.
       -5    1    3    3    0  502  0.35240182269E+03  0.96932238120E+02  0.38652507556E+03  0.53198367217E+03  0.46999998093E+01 0.  1.
</event>
<event>
 5   0  0.1414165E-04  0.9998504E+03  0.7818609E-02  0.9308709E-01
       -1   -1    0    0    0  501  0.00000000000E+00  0.00000000000E+00  0.28210390271E+03  0.28210390276E+03  0.50400001928E-02 0. -1.
        1   -1    0    0  501    0  0.00000000000E+00  0.00000000000E+00 -0.88593322616E+03  0.88593322618E+03  0.50400001928E-02 0.  1.
    10030    2    1    2    0    0  0.00000000000E+00  0.00000000000E+00 -0.60382932345E+03  0.11680371289E+04  0.99985043017E+03 0.  0.
        4    1    3    3  502    0 -0.87554031216E+02  0.16013500827E+03 -0.84562244691E+03  0.86509413643E+03  0.12699999809E+01 0.  1.
       -4    1    3    3    0  502  0.87554031216E+02 -0.16013500827E+03  0.24179312346E+03  0.30294299251E+03  0.12699999809E+01 0. -1.
</event>
<event>
 5   0  0.2353916E-04  0.9989040E+03  0.7818609E-02  0.9309748E-01
       -2   -1    0    0    0  501  0.00000000000E+00  0.00000000000E+00  0.26430394416E+03  0.26430394417E+03  0.25500000920E-02 0. -1.
        2   -1    0    0  501    0  0.00000000000E+00  0.00000000000E+00 -0.94380855818E+03  0.94380855818E+03  0.25500000920E-02 0.  1.
    10030    2    1    2    0    0  0.00000000000E+00  0.00000000000E+00 -0.67950461401E+03  0.12081125024E+04  0.99890404838E+03 0.  0.
        4    1    3    3  502    0 -0.24557599889E+03  0.42394782954E+03 -0.45708261688E+03  0.67004885267E+03  0.12699999809E+01 0.  1.
       -4    1    3    3    0  502  0.24557599889E+03 -0.42394782954E+03 -0.22242199713E+03  0.53806364969E+03  0.12699999809E+01 0. -1.
</event>
<event>
 5   0  0.1461334E-04  0.9999646E+03  0.7818609E-02  0.9308584E-01
        1   -1    0    0  501    0  0.00000000000E+00  0.00000000000E+00  0.82916830719E+03  0.82916830720E+03  0.50400001928E-02 0.  1.
       -1   -1    0    0    0  501  0.00000000000E+00  0.00000000000E+00 -0.30148559205E+03  0.30148559209E+03  0.50400001928E-02 0. -1.
    10030    2    1    2    0    0  0.00000000000E+00  0.00000000000E+00  0.52768271514E+03  0.11306538993E+04  0.99996459544E+03 0.  0.
        2    1    3    3  502    0 -0.27775881203E+03 -0.33538161983E+03  0.54161378203E+03  0.69496494693E+03  0.25500000920E-02 0.  1.
       -2    1    3    3    0  502  0.27775881203E+03  0.33538161983E+03 -0.13931066892E+02  0.43568895236E+03  0.25500000920E-02 0. -1.
</event>
<event>
 5   0  0.1461334E-04  0.9997509E+03  0.7818609E-02  0.9308818E-01
        1   -1    0    0  501    0  0.00000000000E+00  0.00000000000E+00  0.10475105104E+04  0.10475105105E+04  0.50400001928E-02 0. -1.
       -1   -1    0    0    0  501  0.00000000000E+00  0.00000000000E+00 -0.23854218058E+03  0.23854218063E+03  0.50400001928E-02 0.  1.
    10030    2    1    2    0    0  0.00000000000E+00  0.00000000000E+00  0.80896832986E+03  0.12860526911E+04  0.99975085172E+03 0.  0.
        2    1    3    3  502    0  0.90575791835E+02 -0.49160092013E+03  0.40455017788E+03  0.64306786980E+03  0.25500000920E-02 0.  1.
       -2    1    3    3    0  502 -0.90575791835E+02  0.49160092013E+03  0.40441815198E+03  0.64298482128E+03  0.25500000920E-02 0. -1.
</event>
<event>
 5   0  0.2503680E-04  0.9988223E+03  0.7818609E-02  0.9309837E-01
        2   -1    0    0  501    0  0.00000000000E+00  0.00000000000E+00  0.25302289533E+03  0.25302289535E+03  0.25500000920E-02 0. -1.
       -2   -1    0    0    0  501  0.00000000000E+00  0.00000000000E+00 -0.98572702397E+03  0.98572702397E+03  0.25500000920E-02 0.  1.
    10030    2    1    2    0    0  0.00000000000E+00  0.00000000000E+00 -0.73270412863E+03  0.12387499193E+04  0.99882231778E+03 0.  0.
        2    1    3    3  502    0 -0.10853245891E+03 -0.42170382441E+03 -0.63075342154E+02  0.43999080554E+03  0.25500000920E-02 0. -1.
       -2    1    3    3    0  502  0.10853245891E+03  0.42170382441E+03 -0.66962878648E+03  0.79875911378E+03  0.25500000920E-02 0.  1.
</event>
<event>
 5   0  0.1430675E-04  0.1001540E+04  0.7818609E-02  0.9306858E-01
        1   -1    0    0  501    0  0.00000000000E+00  0.00000000000E+00  0.37099211695E+03  0.37099211699E+03  0.50400001928E-02 0. -1.
       -1   -1    0    0    0  501  0.00000000000E+00  0.00000000000E+00 -0.67594564820E+03  0.67594564822E+03  0.50400001928E-02 0.  1.
    10030    2    1    2    0    0  0.00000000000E+00  0.00000000000E+00 -0.30495353125E+03  0.10469377652E+04  0.10015398285E+04 0.  0.
        5    1    3    3  502    0  0.44339085766E+03  0.18900757998E+03 -0.10569479856E+02  0.48213392522E+03  0.46999998093E+01 0. -1.
       -5    1    3    3    0  502 -0.44339085766E+03 -0.18900757998E+03 -0.29438405139E+03  0.56480383998E+03  0.46999998093E+01 0.  1.
</event>
<event>
 5   0  0.1414165E-04  0.1000378E+04  0.7818609E-02  0.9308130E-01
        1   -1    0    0  501    0  0.00000000000E+00  0.00000000000E+00  0.96145275977E+03  0.96145275978E+03  0.50400001928E-02 0. -1.
       -1   -1    0    0    0  501  0.00000000000E+00  0.00000000000E+00 -0.26021980504E+03  0.26021980509E+03  0.50400001928E-02 0.  1.
    10030    2    1    2    0    0  0.00000000000E+00  0.00000000000E+00  0.70123295473E+03  0.12216725649E+04  0.10003780280E+04 0.  0.
        4    1    3    3  502    0 -0.13107779902E+03  0.37006284710E+03  0.72911215149E+03  0.82809060045E+03  0.12699999809E+01 0. -1.
       -4    1    3    3    0  502  0.13107779902E+03 -0.37006284710E+03 -0.27879196766E+02  0.39358196441E+03  0.12699999809E+01 0.  1.
</event>
<event>
 5   0  0.1430675E-04  0.1000382E+04  0.7818609E-02  0.9308126E-01
        1   -1    0    0  501    0  0.00000000000E+00  0.00000000000E+00  0.55572269198E+03  0.55572269201E+03  0.50400001928E-02 0.  1.
       -1   -1    0    0    0  501  0.00000000000E+00  0.00000000000E+00 -0.45020805507E+03  0.45020805510E+03  0.50400001928E-02 0. -1.
    10030    2    1    2    0    0  0.00000000000E+00  0.00000000000E+00  0.10551463692E+03  0.10059307471E+04  0.10003815919E+04 0.  0.
        5    1    3    3  502    0  0.33762554796E+03 -0.92278354121E+02  0.41203807512E+03  0.54065124676E+03  0.46999998093E+01 0. -1.
       -5    1    3    3    0  502 -0.33762554796E+03  0.92278354121E+02 -0.30652343820E+03  0.46527950034E+03  0.46999998093E+01 0.  1.
</event>
<event>
 5   0  0.2503680E-04  0.9999097E+03  0.7818609E-02  0.9308644E-01
        2   -1    0    0  501    0  0.00000000000E+00  0.00000000000E+00  0.17458154986E+04  0.17458154986E+04  0.25500000920E-02 0. -1.
       -2   -1    0    0    0  501  0.00000000000E+00  0.00000000000E+00 -0.14317369543E+03  0.14317369545E+03  0.25500000920E-02 0.  1.
    10030    2    1    2    0    0  0.00000000000E+00  0.00000000000E+00  0.16026418031E+04  0.18889891940E+04  0.99990970890E+03 0.  0.
        2    1    3    3  502    0 -0.49981326372E+03 -0.10270174570E+01  0.82371387017E+03  0.96349306862E+03  0.25500000920E-02 0. -1.
       -2    1    3    3    0  502  0.49981326372E+03  0.10270174570E+01  0.77892793296E+03  0.92549612539E+03  0.25500000920E-02 0.  1.
</event>
<event>
 5   0  0.2503680E-04  0.1000123E+04  0.7818609E-02  0.9308410E-01
       -2   -1    0    0    0  501  0.00000000000E+00  0.00000000000E+00  0.67600338910E+03  0.67600338911E+03  0.25500000920E-02 0.  1.
        2   -1    0    0  501    0  0.00000000000E+00  0.00000000000E+00 -0.36991139229E+03  0.36991139230E+03  0.25500000920E-02 0. -1.
    10030    2    1    2    0    0  0.00000000000E+00  0.00000000000E+00  0.30609199681E+03  0.10459147814E+04  0.10001227022E+04 0.  0.
        2    1    3    3  502    0 -0.56971281525E+02  0.41552958714E+03 -0.13172837616E+03  0.43961679881E+03  0.25500000920E-02 0. -1.
       -2    1    3    3    0  502  0.56971281525E+02 -0.41552958714E+03  0.43782037297E+03  0.60629798259E+03  0.25500000920E-02 0.  1.
</event>
<event>
 5   0  0.1414165E-04  0.1000519E+04  0.7818609E-02  0.9307975E-01
        1   -1    0    0  501    0  0.00000000000E+00  0.00000000000E+00  0.88438278779E+03  0.88438278780E+03  0.50400001928E-02 0.  1.
       -1   -1    0    0    0  501  0.00000000000E+00  0.00000000000E+00 -0.28297667856E+03  0.28297667861E+03  0.50400001928E-02 0. -1.
    10030    2    1    2    0    0  0.00000000000E+00  0.00000000000E+00  0.60140610923E+03  0.11673594664E+04  0.10005192730E+04 0.  0.
        4    1    3    3  502    0 -0.32250249267E+03  0.15949587126E+03  0.70624233847E+03  0.79260749698E+03  0.12699999809E+01 0.  1.
       -4    1    3    3    0  502  0.32250249267E+03 -0.15949587126E+03 -0.10483622924E+03  0.37475196943E+03  0.12699999809E+01 0. -1.
</event>
<event>
 5   0  0.2484904E-04  0.9998861E+03  0.7818609E-02  0.9308670E-01
       -2   -1    0    0    0  501  0.00000000000E+00  0.00000000000E+00  0.34171519122E+03  0.34171519123E+03  0.25500000920E-02 0. -1.
        2   -1    0    0  501    0  0.00000000000E+00  0.00000000000E+00 -0.73143681523E+03  0.73143681524E+03  0.25500000920E-02 0.  1.
    10030    2    1    2    0    0  0.00000000000E+00  0.00000000000E+00 -0.38972162401E+03  0.10731520065E+04  0.99988613591E+03 0.  0.
        3    1    3    3  502    0  0.72525306090E+02 -0.38040321348E+03  0.14449847457E+03  0.41333563143E+03  0.10100000352E+00 0. -1.
       -3    1    3    3    0  502 -0.72525306090E+02  0.38040321348E+03 -0.53422009858E+03  0.65981637505E+03  0.10100000352E+00 0.  1.
</event>
<event>
 5   0  0.2484904E-04  0.9992500E+03  0.7818609E-02  0.9309368E-01
       -2   -1    0    0    0  501  0.00000000000E+00  0.00000000000E+00  0.17458973589E+03  0.17458973591E+03  0.25500000920E-02 0.  1.
        2   -1    0    0  501    0  0.00000000000E+00  0.00000000000E+00 -0.14297811655E+04  0.14297811655E+04  0.25500000920E-02 0. -1.
    10030    2    1    2    0    0  0.00000000000E+00  0.00000000000E+00 -0.12551914296E+04  0.16043709014E+04  0.99924995086E+03 0.  0.
        3    1    3    3  502    0 -0.12602149877E+03 -0.54277917443E+02 -0.13989364738E+04  0.14056495930E+04  0.10100000352E+00 0. -1.
       -3    1    3    3    0  502  0.12602149877E+03  0.54277917443E+02  0.14374504418E+03  0.19872130837E+03  0.10100000352E+00 0.  1.
</event>
<event>
 5   0  0.2353916E-04  0.9998155E+03  0.7818609E-02  0.9308747E-01
        2   -1    0    0  501    0  0.00000000000E+00  0.00000000000E+00  0.34121119753E+03  0.34121119754E+03  0.25500000920E-02 0.  1.
       -2   -1    0    0    0  501  0.00000000000E+00  0.00000000000E+00 -0.73241373248E+03  0.73241373248E+03  0.25500000920E-02 0. -1.
    10030    2    1    2    0    0  0.00000000000E+00  0.00000000000E+00 -0.39120253495E+03  0.10736249300E+04  0.99981551650E+03 0.  0.
        4    1    3    3  502    0  0.20097203444E+03 -0.57739022614E+02  0.29199314637E+03  0.35914504561E+03  0.12699999809E+01 0.  1.
       -4    1    3    3    0  502 -0.20097203444E+03  0.57739022614E+02 -0.68319568132E+03  0.71447988442E+03  0.12699999809E+01 0. -1.
</event>
<event>
 5   0  0.1414165E-04  0.9954710E+03  0.7818609E-02  0.9313526E-01
        1   -1    0    0  501    0  0.00000000000E+00  0.00000000000E+00  0.33441440698E+03  0.33441440701E+03  0.50400001928E-02 0.  1.
       -1   -1    0    0    0  501  0.00000000000E+00  0.00000000000E+00 -0.74081925126E+03  0.74081925127E+03  0.50400001928E-02 0. -1.
    10030    2    1    2    0    0  0.00000000000E+00  0.00000000000E+00 -0.40640484428E+03  0.10752336583E+04  0.99547100533E+03 0.  0.
        4    1    3    3  502    0 -0.32463449638E+03 -0.37440752654E+02  0.20231193876E+03  0.38434502685E+03  0.12699999809E+01 0.  1.
       -4    1    3    3    0  502  0.32463449638E+03  0.37440752654E+02 -0.60871678304E+03  0.69088863144E+03  0.12699999809E+01 0. -1.
</event>
<event>
 5   0  0.1414165E-04  0.1001135E+04  0.7818609E-02  0.9307301E-01
        1   -1    0    0  501    0  0.00000000000E+00  0.00000000000E+00  0.47012714809E+03  0.47012714812E+03  0.50400001928E-02 0.  1.
       -1   -1    0    0    0  501  0.00000000000E+00  0.00000000000E+00 -0.53297875482E+03  0.53297875484E+03  0.50400001928E-02 0. -1.
    10030    2    1    2    0    0  0.00000000000E+00  0.00000000000E+00 -0.62851606728E+02  0.10031059030E+04  0.10011349200E+04 0.  0.
        4    1    3    3  502    0  0.27933767372E+03  0.38004587756E+03  0.13654003735E+03  0.49102871577E+03  0.12699999809E+01 0. -1.
       -4    1    3    3    0  502 -0.27933767372E+03 -0.38004587756E+03 -0.19939164408E+03  0.51207718719E+03  0.12699999809E+01 0.  1.
</event>
<event>
 5   0  0.2473312E-04  0.1000091E+04  0.7818609E-02  0.9308445E-01
        2   -1    0    0  501    0  0.00000000000E+00  0.00000000000E+00  0.21149736791E+04  0.21149736791E+04  0.25500000920E-02 0. -1.
       -2   -1    0    0    0  501  0.00000000000E+00  0.00000000000E+00 -0.11822635975E+03  0.11822635978E+03  0.25500000920E-02 0.  1.
    10030    2    1    2    0    0  0.00000000000E+00  0.00000000000E+00  0.19967473194E+04  0.22332000389E+04  0.10000912740E+04 0.  0.
        5    1    3    3  502    0  0.26268836823E+03  0.42303329950E+03  0.89699470145E+03  0.10259551334E+04  0.46999998093E+01 0. -1.
       -5    1    3    3    0  502 -0.26268836823E+03 -0.42303329950E+03  0.10997526179E+04  0.12072449055E+04  0.46999998093E+01 0.  1.
</event>
<event>
 5   0  0.1414165E-04  0.9999080E+03  0.7818609E-02  0.9308646E-01
        1   -1    0    0  501    0  0.00000000000E+00  0.00000000000E+00  0.36152516232E+03  0.36152516236E+03  0.50400001928E-02 0.  1.
       -1   -1    0    0    0  501  0.00000000000E+00  0.00000000000E+00 -0.69138752081E+03  0.69138752082E+03  0.50400001928E-02 0. -1.
    10030    2    1    2    0    0  0.00000000000E+00  0.00000000000E+00 -0.32986235848E+03  0.10529126832E+04  0.99990796720E+03 0.  0.
        4    1    3    3  502    0  0.19124041469E+03 -0.44067809084E+03 -0.31077318622E+03  0.57214653904E+03  0.12699999809E+01 0. -1.
       -4    1    3    3    0  502 -0.19124041469E+03  0.44067809084E+03 -0.19089172264E+02  0.48076614415E+03  0.12699999809E+01 0.  1.
</event>
<event>
 5   0  0.2484904E-04  0.9996898E+03  0.7818609E-02  0.9308885E-01
        2   -1    0    0  501    0  0.00000000000E+00  0.00000000000E+00  0.61719112928E+03  0.61719112929E+03  0.25500000920E-02 0. -1.
       -2   -1    0    0    0  501  0.00000000000E+00  0.00000000000E+00 -0.40480963574E+03  0.40480963574E+03  0.25500000920E-02 0.  1.
    10030    2    1    2    0    0  0.00000000000E+00  0.00000000000E+00  0.21238149355E+03  0.10220007650E+04  0.99968978435E+03 0.  0.
        3    1    3    3  502    0 -0.14933082349E+02  0.14848394019E+03 -0.38150357285E+03  0.40965285760E+03  0.10100000352E+00 0.  1.
       -3    1    3    3    0  502  0.14933082349E+02 -0.14848394019E+03  0.59388506640E+03  0.61234790743E+03  0.10100000352E+00 0. -1.
</event>
<event>
 5   0  0.2484904E-04  0.9998399E+03  0.7818609E-02  0.9308720E-01
       -2   -1    0    0    0  501  0.00000000000E+00  0.00000000000E+00  0.26083197090E+03  0.26083197091E+03  0.25500000920E-02 0.  1.
        2   -1    0    0  501    0  0.00000000000E+00  0.00000000000E+00 -0.95816464297E+03  0.95816464297E+03  0.25500000920E-02 0. -1.
    10030    2    1    2    0    0  0.00000000000E+00  0.00000000000E+00 -0.69733267207E+03  0.12189966139E+04  0.99983993175E+03 0.  0.
        3    1    3    3  502    0 -0.27506750601E+03 -0.21444486278E+03 -0.78531954009E+03  0.85928779945E+03  0.10100000352E+00 0. -1.
       -3    1    3    3    0  502  0.27506750601E+03  0.21444486278E+03  0.87986868017E+02  0.35970881443E+03  0.10100000352E+00 0.  1.
</event>
<event>
 5   0  0.1414165E-04  0.1000040E+04  0.7818609E-02  0.9308501E-01
       -1   -1    0    0    0  501  0.00000000000E+00  0.00000000000E+00  0.39618114443E+03  0.39618114446E+03  0.50400001928E-02 0.  1.
        1   -1    0    0  501    0  0.00000000000E+00  0.00000000000E+00 -0.63107539475E+03  0.63107539477E+03  0.50400001928E-02 0. -1.
    10030    2    1    2    0    0  0.00000000000E+00  0.00000000000E+00 -0.23489425032E+03  0.10272565392E+04  0.10000403435E+04 0.  0.
        4    1    3    3  502    0  0.33770992268E+03 -0.32966311486E+03  0.52254274737E+02  0.47482405510E+03  0.12699999809E+01 0.  1.
       -4    1    3    3    0  502 -0.33770992268E+03  0.32966311486E+03 -0.28714852506E+03  0.55243248413E+03  0.12699999809E+01 0. -1.
</event>
<event>
 5   0  0.1506454E-04  0.1000302E+04  0.7818609E-02  0.9308214E-01
       -1   -1    0    0    0  501  0.00000000000E+00  0.00000000000E+00  0.43169066243E+03  0.43169066246E+03  0.50400001928E-02 0. -1.
        1   -1    0    0  501    0  0.00000000000E+00  0.00000000000E+00 -0.57946797487E+03  0.57946797489E+03  0.50400001928E-02 0.  1.
    10030    2    1    2    0    0  0.00000000000E+00  0.00000000000E+00 -0.14777731244E+03  0.10111586373E+04  0.10003017824E+04 0.  0.
        3    1    3    3  502    0  0.20996569879E+03 -0.43776142390E+03  0.47541094383E+02  0.48783278363E+03  0.10100000352E+00 0. -1.
       -3    1    3    3    0  502 -0.20996569879E+03  0.43776142390E+03 -0.19531840682E+03  0.52332585372E+03  0.10100000352E+00 0.  1.
</event>
<event>
 5   0  0.1414165E-04  0.1000410E+04  0.7818609E-02  0.9308095E-01
        1   -1    0    0  501    0  0.00000000000E+00  0.00000000000E+00  0.38272897596E+03  0.38272897599E+03  0.50400001928E-02 0.  1.
       -1   -1    0    0    0  501  0.00000000000E+00  0.00000000000E+00 -0.65373953013E+03  0.65373953015E+03  0.50400001928E-02 0. -1.
    10030    2    1    2    0    0  0.00000000000E+00  0.00000000000E+00 -0.27101055417E+03  0.10364685061E+04  0.10004100378E+04 0.  0.
        4    1    3    3  502    0  0.26148162892E+03 -0.22102336116E+03  0.24230205686E+03  0.41944709809E+03  0.12699999809E+01 0.  1.
       -4    1    3    3    0  502 -0.26148162892E+03  0.22102336116E+03 -0.51331261103E+03  0.61702140804E+03  0.12699999809E+01 0. -1.
</event>
<event>
 5   0  0.2473312E-04  0.9997365E+03  0.7818609E-02  0.9308834E-01
       -2   -1    0    0    0  501  0.00000000000E+00  0.00000000000E+00  0.58006904683E+03  0.58006904684E+03  0.25500000920E-02 0. -1.
        2   -1    0    0  501    0  0.00000000000E+00  0.00000000000E+00 -0.43075605026E+03  0.43075605027E+03  0.25500000920E-02 0.  1.
    10030    2    1    2    0    0  0.00000000000E+00  0.00000000000E+00  0.14931299657E+03  0.10108250971E+04  0.99973646827E+03 0.  0.
        5    1    3    3  502    0  0.19042571198E+03 -0.31045908833E+03  0.42079755045E+03  0.55654242046E+03  0.46999998093E+01 0. -1.
       -5    1    3    3    0  502 -0.19042571198E+03  0.31045908833E+03 -0.27148455387E+03  0.45428267665E+03  0.46999998093E+01 0.  1.
</event>
<event>
 5   0  0.1414165E-04  0.9996080E+03  0.7818609E-02  0.9308975E-01
        1   -1    0    0  501    0  0.00000000000E+00  0.00000000000E+00  0.79258124471E+03  0.79258124472E+03  0.50400001928E-02 0.  1.
       -1   -1    0    0    0  501  0.00000000000E+00  0.00000000000E+00 -0.31517785032E+03  0.31517785036E+03  0.50400001928E-02 0. -1.
    10030    2    1    2    0    0  0.00000000000E+00  0.00000000000E+00  0.47740339439E+03  0.11077590951E+04  0.99960802907E+03 0.  0.
        4    1    3    3  502    0 -0.80715902183E+02 -0.13971793921E+03 -0.28551748701E+03  0.32796037518E+03  0.12699999809E+01 0. -1.
       -4    1    3    3    0  502  0.80715902183E+02  0.13971793921E+03  0.76292088139E+03  0.77979871991E+03  0.12699999809E+01 0.  1.
</event>
<event>
 5   0  0.9650500E-05  0.1000214E+04  0.7818609E-02  0.9308310E-01
        3   -1    0    0  501    0  0.00000000000E+00  0.00000000000E+00  0.81139355432E+03  0.81139356061E+03  0.10100000352E+00 0.  1.
       -3   -1    0    0    0  501  0.00000000000E+00  0.00000000000E+00 -0.30824373329E+03  0.30824374984E+03  0.10100000352E+00 0. -1.
    10030    2    1    2    0    0  0.00000000000E+00  0.00000000000E+00  0.50314982103E+03  0.11196373104E+04  0.10002139594E+04 0.  0.
        2    1    3    3  502    0  0.15208147521E+01  0.44911809338E+03  0.53134574938E+01  0.44915209842E+03  0.25500000920E-02 0. -1.
       -2    1    3    3    0  502 -0.15208147521E+01 -0.44911809338E+03  0.49783636353E+03  0.67048521202E+03  0.25500000920E-02 0.  1.
</event>
<event>
 5   0  0.1461334E-04  0.1000310E+04  0.7818609E-02  0.9308205E-01
       -1   -1    0    0    0  501  0.00000000000E+00  0.00000000000E+00  0.42933544090E+03  0.42933544093E+03  0.50400001928E-02 0. -1.
        1   -1    0    0  501    0  0.00000000000E+00  0.00000000000E+00 -0.58265618260E+03  0.58265618262E+03  0.50400001928E-02 0.  1.
    10030    2    1    2    0    0  0.00000000000E+00  0.00000000000E+00 -0.15332074169E+03  0.10119916235E+04  0.10003098501E+04 0.  0.
        2    1    3    3  502    0 -0.44046507361E+03  0.18812684615E+03  0.69083649049E+02  0.48391501515E+03  0.25500000920E-02 0.  1.
       -2    1    3    3    0  502  0.44046507361E+03 -0.18812684615E+03 -0.22240439074E+03  0.52807660840E+03  0.25500000920E-02 0. -1.
</event>
<event>
 5   0  0.1430675E-04  0.9994656E+03  0.7818609E-02  0.9309131E-01
        1   -1    0    0  501    0  0.00000000000E+00  0.00000000000E+00  0.26100340406E+03  0.26100340411E+03  0.50400001928E-02 0. -1.
       -1   -1    0    0    0  501  0.00000000000E+00  0.00000000000E+00 -0.95681844903E+03  0.95681844904E+03  0.50400001928E-02 0.  1.
    10030    2    1    2    0    0  0.00000000000E+00  0.00000000000E+00 -0.69581504497E+03  0.12178218531E+04  0.99946560181E+03 0.  0.
        5    1    3    3  502    0 -0.39190209960E+03  0.27461274269E+03 -0.17255165354E+03  0.50871954676E+03  0.46999998093E+01 0. -1.
       -5    1    3    3    0  502  0.39190209960E+03 -0.27461274269E+03 -0.52326339143E+03  0.70910230639E+03  0.46999998093E+01 0.  1.
</event>
<event>
 5   0  0.2503680E-04  0.9999937E+03  0.7818609E-02  0.9308552E-01
       -2   -1    0    0    0  501  0.00000000000E+00  0.00000000000E+00  0.16330083973E+03  0.16330083975E+03  0.25500000920E-02 0. -1.
        2   -1    0    0  501    0  0.00000000000E+00  0.00000000000E+00 -0.15308975300E+04  0.15308975300E+04  0.25500000920E-02 0.  1.
    10030    2    1    2    0    0  0.00000000000E+00  0.00000000000E+00 -0.13675966903E+04  0.16941983698E+04  0.99999370440E+03 0.  0.
        2    1    3    3  502    0 -0.29979796836E+03  0.20682905324E+03 -0.10344884367E+03  0.37862744533E+03  0.25500000920E-02 0. -1.
       -2    1    3    3    0  502  0.29979796836E+03 -0.20682905324E+03 -0.12641478466E+04  0.13155709244E+04  0.25500000920E-02 0.  1.
</event>
<event>
 5   0  0.2353916E-04  0.9988728E+03  0.7818609E-02  0.9309782E-01
        2   -1    0    0  501    0  0.00000000000E+00  0.00000000000E+00  0.26774898448E+04  0.26774898448E+04  0.25500000920E-02 0. -1.
       -2   -1    0    0    0  501  0.00000000000E+00  0.00000000000E+00 -0.93160665232E+02  0.93160665267E+02  0.25500000920E-02 0.  1.
    10030    2    1    2    0    0  0.00000000000E+00  0.00000000000E+00  0.25843291796E+04  0.27706505101E+04  0.99887283503E+03 0.  0.
        4    1    3    3  502    0  0.37747234126E+03 -0.26932293959E+03  0.18067350505E+04  0.18652917653E+04  0.12699999809E+01 0. -1.
       -4    1    3    3    0  502 -0.37747234126E+03  0.26932293959E+03  0.77759412908E+03  0.90535874475E+03  0.12699999809E+01 0.  1.
</event>
<event>
 5   0  0.2484904E-04  0.9998812E+03  0.7818609E-02  0.9308675E-01
       -2   -1    0    0    0  501  0.00000000000E+00  0.00000000000E+00  0.24487438627E+03  0.24487438628E+03  0.25500000920E-02 0.  1.
        2   -1    0    0  501    0  0.00000000000E+00  0.00000000000E+00 -0.10206889968E+04  0.10206889969E+04  0.25500000920E-02 0. -1.
    10030    2    1    2    0    0  0.00000000000E+00  0.00000000000E+00 -0.77581461058E+03  0.12655633831E+04  0.99988117632E+03 0.  0.
        3    1    3    3  502    0  0.39122781537E+03 -0.14881366847E+03 -0.41888218424E+02  0.42066535926E+03  0.10100000352E+00 0. -1.
       -3    1    3    3    0  502 -0.39122781537E+03  0.14881366847E+03 -0.73392639216E+03  0.84489802387E+03  0.10100000352E+00 0.  1.
</event>
<event>
 5   0  0.1414165E-04  0.1000285E+04  0.7818609E-02  0.9308232E-01
        1   -1    0    0  501    0  0.00000000000E+00  0.00000000000E+00  0.12395861800E+04  0.12395861800E+04  0.50400001928E-02 0. -1.
       -1   -1    0    0    0  501  0.00000000000E+00  0.00000000000E+00 -0.20179520954E+03  0.20179520960E+03  0.50400001928E-02 0.  1.
    10030    2    1    2    0    0  0.00000000000E+00  0.00000000000E+00  0.10377909704E+04  0.14413813896E+04  0.10002850653E+04 0.  0.
        4    1    3    3  502    0 -0.12183619306E+03  0.98784651409E+02 -0.16543430373E+03  0.22797497021E+03  0.12699999809E+01 0.  1.
       -4    1    3    3    0  502  0.12183619306E+03 -0.98784651409E+02  0.12032252742E+04  0.12134064194E+04  0.12699999809E+01 0. -1.
</event>
<event>
 5   0  0.1506454E-04  0.9999641E+03  0.7818609E-02  0.9308584E-01
        1   -1    0    0  501    0  0.00000000000E+00  0.00000000000E+00  0.64064361466E+03  0.64064361468E+03  0.50400001928E-02 0.  1.
       -1   -1    0    0    0  501  0.00000000000E+00  0.00000000000E+00 -0.39020451433E+03  0.39020451436E+03  0.50400001928E-02 0. -1.
    10030    2    1    2    0    0  0.00000000000E+00  0.00000000000E+00  0.25043910033E+03  0.10308481290E+04  0.99996406044E+03 0.  0.
        3    1    3    3  502    0  0.52635702589E+02  0.26064785654E+03  0.56170441578E+03  0.62146575386E+03  0.10100000352E+00 0.  1.
       -3    1    3    3    0  502 -0.52635702589E+02 -0.26064785654E+03 -0.31126531545E+03  0.40938237519E+03  0.10100000352E+00 0. -1.
</event>
<event>
 5   0  0.1430675E-04  0.1000614E+04  0.7818609E-02  0.9307871E-01
        1   -1    0    0  501    0  0.00000000000E+00  0.00000000000E+00  0.36236262824E+03  0.36236262827E+03  0.50400001928E-02 0. -1.
       -1   -1    0    0    0  501  0.00000000000E+00  0.00000000000E+00 -0.69076448227E+03  0.69076448229E+03  0.50400001928E-02 0.  1.
    10030    2    1    2    0    0  0.00000000000E+00  0.00000000000E+00 -0.32840185404E+03  0.10531271106E+04  0.10006142780E+04 0.  0.
        5    1    3    3  502    0  0.37331424514E+03  0.64901891607E+02 -0.50800843722E+03  0.63377475766E+03  0.46999998093E+01 0.  1.
       -5    1    3    3    0  502 -0.37331424514E+03 -0.64901891607E+02  0.17960658319E+03  0.41935235290E+03  0.46999998093E+01 0. -1.
</event>
<event>
 5   0  0.1430675E-04  0.9997478E+03  0.7818609E-02  0.9308821E-01
        1   -1    0    0  501    0  0.00000000000E+00  0.00000000000E+00  0.37142264783E+03  0.37142264787E+03  0.50400001928E-02 0. -1.
       -1   -1    0    0    0  501  0.00000000000E+00  0.00000000000E+00 -0.67274815437E+03  0.67274815439E+03  0.50400001928E-02 0.  1.
    10030    2    1    2    0    0  0.00000000000E+00  0.00000000000E+00 -0.30132550653E+03  0.10441708023E+04  0.99974776989E+03 0.  0.
        5    1    3    3  502    0 -0.41769179538E+03  0.17048114220E+03 -0.37545051678E+03  0.58695437329E+03  0.46999998093E+01 0.  1.
       -5    1    3    3    0  502  0.41769179538E+03 -0.17048114220E+03  0.74125010249E+02  0.45721642897E+03  0.46999998093E+01 0. -1.
</event>
<event>
 5   0  0.2503680E-04  0.9995143E+03  0.7818609E-02  0.9309078E-01
       -2   -1    0    0    0  501  0.00000000000E+00  0.00000000000E+00  0.27461624749E+03  0.27461624751E+03  0.25500000920E-02 0.  1.
        2   -1    0    0  501    0  0.00000000000E+00  0.00000000000E+00 -0.90947725979E+03  0.90947725979E+03  0.25500000920E-02 0. -1.
    10030    2    1    2    0    0  0.00000000000E+00  0.00000000000E+00 -0.63486101230E+03  0.11840935073E+04  0.99951434662E+03 0.  0.
        2    1    3    3  502    0  0.22461647540E+03  0.37412069403E+02 -0.84444839873E+03  0.87461152638E+03  0.25500000920E-02 0. -1.
       -2    1    3    3    0  502 -0.22461647540E+03 -0.37412069403E+02  0.20958738643E+03  0.30948198092E+03  0.25500000920E-02 0.  1.
</event>
<event>
 5   0  0.2503680E-04  0.9998495E+03  0.7818609E-02  0.9308710E-01
       -2   -1    0    0    0  501  0.00000000000E+00  0.00000000000E+00  0.29754339545E+03  0.29754339546E+03  0.25500000920E-02 0.  1.
        2   -1    0    0  501    0  0.00000000000E+00  0.00000000000E+00 -0.83996067434E+03  0.83996067434E+03  0.25500000920E-02 0. -1.
    10030    2    1    2    0    0  0.00000000000E+00  0.00000000000E+00 -0.54241727889E+03  0.11375040698E+04  0.99984949085E+03 0.  0.
        2    1    3    3  502    0  0.14098485585E+03 -0.31388220762E+03 -0.68380377619E+03  0.76549746843E+03  0.25500000920E-02 0. -1.
       -2    1    3    3    0  502 -0.14098485585E+03  0.31388220762E+03  0.14138649730E+03  0.37200660137E+03  0.25500000920E-02 0.  1.
</event>
<event>
 5   0  0.1453863E-04  0.1000099E+04  0.7818609E-02  0.9308436E-01
       -1   -1    0    0    0  501  0.00000000000E+00  0.00000000000E+00  0.23613105014E+03  0.23613105019E+03  0.50400001928E-02 0. -1.
        1   -1    0    0  501    0  0.00000000000E+00  0.00000000000E+00 -0.10589436076E+04  0.10589436076E+04  0.50400001928E-02 0.  1.
    10030    2    1    2    0    0  0.00000000000E+00  0.00000000000E+00 -0.82281255741E+03  0.12950746578E+04  0.10000989274E+04 0.  0.
        1    1    3    3  502    0  0.41486221635E+03  0.27758960473E+03 -0.37293047916E+03  0.62309211961E+03  0.50400001928E-02 0. -1.
       -1    1    3    3    0  502 -0.41486221635E+03 -0.27758960473E+03 -0.44988207826E+03  0.67198253815E+03  0.50400001928E-02 0.  1.
</event>
<event>
 5   0  0.1453863E-04  0.1000054E+04  0.7818609E-02  0.9308486E-01
       -1   -1    0    0    0  501  0.00000000000E+00  0.00000000000E+00  0.79461829517E+03  0.79461829518E+03  0.50400001928E-02 0. -1.
        1   -1    0    0  501    0  0.00000000000E+00  0.00000000000E+00 -0.31465031594E+03  0.31465031598E+03  0.50400001928E-02 0.  1.
    10030    2    1    2    0    0  0.00000000000E+00  0.00000000000E+00  0.47996797923E+03  0.11092686112E+04  0.10000537939E+04 0.  0.
        1    1    3    3  502    0  0.40506825204E+03 -0.27769254575E+03  0.13573334297E+03  0.50952623013E+03  0.50400001928E-02 0.  1.
       -1    1    3    3    0  502 -0.40506825204E+03  0.27769254575E+03  0.34423463626E+03  0.59974238103E+03  0.50400001928E-02 0. -1.
</event>
<event>
 5   0  0.2403037E-04  0.9997499E+03  0.7818609E-02  0.9308819E-01
       -2   -1    0    0    0  501  0.00000000000E+00  0.00000000000E+00  0.22903223611E+03  0.22903223612E+03  0.25500000920E-02 0. -1.
        2   -1    0    0  501    0  0.00000000000E+00  0.00000000000E+00 -0.10910034787E+04  0.10910034787E+04  0.25500000920E-02 0.  1.
    10030    2    1    2    0    0  0.00000000000E+00  0.00000000000E+00 -0.86197124261E+03  0.13200357149E+04  0.99974990142E+03 0.  0.
        1    1    3    3  502    0  0.90673306496E+00  0.49986770684E+03 -0.42764016369E+03  0.65783330421E+03  0.50400001928E-02 0. -1.
       -1    1    3    3    0  502 -0.90673306496E+00 -0.49986770684E+03 -0.43433107892E+03  0.66220241064E+03  0.50400001928E-02 0.  1.
</event>
<event>
 5   0  0.2473312E-04  0.1000933E+04  0.7818609E-02  0.9307522E-01
        2   -1    0    0  501    0  0.00000000000E+00  0.00000000000E+00  0.14469597670E+04  0.14469597670E+04  0.25500000920E-02 0.  1.
       -2   -1    0    0    0  501  0.00000000000E+00  0.00000000000E+00 -0.17309866174E+03  0.17309866175E+03  0.25500000920E-02 0. -1.
    10030    2    1    2    0    0  0.00000000000E+00  0.00000000000E+00  0.12738611053E+04  0.16200584287E+04  0.10009331631E+04 0.  0.
        5    1    3    3  502    0  0.72709082871E+02 -0.32475035731E+02 -0.16274271182E+03  0.18124160374E+03  0.46999998093E+01 0. -1.
       -5    1    3    3    0  502 -0.72709082871E+02  0.32475035731E+02  0.14366038171E+04  0.14388168250E+04  0.46999998093E+01 0.  1.
</event>
<event>
 5   0  0.1461334E-04  0.1000008E+04  0.7818609E-02  0.9308536E-01
        1   -1    0    0  501    0  0.00000000000E+00  0.00000000000E+00  0.81713625550E+03  0.81713625551E+03  0.50400001928E-02 0.  1.
       -1   -1    0    0    0  501  0.00000000000E+00  0.00000000000E+00 -0.30595128561E+03  0.30595128565E+03  0.50400001928E-02 0. -1.
    10030    2    1    2    0    0  0.00000000000E+00  0.00000000000E+00  0.51118496989E+03  0.11230875412E+04  0.10000077758E+04 0.  0.
        2    1    3    3  502    0 -0.17544234679E+03  0.33582338584E+03 -0.11082481940E+03  0.39476512527E+03  0.25500000920E-02 0. -1.
       -2    1    3    3    0  502  0.17544234679E+03 -0.33582338584E+03  0.62200978929E+03  0.72832241590E+03  0.25500000920E-02 0.  1.
</event>
<event>
 5   0  0.1461334E-04  0.9972296E+03  0.7818609E-02  0.9311589E-01
        1   -1    0    0  501    0  0.00000000000E+00  0.00000000000E+00  0.46480892254E+03  0.46480892256E+03  0.50400001928E-02 0.  1.
       -1   -1    0    0    0  501  0.00000000000E+00  0.00000000000E+00 -0.53487943511E+03  0.53487943513E+03  0.50400001928E-02 0. -1.
    10030    2    1    2    0    0  0.00000000000E+00  0.00000000000E+00 -0.70070512571E+02  0.99968835769E+03  0.99722963041E+03 0.  0.
        2    1    3    3  502    0  0.41916208221E+03  0.18574642440E+03 -0.23152400016E+03  0.51361653789E+03  0.25500000920E-02 0. -1.
       -2    1    3    3    0  502 -0.41916208221E+03 -0.18574642440E+03  0.16145348759E+03  0.48607181980E+03  0.25500000920E-02 0.  1.
</event>
<event>
 5   0  0.1506454E-04  0.1000701E+04  0.7818609E-02  0.9307776E-01
        1   -1    0    0  501    0  0.00000000000E+00  0.00000000000E+00  0.89295927210E+03  0.89295927211E+03  0.50400001928E-02 0.  1.
       -1   -1    0    0    0  501  0.00000000000E+00  0.00000000000E+00 -0.28036059558E+03  0.28036059562E+03  0.50400001928E-02 0. -1.
    10030    2    1    2    0    0  0.00000000000E+00  0.00000000000E+00  0.61259867652E+03  0.11733198677E+04  0.10007009411E+04 0.  0.
        3    1    3    3  502    0 -0.38794013518E+02  0.33590797557E+03  0.73871342665E+03  0.81242641540E+03  0.10100000352E+00 0.  1.
       -3    1    3    3    0  502  0.38794013518E+02 -0.33590797557E+03 -0.12611475013E+03  0.36089345233E+03  0.10100000352E+00 0. -1.
</event>
<event>
 5   0  0.2484904E-04  0.9994536E+03  0.7818609E-02  0.9309144E-01
        2   -1    0    0  501    0  0.00000000000E+00  0.00000000000E+00  0.12010732289E+04  0.12010732289E+04  0.25500000920E-02 0.  1.
       -2   -1    0    0    0  501  0.00000000000E+00  0.00000000000E+00 -0.20791976039E+03  0.20791976040E+03  0.25500000920E-02 0. -1.
    10030    2    1    2    0    0  0.00000000000E+00  0.00000000000E+00  0.99315346847E+03  0.14089929893E+04  0.99945356664E+03 0.  0.
        3    1    3    3  502    0 -0.56317617620E+02 -0.47560266946E+03  0.69772024522E+03  0.84627603301E+03  0.10100000352E+00 0.  1.
       -3    1    3    3    0  502  0.56317617620E+02  0.47560266946E+03  0.29543322324E+03  0.56271695625E+03  0.10100000352E+00 0. -1.
</event>
<event>
 5   0  0.1430675E-04  0.9999766E+03  0.7818609E-02  0.9308571E-01
        1   -1    0    0  501    0  0.00000000000E+00  0.00000000000E+00  0.31399550491E+03  0.31399550495E+03  0.50400001928E-02 0.  1.
       -1   -1    0    0    0  501  0.00000000000E+00  0.00000000000E+00 -0.79615240140E+03  0.79615240142E+03  0.50400001928E-02 0. -1.
    10030    2    1    2    0    0  0.00000000000E+00  0.00000000000E+00 -0.48215689649E+03  0.11101479064E+04  0.99997655032E+03 0.  0.
        5    1    3    3  502    0  0.45118622325E+03  0.16221200627E+03 -0.83745052373E+02  0.48674127298E+03  0.46999998093E+01 0.  1.
       -5    1    3    3    0  502 -0.45118622325E+03 -0.16221200627E+03 -0.39841184412E+03  0.62340663339E+03  0.46999998093E+01 0. -1.
</event>
<event>
 5   0  0.1461334E-04  0.9993332E+03  0.7818609E-02  0.9309276E-01
        1   -1    0    0  501    0  0.00000000000E+00  0.00000000000E+00  0.69078970838E+03  0.69078970840E+03  0.50400001928E-02 0.  1.
       -1   -1    0    0    0  501  0.00000000000E+00  0.00000000000E+00 -0.36142215496E+03  0.36142215500E+03  0.50400001928E-02 0. -1.
    10030    2    1    2    0    0  0.00000000000E+00  0.00000000000E+00  0.32936755342E+03  0.10522118634E+04  0.99933318779E+03 0.  0.
        2    1    3    3  502    0  0.13931500895E+03  0.38481957602E+03 -0.13714081372E+03  0.43162759481E+03  0.25500000920E-02 0.  1.
       -2    1    3    3    0  502 -0.13931500895E+03 -0.38481957602E+03  0.46650836713E+03  0.62058426859E+03  0.25500000920E-02 0. -1.
</event>
<event>
 5   0  0.2403037E-04  0.1000238E+04  0.7818609E-02  0.9308284E-01
       -2   -1    0    0    0  501  0.00000000000E+00  0.00000000000E+00  0.38964850598E+03  0.38964850599E+03  0.25500000920E-02 0. -1.
        2   -1    0    0  501    0  0.00000000000E+00  0.00000000000E+00 -0.64190941683E+03  0.64190941684E+03  0.25500000920E-02 0.  1.
    10030    2    1    2    0    0  0.00000000000E+00  0.00000000000E+00 -0.25226091085E+03  0.10315579228E+04  0.10002380622E+04 0.  0.
        1    1    3    3  502    0 -0.34556013795E+03  0.31609015553E+03 -0.30710815221E+03  0.56003590290E+03  0.50400001928E-02 0.  1.
       -1    1    3    3    0  502  0.34556013795E+03 -0.31609015553E+03  0.54847241357E+02  0.47152201992E+03  0.50400001928E-02 0. -1.
</event>
<event>
 5   0  0.2473312E-04  0.1000119E+04  0.7818609E-02  0.9308414E-01
       -2   -1    0    0    0  501  0.00000000000E+00  0.00000000000E+00  0.34016888813E+03  0.34016888814E+03  0.25500000920E-02 0.  1.
        2   -1    0    0  501    0  0.00000000000E+00  0.00000000000E+00 -0.73510468740E+03  0.73510468740E+03  0.25500000920E-02 0. -1.
    10030    2    1    2    0    0  0.00000000000E+00  0.00000000000E+00 -0.39493579927E+03  0.10752735755E+04  0.10001194812E+04 0.  0.
        5    1    3    3  502    0  0.28140463586E+03 -0.37902525825E+03 -0.37474931656E+03  0.60275024325E+03  0.46999998093E+01 0. -1.
       -5    1    3    3    0  502 -0.28140463586E+03  0.37902525825E+03 -0.20186482705E+02  0.47252333229E+03  0.46999998093E+01 0.  1.
</event>
<event>
 5   0  0.2473312E-04  0.9999742E+03  0.7818609E-02  0.9308573E-01
        2   -1    0    0  501    0  0.00000000000E+00  0.00000000000E+00  0.41553352054E+03  0.41553352054E+03  0.25500000920E-02 0. -1.
       -2   -1    0    0    0  501  0.00000000000E+00  0.00000000000E+00 -0.60160518199E+03  0.60160518199E+03  0.25500000920E-02 0.  1.
    10030    2    1    2    0    0  0.00000000000E+00  0.00000000000E+00 -0.18607166145E+03  0.10171387025E+04  0.99997423817E+03 0.  0.
        5    1    3    3  502    0 -0.36274758291E+03  0.32919364056E+03 -0.19480706755E+03  0.52718701185E+03  0.46999998093E+01 0.  1.
       -5    1    3    3    0  502  0.36274758291E+03 -0.32919364056E+03  0.87354060990E+01  0.48995169069E+03  0.46999998093E+01 0. -1.
</event>
<event>
 5   0  0.2473312E-04  0.9999883E+03  0.7818609E-02  0.9308558E-01
        2   -1    0    0  501    0  0.00000000000E+00  0.00000000000E+00  0.45782558379E+03  0.45782558379E+03  0.25500000920E-02 0.  1.
       -2   -1    0    0    0  501  0.00000000000E+00  0.00000000000E+00 -0.54604665037E+03  0.54604665037E+03  0.25500000920E-02 0. -1.
    10030    2    1    2    0    0  0.00000000000E+00  0.00000000000E+00 -0.88221066581E+02  0.10038722342E+04  0.99998825290E+03 0.  0.
        5    1    3    3  502    0 -0.16957498059E+02  0.35144023701E+03  0.31247924679E+03  0.47059873205E+03  0.46999998093E+01 0.  1.
       -5    1    3    3    0  502  0.16957498059E+02 -0.35144023701E+03 -0.40070031337E+03  0.53327350212E+03  0.46999998093E+01 0. -1.
</event>
<event>
 5   0  0.2503680E-04  0.1000073E+04  0.7818609E-02  0.9308465E-01
        2   -1    0    0  501    0  0.00000000000E+00  0.00000000000E+00  0.82987432709E+03  0.82987432709E+03  0.25500000920E-02 0.  1.
       -2   -1    0    0    0  501  0.00000000000E+00  0.00000000000E+00 -0.30129412766E+03  0.30129412767E+03  0.25500000920E-02 0. -1.
    10030    2    1    2    0    0  0.00000000000E+00  0.00000000000E+00  0.52858019943E+03  0.11311684548E+04  0.10000725203E+04 0.  0.
        2    1    3    3  502    0  0.60090849326E+02 -0.57951348699E+02 -0.29335614892E+03  0.30500344113E+03  0.25500000920E-02 0. -1.
       -2    1    3    3    0  502 -0.60090849326E+02  0.57951348699E+02  0.82193634835E+03  0.82616501362E+03  0.25500000920E-02 0.  1.
</event>
<event>
 5   0  0.2353916E-04  0.1000501E+04  0.7818609E-02  0.9307996E-01
       -2   -1    0    0    0  501  0.00000000000E+00  0.00000000000E+00  0.65817167235E+03  0.65817167235E+03  0.25500000920E-02 0.  1.
        2   -1    0    0  501    0  0.00000000000E+00  0.00000000000E+00 -0.38022062598E+03  0.38022062598E+03  0.25500000920E-02 0. -1.
    10030    2    1    2    0    0  0.00000000000E+00  0.00000000000E+00  0.27795104637E+03  0.10383922983E+04  0.10005007652E+04 0.  0.
        4    1    3    3  502    0 -0.60830181771E+02  0.37492730237E+03  0.47684734489E+03  0.60963578988E+03  0.12699999809E+01 0.  1.
       -4    1    3    3    0  502  0.60830181771E+02 -0.37492730237E+03 -0.19889629852E+03  0.42875650846E+03  0.12699999809E+01 0. -1.
</event>
<event>
 5   0  0.2484904E-04  0.1000109E+04  0.7818609E-02  0.9308425E-01
        2   -1    0    0  501    0  0.00000000000E+00  0.00000000000E+00  0.11592682838E+04  0.11592682838E+04  0.25500000920E-02 0. -1.
       -2   -1    0    0    0  501  0.00000000000E+00  0.00000000000E+00 -0.21570048941E+03  0.21570048943E+03  0.25500000920E-02 0.  1.
    10030    2    1    2    0    0  0.00000000000E+00  0.00000000000E+00  0.94356779436E+03  0.13749687732E+04  0.10001094664E+04 0.  0.
        3    1    3    3  502    0 -0.27807046156E+03 -0.79119119487E+02  0.10327227428E+04  0.10724268229E+04  0.10100000352E+00 0. -1.
       -3    1    3    3    0  502  0.27807046156E+03  0.79119119487E+02 -0.89154948476E+02  0.30254195032E+03  0.10100000352E+00 0.  1.
</event>
<event>
 5   0  0.2473312E-04  0.9997865E+03  0.7818609E-02  0.9308779E-01
       -2   -1    0    0    0  501  0.00000000000E+00  0.00000000000E+00  0.19077010768E+03  0.19077010770E+03  0.25500000920E-02 0. -1.
        2   -1    0    0  501    0  0.00000000000E+00  0.00000000000E+00 -0.13099182322E+04  0.13099182322E+04  0.25500000920E-02 0.  1.
    10030    2    1    2    0    0  0.00000000000E+00  0.00000000000E+00 -0.11191481245E+04  0.15006883399E+04  0.99978646165E+03 0.  0.
        5    1    3    3  502    0 -0.19590808637E+03 -0.43741508430E+03 -0.77269204496E+03  0.90927829657E+03  0.46999998093E+01 0.  1.
       -5    1    3    3    0  502  0.19590808637E+03  0.43741508430E+03 -0.34645607956E+03  0.59141004332E+03  0.46999998093E+01 0. -1.
</event>
<event>
 5   0  0.2353916E-04  0.1000065E+04  0.7818609E-02  0.9308474E-01
       -2   -1    0    0    0  501  0.00000000000E+00  0.00000000000E+00  0.44500228345E+03  0.44500228346E+03  0.25500000920E-02 0. -1.
        2   -1    0    0  501    0  0.00000000000E+00  0.00000000000E+00 -0.56186740020E+03  0.56186740020E+03  0.25500000920E-02 0.  1.
    10030    2    1    2    0    0  0.00000000000E+00  0.00000000000E+00 -0.11686511674E+03  0.10068696837E+04  0.10000645501E+04 0.  0.
        4    1    3    3  502    0  0.23505007935E+03  0.40887826814E+03  0.10883247594E+03  0.48402076265E+03  0.12699999809E+01 0. -1.
       -4    1    3    3    0  502 -0.23505007935E+03 -0.40887826814E+03 -0.22569759268E+03  0.52284892101E+03  0.12699999809E+01 0.  1.
</event>
<event>
 5   0  0.1430675E-04  0.1000209E+04  0.7818609E-02  0.9308315E-01
        1   -1    0    0  501    0  0.00000000000E+00  0.00000000000E+00  0.12048163249E+04  0.12048163249E+04  0.50400001928E-02 0.  1.
       -1   -1    0    0    0  501  0.00000000000E+00  0.00000000000E+00 -0.20758745141E+03  0.20758745147E+03  0.50400001928E-02 0. -1.
    10030    2    1    2    0    0  0.00000000000E+00  0.00000000000E+00  0.99722887346E+03  0.14124037763E+04  0.10002094787E+04 0.  0.
        5    1    3    3  502    0  0.22569048002E+03  0.27351842739E+03  0.69039405020E+00  0.35464219932E+03  0.46999998093E+01 0. -1.
       -5    1    3    3    0  502 -0.22569048002E+03 -0.27351842739E+03  0.99653847941E+03  0.10577615770E+04  0.46999998093E+01 0.  1.
</event>
<event>
 5   0  0.2403037E-04  0.1000103E+04  0.7818609E-02  0.9308432E-01
        2   -1    0    0  501    0  0.00000000000E+00  0.00000000000E+00  0.50602317479E+03  0.50602317479E+03  0.25500000920E-02 0. -1.
       -2   -1    0    0    0  501  0.00000000000E+00  0.00000000000E+00 -0.49414989633E+03  0.49414989634E+03  0.25500000920E-02 0.  1.
    10030    2    1    2    0    0  0.00000000000E+00  0.00000000000E+00  0.11873278454E+02  0.10001730711E+04  0.10001025935E+04 0.  0.
        1    1    3    3  502    0  0.21000623395E+03  0.36331876063E+03  0.27788991078E+03  0.50331495374E+03  0.50400001928E-02 0. -1.
       -1    1    3    3    0  502 -0.21000623395E+03 -0.36331876063E+03 -0.26601663232E+03  0.49685811739E+03  0.50400001928E-02 0.  1.
</event>
<event>
 5   0  0.1461334E-04  0.9996888E+03  0.7818609E-02  0.9308886E-01
        1   -1    0    0  501    0  0.00000000000E+00  0.00000000000E+00  0.89113015812E+03  0.89113015813E+03  0.50400001928E-02 0. -1.
       -1   -1    0    0    0  501  0.00000000000E+00  0.00000000000E+00 -0.28036804334E+03  0.28036804339E+03  0.50400001928E-02 0.  1.
    10030    2    1    2    0    0  0.00000000000E+00  0.00000000000E+00  0.61076211478E+03  0.11714982015E+04  0.99968878923E+03 0.  0.
        2    1    3    3  502    0 -0.16830395177E+03  0.36569215141E+03 -0.41829577571E+02  0.40473038353E+03  0.25500000920E-02 0.  1.
       -2    1    3    3    0  502  0.16830395177E+03 -0.36569215141E+03  0.65259169235E+03  0.76676781799E+03  0.25500000920E-02 0. -1.
</event>
<event>
 5   0  0.2484904E-04  0.1000316E+04  0.7818609E-02  0.9308198E-01
       -2   -1    0    0    0  501  0.00000000000E+00  0.00000000000E+00  0.17919294727E+03  0.17919294729E+03  0.25500000920E-02 0. -1.
        2   -1    0    0  501    0  0.00000000000E+00  0.00000000000E+00 -0.13960258819E+04  0.13960258819E+04  0.25500000920E-02 0.  1.
    10030    2    1    2    0    0  0.00000000000E+00  0.00000000000E+00 -0.12168329347E+04  0.15752188292E+04  0.10003159346E+04 0.  0.
        3    1    3    3  502    0  0.33536569646E+03  0.21554961782E+03 -0.10840401656E+04  0.11550215924E+04  0.10100000352E+00 0. -1.
       -3    1    3    3    0  502 -0.33536569646E+03 -0.21554961782E+03 -0.13279276908E+03  0.42019723682E+03  0.10100000352E+00 0.  1.
</event>
<event>
 5   0  0.1414165E-04  0.1000069E+04  0.7818609E-02  0.9308470E-01
        1   -1    0    0  501    0  0.00000000000E+00  0.00000000000E+00  0.57783277451E+03  0.57783277453E+03  0.50400001928E-02 0. -1.
       -1   -1    0    0    0  501  0.00000000000E+00  0.00000000000E+00 -0.43271048257E+03  0.43271048260E+03  0.50400001928E-02 0.  1.
    10030    2    1    2    0    0  0.00000000000E+00  0.00000000000E+00  0.14512229194E+03  0.10105432571E+04  0.10000685951E+04 0.  0.
        4    1    3    3  502    0 -0.40853683440E+03 -0.28831267676E+03  0.70057049621E+02  0.50491201981E+03  0.12699999809E+01 0.  1.
       -4    1    3    3    0  502  0.40853683440E+03  0.28831267676E+03  0.75065242316E+02  0.50563123732E+03  0.12699999809E+01 0. -1.
</event>
<event>
 5   0  0.1453863E-04  0.9997491E+03  0.7818609E-02  0.9308820E-01
        1   -1    0    0  501    0  0.00000000000E+00  0.00000000000E+00  0.26028212088E+04  0.26028212089E+04  0.50400001928E-02 0.  1.
       -1   -1    0    0    0  501  0.00000000000E+00  0.00000000000E+00 -0.96001430095E+02  0.96001430227E+02  0.50400001928E-02 0. -1.
    10030    2    1    2    0    0  0.00000000000E+00  0.00000000000E+00  0.25068197788E+04  0.26988226391E+04  0.99974908555E+03 0.  0.
        1    1    3    3  502    0 -0.10684137062E+02  0.53826667717E+02  0.25946650811E+04  0.25952453341E+04  0.50400001928E-02 0.  1.
       -1    1    3    3    0  502  0.10684137062E+02 -0.53826667717E+02 -0.87845302346E+02  0.10357730500E+03  0.50400001928E-02 0. -1.
</event>
<event>
 5   0  0.1430675E-04  0.1000094E+04  0.7818609E-02  0.9308441E-01
        1   -1    0    0  501    0  0.00000000000E+00  0.00000000000E+00  0.14130142461E+04  0.14130142461E+04  0.50400001928E-02 0.  1.
       -1   -1    0    0    0  501  0.00000000000E+00  0.00000000000E+00 -0.17696008072E+03  0.17696008079E+03  0.50400001928E-02 0. -1.
    10030    2    1    2    0    0  0.00000000000E+00  0.00000000000E+00  0.12360541654E+04  0.15899743269E+04  0.10000942258E+04 0.  0.
        5    1    3    3  502    0 -0.51634043778E+02 -0.26176049163E+03  0.12903563284E+04  0.13176593542E+04  0.46999998093E+01 0.  1.
       -5    1    3    3    0  502  0.51634043778E+02  0.26176049163E+03 -0.54302163018E+02  0.27231497271E+03  0.46999998093E+01 0. -1.
</event>
<event>
 5   0  0.2353916E-04  0.1002822E+04  0.7818609E-02  0.9305455E-01
       -2   -1    0    0    0  501  0.00000000000E+00  0.00000000000E+00  0.30998913692E+03  0.30998913693E+03  0.25500000920E-02 0. -1.
        2   -1    0    0  501    0  0.00000000000E+00  0.00000000000E+00 -0.81103827005E+03  0.81103827006E+03  0.25500000920E-02 0.  1.
    10030    2    1    2    0    0  0.00000000000E+00  0.00000000000E+00 -0.50104913313E+03  0.11210274070E+04  0.10028221245E+04 0.  0.
        4    1    3    3  502    0  0.15333608313E+03  0.47561158065E+03 -0.29652214457E+03  0.58107256445E+03  0.12699999809E+01 0.  1.
       -4    1    3    3    0  502 -0.15333608313E+03 -0.47561158065E+03 -0.20452698856E+03  0.53995484254E+03  0.12699999809E+01 0. -1.
</event>
<event>
 5   0  0.1461334E-04  0.1000002E+04  0.7818609E-02  0.9308543E-01
        1   -1    0    0  501    0  0.00000000000E+00  0.00000000000E+00  0.11300632082E+04  0.11300632082E+04  0.50400001928E-02 0. -1.
       -1   -1    0    0    0  501  0.00000000000E+00  0.00000000000E+00 -0.22122747885E+03  0.22122747891E+03  0.50400001928E-02 0.  1.
    10030    2    1    2    0    0  0.00000000000E+00  0.00000000000E+00  0.90883572931E+03  0.13512906871E+04  0.10000020691E+04 0.  0.
        2    1    3    3  502    0  0.18858937050E+03  0.29477983468E+03  0.93699970715E+03  0.10002147533E+04  0.25500000920E-02 0. -1.
       -2    1    3    3    0  502 -0.18858937050E+03 -0.29477983468E+03 -0.28163977838E+02  0.35107593374E+03  0.25500000920E-02 0.  1.
</event>
<event>
 5   0  0.2503680E-04  0.1000425E+04  0.7818609E-02  0.9308079E-01
        2   -1    0    0  501    0  0.00000000000E+00  0.00000000000E+00  0.14727675530E+04  0.14727675531E+04  0.25500000920E-02 0. -1.
       -2   -1    0    0    0  501  0.00000000000E+00  0.00000000000E+00 -0.16989275940E+03  0.16989275942E+03  0.25500000920E-02 0.  1.
    10030    2    1    2    0    0  0.00000000000E+00  0.00000000000E+00  0.13028747936E+04  0.16426603125E+04  0.10004249968E+04 0.  0.
        2    1    3    3  502    0 -0.22123663703E+03 -0.30876657726E+02 -0.83445885353E+02  0.23845803267E+03  0.25500000920E-02 0.  1.
       -2    1    3    3    0  502  0.22123663703E+03  0.30876657726E+02  0.13863206790E+04  0.14042022798E+04  0.25500000920E-02 0. -1.
</event>
<event>
 5   0  0.9650500E-05  0.1000522E+04  0.7818609E-02  0.9307973E-01
       -3   -1    0    0    0  501  0.00000000000E+00  0.00000000000E+00  0.49495245826E+03  0.49495246856E+03  0.10100000352E+00 0. -1.
        3   -1    0    0  501    0  0.00000000000E+00  0.00000000000E+00 -0.50562616262E+03  0.50562617271E+03  0.10100000352E+00 0.  1.
    10030    2    1    2    0    0  0.00000000000E+00  0.00000000000E+00 -0.10673704364E+02  0.10005786413E+04  0.10005217086E+04 0.  0.
        5    1    3    3  502    0 -0.16559586735E+03 -0.19771701044E+03  0.42331887731E+03  0.49571662206E+03  0.46999998093E+01 0. -1.
       -5    1    3    3    0  502  0.16559586735E+03  0.19771701044E+03 -0.43399258167E+03  0.50486201921E+03  0.46999998093E+01 0.  1.
</event>
<event>
 5   0  0.2403037E-04  0.1000435E+04  0.7818609E-02  0.9308068E-01
       -2   -1    0    0    0  501  0.00000000000E+00  0.00000000000E+00  0.25142775694E+03  0.25142775696E+03  0.25500000920E-02 0. -1.
        2   -1    0    0  501    0  0.00000000000E+00  0.00000000000E+00 -0.99518644259E+03  0.99518644260E+03  0.25500000920E-02 0.  1.
    10030    2    1    2    0    0  0.00000000000E+00  0.00000000000E+00 -0.74375868565E+03  0.12466141996E+04  0.10004348955E+04 0.  0.
        1    1    3    3  502    0  0.18374106612E+03  0.15095214806E+02 -0.95130811550E+03  0.96900762408E+03  0.50400001928E-02 0.  1.
       -1    1    3    3    0  502 -0.18374106612E+03 -0.15095214806E+02  0.20754942985E+03  0.27760657547E+03  0.50400001928E-02 0. -1.
</event>
<event>
 5   0  0.2473312E-04  0.1000211E+04  0.7818609E-02  0.9308313E-01
       -2   -1    0    0    0  501  0.00000000000E+00  0.00000000000E+00  0.27572859067E+03  0.27572859068E+03  0.25500000920E-02 0.  1.
        2   -1    0    0  501    0  0.00000000000E+00  0.00000000000E+00 -0.90707193317E+03  0.90707193317E+03  0.25500000920E-02 0. -1.
    10030    2    1    2    0    0  0.00000000000E+00  0.00000000000E+00 -0.63134334250E+03  0.11828005238E+04  0.10002113092E+04 0.  0.
        5    1    3    3  502    0  0.20748908887E+03  0.66827631651E+00  0.22239719606E+03  0.30419528498E+03  0.46999998093E+01 0.  1.
       -5    1    3    3    0  502 -0.20748908887E+03 -0.66827631651E+00 -0.85374053856E+03  0.87860523887E+03  0.46999998093E+01 0. -1.
</event>
<event>
 5   0  0.1461334E-04  0.9997899E+03  0.7818609E-02  0.9308775E-01
       -1   -1    0    0    0  501  0.00000000000E+00  0.00000000000E+00  0.64658378954E+03  0.64658378956E+03  0.50400001928E-02 0.  1.
        1   -1    0    0  501    0  0.00000000000E+00  0.00000000000E+00 -0.38648501692E+03  0.38648501695E+03  0.50400001928E-02 0. -1.
    10030    2    1    2    0    0  0.00000000000E+00  0.00000000000E+00  0.26009877263E+03  0.10330688065E+04  0.99978987166E+03 0.  0.
        2    1    3    3  502    0 -0.44729478961E+03 -0.22233317262E+02 -0.99442459354E+02  0.45875456612E+03  0.25500000920E-02 0. -1.
       -2    1    3    3    0  502  0.44729478961E+03  0.22233317262E+02  0.35954123198E+03  0.57431424039E+03  0.25500000920E-02 0.  1.
</event>
<event>
 5   0  0.1414165E-04  0.1002412E+04  0.7818609E-02  0.9305904E-01
       -1   -1    0    0    0  501  0.00000000000E+00  0.00000000000E+00  0.62395144981E+03  0.62395144983E+03  0.50400001928E-02 0.  1.
        1   -1    0    0  501    0  0.00000000000E+00  0.00000000000E+00 -0.40260721379E+03  0.40260721382E+03  0.50400001928E-02 0. -1.
    10030    2    1    2    0    0  0.00000000000E+00  0.00000000000E+00  0.22134423601E+03  0.10265586636E+04  0.10024118012E+04 0.  0.
        4    1    3    3  502    0 -0.87193825331E+02  0.29515410536E+03  0.51578567749E+03  0.60062899288E+03  0.12699999809E+01 0.  1.
       -4    1    3    3    0  502  0.87193825331E+02 -0.29515410536E+03 -0.29444144147E+03  0.42592967077E+03  0.12699999809E+01 0. -1.
</event>
<event>
 5   0  0.2353916E-04  0.1000146E+04  0.7818609E-02  0.9308384E-01
        2   -1    0    0  501    0  0.00000000000E+00  0.00000000000E+00  0.22417932142E+03  0.22417932143E+03  0.25500000920E-02 0. -1.
       -2   -1    0    0    0  501  0.00000000000E+00  0.00000000000E+00 -0.11155051254E+04  0.11155051254E+04  0.25500000920E-02 0.  1.
    10030    2    1    2    0    0  0.00000000000E+00  0.00000000000E+00 -0.89132580398E+03  0.13396844468E+04  0.10001463534E+04 0.  0.
        4    1    3    3  502    0 -0.73431584478E+02  0.36590063574E+03 -0.89152565079E+03  0.96648593976E+03  0.12699999809E+01 0. -1.
       -4    1    3    3    0  502  0.73431584478E+02 -0.36590063574E+03  0.19984681318E+00  0.37319850707E+03  0.12699999809E+01 0.  1.
</event>
<event>
 5   0  0.2484904E-04  0.1000020E+04  0.7818609E-02  0.9308523E-01
       -2   -1    0    0    0  501  0.00000000000E+00  0.00000000000E+00  0.58268909463E+03  0.58268909464E+03  0.25500000920E-02 0. -1.
        2   -1    0    0  501    0  0.00000000000E+00  0.00000000000E+00 -0.42906228163E+03  0.42906228163E+03  0.25500000920E-02 0.  1.
    10030    2    1    2    0    0  0.00000000000E+00  0.00000000000E+00  0.15362681301E+03  0.10117513763E+04  0.10000198247E+04 0.  0.
        3    1    3    3  502    0  0.11370100375E+03 -0.81133831731E+02  0.56254906386E+03  0.57963098292E+03  0.10100000352E+00 0. -1.
       -3    1    3    3    0  502 -0.11370100375E+03  0.81133831731E+02 -0.40892225086E+03  0.43212039335E+03  0.10100000352E+00 0.  1.
</event>
<event>
 5   0  0.1453863E-04  0.1000062E+04  0.7818609E-02  0.9308477E-01
        1   -1    0    0  501    0  0.00000000000E+00  0.00000000000E+00  0.11303961533E+04  0.11303961534E+04  0.50400001928E-02 0. -1.
       -1   -1    0    0    0  501  0.00000000000E+00  0.00000000000E+00 -0.22118888717E+03  0.22118888722E+03  0.50400001928E-02 0.  1.
    10030    2    1    2    0    0  0.00000000000E+00  0.00000000000E+00  0.90920726618E+03  0.13515850406E+04  0.10000621326E+04 0.  0.
        1    1    3    3  502    0 -0.63916841778E+02 -0.13027039049E+03  0.11013153659E+04  0.11108335935E+04  0.50400001928E-02 0. -1.
       -1    1    3    3    0  502  0.63916841778E+02  0.13027039049E+03 -0.19210809967E+03  0.24075144711E+03  0.50400001928E-02 0.  1.
</event>
<event>
 5   0  0.1453863E-04  0.1001260E+04  0.7818609E-02  0.9307164E-01
       -1   -1    0    0    0  501  0.00000000000E+00  0.00000000000E+00  0.26886573283E+03  0.26886573287E+03  0.50400001928E-02 0. -1.
        1   -1    0    0  501    0  0.00000000000E+00  0.00000000000E+00 -0.93217677815E+03  0.93217677817E+03  0.50400001928E-02 0.  1.
    10030    2    1    2    0    0  0.00000000000E+00  0.00000000000E+00 -0.66331104533E+03  0.12010425110E+04  0.10012599914E+04 0.  0.
        1    1    3    3  502    0  0.81396919515E+02  0.38593773481E+03 -0.70148673927E+03  0.80477142038E+03  0.50400001928E-02 0.  1.
       -1    1    3    3    0  502 -0.81396919515E+02 -0.38593773481E+03  0.38175693942E+02  0.39627109066E+03  0.50400001928E-02 0. -1.
</event>
<event>
 5   0  0.1461334E-04  0.9998944E+03  0.7818609E-02  0.9308661E-01
       -1   -1    0    0    0  501  0.00000000000E+00  0.00000000000E+00  0.18952157489E+03  0.18952157495E+03  0.50400001928E-02 0.  1.
        1   -1    0    0  501    0  0.00000000000E+00  0.00000000000E+00 -0.13188325386E+04  0.13188325387E+04  0.50400001928E-02 0. -1.
    10030    2    1    2    0    0  0.00000000000E+00  0.00000000000E+00 -0.11293109638E+04  0.15083541136E+04  0.99989443402E+03 0.  0.
        2    1    3    3  502    0  0.35202175111E+02  0.36801147695E+03 -0.10723673407E+04  0.11343030255E+04  0.25500000920E-02 0. -1.
       -2    1    3    3    0  502 -0.35202175111E+02 -0.36801147695E+03 -0.56943623074E+02  0.37405108811E+03  0.25500000920E-02 0.  1.
</event>
<event>
 5   0  0.1461334E-04  0.9998351E+03  0.7818609E-02  0.9308726E-01
       -1   -1    0    0    0  501  0.00000000000E+00  0.00000000000E+00  0.79611014673E+03  0.79611014675E+03  0.50400001928E-02 0. -1.
        1   -1    0    0  501    0  0.00000000000E+00  0.00000000000E+00 -0.31392335778E+03  0.31392335782E+03  0.50400001928E-02 0.  1.
    10030    2    1    2    0    0  0.00000000000E+00  0.00000000000E+00  0.48218678895E+03  0.11100335046E+04  0.99983512733E+03 0.  0.
        2    1    3    3  502    0 -0.12977696435E+03 -0.14955108609E+03  0.75071784042E+03  0.77639221000E+03  0.25500000920E-02 0. -1.
       -2    1    3    3    0  502  0.12977696435E+03  0.14955108609E+03 -0.26853105147E+03  0.33364129456E+03  0.25500000920E-02 0.  1.
</event>
<event>
 5   0  0.2473312E-04  0.9999466E+03  0.7818609E-02  0.9308603E-01
        2   -1    0    0  501    0  0.00000000000E+00  0.00000000000E+00  0.17394035115E+04  0.17394035115E+04  0.25500000920E-02 0.  1.
       -2   -1    0    0    0  501  0.00000000000E+00  0.00000000000E+00 -0.14371207771E+03  0.14371207773E+03  0.25500000920E-02 0. -1.
    10030    2    1    2    0    0  0.00000000000E+00  0.00000000000E+00  0.15956914338E+04  0.18831155893E+04  0.99994658387E+03 0.  0.
        5    1    3    3  502    0 -0.10149631961E+03 -0.17424096064E+03 -0.63691803645E+02  0.21151867792E+03  0.46999998093E+01 0. -1.
       -5    1    3    3    0  502  0.10149631961E+03  0.17424096064E+03  0.16593832375E+04  0.16715969114E+04  0.46999998093E+01 0.  1.
</event>
<event>
 5   0  0.1430675E-04  0.1000137E+04  0.7818609E-02  0.9308395E-01
       -1   -1    0    0    0  501  0.00000000000E+00  0.00000000000E+00  0.11941363771E+04  0.11941363771E+04  0.50400001928E-02 0.  1.
        1   -1    0    0  501    0  0.00000000000E+00  0.00000000000E+00 -0.20941353187E+03  0.20941353193E+03  0.50400001928E-02 0. -1.
    10030    2    1    2    0    0  0.00000000000E+00  0.00000000000E+00  0.98472284525E+03  0.14035499091E+04  0.10001366233E+04 0.  0.
        5    1    3    3  502    0  0.12585850915E+03  0.34623107525E+03  0.96687478868E+03  0.10346909049E+04  0.46999998093E+01 0. -1.
       -5    1    3    3    0  502 -0.12585850915E+03 -0.34623107525E+03  0.17848056568E+02  0.36885900411E+03  0.46999998093E+01 0.  1.
</event>
<event>
 5   0  0.1506454E-04  0.1001713E+04  0.7818609E-02  0.9306668E-01
        1   -1    0    0  501    0  0.00000000000E+00  0.00000000000E+00  0.49104028256E+03  0.49104028259E+03  0.50400001928E-02 0. -1.
       -1   -1    0    0    0  501  0.00000000000E+00  0.00000000000E+00 -0.51086851592E+03  0.51086851595E+03  0.50400001928E-02 0.  1.
    10030    2    1    2    0    0  0.00000000000E+00  0.00000000000E+00 -0.19828233360E+02  0.10019087985E+04  0.10017125744E+04 0.  0.
        3    1    3    3  502    0 -0.12983536517E+03 -0.34455221497E+03  0.32968672143E+03  0.49423354336E+03  0.10100000352E+00 0. -1.
       -3    1    3    3    0  502  0.12983536517E+03  0.34455221497E+03 -0.34951495479E+03  0.50767525517E+03  0.10100000352E+00 0.  1.
</event>
<event>
 5   0  0.1506454E-04  0.1000392E+04  0.7818609E-02  0.9308115E-01
       -1   -1    0    0    0  501  0.00000000000E+00  0.00000000000E+00  0.56993575423E+03  0.56993575426E+03  0.50400001928E-02 0.  1.
        1   -1    0    0  501    0  0.00000000000E+00  0.00000000000E+00 -0.43898954713E+03  0.43898954715E+03  0.50400001928E-02 0. -1.
    10030    2    1    2    0    0  0.00000000000E+00  0.00000000000E+00  0.13094620711E+03  0.10089253014E+04  0.10003916007E+04 0.  0.
        3    1    3    3  502    0  0.19961866828E+03 -0.37609984371E+03 -0.19924858296E+03  0.47010500229E+03  0.10100000352E+00 0. -1.
       -3    1    3    3    0  502 -0.19961866828E+03  0.37609984371E+03  0.33019479006E+03  0.53882029912E+03  0.10100000352E+00 0.  1.
</event>
<event>
 5   0  0.1414165E-04  0.9994482E+03  0.7818609E-02  0.9309150E-01
       -1   -1    0    0    0  501  0.00000000000E+00  0.00000000000E+00  0.30922038095E+03  0.30922038099E+03  0.50400001928E-02 0.  1.
        1   -1    0    0  501    0  0.00000000000E+00  0.00000000000E+00 -0.80759284203E+03  0.80759284205E+03  0.50400001928E-02 0. -1.
    10030    2    1    2    0    0  0.00000000000E+00  0.00000000000E+00 -0.49837246108E+03  0.11168132230E+04  0.99944818034E+03 0.  0.
        4    1    3    3  502    0 -0.19791547714E+03  0.47450036658E+02  0.26080820045E+03  0.33082408073E+03  0.12699999809E+01 0.  1.
       -4    1    3    3    0  502  0.19791547714E+03 -0.47450036658E+02 -0.75918066154E+03  0.78598914230E+03  0.12699999809E+01 0. -1.
</event>
<event>
 5   0  0.2503680E-04  0.1000396E+04  0.7818609E-02  0.9308110E-01
       -2   -1    0    0    0  501  0.00000000000E+00  0.00000000000E+00  0.23730741628E+03  0.23730741629E+03  0.25500000920E-02 0. -1.
        2   -1    0    0  501    0  0.00000000000E+00  0.00000000000E+00 -0.10543212938E+04  0.10543212938E+04  0.25500000920E-02 0.  1.
    10030    2    1    2    0    0  0.00000000000E+00  0.00000000000E+00 -0.81701387755E+03  0.12916287101E+04  0.10003964458E+04 0.  0.
        2    1    3    3  502    0 -0.86367140742E+02 -0.32620868141E+03 -0.88521916469E+03  0.94735650964E+03  0.25500000920E-02 0.  1.
       -2    1    3    3    0  502  0.86367140742E+02  0.32620868141E+03  0.68205287138E+02  0.34427220048E+03  0.25500000920E-02 0. -1.
</event>
<event>
 5   0  0.2403037E-04  0.9998541E+03  0.7818609E-02  0.9308705E-01
        2   -1    0    0  501    0  0.00000000000E+00  0.00000000000E+00  0.39625663535E+03  0.39625663535E+03  0.25500000920E-02 0. -1.
       -2   -1    0    0    0  501  0.00000000000E+00  0.00000000000E+00 -0.63072021510E+03  0.63072021510E+03  0.25500000920E-02 0.  1.
    10030    2    1    2    0    0  0.00000000000E+00  0.00000000000E+00 -0.23446357975E+03  0.10269768505E+04  0.99985412993E+03 0.  0.
        1    1    3    3  502    0  0.38817380902E+03  0.28693857076E+03 -0.25081521523E+03  0.54398614102E+03  0.50400001928E-02 0.  1.
       -1    1    3    3    0  502 -0.38817380902E+03 -0.28693857076E+03  0.16351635480E+02  0.48299070944E+03  0.50400001928E-02 0. -1.
</event>
<event>
 5   0  0.1430675E-04  0.1000390E+04  0.7818609E-02  0.9308117E-01
       -1   -1    0    0    0  501  0.00000000000E+00  0.00000000000E+00  0.69375103941E+03  0.69375103943E+03  0.50400001928E-02 0.  1.
        1   -1    0    0  501    0  0.00000000000E+00  0.00000000000E+00 -0.36064103014E+03  0.36064103017E+03  0.50400001928E-02 0. -1.
    10030    2    1    2    0    0  0.00000000000E+00  0.00000000000E+00  0.33311000927E+03  0.10543920696E+04  0.10003901030E+04 0.  0.
        5    1    3    3  502    0  0.31059648434E+03  0.86743184931E+02  0.56952657765E+03  0.65450528559E+03  0.46999998093E+01 0.  1.
       -5    1    3    3    0  502 -0.31059648434E+03 -0.86743184931E+02 -0.23641656838E+03  0.39988678400E+03  0.46999998093E+01 0. -1.
</event>
<event>
 5   0  0.1461334E-04  0.9991518E+03  0.7818609E-02  0.9309476E-01
        1   -1    0    0  501    0  0.00000000000E+00  0.00000000000E+00  0.51159980625E+03  0.51159980628E+03  0.50400001928E-02 0.  1.
       -1   -1    0    0    0  501  0.00000000000E+00  0.00000000000E+00 -0.48783460018E+03  0.48783460021E+03  0.50400001928E-02 0. -1.
    10030    2    1    2    0    0  0.00000000000E+00  0.00000000000E+00  0.23765206071E+02  0.99943440648E+03  0.99915181421E+03 0.  0.
        2    1    3    3  502    0  0.33417047336E+03 -0.15712753158E+02 -0.35924698490E+03  0.49089224076E+03  0.25500000920E-02 0. -1.
       -2    1    3    3    0  502 -0.33417047336E+03  0.15712753158E+02  0.38301219097E+03  0.50854216572E+03  0.25500000920E-02 0.  1.
</event>
<event>
 5   0  0.1506454E-04  0.1000236E+04  0.7818609E-02  0.9308286E-01
       -1   -1    0    0    0  501  0.00000000000E+00  0.00000000000E+00  0.58877437846E+03  0.58877437848E+03  0.50400001928E-02 0. -1.
        1   -1    0    0  501    0  0.00000000000E+00  0.00000000000E+00 -0.42481147925E+03  0.42481147928E+03  0.50400001928E-02 0.  1.
    10030    2    1    2    0    0  0.00000000000E+00  0.00000000000E+00  0.16396289921E+03  0.10135858578E+04  0.10002362015E+04 0.  0.
        3    1    3    3  502    0 -0.22276191205E+03  0.39910225618E+03  0.28769983525E+03  0.54007100066E+03  0.10100000352E+00 0. -1.
       -3    1    3    3    0  502  0.22276191205E+03 -0.39910225618E+03 -0.12373693604E+03  0.47351485710E+03  0.10100000352E+00 0.  1.
</event>
<event>
 5   0  0.2503680E-04  0.1000159E+04  0.7818609E-02  0.9308371E-01
       -2   -1    0    0    0  501  0.00000000000E+00  0.00000000000E+00  0.19072283782E+03  0.19072283783E+03  0.25500000920E-02 0.  1.
        2   -1    0    0  501    0  0.00000000000E+00  0.00000000000E+00 -0.13112188311E+04  0.13112188311E+04  0.25500000920E-02 0. -1.
    10030    2    1    2    0    0  0.00000000000E+00  0.00000000000E+00 -0.11204959933E+04  0.15019416689E+04  0.10001587404E+04 0.  0.
        2    1    3    3  502    0 -0.28033632433E+03 -0.41779545585E+02  0.58456293601E+02  0.28939786357E+03  0.25500000920E-02 0.  1.
       -2    1    3    3    0  502  0.28033632433E+03  0.41779545585E+02 -0.11789522869E+04  0.12125438053E+04  0.25500000920E-02 0. -1.
</event>
<event>
 5   0  0.2403037E-04  0.9996551E+03  0.7818609E-02  0.9308923E-01
        2   -1    0    0  501    0  0.00000000000E+00  0.00000000000E+00  0.19968752258E+04  0.19968752258E+04  0.25500000920E-02 0. -1.
       -2   -1    0    0    0  501  0.00000000000E+00  0.00000000000E+00 -0.12510925641E+03  0.12510925644E+03  0.25500000920E-02 0.  1.
    10030    2    1    2    0    0  0.00000000000E+00  0.00000000000E+00  0.18717659694E+04  0.21219844822E+04  0.99965508986E+03 0.  0.
        1    1    3    3  502    0 -0.23642414471E+03 -0.12474648826E+03  0.39378772836E+02  0.27020131441E+03  0.50400001928E-02 0.  1.
       -1    1    3    3    0  502  0.23642414471E+03  0.12474648826E+03  0.18323871965E+04  0.18517831678E+04  0.50400001928E-02 0. -1.
</event>
<event>
 5   0  0.1453863E-04  0.1000110E+04  0.7818609E-02  0.9308424E-01
        1   -1    0    0  501    0  0.00000000000E+00  0.00000000000E+00  0.49975852281E+03  0.49975852283E+03  0.50400001928E-02 0.  1.
       -1   -1    0    0    0  501  0.00000000000E+00  0.00000000000E+00 -0.50035140323E+03  0.50035140325E+03  0.50400001928E-02 0. -1.
    10030    2    1    2    0    0  0.00000000000E+00  0.00000000000E+00 -0.59288041990E+00  0.10001099261E+04  0.10001097503E+04 0.  0.
        1    1    3    3  502    0 -0.25940016585E+03 -0.20628426345E+03 -0.37474708322E+03  0.50027694309E+03  0.50400001928E-02 0. -1.
       -1    1    3    3    0  502  0.25940016585E+03  0.20628426345E+03  0.37415420280E+03  0.49983298299E+03  0.50400001928E-02 0.  1.
</event>
<event>
 5   0  0.2503680E-04  0.1000936E+04  0.7818609E-02  0.9307519E-01
        2   -1    0    0  501    0  0.00000000000E+00  0.00000000000E+00  0.23624688110E+04  0.23624688110E+04  0.25500000920E-02 0.  1.
       -2   -1    0    0    0  501  0.00000000000E+00  0.00000000000E+00 -0.10601966219E+03  0.10601966222E+03  0.25500000920E-02 0. -1.
    10030    2    1    2    0    0  0.00000000000E+00  0.00000000000E+00  0.22564491488E+04  0.24684884732E+04  0.10009358527E+04 0.  0.
        2    1    3    3  502    0  0.24714492622E+03 -0.76844846947E+02  0.71839967238E+02  0.26860142583E+03  0.25500000920E-02 0. -1.
       -2    1    3    3    0  502 -0.24714492622E+03  0.76844846947E+02  0.21846091815E+04  0.21998870473E+04  0.25500000920E-02 0.  1.
</event>
<event>
 5   0  0.1461334E-04  0.1000384E+04  0.7818609E-02  0.9308124E-01
        1   -1    0    0  501    0  0.00000000000E+00  0.00000000000E+00  0.17715128671E+04  0.17715128671E+04  0.50400001928E-02 0. -1.
       -1   -1    0    0    0  501  0.00000000000E+00  0.00000000000E+00 -0.14123076664E+03  0.14123076673E+03  0.50400001928E-02 0.  1.
    10030    2    1    2    0    0  0.00000000000E+00  0.00000000000E+00  0.16302821005E+04  0.19127436338E+04  0.10003841671E+04 0.  0.
        2    1    3    3  502    0 -0.36925784637E+03 -0.21096361090E+03  0.13186029215E+04  0.13854857151E+04  0.25500000920E-02 0. -1.
       -2    1    3    3    0  502  0.36925784637E+03  0.21096361090E+03  0.31167917894E+03  0.52725791869E+03  0.25500000920E-02 0.  1.
</event>
<event>
 5   0  0.9650500E-05  0.1000504E+04  0.7818609E-02  0.9307992E-01
        3   -1    0    0  501    0  0.00000000000E+00  0.00000000000E+00  0.56679854677E+03  0.56679855577E+03  0.10100000352E+00 0.  1.
       -3   -1    0    0    0  501  0.00000000000E+00  0.00000000000E+00 -0.44151882983E+03  0.44151884139E+03  0.10100000352E+00 0. -1.
    10030    2    1    2    0    0  0.00000000000E+00  0.00000000000E+00  0.12527971694E+03  0.10083173972E+04  0.10005043558E+04 0.  0.
        4    1    3    3  502    0  0.15831239550E+03  0.41069106122E+03  0.30223715475E+03  0.53392777877E+03  0.12699999809E+01 0.  1.
       -4    1    3    3    0  502 -0.15831239550E+03 -0.41069106122E+03 -0.17695743782E+03  0.47438961838E+03  0.12699999809E+01 0. -1.
</event>
<event>
 5   0  0.1506454E-04  0.9997367E+03  0.7818609E-02  0.9308834E-01
        1   -1    0    0  501    0  0.00000000000E+00  0.00000000000E+00  0.41790535227E+03  0.41790535230E+03  0.50400001928E-02 0.  1.
       -1   -1    0    0    0  501  0.00000000000E+00  0.00000000000E+00 -0.59790655856E+03  0.59790655859E+03  0.50400001928E-02 0. -1.
    10030    2    1    2    0    0  0.00000000000E+00  0.00000000000E+00 -0.18000120629E+03  0.10158119109E+04  0.99973666735E+03 0.  0.
        3    1    3    3  502    0  0.20692252473E+03 -0.45502780849E+03 -0.91067760623E+02  0.50809505505E+03  0.10100000352E+00 0. -1.
       -3    1    3    3    0  502 -0.20692252473E+03  0.45502780849E+03 -0.88933445669E+02  0.50771685584E+03  0.10100000352E+00 0.  1.
</event>
<event>
 5   0  0.2473312E-04  0.1000203E+04  0.7818609E-02  0.9308323E-01
       -2   -1    0    0    0  501  0.00000000000E+00  0.00000000000E+00  0.39276679632E+03  0.39276679633E+03  0.25500000920E-02 0. -1.
        2   -1    0    0  501    0  0.00000000000E+00  0.00000000000E+00 -0.63676804740E+03  0.63676804741E+03  0.25500000920E-02 0.  1.
    10030    2    1    2    0    0  0.00000000000E+00  0.00000000000E+00 -0.24400125108E+03  0.10295348437E+04  0.10002026714E+04 0.  0.
        5    1    3    3  502    0 -0.10974420237E+03  0.38893772382E+02 -0.62259906399E+03  0.63340997779E+03  0.46999998093E+01 0.  1.
       -5    1    3    3    0  502  0.10974420237E+03 -0.38893772382E+02  0.37859781291E+03  0.39612486595E+03  0.46999998093E+01 0. -1.
</event>
<event>
 5   0  0.2503680E-04  0.1000962E+04  0.7818609E-02  0.9307490E-01
       -2   -1    0    0    0  501  0.00000000000E+00  0.00000000000E+00  0.23973439399E+03  0.23973439400E+03  0.25500000920E-02 0. -1.
        2   -1    0    0  501    0  0.00000000000E+00  0.00000000000E+00 -0.10448284974E+04  0.10448284974E+04  0.25500000920E-02 0.  1.
    10030    2    1    2    0    0  0.00000000000E+00  0.00000000000E+00 -0.80509410342E+03  0.12845628914E+04  0.10009621904E+04 0.  0.
        2    1    3    3  502    0  0.13175317693E+03 -0.17953619290E+03  0.17264910362E+03  0.28177980265E+03  0.25500000920E-02 0.  1.
       -2    1    3    3    0  502 -0.13175317693E+03  0.17953619290E+03 -0.97774320704E+03  0.10027830888E+04  0.25500000920E-02 0. -1.
</event>
<event>
 5   0  0.1430675E-04  0.1000411E+04  0.7818609E-02  0.9308094E-01
       -1   -1    0    0    0  501  0.00000000000E+00  0.00000000000E+00  0.12243850731E+03  0.12243850741E+03  0.50400001928E-02 0.  1.
        1   -1    0    0  501    0  0.00000000000E+00  0.00000000000E+00 -0.20435204137E+04  0.20435204137E+04  0.50400001928E-02 0. -1.
    10030    2    1    2    0    0  0.00000000000E+00  0.00000000000E+00 -0.19210819063E+04  0.21659589211E+04  0.10004110939E+04 0.  0.
        5    1    3    3  502    0 -0.22565697937E+03  0.38617439147E+02 -0.19233788007E+04  0.19369616620E+04  0.46999998093E+01 0. -1.
       -5    1    3    3    0  502  0.22565697937E+03 -0.38617439147E+02  0.22968943862E+01  0.22899725908E+03  0.46999998093E+01 0.  1.
</event>
<event>
 5   0  0.1430675E-04  0.9997988E+03  0.7818609E-02  0.9308766E-01
       -1   -1    0    0    0  501  0.00000000000E+00  0.00000000000E+00  0.38060432069E+03  0.38060432073E+03  0.50400001928E-02 0. -1.
        1   -1    0    0  501    0  0.00000000000E+00  0.00000000000E+00 -0.65658579966E+03  0.65658579968E+03  0.50400001928E-02 0.  1.
    10030    2    1    2    0    0  0.00000000000E+00  0.00000000000E+00 -0.27598147896E+03  0.10371901204E+04  0.99979876432E+03 0.  0.
        5    1    3    3  502    0 -0.29544057215E+03  0.40234136890E+03 -0.16570295288E+03  0.52596888443E+03  0.46999998093E+01 0. -1.
       -5    1    3    3    0  502  0.29544057215E+03 -0.40234136890E+03 -0.11027852608E+03  0.51122123597E+03  0.46999998093E+01 0.  1.
</event>
<event>
 5   0  0.1461334E-04  0.9999206E+03  0.7818609E-02  0.9308632E-01
       -1   -1    0    0    0  501  0.00000000000E+00  0.00000000000E+00  0.90493333012E+03  0.90493333013E+03  0.50400001928E-02 0.  1.
        1   -1    0    0  501    0  0.00000000000E+00  0.00000000000E+00 -0.27621958420E+03  0.27621958424E+03  0.50400001928E-02 0. -1.
    10030    2    1    2    0    0  0.00000000000E+00  0.00000000000E+00  0.62871374592E+03  0.11811529144E+04  0.99992061326E+03 0.  0.
        2    1    3    3  502    0  0.27722329962E+03 -0.70862986466E+01  0.80575739086E+03  0.85214314901E+03  0.25500000920E-02 0.  1.
       -2    1    3    3    0  502 -0.27722329962E+03  0.70862986466E+01 -0.17704364494E+03  0.32900976536E+03  0.25500000920E-02 0. -1.
</event>
<event>
 5   0  0.1453863E-04  0.9996930E+03  0.7818609E-02  0.9308882E-01
        1   -1    0    0  501    0  0.00000000000E+00  0.00000000000E+00  0.17382343673E+04  0.17382343673E+04  0.50400001928E-02 0.  1.
       -1   -1    0    0    0  501  0.00000000000E+00  0.00000000000E+00 -0.14373580530E+03  0.14373580539E+03  0.50400001928E-02 0. -1.
    10030    2    1    2    0    0  0.00000000000E+00  0.00000000000E+00  0.15944985620E+04  0.18819701727E+04  0.99969298621E+03 0.  0.
        1    1    3    3  502    0  0.47425969991E+03 -0.11615548621E+03  0.99853370787E+03  0.11115232457E+04  0.50400001928E-02 0.  1.
       -1    1    3    3    0  502 -0.47425969991E+03  0.11615548621E+03  0.59596485411E+03  0.77044692698E+03  0.50400001928E-02 0. -1.
</event>
<event>
 5   0  0.2503680E-04  0.1000256E+04  0.7818609E-02  0.9308264E-01
       -2   -1    0    0    0  501  0.00000000000E+00  0.00000000000E+00  0.43895286869E+03  0.43895286870E+03  0.25500000920E-02 0.  1.
        2   -1    0    0  501    0  0.00000000000E+00  0.00000000000E+00 -0.56982939395E+03  0.56982939396E+03  0.25500000920E-02 0. -1.
    10030    2    1    2    0    0  0.00000000000E+00  0.00000000000E+00 -0.13087652526E+03  0.10087822627E+04  0.10002564614E+04 0.  0.
        2    1    3    3  502    0  0.42151174685E+03  0.25096974469E+03  0.32706588284E+02  0.49165809910E+03  0.25500000920E-02 0. -1.
       -2    1    3    3    0  502 -0.42151174685E+03 -0.25096974469E+03 -0.16358311355E+03  0.51712416355E+03  0.25500000920E-02 0.  1.
</event>
<event>
 5   0  0.1453863E-04  0.9998371E+03  0.7818609E-02  0.9308723E-01
       -1   -1    0    0    0  501  0.00000000000E+00  0.00000000000E+00  0.12461753516E+04  0.12461753517E+04  0.50400001928E-02 0.  1.
        1   -1    0    0  501    0  0.00000000000E+00  0.00000000000E+00 -0.20054848523E+03  0.20054848529E+03  0.50400001928E-02 0. -1.
    10030    2    1    2    0    0  0.00000000000E+00  0.00000000000E+00  0.10456268664E+04  0.14467238369E+04  0.99983714504E+03 0.  0.
        1    1    3    3  502    0 -0.26313472355E+03  0.42305203061E+03  0.58257261082E+03  0.76655316204E+03  0.50400001928E-02 0.  1.
       -1    1    3    3    0  502  0.26313472355E+03 -0.42305203061E+03  0.46305425560E+03  0.68017067490E+03  0.50400001928E-02 0. -1.
</event>
<event>
 5   0  0.9650500E-05  0.9999173E+03  0.7818609E-02  0.9308635E-01
       -3   -1    0    0    0  501  0.00000000000E+00  0.00000000000E+00  0.45584784086E+03  0.45584785205E+03  0.10100000352E+00 0. -1.
        3   -1    0    0  501    0  0.00000000000E+00  0.00000000000E+00 -0.54833792076E+03  0.54833793006E+03  0.10100000352E+00 0.  1.
    10030    2    1    2    0    0  0.00000000000E+00  0.00000000000E+00 -0.92490079897E+02  0.10041857821E+04  0.99991733163E+03 0.  0.
        3    1    3    3  502    0 -0.21152533331E+03  0.38460495164E+03  0.19413991327E+03  0.47995234303E+03  0.10100000352E+00 0. -1.
       -3    1    3    3    0  502  0.21152533331E+03 -0.38460495164E+03 -0.28662999317E+03  0.52423343907E+03  0.10100000352E+00 0.  1.
</event>
<event>
 5   0  0.2473312E-04  0.9994082E+03  0.7818609E-02  0.9309194E-01
        2   -1    0    0  501    0  0.00000000000E+00  0.00000000000E+00  0.10096443269E+04  0.10096443269E+04  0.25500000920E-02 0.  1.
       -2   -1    0    0    0  501  0.00000000000E+00  0.00000000000E+00 -0.24731898107E+03  0.24731898109E+03  0.25500000920E-02 0. -1.
    10030    2    1    2    0    0  0.00000000000E+00  0.00000000000E+00  0.76232534579E+03  0.12569633080E+04  0.99940823727E+03 0.  0.
        5    1    3    3  502    0 -0.46726858832E+03 -0.11821626331E+03  0.21541658038E+03  0.52795966858E+03  0.46999998093E+01 0. -1.
       -5    1    3    3    0  502  0.46726858832E+03  0.11821626331E+03  0.54690876541E+03  0.72900363938E+03  0.46999998093E+01 0.  1.
</event>
<event>
 5   0  0.1506454E-04  0.9995434E+03  0.7818609E-02  0.9309046E-01
        1   -1    0    0  501    0  0.00000000000E+00  0.00000000000E+00  0.89045607489E+03  0.89045607490E+03  0.50400001928E-02 0.  1.
       -1   -1    0    0    0  501  0.00000000000E+00  0.00000000000E+00 -0.28049866354E+03  0.28049866358E+03  0.50400001928E-02 0. -1.
    10030    2    1    2    0    0  0.00000000000E+00  0.00000000000E+00  0.60995741135E+03  0.11709547385E+04  0.99954337371E+03 0.  0.
        3    1    3    3  502    0  0.49306132386E+03 -0.52388252256E+02  0.37830432756E+03  0.62367312954E+03  0.10100000352E+00 0.  1.
       -3    1    3    3    0  502 -0.49306132386E+03  0.52388252256E+02  0.23165308379E+03  0.54728160895E+03  0.10100000352E+00 0. -1.
</event>
<event>
 5   0  0.1430675E-04  0.9972727E+03  0.7818609E-02  0.9311541E-01
       -1   -1    0    0    0  501  0.00000000000E+00  0.00000000000E+00  0.15386981538E+04  0.15386981538E+04  0.50400001928E-02 0. -1.
        1   -1    0    0  501    0  0.00000000000E+00  0.00000000000E+00 -0.16158998089E+03  0.16158998097E+03  0.50400001928E-02 0.  1.
    10030    2    1    2    0    0  0.00000000000E+00  0.00000000000E+00  0.13771081729E+04  0.17002881347E+04  0.99727269157E+03 0.  0.
        5    1    3    3  502    0 -0.17090523342E+03 -0.28013996297E+03  0.48511364106E+02  0.33175659768E+03  0.46999998093E+01 0.  1.
       -5    1    3    3    0  502  0.17090523342E+03  0.28013996297E+03  0.13285968088E+04  0.13685315371E+04  0.46999998093E+01 0. -1.
</event>
<event>
 5   0  0.1430675E-04  0.9999040E+03  0.7818609E-02  0.9308650E-01
        1   -1    0    0  501    0  0.00000000000E+00  0.00000000000E+00  0.88293787368E+03  0.88293787370E+03  0.50400001928E-02 0. -1.
       -1   -1    0    0    0  501  0.00000000000E+00  0.00000000000E+00 -0.28309126821E+03  0.28309126825E+03  0.50400001928E-02 0.  1.
    10030    2    1    2    0    0  0.00000000000E+00  0.00000000000E+00  0.59984660548E+03  0.11660291420E+04  0.99990400028E+03 0.  0.
        5    1    3    3  502    0  0.25645772013E+03  0.47327100106E+02 -0.19745944896E+03  0.32714330285E+03  0.46999998093E+01 0.  1.
       -5    1    3    3    0  502 -0.25645772013E+03 -0.47327100106E+02  0.79730605443E+03  0.83888583911E+03  0.46999998093E+01 0. -1.
</event>
<event>
 5   0  0.2503680E-04  0.9993823E+03  0.7818609E-02  0.9309223E-01
        2   -1    0    0  501    0  0.00000000000E+00  0.00000000000E+00  0.59844727566E+03  0.59844727566E+03  0.25500000920E-02 0.  1.
       -2   -1    0    0    0  501  0.00000000000E+00  0.00000000000E+00 -0.41723183962E+03  0.41723183963E+03  0.25500000920E-02 0. -1.
    10030    2    1    2    0    0  0.00000000000E+00  0.00000000000E+00  0.18121543603E+03  0.10156791153E+04  0.99938232473E+03 0.  0.
        2    1    3    3  502    0  0.70153989106E+02  0.14498720089E+02 -0.41198604404E+03  0.41816778399E+03  0.25500000920E-02 0. -1.
       -2    1    3    3    0  502 -0.70153989106E+02 -0.14498720089E+02  0.59320148008E+03  0.59751133131E+03  0.25500000920E-02 0.  1.
</event>
<event>
 5   0  0.1430675E-04  0.1000130E+04  0.7818609E-02  0.9308402E-01
        1   -1    0    0  501    0  0.00000000000E+00  0.00000000000E+00  0.26006996500E+04  0.26006996500E+04  0.50400001928E-02 0. -1.
       -1   -1    0    0    0  501  0.00000000000E+00  0.00000000000E+00 -0.96152949282E+02  0.96152949414E+02  0.50400001928E-02 0.  1.
    10030    2    1    2    0    0  0.00000000000E+00  0.00000000000E+00  0.25045467008E+04  0.26968525995E+04  0.10001298750E+04 0.  0.
        5    1    3    3  502    0 -0.20448972118E+03 -0.45575755907E+03  0.11912672251E+04  0.12917703706E+04  0.46999998093E+01 0. -1.
       -5    1    3    3    0  502  0.20448972118E+03  0.45575755907E+03  0.13132794757E+04  0.14050822289E+04  0.46999998093E+01 0.  1.
</event>
<event>
 5   0  0.1453863E-04  0.9997367E+03  0.7818609E-02  0.9308834E-01
       -1   -1    0    0    0  501  0.00000000000E+00  0.00000000000E+00  0.43013193792E+03  0.43013193795E+03  0.50400001928E-02 0.  1.
        1   -1    0    0  501    0  0.00000000000E+00  0.00000000000E+00 -0.58091103971E+03  0.58091103974E+03  0.50400001928E-02 0. -1.
    10030    2    1    2    0    0  0.00000000000E+00  0.00000000000E+00 -0.15077910179E+03  0.10110429777E+04  0.99973674794E+03 0.  0.
        1    1    3    3  502    0 -0.86311298101E+02  0.10983395453E+03 -0.56077082988E+03  0.57790748517E+03  0.50400001928E-02 0. -1.
       -1    1    3    3    0  502  0.86311298101E+02 -0.10983395453E+03  0.40999172809E+03  0.43313549251E+03  0.50400001928E-02 0.  1.
</event>
<event>
 5   0  0.2503680E-04  0.1000979E+04  0.7818609E-02  0.9307471E-01
       -2   -1    0    0    0  501  0.00000000000E+00  0.00000000000E+00  0.26991114066E+03  0.26991114067E+03  0.25500000920E-02 0. -1.
        2   -1    0    0  501    0  0.00000000000E+00  0.00000000000E+00 -0.92804588780E+03  0.92804588781E+03  0.25500000920E-02 0.  1.
    10030    2    1    2    0    0  0.00000000000E+00  0.00000000000E+00 -0.65813474715E+03  0.11979570285E+04  0.10009793688E+04 0.  0.
        2    1    3    3  502    0  0.13294942524E+02  0.54986016072E+02  0.26607261640E+03  0.27201995270E+03  0.25500000920E-02 0. -1.
       -2    1    3    3    0  502 -0.13294942524E+02 -0.54986016072E+02 -0.92420736355E+03  0.92593707578E+03  0.25500000920E-02 0.  1.
</event>
<event>
 5   0  0.9650500E-05  0.9999137E+03  0.7818609E-02  0.9308639E-01
       -4   -1    0    0    0  501  0.00000000000E+00  0.00000000000E+00  0.47288453559E+03  0.47288624098E+03  0.12699999809E+01 0.  1.
        4   -1    0    0  501    0  0.00000000000E+00  0.00000000000E+00 -0.52857565414E+03  0.52857717984E+03  0.12699999809E+01 0. -1.
    10030    2    1    2    0    0  0.00000000000E+00  0.00000000000E+00 -0.55691118541E+02  0.10014634208E+04  0.99991373755E+03 0.  0.
        1    1    3    3  502    0 -0.10441200142E+03 -0.13456838117E+03 -0.49862336129E+03  0.52691154068E+03  0.50400001928E-02 0. -1.
       -1    1    3    3    0  502  0.10441200142E+03  0.13456838117E+03  0.44293224275E+03  0.47455188014E+03  0.50400001928E-02 0.  1.
</event>
<event>
 5   0  0.1461334E-04  0.9986065E+03  0.7818609E-02  0.9310074E-01
       -1   -1    0    0    0  501  0.00000000000E+00  0.00000000000E+00  0.70165313738E+03  0.70165313740E+03  0.50400001928E-02 0. -1.
        1   -1    0    0  501    0  0.00000000000E+00  0.00000000000E+00 -0.35530908080E+03  0.35530908084E+03  0.50400001928E-02 0.  1.
    10030    2    1    2    0    0  0.00000000000E+00  0.00000000000E+00  0.34634405658E+03  0.10569622182E+04  0.99860649169E+03 0.  0.
        2    1    3    3  502    0 -0.11568972966E+03 -0.44872239527E+03  0.36996117185E+03  0.59296472934E+03  0.25500000920E-02 0. -1.
       -2    1    3    3    0  502  0.11568972966E+03  0.44872239527E+03 -0.23617115266E+02  0.46399748890E+03  0.25500000920E-02 0.  1.
</event>
<event>
 5   0  0.1414165E-04  0.1001151E+04  0.7818609E-02  0.9307283E-01
       -1   -1    0    0    0  501  0.00000000000E+00  0.00000000000E+00  0.64031132846E+03  0.64031132848E+03  0.50400001928E-02 0.  1.
        1   -1    0    0  501    0  0.00000000000E+00  0.00000000000E+00 -0.39133428899E+03  0.39133428902E+03  0.50400001928E-02 0. -1.
    10030    2    1    2    0    0  0.00000000000E+00  0.00000000000E+00  0.24897703948E+03  0.10316456175E+04  0.10011508947E+04 0.  0.
        4    1    3    3  502    0  0.76050049292E+01  0.49823427371E+03  0.17368083368E+03  0.52769486683E+03  0.12699999809E+01 0. -1.
       -4    1    3    3    0  502 -0.76050049292E+01 -0.49823427371E+03  0.75296205795E+02  0.50395075067E+03  0.12699999809E+01 0.  1.
</event>
<event>
 5   0  0.1414165E-04  0.9999724E+03  0.7818609E-02  0.9308575E-01
       -1   -1    0    0    0  501  0.00000000000E+00  0.00000000000E+00  0.24851991872E+03  0.24851991877E+03  0.50400001928E-02 0.  1.
        1   -1    0    0  501    0  0.00000000000E+00  0.00000000000E+00 -0.10058999835E+04  0.10058999835E+04  0.50400001928E-02 0. -1.
    10030    2    1    2    0    0  0.00000000000E+00  0.00000000000E+00 -0.75738006479E+03  0.12544199023E+04  0.99997236399E+03 0.  0.
        4    1    3    3  502    0  0.26354265041E+03  0.29699684152E+03 -0.75985170693E+03  0.85734361949E+03  0.12699999809E+01 0. -1.
       -4    1    3    3    0  502 -0.26354265041E+03 -0.29699684152E+03  0.24716421385E+01  0.39707628281E+03  0.12699999809E+01 0.  1.
</event>
<event>
 5   0  0.1430675E-04  0.1000328E+04  0.7818609E-02  0.9308185E-01
        1   -1    0    0  501    0  0.00000000000E+00  0.00000000000E+00  0.81385841544E+03  0.81385841546E+03  0.50400001928E-02 0.  1.
       -1   -1    0    0    0  501  0.00000000000E+00  0.00000000000E+00 -0.30738014438E+03  0.30738014442E+03  0.50400001928E-02 0. -1.
    10030    2    1    2    0    0  0.00000000000E+00  0.00000000000E+00  0.50647827107E+03  0.11212385599E+04  0.10003277808E+04 0.  0.
        5    1    3    3  502    0 -0.14981178718E+03  0.32409183093E+03 -0.13932627176E+03  0.38329229898E+03  0.46999998093E+01 0. -1.
       -5    1    3    3    0  502  0.14981178718E+03 -0.32409183093E+03  0.64580454282E+03  0.73794626090E+03  0.46999998093E+01 0.  1.
</event>
<event>
 5   0  0.1506454E-04  0.9998774E+03  0.7818609E-02  0.9308679E-01
        1   -1    0    0  501    0  0.00000000000E+00  0.00000000000E+00  0.37527101133E+03  0.37527101136E+03  0.50400001928E-02 0.  1.
       -1   -1    0    0    0  501  0.00000000000E+00  0.00000000000E+00 -0.66602183622E+03  0.66602183624E+03  0.50400001928E-02 0. -1.
    10030    2    1    2    0    0  0.00000000000E+00  0.00000000000E+00 -0.29075082489E+03  0.10412928476E+04  0.99987736863E+03 0.  0.
        3    1    3    3  502    0 -0.45652569494E+03  0.18249468800E+03 -0.50963550314E+02  0.49428464973E+03  0.10100000352E+00 0. -1.
       -3    1    3    3    0  502  0.45652569494E+03 -0.18249468800E+03 -0.23978727458E+03  0.54700819788E+03  0.10100000352E+00 0.  1.
</event>
<event>
 5   0  0.2473312E-04  0.1000158E+04  0.7818609E-02  0.9308372E-01
        2   -1    0    0  501    0  0.00000000000E+00  0.00000000000E+00  0.48369566315E+03  0.48369566315E+03  0.25500000920E-02 0.  1.
       -2   -1    0    0    0  501  0.00000000000E+00  0.00000000000E+00 -0.51701711244E+03  0.51701711245E+03  0.25500000920E-02 0. -1.
    10030    2    1    2    0    0  0.00000000000E+00  0.00000000000E+00 -0.33321449299E+02  0.10007127756E+04  0.10001578577E+04 0.  0.
        5    1    3    3  502    0  0.11072940070E+03  0.41885537610E+02 -0.50277125241E+03  0.51654275786E+03  0.46999998093E+01 0. -1.
       -5    1    3    3    0  502 -0.11072940070E+03 -0.41885537610E+02  0.46944980312E+03  0.48417001775E+03  0.46999998093E+01 0.  1.
</event>
<event>
 5   0  0.1430675E-04  0.9997318E+03  0.7818609E-02  0.9308839E-01
        1   -1    0    0  501    0  0.00000000000E+00  0.00000000000E+00  0.74981342575E+03  0.74981342577E+03  0.50400001928E-02 0. -1.
       -1   -1    0    0    0  501  0.00000000000E+00  0.00000000000E+00 -0.33323748203E+03  0.33323748206E+03  0.50400001928E-02 0.  1.
    10030    2    1    2    0    0  0.00000000000E+00  0.00000000000E+00  0.41657594372E+03  0.10830509078E+04  0.99973184008E+03 0.  0.
        5    1    3    3  502    0 -0.32886034908E+03 -0.35347098787E+03  0.68067515578E+02  0.48759219142E+03  0.46999998093E+01 0.  1.
       -5    1    3    3    0  502  0.32886034908E+03  0.35347098787E+03  0.34850842814E+03  0.59545871641E+03  0.46999998093E+01 0. -1.
</event>
<event>
 5   0  0.2403037E-04  0.1002822E+04  0.7818609E-02  0.9305455E-01
        2   -1    0    0  501    0  0.00000000000E+00  0.00000000000E+00  0.80053227242E+03  0.80053227242E+03  0.25500000920E-02 0.  1.
       -2   -1    0    0    0  501  0.00000000000E+00  0.00000000000E+00 -0.31405743623E+03  0.31405743624E+03  0.25500000920E-02 0. -1.
    10030    2    1    2    0    0  0.00000000000E+00  0.00000000000E+00  0.48647483619E+03  0.11145897087E+04  0.10028222437E+04 0.  0.
        1    1    3    3  502    0  0.32502162025E+03 -0.74555229542E+02 -0.17295024488E+03  0.37564520909E+03  0.50400001928E-02 0. -1.
       -1    1    3    3    0  502 -0.32502162025E+03  0.74555229542E+02  0.65942508107E+03  0.73894449958E+03  0.50400001928E-02 0.  1.
</event>
<event>
 5   0  0.1506454E-04  0.1000064E+04  0.7818609E-02  0.9308475E-01
       -1   -1    0    0    0  501  0.00000000000E+00  0.00000000000E+00  0.26893431100E+03  0.26893431105E+03  0.50400001928E-02 0.  1.
        1   -1    0    0  501    0  0.00000000000E+00  0.00000000000E+00 -0.92971378153E+03  0.92971378155E+03  0.50400001928E-02 0. -1.
    10030    2    1    2    0    0  0.00000000000E+00  0.00000000000E+00 -0.66077947053E+03  0.11986480926E+04  0.10000638686E+04 0.  0.
        3    1    3    3  502    0 -0.16861892233E+03  0.15541254248E+03  0.20219499416E+03  0.30572573525E+03  0.10100000352E+00 0.  1.
       -3    1    3    3    0  502  0.16861892233E+03 -0.15541254248E+03 -0.86297446470E+03  0.89292235734E+03  0.10100000352E+00 0. -1.
</event>
<event>
 5   0  0.1461334E-04  0.9974694E+03  0.7818609E-02  0.9311325E-01
        1   -1    0    0  501    0  0.00000000000E+00  0.00000000000E+00  0.36561668334E+03  0.36561668337E+03  0.50400001928E-02 0.  1.
       -1   -1    0    0    0  501  0.00000000000E+00  0.00000000000E+00 -0.68031994295E+03  0.68031994297E+03  0.50400001928E-02 0. -1.
    10030    2    1    2    0    0  0.00000000000E+00  0.00000000000E+00 -0.31470325962E+03  0.10459366263E+04  0.99746944049E+03 0.  0.
        2    1    3    3  502    0  0.47747103407E+03 -0.14106346189E+03 -0.12662181010E+03  0.51372227074E+03  0.25500000920E-02 0.  1.
       -2    1    3    3    0  502 -0.47747103407E+03  0.14106346189E+03 -0.18808144951E+03  0.53221435560E+03  0.25500000920E-02 0. -1.
</event>
<event>
 5   0  0.9650500E-05  0.9988044E+03  0.7818609E-02  0.9309857E-01
       -3   -1    0    0    0  501  0.00000000000E+00  0.00000000000E+00  0.12555832832E+04  0.12555832873E+04  0.10100000352E+00 0.  1.
        3   -1    0    0  501    0  0.00000000000E+00  0.00000000000E+00 -0.19863480437E+03  0.19863483005E+03  0.10100000352E+00 0. -1.
    10030    2    1    2    0    0  0.00000000000E+00  0.00000000000E+00  0.10569484789E+04  0.14542181174E+04  0.99880440820E+03 0.  0.
        4    1    3    3  502    0  0.48128492465E+03 -0.64877466265E+02  0.69799615097E+03  0.85032023614E+03  0.12699999809E+01 0.  1.
       -4    1    3    3    0  502 -0.48128492465E+03  0.64877466265E+02  0.35895232791E+03  0.60389788121E+03  0.12699999809E+01 0. -1.
</event>
<event>
 5   0  0.2403037E-04  0.9998223E+03  0.7818609E-02  0.9308740E-01
       -2   -1    0    0    0  501  0.00000000000E+00  0.00000000000E+00  0.48450328421E+03  0.48450328421E+03  0.25500000920E-02 0. -1.
        2   -1    0    0  501    0  0.00000000000E+00  0.00000000000E+00 -0.51580904524E+03  0.51580904525E+03  0.25500000920E-02 0.  1.
    10030    2    1    2    0    0  0.00000000000E+00  0.00000000000E+00 -0.31305761036E+02  0.10003123295E+04  0.99982233712E+03 0.  0.
        1    1    3    3  502    0  0.30261245790E+03  0.31280739993E+03 -0.26171732344E+03  0.50785699418E+03  0.50400001928E-02 0.  1.
       -1    1    3    3    0  502 -0.30261245790E+03 -0.31280739993E+03  0.23041156240E+03  0.49245533528E+03  0.50400001928E-02 0. -1.
</event>
<event>
 5   0  0.2484904E-04  0.9993490E+03  0.7818609E-02  0.9309259E-01
        2   -1    0    0  501    0  0.00000000000E+00  0.00000000000E+00  0.17867393194E+03  0.17867393196E+03  0.25500000920E-02 0.  1.
       -2   -1    0    0    0  501  0.00000000000E+00  0.00000000000E+00 -0.13973755595E+04  0.13973755596E+04  0.25500000920E-02 0. -1.
    10030    2    1    2    0    0  0.00000000000E+00  0.00000000000E+00 -0.12187016276E+04  0.15760494915E+04  0.99934895935E+03 0.  0.
        3    1    3    3  502    0  0.49722351753E+03 -0.49405887540E+02 -0.60690389073E+03  0.78613262932E+03  0.10100000352E+00 0. -1.
       -3    1    3    3    0  502 -0.49722351753E+03  0.49405887540E+02 -0.61179773688E+03  0.78991686218E+03  0.10100000352E+00 0.  1.
</event>
<event>
 5   0  0.2403037E-04  0.9968648E+03  0.7818609E-02  0.9311990E-01
       -2   -1    0    0    0  501  0.00000000000E+00  0.00000000000E+00  0.85680917332E+03  0.85680917332E+03  0.25500000920E-02 0.  1.
        2   -1    0    0  501    0  0.00000000000E+00  0.00000000000E+00 -0.28995357373E+03  0.28995357374E+03  0.25500000920E-02 0. -1.
    10030    2    1    2    0    0  0.00000000000E+00  0.00000000000E+00  0.56685559959E+03  0.11467627471E+04  0.99686484905E+03 0.  0.
        1    1    3    3  502    0 -0.35069818969E+03  0.21805453320E+03 -0.37642489226E+02  0.41467331325E+03  0.50400001928E-02 0. -1.
       -1    1    3    3    0  502  0.35069818969E+03 -0.21805453320E+03  0.60449808882E+03  0.73208943382E+03  0.50400001928E-02 0.  1.
</event>
<event>
 5   0  0.2484904E-04  0.1000637E+04  0.7818609E-02  0.9307846E-01
        2   -1    0    0  501    0  0.00000000000E+00  0.00000000000E+00  0.84337598840E+03  0.84337598841E+03  0.25500000920E-02 0.  1.
       -2   -1    0    0    0  501  0.00000000000E+00  0.00000000000E+00 -0.29680562136E+03  0.29680562137E+03  0.25500000920E-02 0. -1.
    10030    2    1    2    0    0  0.00000000000E+00  0.00000000000E+00  0.54657036705E+03  0.11401816098E+04  0.10006372655E+04 0.  0.
        3    1    3    3  502    0 -0.18332018277E+03 -0.72780029796E+01 -0.25709366084E+03  0.31584239643E+03  0.10100000352E+00 0. -1.
       -3    1    3    3    0  502  0.18332018277E+03  0.72780029796E+01  0.80366402789E+03  0.82433921335E+03  0.10100000352E+00 0.  1.
</event>
<event>
 5   0  0.2503680E-04  0.1000644E+04  0.7818609E-02  0.9307839E-01
       -2   -1    0    0    0  501  0.00000000000E+00  0.00000000000E+00  0.68484959584E+03  0.68484959584E+03  0.25500000920E-02 0. -1.
        2   -1    0    0  501    0  0.00000000000E+00  0.00000000000E+00 -0.36551387299E+03  0.36551387300E+03  0.25500000920E-02 0.  1.
    10030    2    1    2    0    0  0.00000000000E+00  0.00000000000E+00  0.31933572285E+03  0.10503634688E+04  0.10006438491E+04 0.  0.
        2    1    3    3  502    0  0.14427909960E+03 -0.14146444373E+03  0.64011457979E+03  0.67124907649E+03  0.25500000920E-02 0. -1.
       -2    1    3    3    0  502 -0.14427909960E+03  0.14146444373E+03 -0.32077885694E+03  0.37911439235E+03  0.25500000920E-02 0.  1.
</event>
<event>
 5   0  0.2403037E-04  0.1000286E+04  0.7818609E-02  0.9308231E-01
       -2   -1    0    0    0  501  0.00000000000E+00  0.00000000000E+00  0.13375390536E+03  0.13375390538E+03  0.25500000920E-02 0. -1.
        2   -1    0    0  501    0  0.00000000000E+00  0.00000000000E+00 -0.18701728087E+04  0.18701728087E+04  0.25500000920E-02 0.  1.
    10030    2    1    2    0    0  0.00000000000E+00  0.00000000000E+00 -0.17364189033E+04  0.20039267141E+04  0.10002857929E+04 0.  0.
        1    1    3    3  502    0  0.36706799875E+03 -0.33752512553E+03 -0.94530061262E+03  0.10687634791E+04  0.50400001928E-02 0. -1.
       -1    1    3    3    0  502 -0.36706799875E+03  0.33752512553E+03 -0.79111829070E+03  0.93516323494E+03  0.50400001928E-02 0.  1.
</event>
<event>
 5   0  0.1430675E-04  0.1006213E+04  0.7818609E-02  0.9301757E-01
       -1   -1    0    0    0  501  0.00000000000E+00  0.00000000000E+00  0.24328118357E+03  0.24328118362E+03  0.50400001928E-02 0.  1.
        1   -1    0    0  501    0  0.00000000000E+00  0.00000000000E+00 -0.10404260897E+04  0.10404260898E+04  0.50400001928E-02 0. -1.
    10030    2    1    2    0    0  0.00000000000E+00  0.00000000000E+00 -0.79714490617E+03  0.12837072734E+04  0.10062128812E+04 0.  0.
        5    1    3    3  502    0 -0.30210401077E+03 -0.28303250117E+03 -0.76327575760E+03  0.86832378879E+03  0.46999998093E+01 0.  1.
       -5    1    3    3    0  502  0.30210401077E+03  0.28303250117E+03 -0.33869148568E+02  0.41538348458E+03  0.46999998093E+01 0. -1.
</event>
<event>
 5   0  0.1506454E-04  0.9998883E+03  0.7818609E-02  0.9308667E-01
       -1   -1    0    0    0  501  0.00000000000E+00  0.00000000000E+00  0.67659986207E+03  0.67659986209E+03  0.50400001928E-02 0. -1.
        1   -1    0    0  501    0  0.00000000000E+00  0.00000000000E+00 -0.36941209658E+03  0.36941209662E+03  0.50400001928E-02 0.  1.
    10030    2    1    2    0    0  0.00000000000E+00  0.00000000000E+00  0.30718776549E+03  0.10460119587E+04  0.99988834101E+03 0.  0.
        3    1    3    3  502    0  0.16358412866E+03 -0.32263406890E+02  0.64665632202E+03  0.66780618714E+03  0.10100000352E+00 0. -1.
       -3    1    3    3    0  502 -0.16358412866E+03  0.32263406890E+02 -0.33946855653E+03  0.37820577157E+03  0.10100000352E+00 0.  1.
</event>
<event>
 5   0  0.2503680E-04  0.1000187E+04  0.7818609E-02  0.9308339E-01
       -2   -1    0    0    0  501  0.00000000000E+00  0.00000000000E+00  0.13519842238E+03  0.13519842240E+03  0.25500000920E-02 0.  1.
        2   -1    0    0  501    0  0.00000000000E+00  0.00000000000E+00 -0.18498265010E+04  0.18498265010E+04  0.25500000920E-02 0. -1.
    10030    2    1    2    0    0  0.00000000000E+00  0.00000000000E+00 -0.17146280786E+04  0.19850249234E+04  0.10001872318E+04 0.  0.
        2    1    3    3  502    0 -0.19581174425E+02  0.30468490709E+02 -0.18472201947E+04  0.18475752215E+04  0.25500000920E-02 0. -1.
       -2    1    3    3    0  502  0.19581174425E+02 -0.30468490709E+02  0.13259211606E+03  0.13744970195E+03  0.25500000920E-02 0.  1.
</event>
<event>
 5   0  0.1506454E-04  0.9999691E+03  0.7818609E-02  0.9308579E-01
        1   -1    0    0  501    0  0.00000000000E+00  0.00000000000E+00  0.67255953894E+03  0.67255953896E+03  0.50400001928E-02 0.  1.
       -1   -1    0    0    0  501  0.00000000000E+00  0.00000000000E+00 -0.37169131834E+03  0.37169131838E+03  0.50400001928E-02 0. -1.
    10030    2    1    2    0    0  0.00000000000E+00  0.00000000000E+00  0.30086822060E+03  0.10442508573E+04  0.99996908296E+03 0.  0.
        3    1    3    3  502    0  0.15066084826E+01  0.20996915295E+03  0.62428466811E+03  0.65865064496E+03  0.10100000352E+00 0.  1.
       -3    1    3    3    0  502 -0.15066084826E+01 -0.20996915295E+03 -0.32341644752E+03  0.38560021238E+03  0.10100000352E+00 0. -1.
</event>
<event>
 5   0  0.1506454E-04  0.9997833E+03  0.7818609E-02  0.9308783E-01
        1   -1    0    0  501    0  0.00000000000E+00  0.00000000000E+00  0.18317027120E+04  0.18317027120E+04  0.50400001928E-02 0.  1.
       -1   -1    0    0    0  501  0.00000000000E+00  0.00000000000E+00 -0.13642588248E+03  0.13642588258E+03  0.50400001928E-02 0. -1.
    10030    2    1    2    0    0  0.00000000000E+00  0.00000000000E+00  0.16952768295E+04  0.19681285946E+04  0.99978329458E+03 0.  0.
        3    1    3    3  502    0 -0.95365751250E+02  0.24155823138E+03  0.16884826169E+04  0.17083379535E+04  0.10100000352E+00 0.  1.
       -3    1    3    3    0  502  0.95365751250E+02 -0.24155823138E+03  0.67942126190E+01  0.25979064107E+03  0.10100000352E+00 0. -1.
</event>
<event>
 5   0  0.2473312E-04  0.9995415E+03  0.7818609E-02  0.9309048E-01
       -2   -1    0    0    0  501  0.00000000000E+00  0.00000000000E+00  0.46096756697E+03  0.46096756698E+03  0.25500000920E-02 0. -1.
        2   -1    0    0  501    0  0.00000000000E+00  0.00000000000E+00 -0.54184024929E+03  0.54184024930E+03  0.25500000920E-02 0.  1.
    10030    2    1    2    0    0  0.00000000000E+00  0.00000000000E+00 -0.80872682320E+02  0.10028078163E+04  0.99954145769E+03 0.  0.
        5    1    3    3  502    0  0.61165829631E+02  0.14694506004E+03  0.43483588406E+03  0.46307498902E+03  0.46999998093E+01 0. -1.
       -5    1    3    3    0  502 -0.61165829631E+02 -0.14694506004E+03 -0.51570856638E+03  0.53973282726E+03  0.46999998093E+01 0.  1.
</event>
<event>
 5   0  0.2484904E-04  0.9988808E+03  0.7818609E-02  0.9309773E-01
       -2   -1    0    0    0  501  0.00000000000E+00  0.00000000000E+00  0.21740409799E+03  0.21740409800E+03  0.25500000920E-02 0.  1.
        2   -1    0    0  501    0  0.00000000000E+00  0.00000000000E+00 -0.11473596734E+04  0.11473596734E+04  0.25500000920E-02 0. -1.
    10030    2    1    2    0    0  0.00000000000E+00  0.00000000000E+00 -0.92995557546E+03  0.13647637715E+04  0.99888076343E+03 0.  0.
        3    1    3    3  502    0 -0.15416024214E+03 -0.47502894396E+03 -0.45845285119E+03  0.67793576748E+03  0.10100000352E+00 0.  1.
       -3    1    3    3    0  502  0.15416024214E+03  0.47502894396E+03 -0.47150272427E+03  0.68682800398E+03  0.10100000352E+00 0. -1.
</event>
<event>
 5   0  0.1430675E-04  0.1000004E+04  0.7818609E-02  0.9308540E-01
       -1   -1    0    0    0  501  0.00000000000E+00  0.00000000000E+00  0.26233689481E+03  0.26233689486E+03  0.50400001928E-02 0. -1.
        1   -1    0    0  501    0  0.00000000000E+00  0.00000000000E+00 -0.95298151040E+03  0.95298151041E+03  0.50400001928E-02 0.  1.
    10030    2    1    2    0    0  0.00000000000E+00  0.00000000000E+00 -0.69064461559E+03  0.12153184053E+04  0.10000044206E+04 0.  0.
        5    1    3    3  502    0  0.11233826788E+03 -0.48353711843E+03 -0.27289037531E+03  0.56649737710E+03  0.46999998093E+01 0. -1.
       -5    1    3    3    0  502 -0.11233826788E+03  0.48353711843E+03 -0.41775424028E+03  0.64882102817E+03  0.46999998093E+01 0.  1.
</event>
<event>
 5   0  0.2503680E-04  0.9999557E+03  0.7818609E-02  0.9308593E-01
       -2   -1    0    0    0  501  0.00000000000E+00  0.00000000000E+00  0.19437574584E+03  0.19437574586E+03  0.25500000920E-02 0.  1.
        2   -1    0    0  501    0  0.00000000000E+00  0.00000000000E+00 -0.12860547097E+04  0.12860547097E+04  0.25500000920E-02 0. -1.
    10030    2    1    2    0    0  0.00000000000E+00  0.00000000000E+00 -0.10916789638E+04  0.14804304555E+04  0.99995568581E+03 0.  0.
        2    1    3    3  502    0  0.16608228844E+03 -0.34767159859E+03 -0.10175557693E+04  0.10880618597E+04  0.25500000920E-02 0. -1.
       -2    1    3    3    0  502 -0.16608228844E+03  0.34767159859E+03 -0.74123194565E+02  0.39236859581E+03  0.25500000920E-02 0.  1.
</event>
<event>
 5   0  0.1453863E-04  0.1001157E+04  0.7818609E-02  0.9307276E-01
       -1   -1    0    0    0  501  0.00000000000E+00  0.00000000000E+00  0.55269629325E+03  0.55269629328E+03  0.50400001928E-02 0.  1.
        1   -1    0    0  501    0  0.00000000000E+00  0.00000000000E+00 -0.45337567788E+03  0.45337567791E+03  0.50400001928E-02 0. -1.
    10030    2    1    2    0    0  0.00000000000E+00  0.00000000000E+00  0.99320615372E+02  0.10060719712E+04  0.10011574434E+04 0.  0.
        1    1    3    3  502    0 -0.16847600196E+03 -0.29974796296E+03  0.41524008554E+03  0.53912645381E+03  0.50400001928E-02 0.  1.
       -1    1    3    3    0  502  0.16847600196E+03  0.29974796296E+03 -0.31591947017E+03  0.46694551737E+03  0.50400001928E-02 0. -1.
</event>
<event>
 5   0  0.9650500E-05  0.1000528E+04  0.7818609E-02  0.9307966E-01
       -3   -1    0    0    0  501  0.00000000000E+00  0.00000000000E+00  0.42836107318E+03  0.42836108509E+03  0.10100000352E+00 0. -1.
        3   -1    0    0  501    0  0.00000000000E+00  0.00000000000E+00 -0.58423649130E+03  0.58423650003E+03  0.10100000352E+00 0.  1.
    10030    2    1    2    0    0  0.00000000000E+00  0.00000000000E+00 -0.15587541812E+03  0.10125975851E+04  0.10005282222E+04 0.  0.
        2    1    3    3  502    0 -0.30760858536E+03  0.26169024370E+03 -0.37672667056E+03  0.55229322805E+03  0.25500000920E-02 0.  1.
       -2    1    3    3    0  502  0.30760858536E+03 -0.26169024370E+03  0.22085125243E+03  0.46030435708E+03  0.25500000920E-02 0. -1.
</event>
<event>
 5   0  0.2403037E-04  0.9997917E+03  0.7818609E-02  0.9308773E-01
       -2   -1    0    0    0  501  0.00000000000E+00  0.00000000000E+00  0.52546608643E+03  0.52546608644E+03  0.25500000920E-02 0. -1.
        2   -1    0    0  501    0  0.00000000000E+00  0.00000000000E+00 -0.47556990346E+03  0.47556990347E+03  0.25500000920E-02 0.  1.
    10030    2    1    2    0    0  0.00000000000E+00  0.00000000000E+00  0.49896182967E+02  0.10010359899E+04  0.99979169031E+03 0.  0.
        1    1    3    3  502    0 -0.49514751187E+03 -0.68639924333E+02  0.21288648298E+02  0.50033559168E+03  0.50400001928E-02 0.  1.
       -1    1    3    3    0  502  0.49514751187E+03  0.68639924333E+02  0.28607534669E+02  0.50070039823E+03  0.50400001928E-02 0. -1.
</event>
<event>
 5   0  0.1461334E-04  0.9937129E+03  0.7818609E-02  0.9315467E-01
       -1   -1    0    0    0  501  0.00000000000E+00  0.00000000000E+00  0.43786088528E+03  0.43786088531E+03  0.50400001928E-02 0. -1.
        1   -1    0    0  501    0  0.00000000000E+00  0.00000000000E+00 -0.56380077641E+03  0.56380077643E+03  0.50400001928E-02 0.  1.
    10030    2    1    2    0    0  0.00000000000E+00  0.00000000000E+00 -0.12593989113E+03  0.10016616617E+04  0.99371285009E+03 0.  0.
        2    1    3    3  502    0  0.49632914675E+03  0.21836227776E+02 -0.56069431978E+02  0.49996322261E+03  0.25500000920E-02 0.  1.
       -2    1    3    3    0  502 -0.49632914675E+03 -0.21836227776E+02 -0.69870459150E+02  0.50169843913E+03  0.25500000920E-02 0. -1.
</event>
<event>
 5   0  0.1506454E-04  0.9998643E+03  0.7818609E-02  0.9308694E-01
        1   -1    0    0  501    0  0.00000000000E+00  0.00000000000E+00  0.51478735721E+03  0.51478735723E+03  0.50400001928E-02 0.  1.
       -1   -1    0    0    0  501  0.00000000000E+00  0.00000000000E+00 -0.48550562818E+03  0.48550562820E+03  0.50400001928E-02 0. -1.
    10030    2    1    2    0    0  0.00000000000E+00  0.00000000000E+00  0.29281729029E+02  0.10002929854E+04  0.99986430932E+03 0.  0.
        3    1    3    3  502    0 -0.11554570741E+03 -0.46580073553E+03  0.15474023203E+03  0.50424764286E+03  0.10100000352E+00 0.  1.
       -3    1    3    3    0  502  0.11554570741E+03  0.46580073553E+03 -0.12545850300E+03  0.49604534258E+03  0.10100000352E+00 0. -1.
</event>
<event>
 5   0  0.1430675E-04  0.1000197E+04  0.7818609E-02  0.9308329E-01
        1   -1    0    0  501    0  0.00000000000E+00  0.00000000000E+00  0.36588771512E+03  0.36588771515E+03  0.50400001928E-02 0.  1.
       -1   -1    0    0    0  501  0.00000000000E+00  0.00000000000E+00 -0.68353921598E+03  0.68353921600E+03  0.50400001928E-02 0. -1.
    10030    2    1    2    0    0  0.00000000000E+00  0.00000000000E+00 -0.31765150087E+03  0.10494269312E+04  0.10001971845E+04 0.  0.
        5    1    3    3  502    0 -0.20917824794E+03  0.19047699577E+03 -0.59148049443E+03  0.65567392095E+03  0.46999998093E+01 0. -1.
       -5    1    3    3    0  502  0.20917824794E+03 -0.19047699577E+03  0.27382899356E+03  0.39375301020E+03  0.46999998093E+01 0.  1.
</event>
<event>
 5   0  0.1461334E-04  0.9999406E+03  0.7818609E-02  0.9308610E-01
       -1   -1    0    0    0  501  0.00000000000E+00  0.00000000000E+00  0.37488626757E+03  0.37488626761E+03  0.50400001928E-02 0.  1.
        1   -1    0    0  501    0  0.00000000000E+00  0.00000000000E+00 -0.66678963230E+03  0.66678963232E+03  0.50400001928E-02 0. -1.
    10030    2    1    2    0    0  0.00000000000E+00  0.00000000000E+00 -0.29190336473E+03  0.10416758999E+04  0.99994055131E+03 0.  0.
        2    1    3    3  502    0 -0.86812332109E+02 -0.25727550068E+03 -0.58328708518E+03  0.64339015225E+03  0.25500000920E-02 0. -1.
       -2    1    3    3    0  502  0.86812332109E+02  0.25727550068E+03  0.29138372045E+03  0.39828574769E+03  0.25500000920E-02 0.  1.
</event>
<event>
 5   0  0.2353916E-04  0.9996920E+03  0.7818609E-02  0.9308883E-01
       -2   -1    0    0    0  501  0.00000000000E+00  0.00000000000E+00  0.12714203568E+03  0.12714203570E+03  0.25500000920E-02 0.  1.
        2   -1    0    0  501    0  0.00000000000E+00  0.00000000000E+00 -0.19650937621E+04  0.19650937621E+04  0.25500000920E-02 0. -1.
    10030    2    1    2    0    0  0.00000000000E+00  0.00000000000E+00 -0.18379517264E+04  0.20922357978E+04  0.99969199504E+03 0.  0.
        4    1    3    3  502    0  0.47023586746E+03 -0.16814464738E+03 -0.96337329364E+03  0.10851193986E+04  0.12699999809E+01 0.  1.
       -4    1    3    3    0  502 -0.47023586746E+03  0.16814464738E+03 -0.87457843278E+03  0.10071163992E+04  0.12699999809E+01 0. -1.
</event>
<event>
 5   0  0.1414165E-04  0.1004524E+04  0.7818609E-02  0.9303597E-01
       -1   -1    0    0    0  501  0.00000000000E+00  0.00000000000E+00  0.29352135571E+03  0.29352135576E+03  0.50400001928E-02 0. -1.
        1   -1    0    0  501    0  0.00000000000E+00  0.00000000000E+00 -0.85944985458E+03  0.85944985460E+03  0.50400001928E-02 0.  1.
    10030    2    1    2    0    0  0.00000000000E+00  0.00000000000E+00 -0.56592849887E+03  0.11529712104E+04  0.10045235418E+04 0.  0.
        4    1    3    3  502    0 -0.12799126668E+03 -0.48073084087E+03 -0.36233023705E+03  0.61544188945E+03  0.12699999809E+01 0. -1.
       -4    1    3    3    0  502  0.12799126668E+03  0.48073084087E+03 -0.20359826182E+03  0.53752932090E+03  0.12699999809E+01 0.  1.
</event>
<event>
 5   0  0.1506454E-04  0.9997294E+03  0.7818609E-02  0.9308842E-01
       -1   -1    0    0    0  501  0.00000000000E+00  0.00000000000E+00  0.86247417640E+03  0.86247417641E+03  0.50400001928E-02 0. -1.
        1   -1    0    0  501    0  0.00000000000E+00  0.00000000000E+00 -0.28970689583E+03  0.28970689588E+03  0.50400001928E-02 0.  1.
    10030    2    1    2    0    0  0.00000000000E+00  0.00000000000E+00  0.57276728057E+03  0.11521810723E+04  0.99972939621E+03 0.  0.
        3    1    3    3  502    0 -0.14504823907E+03 -0.40053463453E+03  0.58779463489E+03  0.72592666856E+03  0.10100000352E+00 0. -1.
       -3    1    3    3    0  502  0.14504823907E+03  0.40053463453E+03 -0.15027354329E+02  0.42625440373E+03  0.10100000352E+00 0.  1.
</event>
<event>
 5   0  0.9650500E-05  0.1000358E+04  0.7818609E-02  0.9308153E-01
       -4   -1    0    0    0  501  0.00000000000E+00  0.00000000000E+00  0.14074206630E+04  0.14074212360E+04  0.12699999809E+01 0. -1.
        4   -1    0    0  501    0  0.00000000000E+00  0.00000000000E+00 -0.17775413655E+03  0.17775867338E+03  0.12699999809E+01 0.  1.
    10030    2    1    2    0    0  0.00000000000E+00  0.00000000000E+00  0.12296665264E+04  0.15851799094E+04  0.10003577254E+04 0.  0.
        2    1    3    3  502    0 -0.89083642103E+02  0.45166456433E+03  0.30495278810E+03  0.55220736770E+03  0.25500000920E-02 0.  1.
       -2    1    3    3    0  502  0.89083642103E+02 -0.45166456433E+03  0.92471373833E+03  0.10329725417E+04  0.25500000920E-02 0. -1.
</event>
<event>
 5   0  0.2403037E-04  0.1000538E+04  0.7818609E-02  0.9307955E-01
       -2   -1    0    0    0  501  0.00000000000E+00  0.00000000000E+00  0.18755899938E+03  0.18755899939E+03  0.25500000920E-02 0.  1.
        2   -1    0    0  501    0  0.00000000000E+00  0.00000000000E+00 -0.13343483015E+04  0.13343483015E+04  0.25500000920E-02 0. -1.
    10030    2    1    2    0    0  0.00000000000E+00  0.00000000000E+00 -0.11467893021E+04  0.15219073009E+04  0.10005379198E+04 0.  0.
        1    1    3    3  502    0 -0.15485028750E+03 -0.20943522712E+03 -0.12230747601E+04  0.12505013373E+04  0.50400001928E-02 0. -1.
       -1    1    3    3    0  502  0.15485028750E+03  0.20943522712E+03  0.76285458011E+02  0.27140596351E+03  0.50400001928E-02 0.  1.
</event>
<event>
 5   0  0.2484904E-04  0.9999902E+03  0.7818609E-02  0.9308556E-01
        2   -1    0    0  501    0  0.00000000000E+00  0.00000000000E+00  0.11295781700E+04  0.11295781700E+04  0.25500000920E-02 0. -1.
       -2   -1    0    0    0  501  0.00000000000E+00  0.00000000000E+00 -0.22131721679E+03  0.22131721680E+03  0.25500000920E-02 0.  1.
    10030    2    1    2    0    0  0.00000000000E+00  0.00000000000E+00  0.90826095323E+03  0.13508953868E+04  0.99999019344E+03 0.  0.
        3    1    3    3  502    0  0.26295155486E+03 -0.29004278771E+03  0.33985408263E+02  0.39296737406E+03  0.10100000352E+00 0.  1.
       -3    1    3    3    0  502 -0.26295155486E+03  0.29004278771E+03  0.87427554497E+03  0.95792801276E+03  0.10100000352E+00 0. -1.
</event>
<event>
 5   0  0.2484904E-04  0.9998551E+03  0.7818609E-02  0.9308704E-01
        2   -1    0    0  501    0  0.00000000000E+00  0.00000000000E+00  0.18879593275E+04  0.18879593275E+04  0.25500000920E-02 0. -1.
       -2   -1    0    0    0  501  0.00000000000E+00  0.00000000000E+00 -0.13237974585E+03  0.13237974587E+03  0.25500000920E-02 0.  1.
    10030    2    1    2    0    0  0.00000000000E+00  0.00000000000E+00  0.17555795816E+04  0.20203390733E+04  0.99985514144E+03 0.  0.
        3    1    3    3  502    0  0.60919596827E+02  0.25190330077E+03  0.17416213279E+04  0.17607984922E+04  0.10100000352E+00 0. -1.
       -3    1    3    3    0  502 -0.60919596827E+02 -0.25190330077E+03  0.13958253753E+02  0.25954058115E+03  0.10100000352E+00 0.  1.
</event>
<event>
 5   0  0.1414165E-04  0.9998654E+03  0.7818609E-02  0.9308692E-01
        1   -1    0    0  501    0  0.00000000000E+00  0.00000000000E+00  0.28138487559E+03  0.28138487564E+03  0.50400001928E-02 0.  1.
       -1   -1    0    0    0  501  0.00000000000E+00  0.00000000000E+00 -0.88822369366E+03  0.88822369368E+03  0.50400001928E-02 0. -1.
    10030    2    1    2    0    0  0.00000000000E+00  0.00000000000E+00 -0.60683881807E+03  0.11696085693E+04  0.99986541809E+03 0.  0.
        4    1    3    3  502    0 -0.29780004110E+03 -0.33100811308E+03 -0.37494095456E+02  0.44683179777E+03  0.12699999809E+01 0.  1.
       -4    1    3    3    0  502  0.29780004110E+03  0.33100811308E+03 -0.56934472261E+03  0.72277677154E+03  0.12699999809E+01 0. -1.
</event>
<event>
 5   0  0.2403037E-04  0.1003467E+04  0.7818609E-02  0.9304750E-01
        2   -1    0    0  501    0  0.00000000000E+00  0.00000000000E+00  0.30612787519E+03  0.30612787520E+03  0.25500000920E-02 0. -1.
       -2   -1    0    0    0  501  0.00000000000E+00  0.00000000000E+00 -0.82232533279E+03  0.82232533280E+03  0.25500000920E-02 0.  1.
    10030    2    1    2    0    0  0.00000000000E+00  0.00000000000E+00 -0.51619745760E+03  0.11284532080E+04  0.10034674023E+04 0.  0.
        1    1    3    3  502    0 -0.20441362419E+03 -0.29424636490E+03 -0.65308915722E+03  0.74491026326E+03  0.50400001928E-02 0.  1.
       -1    1    3    3    0  502  0.20441362419E+03  0.29424636490E+03  0.13689169962E+03  0.38354294474E+03  0.50400001928E-02 0. -1.
</event>
<event>
 5   0  0.1461334E-04  0.1000328E+04  0.7818609E-02  0.9308185E-01
       -1   -1    0    0    0  501  0.00000000000E+00  0.00000000000E+00  0.61039199014E+03  0.61039199016E+03  0.50400001928E-02 0. -1.
        1   -1    0    0  501    0  0.00000000000E+00  0.00000000000E+00 -0.40984200191E+03  0.40984200194E+03  0.50400001928E-02 0.  1.
    10030    2    1    2    0    0  0.00000000000E+00  0.00000000000E+00  0.20054998823E+03  0.10202339921E+04  0.10003284965E+04 0.  0.
        2    1    3    3  502    0 -0.33349395116E+03 -0.24960769492E+03 -0.18207691498E+03  0.45461436383E+03  0.25500000920E-02 0.  1.
       -2    1    3    3    0  502  0.33349395116E+03  0.24960769492E+03  0.38262690321E+03  0.56561962828E+03  0.25500000920E-02 0. -1.
</event>
<event>
 5   0  0.1453863E-04  0.1000098E+04  0.7818609E-02  0.9308437E-01
        1   -1    0    0  501    0  0.00000000000E+00  0.00000000000E+00  0.10278975084E+04  0.10278975084E+04  0.50400001928E-02 0.  1.
       -1   -1    0    0    0  501  0.00000000000E+00  0.00000000000E+00 -0.24326268982E+03  0.24326268987E+03  0.50400001928E-02 0. -1.
    10030    2    1    2    0    0  0.00000000000E+00  0.00000000000E+00  0.78463481855E+03  0.12711601983E+04  0.10000982208E+04 0.  0.
        1    1    3    3  502    0  0.41570612164E+01 -0.47970285569E+03  0.57169558929E+03  0.74630285927E+03  0.50400001928E-02 0.  1.
       -1    1    3    3    0  502 -0.41570612164E+01  0.47970285569E+03  0.21293922927E+03  0.52485733900E+03  0.50400001928E-02 0. -1.
</event>
<event>
 5   0  0.1430675E-04  0.9976345E+03  0.7818609E-02  0.9311143E-01
        1   -1    0    0  501    0  0.00000000000E+00  0.00000000000E+00  0.11234258644E+04  0.11234258644E+04  0.50400001928E-02 0. -1.
       -1   -1    0    0    0  501  0.00000000000E+00  0.00000000000E+00 -0.22148204814E+03  0.22148204819E+03  0.50400001928E-02 0.  1.
    10030    2    1    2    0    0  0.00000000000E+00  0.00000000000E+00  0.90194381626E+03  0.13449079126E+04  0.99763452511E+03 0.  0.
        5    1    3    3  502    0  0.43780628705E+03 -0.10013376077E+01  0.77316767482E+03  0.88853007323E+03  0.46999998093E+01 0. -1.
       -5    1    3    3    0  502 -0.43780628705E+03  0.10013376077E+01  0.12877614144E+03  0.45637783937E+03  0.46999998093E+01 0.  1.
</event>
<event>
 5   0  0.2503680E-04  0.1000229E+04  0.7818609E-02  0.9308294E-01
        2   -1    0    0  501    0  0.00000000000E+00  0.00000000000E+00  0.17267284943E+04  0.17267284943E+04  0.25500000920E-02 0. -1.
       -2   -1    0    0    0  501  0.00000000000E+00  0.00000000000E+00 -0.14484875485E+03  0.14484875487E+03  0.25500000920E-02 0.  1.
    10030    2    1    2    0    0  0.00000000000E+00  0.00000000000E+00  0.15818797394E+04  0.18715772492E+04  0.10002289186E+04 0.  0.
        2    1    3    3  502    0 -0.12312081223E+03  0.48402824729E+03  0.74241993581E+03  0.89477898929E+03  0.25500000920E-02 0.  1.
       -2    1    3    3    0  502  0.12312081223E+03 -0.48402824729E+03  0.83945980363E+03  0.97679825987E+03  0.25500000920E-02 0. -1.
</event>
<event>
 5   0  0.2403037E-04  0.9998766E+03  0.7818609E-02  0.9308680E-01
        2   -1    0    0  501    0  0.00000000000E+00  0.00000000000E+00  0.69324220072E+03  0.69324220072E+03  0.25500000920E-02 0. -1.
       -2   -1    0    0    0  501  0.00000000000E+00  0.00000000000E+00 -0.36053532090E+03  0.36053532091E+03  0.25500000920E-02 0.  1.
    10030    2    1    2    0    0  0.00000000000E+00  0.00000000000E+00  0.33270687982E+03  0.10537775216E+04  0.99987659100E+03 0.  0.
        1    1    3    3  502    0  0.17463750079E+02 -0.49947944317E+03  0.17941520165E+03  0.53101272238E+03  0.50400001928E-02 0. -1.
       -1    1    3    3    0  502 -0.17463750079E+02  0.49947944317E+03  0.15329167817E+03  0.52276479926E+03  0.50400001928E-02 0.  1.
</event>
<event>
 5   0  0.2484904E-04  0.1001273E+04  0.7818609E-02  0.9307150E-01
        2   -1    0    0  501    0  0.00000000000E+00  0.00000000000E+00  0.20847804379E+04  0.20847804379E+04  0.25500000920E-02 0. -1.
       -2   -1    0    0    0  501  0.00000000000E+00  0.00000000000E+00 -0.12022225043E+03  0.12022225045E+03  0.25500000920E-02 0.  1.
    10030    2    1    2    0    0  0.00000000000E+00  0.00000000000E+00  0.19645581875E+04  0.22050026884E+04  0.10012731814E+04 0.  0.
        3    1    3    3  502    0  0.12256820125E+02  0.14582321305E+03 -0.72071426029E+02  0.16312246858E+03  0.10100000352E+00 0.  1.
       -3    1    3    3    0  502 -0.12256820125E+02 -0.14582321305E+03  0.20366296135E+04  0.20418802198E+04  0.10100000352E+00 0. -1.
</event>
<event>
 5   0  0.1430675E-04  0.9999379E+03  0.7818609E-02  0.9308613E-01
       -1   -1    0    0    0  501  0.00000000000E+00  0.00000000000E+00  0.35606654405E+03  0.35606654408E+03  0.50400001928E-02 0.  1.
        1   -1    0    0  501    0  0.00000000000E+00  0.00000000000E+00 -0.70202880626E+03  0.70202880628E+03  0.50400001928E-02 0. -1.
    10030    2    1    2    0    0  0.00000000000E+00  0.00000000000E+00 -0.34596226221E+03  0.10580953504E+04  0.99993793987E+03 0.  0.
        5    1    3    3  502    0  0.41607883093E+03 -0.27628250985E+02 -0.46481489442E+03  0.62446768521E+03  0.46999998093E+01 0. -1.
       -5    1    3    3    0  502 -0.41607883093E+03  0.27628250985E+02  0.11885263220E+03  0.43362766515E+03  0.46999998093E+01 0.  1.
</event>
<event>
 5   0  0.9650500E-05  0.1000794E+04  0.7818609E-02  0.9307675E-01
        4   -1    0    0  501    0  0.00000000000E+00  0.00000000000E+00  0.31577579813E+03  0.31577835199E+03  0.12699999809E+01 0.  1.
       -4   -1    0    0    0  501  0.00000000000E+00  0.00000000000E+00 -0.79295190230E+03  0.79295291933E+03  0.12699999809E+01 0. -1.
    10030    2    1    2    0    0  0.00000000000E+00  0.00000000000E+00 -0.47717610417E+03  0.11087312713E+04  0.10007936838E+04 0.  0.
        2    1    3    3  502    0  0.23410627373E+03 -0.31787263112E+03  0.10206200883E+03  0.40775655809E+03  0.25500000920E-02 0. -1.
       -2    1    3    3    0  502 -0.23410627373E+03  0.31787263112E+03 -0.57923811300E+03  0.70097471322E+03  0.25500000920E-02 0.  1.
</event>
<event>
 5   0  0.2353916E-04  0.1000630E+04  0.7818609E-02  0.9307854E-01
       -2   -1    0    0    0  501  0.00000000000E+00  0.00000000000E+00  0.33657861286E+03  0.33657861287E+03  0.25500000920E-02 0. -1.
        2   -1    0    0  501    0  0.00000000000E+00  0.00000000000E+00 -0.74370501370E+03  0.74370501370E+03  0.25500000920E-02 0.  1.
    10030    2    1    2    0    0  0.00000000000E+00  0.00000000000E+00 -0.40712640084E+03  0.10802836266E+04  0.10006302052E+04 0.  0.
        4    1    3    3  502    0  0.12367740619E+03 -0.44669591491E+03 -0.20695849461E+00  0.46350296324E+03  0.12699999809E+01 0. -1.
       -4    1    3    3    0  502 -0.12367740619E+03  0.44669591491E+03 -0.40691944234E+03  0.61678066333E+03  0.12699999809E+01 0.  1.
</event>
<event>
 5   0  0.2403037E-04  0.9999565E+03  0.7818609E-02  0.9308593E-01
       -2   -1    0    0    0  501  0.00000000000E+00  0.00000000000E+00  0.25824466941E+03  0.25824466942E+03  0.25500000920E-02 0. -1.
        2   -1    0    0  501    0  0.00000000000E+00  0.00000000000E+00 -0.96798991411E+03  0.96798991411E+03  0.25500000920E-02 0.  1.
    10030    2    1    2    0    0  0.00000000000E+00  0.00000000000E+00 -0.70974524470E+03  0.12262345835E+04  0.99995646979E+03 0.  0.
        1    1    3    3  502    0  0.29457824632E+02  0.21682559126E+03  0.19640776750E+03  0.29403590192E+03  0.50400001928E-02 0. -1.
       -1    1    3    3    0  502 -0.29457824632E+02 -0.21682559126E+03 -0.90615301220E+03  0.93219868162E+03  0.50400001928E-02 0.  1.
</event>
<event>
 5   0  0.1414165E-04  0.1000135E+04  0.7818609E-02  0.9308396E-01
        1   -1    0    0  501    0  0.00000000000E+00  0.00000000000E+00  0.96464575219E+03  0.96464575221E+03  0.50400001928E-02 0. -1.
       -1   -1    0    0    0  501  0.00000000000E+00  0.00000000000E+00 -0.25923268106E+03  0.25923268110E+03  0.50400001928E-02 0.  1.
    10030    2    1    2    0    0  0.00000000000E+00  0.00000000000E+00  0.70541307114E+03  0.12238784333E+04  0.10001354001E+04 0.  0.
        4    1    3    3  502    0 -0.16642793138E+03 -0.12622411675E+03  0.90870228557E+03  0.93240133027E+03  0.12699999809E+01 0. -1.
       -4    1    3    3    0  502  0.16642793138E+03  0.12622411675E+03 -0.20328921443E+03  0.29147710304E+03  0.12699999809E+01 0.  1.
</event>
<event>
 5   0  0.1430675E-04  0.1000352E+04  0.7818609E-02  0.9308159E-01
        1   -1    0    0  501    0  0.00000000000E+00  0.00000000000E+00  0.14060876686E+04  0.14060876686E+04  0.50400001928E-02 0.  1.
       -1   -1    0    0    0  501  0.00000000000E+00  0.00000000000E+00 -0.17792332165E+03  0.17792332172E+03  0.50400001928E-02 0. -1.
    10030    2    1    2    0    0  0.00000000000E+00  0.00000000000E+00  0.12281643469E+04  0.15840109903E+04  0.10003515154E+04 0.  0.
        5    1    3    3  502    0  0.29693728254E+03 -0.19501534909E+03  0.56600611993E+02  0.35976166474E+03  0.46999998093E+01 0. -1.
       -5    1    3    3    0  502 -0.29693728254E+03  0.19501534909E+03  0.11715637349E+04  0.12242493256E+04  0.46999998093E+01 0.  1.
</event>
<event>
 5   0  0.2473312E-04  0.9996453E+03  0.7818609E-02  0.9308934E-01
       -2   -1    0    0    0  501  0.00000000000E+00  0.00000000000E+00  0.16349824894E+03  0.16349824896E+03  0.25500000920E-02 0. -1.
        2   -1    0    0  501    0  0.00000000000E+00  0.00000000000E+00 -0.15279839312E+04  0.15279839312E+04  0.25500000920E-02 0.  1.
    10030    2    1    2    0    0  0.00000000000E+00  0.00000000000E+00 -0.13644856822E+04  0.16914821801E+04  0.99964533144E+03 0.  0.
        5    1    3    3  502    0  0.47636216965E+03  0.14591937761E+03 -0.61483027915E+03  0.79136069121E+03  0.46999998093E+01 0. -1.
       -5    1    3    3    0  502 -0.47636216965E+03 -0.14591937761E+03 -0.74965540309E+03  0.90012148892E+03  0.46999998093E+01 0.  1.
</event>
<event>
 5   0  0.2473312E-04  0.9999934E+03  0.7818609E-02  0.9308552E-01
       -2   -1    0    0    0  501  0.00000000000E+00  0.00000000000E+00  0.46706334548E+03  0.46706334549E+03  0.25500000920E-02 0. -1.
        2   -1    0    0  501    0  0.00000000000E+00  0.00000000000E+00 -0.53525225360E+03  0.53525225361E+03  0.25500000920E-02 0.  1.
    10030    2    1    2    0    0  0.00000000000E+00  0.00000000000E+00 -0.68188908120E+02  0.10023155991E+04  0.99999341647E+03 0.  0.
        5    1    3    3  502    0 -0.63798245167E+01  0.14639606639E+03  0.44503454140E+03  0.46856199531E+03  0.46999998093E+01 0. -1.
       -5    1    3    3    0  502  0.63798245167E+01 -0.14639606639E+03 -0.51322344952E+03  0.53375360378E+03  0.46999998093E+01 0.  1.
</event>
<event>
 5   0  0.2473312E-04  0.1000363E+04  0.7818609E-02  0.9308147E-01
       -2   -1    0    0    0  501  0.00000000000E+00  0.00000000000E+00  0.43907692244E+03  0.43907692244E+03  0.25500000920E-02 0. -1.
        2   -1    0    0  501    0  0.00000000000E+00  0.00000000000E+00 -0.56978932073E+03  0.56978932074E+03  0.25500000920E-02 0.  1.
    10030    2    1    2    0    0  0.00000000000E+00  0.00000000000E+00 -0.13071239830E+03  0.10088662432E+04  0.10003626170E+04 0.  0.
        5    1    3    3  502    0  0.45490869662E+03 -0.18578134252E+03  0.28724642608E+02  0.49224366383E+03  0.46999998093E+01 0.  1.
       -5    1    3    3    0  502 -0.45490869662E+03  0.18578134252E+03 -0.15943704091E+03  0.51662257935E+03  0.46999998093E+01 0. -1.
</event>
<event>
 5   0  0.2353916E-04  0.9998477E+03  0.7818609E-02  0.9308712E-01
       -2   -1    0    0    0  501  0.00000000000E+00  0.00000000000E+00  0.10865231288E+03  0.10865231291E+03  0.25500000920E-02 0.  1.
        2   -1    0    0  501    0  0.00000000000E+00  0.00000000000E+00 -0.23002168177E+04  0.23002168177E+04  0.25500000920E-02 0. -1.
    10030    2    1    2    0    0  0.00000000000E+00  0.00000000000E+00 -0.21915645048E+04  0.24088691306E+04  0.99984774321E+03 0.  0.
        4    1    3    3  502    0  0.76036444339E+02 -0.34304406476E+03 -0.19525408838E+04  0.19839048079E+04  0.12699999809E+01 0. -1.
       -4    1    3    3    0  502 -0.76036444339E+02  0.34304406476E+03 -0.23902362106E+03  0.42496432269E+03  0.12699999809E+01 0.  1.
</event>
<event>
 5   0  0.2353916E-04  0.1000354E+04  0.7818609E-02  0.9308157E-01
        2   -1    0    0  501    0  0.00000000000E+00  0.00000000000E+00  0.55901982549E+03  0.55901982549E+03  0.25500000920E-02 0. -1.
       -2   -1    0    0    0  501  0.00000000000E+00  0.00000000000E+00 -0.44752783764E+03  0.44752783764E+03  0.25500000920E-02 0.  1.
    10030    2    1    2    0    0  0.00000000000E+00  0.00000000000E+00  0.11149198785E+03  0.10065476631E+04  0.10003538048E+04 0.  0.
        4    1    3    3  502    0 -0.19236219580E+03  0.26037911097E+03 -0.32789527524E+03  0.46077914474E+03  0.12699999809E+01 0.  1.
       -4    1    3    3    0  502  0.19236219580E+03 -0.26037911097E+03  0.43938726309E+03  0.54576851840E+03  0.12699999809E+01 0. -1.
</event>
<event>
 5   0  0.1430675E-04  0.1000010E+04  0.7818609E-02  0.9308534E-01
       -1   -1    0    0    0  501  0.00000000000E+00  0.00000000000E+00  0.36130156821E+03  0.36130156825E+03  0.50400001928E-02 0.  1.
        1   -1    0    0  501    0  0.00000000000E+00  0.00000000000E+00 -0.69195644854E+03  0.69195644856E+03  0.50400001928E-02 0. -1.
    10030    2    1    2    0    0  0.00000000000E+00  0.00000000000E+00 -0.33065488032E+03  0.10532580168E+04  0.10000099000E+04 0.  0.
        5    1    3    3  502    0 -0.29977625866E+03 -0.98992149736E+02  0.24302523361E+03  0.39843268583E+03  0.46999998093E+01 0.  1.
       -5    1    3    3    0  502  0.29977625866E+03  0.98992149736E+02 -0.57368011393E+03  0.65482533098E+03  0.46999998093E+01 0. -1.
</event>
<event>
 5   0  0.2484904E-04  0.9983632E+03  0.7818609E-02  0.9310342E-01
       -2   -1    0    0    0  501  0.00000000000E+00  0.00000000000E+00  0.57748706345E+03  0.57748706345E+03  0.25500000920E-02 0. -1.
        2   -1    0    0  501    0  0.00000000000E+00  0.00000000000E+00 -0.43149409124E+03  0.43149409125E+03  0.25500000920E-02 0.  1.
    10030    2    1    2    0    0  0.00000000000E+00  0.00000000000E+00  0.14599297220E+03  0.10089811547E+04  0.99836317170E+03 0.  0.
        3    1    3    3  502    0  0.31258184965E+03 -0.22616614620E+03  0.39310430945E+03  0.55080808521E+03  0.10100000352E+00 0. -1.
       -3    1    3    3    0  502 -0.31258184965E+03  0.22616614620E+03 -0.24711133725E+03  0.45817306950E+03  0.10100000352E+00 0.  1.
</event>
<event>
 5   0  0.2503680E-04  0.1000166E+04  0.7818609E-02  0.9308363E-01
        2   -1    0    0  501    0  0.00000000000E+00  0.00000000000E+00  0.10129532324E+04  0.10129532324E+04  0.25500000920E-02 0. -1.
       -2   -1    0    0    0  501  0.00000000000E+00  0.00000000000E+00 -0.24688491094E+03  0.24688491095E+03  0.25500000920E-02 0.  1.
    10030    2    1    2    0    0  0.00000000000E+00  0.00000000000E+00  0.76606832145E+03  0.12598381433E+04  0.10001657234E+04 0.  0.
        2    1    3    3  502    0  0.42625368421E+03  0.15919335244E+03  0.64438264823E+03  0.78883694393E+03  0.25500000920E-02 0. -1.
       -2    1    3    3    0  502 -0.42625368421E+03 -0.15919335244E+03  0.12168567322E+03  0.47100119941E+03  0.25500000920E-02 0.  1.
</event>
<event>
 5   0  0.1453863E-04  0.1000117E+04  0.7818609E-02  0.9308416E-01
        1   -1    0    0  501    0  0.00000000000E+00  0.00000000000E+00  0.13615823106E+04  0.13615823106E+04  0.50400001928E-02 0. -1.
       -1   -1    0    0    0  501  0.00000000000E+00  0.00000000000E+00 -0.18365298907E+03  0.18365298914E+03  0.50400001928E-02 0.  1.
    10030    2    1    2    0    0  0.00000000000E+00  0.00000000000E+00  0.11779293215E+04  0.15452352997E+04  0.10001173157E+04 0.  0.
        1    1    3    3  502    0 -0.28419406630E+03 -0.17375122279E+03  0.11652157727E+04  0.12118925496E+04  0.50400001928E-02 0. -1.
       -1    1    3    3    0  502  0.28419406630E+03  0.17375122279E+03  0.12713548810E+02  0.33334275016E+03  0.50400001928E-02 0.  1.
</event>
<event>
 5   0  0.2473312E-04  0.9999811E+03  0.7818609E-02  0.9308565E-01
       -2   -1    0    0    0  501  0.00000000000E+00  0.00000000000E+00  0.40608912619E+03  0.40608912620E+03  0.25500000920E-02 0. -1.
        2   -1    0    0  501    0  0.00000000000E+00  0.00000000000E+00 -0.61560517812E+03  0.61560517813E+03  0.25500000920E-02 0.  1.
    10030    2    1    2    0    0  0.00000000000E+00  0.00000000000E+00 -0.20951605193E+03  0.10216943043E+04  0.99998113756E+03 0.  0.
        5    1    3    3  502    0 -0.23870679104E+03 -0.10063109490E+03  0.33214960064E+03  0.42125170214E+03  0.46999998093E+01 0. -1.
       -5    1    3    3    0  502  0.23870679104E+03  0.10063109490E+03 -0.54166565257E+03  0.60044260219E+03  0.46999998093E+01 0.  1.
</event>
<event>
 5   0  0.2503680E-04  0.1000280E+04  0.7818609E-02  0.9308237E-01
       -2   -1    0    0    0  501  0.00000000000E+00  0.00000000000E+00  0.18831638136E+03  0.18831638137E+03  0.25500000920E-02 0. -1.
        2   -1    0    0  501    0  0.00000000000E+00  0.00000000000E+00 -0.13282976659E+04  0.13282976659E+04  0.25500000920E-02 0.  1.
    10030    2    1    2    0    0  0.00000000000E+00  0.00000000000E+00 -0.11399812845E+04  0.15166140473E+04  0.10002803803E+04 0.  0.
        2    1    3    3  502    0 -0.46421466870E+03 -0.18572778344E+03 -0.55141243130E+03  0.74434248675E+03  0.25500000920E-02 0.  1.
       -2    1    3    3    0  502  0.46421466870E+03  0.18572778344E+03 -0.58856885323E+03  0.77227156051E+03  0.25500000920E-02 0. -1.
</event>
<event>
 5   0  0.1453863E-04  0.1000294E+04  0.7818609E-02  0.9308223E-01
        1   -1    0    0  501    0  0.00000000000E+00  0.00000000000E+00  0.50249525544E+03  0.50249525547E+03  0.50400001928E-02 0.  1.
       -1   -1    0    0    0  501  0.00000000000E+00  0.00000000000E+00 -0.49780929829E+03  0.49780929832E+03  0.50400001928E-02 0. -1.
    10030    2    1    2    0    0  0.00000000000E+00  0.00000000000E+00  0.46859571499E+01  0.10003045538E+04  0.10002935780E+04 0.  0.
        1    1    3    3  502    0  0.29354879715E+03 -0.30641412993E+03  0.26708404687E+03  0.50139246449E+03  0.50400001928E-02 0.  1.
       -1    1    3    3    0  502 -0.29354879715E+03  0.30641412993E+03 -0.26239808972E+03  0.49891208929E+03  0.50400001928E-02 0. -1.
</event>
<event>
 5   0  0.2473312E-04  0.1000060E+04  0.7818609E-02  0.9308479E-01
       -2   -1    0    0    0  501  0.00000000000E+00  0.00000000000E+00  0.13428178552E+03  0.13428178554E+03  0.25500000920E-02 0.  1.
        2   -1    0    0  501    0  0.00000000000E+00  0.00000000000E+00 -0.18619803226E+04  0.18619803226E+04  0.25500000920E-02 0. -1.
    10030    2    1    2    0    0  0.00000000000E+00  0.00000000000E+00 -0.17276985371E+04  0.19962621082E+04  0.10000600829E+04 0.  0.
        5    1    3    3  502    0 -0.49020373890E+03 -0.84963370327E+02 -0.76425252691E+03  0.91193338288E+03  0.46999998093E+01 0. -1.
       -5    1    3    3    0  502  0.49020373890E+03  0.84963370327E+02 -0.96344601020E+03  0.10843287253E+04  0.46999998093E+01 0.  1.
</event>
<event>
 5   0  0.2473312E-04  0.1000123E+04  0.7818609E-02  0.9308410E-01
       -2   -1    0    0    0  501  0.00000000000E+00  0.00000000000E+00  0.10705552677E+03  0.10705552680E+03  0.25500000920E-02 0.  1.
        2   -1    0    0  501    0  0.00000000000E+00  0.00000000000E+00 -0.23358108927E+04  0.23358108927E+04  0.25500000920E-02 0. -1.
    10030    2    1    2    0    0  0.00000000000E+00  0.00000000000E+00 -0.22287553660E+04  0.24428664195E+04  0.10001229236E+04 0.  0.
        5    1    3    3  502    0  0.41819843102E+03  0.45451010201E+02 -0.17747007412E+04  0.18238806246E+04  0.46999998093E+01 0. -1.
       -5    1    3    3    0  502 -0.41819843102E+03 -0.45451010201E+02 -0.45405462474E+03  0.61898579490E+03  0.46999998093E+01 0.  1.
</event>
<event>
 5   0  0.2484904E-04  0.1000175E+04  0.7818609E-02  0.9308353E-01
       -2   -1    0    0    0  501  0.00000000000E+00  0.00000000000E+00  0.31419891066E+03  0.31419891067E+03  0.25500000920E-02 0. -1.
        2   -1    0    0  501    0  0.00000000000E+00  0.00000000000E+00 -0.79595214470E+03  0.79595214470E+03  0.25500000920E-02 0.  1.
    10030    2    1    2    0    0  0.00000000000E+00  0.00000000000E+00 -0.48175323404E+03  0.11101510554E+04  0.10001745784E+04 0.  0.
        3    1    3    3  502    0  0.38101477202E+03  0.20378528254E+03  0.38573923721E+02  0.43380716415E+03  0.10100000352E+00 0. -1.
       -3    1    3    3    0  502 -0.38101477202E+03 -0.20378528254E+03 -0.52032715776E+03  0.67634389121E+03  0.10100000352E+00 0.  1.
</event>
<event>
 5   0  0.9650500E-05  0.9998201E+03  0.7818609E-02  0.9308742E-01
       -4   -1    0    0    0  501  0.00000000000E+00  0.00000000000E+00  0.45752776930E+03  0.45752953192E+03  0.12699999809E+01 0.  1.
        4   -1    0    0  501    0  0.00000000000E+00  0.00000000000E+00 -0.54621482512E+03  0.54621630156E+03  0.12699999809E+01 0. -1.
    10030    2    1    2    0    0  0.00000000000E+00  0.00000000000E+00 -0.88687055827E+02  0.10037458335E+04  0.99982013600E+03 0.  0.
        1    1    3    3  502    0  0.39558523034E+03 -0.12464760788E+03  0.23583176549E+03  0.47711772368E+03  0.50400001928E-02 0.  1.
       -1    1    3    3    0  502 -0.39558523034E+03  0.12464760788E+03 -0.32451882131E+03  0.52662810979E+03  0.50400001928E-02 0. -1.
</event>
<event>
 5   0  0.1430675E-04  0.9997268E+03  0.7818609E-02  0.9308844E-01
       -1   -1    0    0    0  501  0.00000000000E+00  0.00000000000E+00  0.16981278790E+03  0.16981278797E+03  0.50400001928E-02 0.  1.
        1   -1    0    0  501    0  0.00000000000E+00  0.00000000000E+00 -0.14714052688E+04  0.14714052688E+04  0.50400001928E-02 0. -1.
    10030    2    1    2    0    0  0.00000000000E+00  0.00000000000E+00 -0.13015924809E+04  0.16412180567E+04  0.99972682445E+03 0.  0.
        5    1    3    3  502    0 -0.69759288684E+02 -0.49493692206E+03 -0.65658313431E+03  0.82519841095E+03  0.46999998093E+01 0.  1.
       -5    1    3    3    0  502  0.69759288684E+02  0.49493692206E+03 -0.64500934656E+03  0.81601964579E+03  0.46999998093E+01 0. -1.
</event>
<event>
 5   0  0.2503680E-04  0.9997980E+03  0.7818609E-02  0.9308766E-01
       -2   -1    0    0    0  501  0.00000000000E+00  0.00000000000E+00  0.56663784501E+03  0.56663784502E+03  0.25500000920E-02 0. -1.
        2   -1    0    0  501    0  0.00000000000E+00  0.00000000000E+00 -0.44102068075E+03  0.44102068076E+03  0.25500000920E-02 0.  1.
    10030    2    1    2    0    0  0.00000000000E+00  0.00000000000E+00  0.12561716426E+03  0.10076585258E+04  0.99979799591E+03 0.  0.
        2    1    3    3  502    0  0.15401398116E+03 -0.43015051198E+03  0.26725618592E+03  0.52931619876E+03  0.25500000920E-02 0. -1.
       -2    1    3    3    0  502 -0.15401398116E+03  0.43015051198E+03 -0.14163902165E+03  0.47834232702E+03  0.25500000920E-02 0.  1.
</event>
<event>
 5   0  0.2403037E-04  0.1000508E+04  0.7818609E-02  0.9307988E-01
       -2   -1    0    0    0  501  0.00000000000E+00  0.00000000000E+00  0.26840007536E+03  0.26840007537E+03  0.25500000920E-02 0.  1.
        2   -1    0    0  501    0  0.00000000000E+00  0.00000000000E+00 -0.93239156229E+03  0.93239156230E+03  0.25500000920E-02 0. -1.
    10030    2    1    2    0    0  0.00000000000E+00  0.00000000000E+00 -0.66399148694E+03  0.12007916377E+04  0.10005078022E+04 0.  0.
        1    1    3    3  502    0 -0.34401598010E+03  0.26399697774E+03 -0.63135054946E+03  0.76592748687E+03  0.50400001928E-02 0. -1.
       -1    1    3    3    0  502  0.34401598010E+03 -0.26399697774E+03 -0.32640937480E+02  0.43486415079E+03  0.50400001928E-02 0.  1.
</event>
<event>
 5   0  0.1461334E-04  0.1000274E+04  0.7818609E-02  0.9308245E-01
       -1   -1    0    0    0  501  0.00000000000E+00  0.00000000000E+00  0.83378440401E+03  0.83378440403E+03  0.50400001928E-02 0.  1.
        1   -1    0    0  501    0  0.00000000000E+00  0.00000000000E+00 -0.30000179313E+03  0.30000179318E+03  0.50400001928E-02 0. -1.
    10030    2    1    2    0    0  0.00000000000E+00  0.00000000000E+00  0.53378261088E+03  0.11337861972E+04  0.10002735952E+04 0.  0.
        2    1    3    3  502    0  0.38517880971E+03  0.27229774485E+01  0.62848027821E+03  0.73712793338E+03  0.25500000920E-02 0.  1.
       -2    1    3    3    0  502 -0.38517880971E+03 -0.27229774485E+01 -0.94697667334E+02  0.39665826383E+03  0.25500000920E-02 0. -1.
</event>
<event>
 5   0  0.1506454E-04  0.9998475E+03  0.7818609E-02  0.9308712E-01
        1   -1    0    0  501    0  0.00000000000E+00  0.00000000000E+00  0.41624520487E+03  0.41624520490E+03  0.50400001928E-02 0.  1.
       -1   -1    0    0    0  501  0.00000000000E+00  0.00000000000E+00 -0.60042436111E+03  0.60042436113E+03  0.50400001928E-02 0. -1.
    10030    2    1    2    0    0  0.00000000000E+00  0.00000000000E+00 -0.18417915624E+03  0.10166695660E+04  0.99984751082E+03 0.  0.
        3    1    3    3  502    0 -0.49604136190E+03 -0.61805481602E+02 -0.99045784741E+02  0.50959496460E+03  0.10100000352E+00 0. -1.
       -3    1    3    3    0  502  0.49604136190E+03  0.61805481602E+02 -0.85133371502E+02  0.50707460143E+03  0.10100000352E+00 0.  1.
</event>
<event>
 5   0  0.2503680E-04  0.9998108E+03  0.7818609E-02  0.9308752E-01
        2   -1    0    0  501    0  0.00000000000E+00  0.00000000000E+00  0.58275838560E+03  0.58275838561E+03  0.25500000920E-02 0.  1.
       -2   -1    0    0    0  501  0.00000000000E+00  0.00000000000E+00 -0.42883191400E+03  0.42883191400E+03  0.25500000920E-02 0. -1.
    10030    2    1    2    0    0  0.00000000000E+00  0.00000000000E+00  0.15392647161E+03  0.10115902996E+04  0.99981076990E+03 0.  0.
        2    1    3    3  502    0  0.40210317971E+03  0.20898901506E+03 -0.13657310276E+03  0.47330285014E+03  0.25500000920E-02 0. -1.
       -2    1    3    3    0  502 -0.40210317971E+03 -0.20898901506E+03  0.29049957437E+03  0.53828744947E+03  0.25500000920E-02 0.  1.
</event>
<event>
 5   0  0.1453863E-04  0.1000266E+04  0.7818609E-02  0.9308254E-01
       -1   -1    0    0    0  501  0.00000000000E+00  0.00000000000E+00  0.65942720231E+03  0.65942720233E+03  0.50400001928E-02 0.  1.
        1   -1    0    0  501    0  0.00000000000E+00  0.00000000000E+00 -0.37931828775E+03  0.37931828779E+03  0.50400001928E-02 0. -1.
    10030    2    1    2    0    0  0.00000000000E+00  0.00000000000E+00  0.28010891456E+03  0.10387454901E+04  0.10002655593E+04 0.  0.
        1    1    3    3  502    0  0.29757950866E+03  0.38375710016E+03  0.15829337399E+02  0.48587410288E+03  0.50400001928E-02 0. -1.
       -1    1    3    3    0  502 -0.29757950866E+03 -0.38375710016E+03  0.26427957716E+03  0.55287138724E+03  0.50400001928E-02 0.  1.
</event>
<event>
 5   0  0.1453863E-04  0.9997866E+03  0.7818609E-02  0.9308779E-01
        1   -1    0    0  501    0  0.00000000000E+00  0.00000000000E+00  0.67461275971E+03  0.67461275973E+03  0.50400001928E-02 0.  1.
       -1   -1    0    0    0  501  0.00000000000E+00  0.00000000000E+00 -0.37042481565E+03  0.37042481569E+03  0.50400001928E-02 0. -1.
    10030    2    1    2    0    0  0.00000000000E+00  0.00000000000E+00  0.30418794405E+03  0.10450375754E+04  0.99978659159E+03 0.  0.
        1    1    3    3  502    0 -0.13014018817E+03 -0.34038613933E+03  0.50977189258E+03  0.62663113146E+03  0.50400001928E-02 0.  1.
       -1    1    3    3    0  502  0.13014018817E+03  0.34038613933E+03 -0.20558394853E+03  0.41840644396E+03  0.50400001928E-02 0. -1.
</event>
<event>
 5   0  0.1461334E-04  0.1000131E+04  0.7818609E-02  0.9308402E-01
        1   -1    0    0  501    0  0.00000000000E+00  0.00000000000E+00  0.13549996118E+04  0.13549996118E+04  0.50400001928E-02 0.  1.
       -1   -1    0    0    0  501  0.00000000000E+00  0.00000000000E+00 -0.18455011086E+03  0.18455011093E+03  0.50400001928E-02 0. -1.
    10030    2    1    2    0    0  0.00000000000E+00  0.00000000000E+00  0.11704495009E+04  0.15395497227E+04  0.10001306487E+04 0.  0.
        2    1    3    3  502    0  0.33822601678E+03  0.29244470691E+03  0.24051862719E+03  0.50771050320E+03  0.25500000920E-02 0.  1.
       -2    1    3    3    0  502 -0.33822601678E+03 -0.29244470691E+03  0.92993087374E+03  0.10318392195E+04  0.25500000920E-02 0. -1.
</event>
<event>
 5   0  0.2353916E-04  0.1000006E+04  0.7818609E-02  0.9308538E-01
       -2   -1    0    0    0  501  0.00000000000E+00  0.00000000000E+00  0.38408129065E+03  0.38408129066E+03  0.25500000920E-02 0.  1.
        2   -1    0    0  501    0  0.00000000000E+00  0.00000000000E+00 -0.65091217277E+03  0.65091217277E+03  0.25500000920E-02 0. -1.
    10030    2    1    2    0    0  0.00000000000E+00  0.00000000000E+00 -0.26683088212E+03  0.10349934634E+04  0.10000063748E+04 0.  0.
        4    1    3    3  502    0  0.33927510789E+02  0.49632550012E+03 -0.18528363478E+03  0.53086883152E+03  0.12699999809E+01 0. -1.
       -4    1    3    3    0  502 -0.33927510789E+02 -0.49632550012E+03 -0.81547247341E+02  0.50412463192E+03  0.12699999809E+01 0.  1.
</event>
<event>
 5   0  0.2473312E-04  0.1000035E+04  0.7818609E-02  0.9308507E-01
       -2   -1    0    0    0  501  0.00000000000E+00  0.00000000000E+00  0.99216380208E+03  0.99216380208E+03  0.25500000920E-02 0. -1.
        2   -1    0    0  501    0  0.00000000000E+00  0.00000000000E+00 -0.25199196726E+03  0.25199196727E+03  0.25500000920E-02 0.  1.
    10030    2    1    2    0    0  0.00000000000E+00  0.00000000000E+00  0.74017183482E+03  0.12441557694E+04  0.10000346161E+04 0.  0.
        5    1    3    3  502    0  0.21753237235E+03 -0.20846024901E+03  0.86651527506E+03  0.91741311324E+03  0.46999998093E+01 0. -1.
       -5    1    3    3    0  502 -0.21753237235E+03  0.20846024901E+03 -0.12634344024E+03  0.32674265612E+03  0.46999998093E+01 0.  1.
</event>
<event>
 5   0  0.2353916E-04  0.1000004E+04  0.7818609E-02  0.9308541E-01
       -2   -1    0    0    0  501  0.00000000000E+00  0.00000000000E+00  0.18355055912E+03  0.18355055914E+03  0.25500000920E-02 0. -1.
        2   -1    0    0  501    0  0.00000000000E+00  0.00000000000E+00 -0.13620327098E+04  0.13620327098E+04  0.25500000920E-02 0.  1.
    10030    2    1    2    0    0  0.00000000000E+00  0.00000000000E+00 -0.11784821507E+04  0.15455832690E+04  0.10000037309E+04 0.  0.
        4    1    3    3  502    0 -0.18657837938E+02  0.32429209526E+03 -0.11767369694E+04  0.12207477159E+04  0.12699999809E+01 0.  1.
       -4    1    3    3    0  502  0.18657837938E+02 -0.32429209526E+03 -0.17451813445E+01  0.32483555304E+03  0.12699999809E+01 0. -1.
</event>
<event>
 5   0  0.2403037E-04  0.1001088E+04  0.7818609E-02  0.9307352E-01
       -2   -1    0    0    0  501  0.00000000000E+00  0.00000000000E+00  0.24313728399E+03  0.24313728400E+03  0.25500000920E-02 0.  1.
        2   -1    0    0  501    0  0.00000000000E+00  0.00000000000E+00 -0.10304649371E+04  0.10304649371E+04  0.25500000920E-02 0. -1.
    10030    2    1    2    0    0  0.00000000000E+00  0.00000000000E+00 -0.78732765313E+03  0.12736022211E+04  0.10010882999E+04 0.  0.
        1    1    3    3  502    0 -0.53698523768E+02  0.47397929110E+03 -0.20070339695E+03  0.51751497893E+03  0.50400001928E-02 0. -1.
       -1    1    3    3    0  502  0.53698523768E+02 -0.47397929110E+03 -0.58662425618E+03  0.75608724219E+03  0.50400001928E-02 0.  1.
</event>
<event>
 5   0  0.2473312E-04  0.9999799E+03  0.7818609E-02  0.9308567E-01
        2   -1    0    0  501    0  0.00000000000E+00  0.00000000000E+00  0.23111853939E+03  0.23111853941E+03  0.25500000920E-02 0.  1.
       -2   -1    0    0    0  501  0.00000000000E+00  0.00000000000E+00 -0.10816524891E+04  0.10816524891E+04  0.25500000920E-02 0. -1.
    10030    2    1    2    0    0  0.00000000000E+00  0.00000000000E+00 -0.85053394975E+03  0.13127710286E+04  0.99997988666E+03 0.  0.
        5    1    3    3  502    0  0.30401663958E+03  0.32145386586E+03 -0.11961021054E+03  0.45835291805E+03  0.46999998093E+01 0.  1.
       -5    1    3    3    0  502 -0.30401663958E+03 -0.32145386586E+03 -0.73092373921E+03  0.85441811050E+03  0.46999998093E+01 0. -1.
</event>
<event>
 5   0  0.2484904E-04  0.9999075E+03  0.7818609E-02  0.9308646E-01
       -2   -1    0    0    0  501  0.00000000000E+00  0.00000000000E+00  0.15322864416E+04  0.15322864416E+04  0.25500000920E-02 0.  1.
        2   -1    0    0  501    0  0.00000000000E+00  0.00000000000E+00 -0.16312467516E+03  0.16312467518E+03  0.25500000920E-02 0. -1.
    10030    2    1    2    0    0  0.00000000000E+00  0.00000000000E+00  0.13691617664E+04  0.16954111168E+04  0.99990745182E+03 0.  0.
        3    1    3    3  502    0 -0.13970106378E+03  0.61346745898E+02  0.14918456295E+04  0.14996276881E+04  0.10100000352E+00 0.  1.
       -3    1    3    3    0  502  0.13970106378E+03 -0.61346745898E+02 -0.12268386312E+03  0.19578342862E+03  0.10100000352E+00 0. -1.
</event>
<event>
 5   0  0.2353916E-04  0.9999907E+03  0.7818609E-02  0.9308555E-01
       -2   -1    0    0    0  501  0.00000000000E+00  0.00000000000E+00  0.17277379609E+03  0.17277379611E+03  0.25500000920E-02 0. -1.
        2   -1    0    0  501    0  0.00000000000E+00  0.00000000000E+00 -0.14469518917E+04  0.14469518917E+04  0.25500000920E-02 0.  1.
    10030    2    1    2    0    0  0.00000000000E+00  0.00000000000E+00 -0.12741780956E+04  0.16197256878E+04  0.99999074216E+03 0.  0.
        4    1    3    3  502    0  0.17905383638E+03  0.27328549758E+03 -0.12501315150E+04  0.12921206047E+04  0.12699999809E+01 0.  1.
       -4    1    3    3    0  502 -0.17905383638E+03 -0.27328549758E+03 -0.24046580613E+02  0.32760508306E+03  0.12699999809E+01 0. -1.
</event>
<event>
 5   0  0.1506454E-04  0.9989794E+03  0.7818609E-02  0.9309665E-01
       -1   -1    0    0    0  501  0.00000000000E+00  0.00000000000E+00  0.56631173093E+03  0.56631173095E+03  0.50400001928E-02 0.  1.
        1   -1    0    0  501    0  0.00000000000E+00  0.00000000000E+00 -0.44055233492E+03  0.44055233494E+03  0.50400001928E-02 0. -1.
    10030    2    1    2    0    0  0.00000000000E+00  0.00000000000E+00  0.12575939601E+03  0.10068640659E+04  0.99897938993E+03 0.  0.
        3    1    3    3  502    0 -0.23724359045E+02  0.15877093262E+02 -0.43972945368E+03  0.44065511451E+03  0.10100000352E+00 0. -1.
       -3    1    3    3    0  502  0.23724359045E+02 -0.15877093262E+02  0.56548884969E+03  0.56620895139E+03  0.10100000352E+00 0.  1.
</event>
<event>
 5   0  0.1461334E-04  0.1000188E+04  0.7818609E-02  0.9308338E-01
        1   -1    0    0  501    0  0.00000000000E+00  0.00000000000E+00  0.18251379943E+03  0.18251379950E+03  0.50400001928E-02 0. -1.
       -1   -1    0    0    0  501  0.00000000000E+00  0.00000000000E+00 -0.13702752127E+04  0.13702752127E+04  0.50400001928E-02 0.  1.
    10030    2    1    2    0    0  0.00000000000E+00  0.00000000000E+00 -0.11877614132E+04  0.15527890122E+04  0.10001882531E+04 0.  0.
        2    1    3    3  502    0  0.35208207589E+03  0.87019840667E+02 -0.11284445760E+04  0.11852938040E+04  0.25500000920E-02 0.  1.
       -2    1    3    3    0  502 -0.35208207589E+03 -0.87019840667E+02 -0.59316837295E+02  0.36749520816E+03  0.25500000920E-02 0. -1.
</event>
<event>
 5   0  0.1506454E-04  0.1003048E+04  0.7818609E-02  0.9305208E-01
        1   -1    0    0  501    0  0.00000000000E+00  0.00000000000E+00  0.84376461708E+03  0.84376461709E+03  0.50400001928E-02 0. -1.
       -1   -1    0    0    0  501  0.00000000000E+00  0.00000000000E+00 -0.29810027364E+03  0.29810027368E+03  0.50400001928E-02 0.  1.
    10030    2    1    2    0    0  0.00000000000E+00  0.00000000000E+00  0.54566434344E+03  0.11418648908E+04  0.10030482805E+04 0.  0.
        3    1    3    3  502    0 -0.44508816881E+03 -0.12166881580E+03  0.49654824380E+03  0.67783991279E+03  0.10100000352E+00 0.  1.
       -3    1    3    3    0  502  0.44508816881E+03  0.12166881580E+03  0.49116099641E+02  0.46402497799E+03  0.10100000352E+00 0. -1.
</event>
<event>
 5   0  0.2353916E-04  0.1000391E+04  0.7818609E-02  0.9308116E-01
       -2   -1    0    0    0  501  0.00000000000E+00  0.00000000000E+00  0.49949048344E+03  0.49949048345E+03  0.25500000920E-02 0.  1.
        2   -1    0    0  501    0  0.00000000000E+00  0.00000000000E+00 -0.50090158814E+03  0.50090158815E+03  0.25500000920E-02 0. -1.
    10030    2    1    2    0    0  0.00000000000E+00  0.00000000000E+00 -0.14111047022E+01  0.10003920716E+04  0.10003910764E+04 0.  0.
        4    1    3    3  502    0  0.86090563752E+02  0.11090818045E+03 -0.48079118268E+03  0.50087322138E+03  0.12699999809E+01 0. -1.
       -4    1    3    3    0  502 -0.86090563752E+02 -0.11090818045E+03  0.47938007798E+03  0.49951885021E+03  0.12699999809E+01 0.  1.
</event>
<event>
 5   0  0.1453863E-04  0.1000061E+04  0.7818609E-02  0.9308478E-01
        1   -1    0    0  501    0  0.00000000000E+00  0.00000000000E+00  0.89284945444E+03  0.89284945446E+03  0.50400001928E-02 0.  1.
       -1   -1    0    0    0  501  0.00000000000E+00  0.00000000000E+00 -0.28003671394E+03  0.28003671398E+03  0.50400001928E-02 0. -1.
    10030    2    1    2    0    0  0.00000000000E+00  0.00000000000E+00  0.61281274050E+03  0.11728861684E+04  0.10000612527E+04 0.  0.
        1    1    3    3  502    0  0.38086242736E+03 -0.15131841466E+03  0.64240729047E+03  0.76199775463E+03  0.50400001928E-02 0.  1.
       -1    1    3    3    0  502 -0.38086242736E+03  0.15131841466E+03 -0.29594549961E+02  0.41088841381E+03  0.50400001928E-02 0. -1.
</event>
<event>
 5   0  0.1430675E-04  0.1000341E+04  0.7818609E-02  0.9308171E-01
        1   -1    0    0  501    0  0.00000000000E+00  0.00000000000E+00  0.41428787426E+03  0.41428787429E+03  0.50400001928E-02 0.  1.
       -1   -1    0    0    0  501  0.00000000000E+00  0.00000000000E+00 -0.60385643136E+03  0.60385643138E+03  0.50400001928E-02 0. -1.
    10030    2    1    2    0    0  0.00000000000E+00  0.00000000000E+00 -0.18956855711E+03  0.10181443057E+04  0.10003407366E+04 0.  0.
        5    1    3    3  502    0  0.11484540886E+03  0.42826103126E+03 -0.33031442736E+03  0.55292557343E+03  0.46999998093E+01 0. -1.
       -5    1    3    3    0  502 -0.11484540886E+03 -0.42826103126E+03  0.14074587026E+03  0.46521873224E+03  0.46999998093E+01 0.  1.
</event>
<event>
 5   0  0.1453863E-04  0.9986030E+03  0.7818609E-02  0.9310078E-01
        1   -1    0    0  501    0  0.00000000000E+00  0.00000000000E+00  0.10649322575E+04  0.10649322575E+04  0.50400001928E-02 0.  1.
       -1   -1    0    0    0  501  0.00000000000E+00  0.00000000000E+00 -0.23410124848E+03  0.23410124854E+03  0.50400001928E-02 0. -1.
    10030    2    1    2    0    0  0.00000000000E+00  0.00000000000E+00  0.83083100902E+03  0.12990335061E+04  0.99860296629E+03 0.  0.
        1    1    3    3  502    0 -0.64602192539E+02  0.35988776477E+03 -0.26891618215E+02  0.36662761171E+03  0.50400001928E-02 0. -1.
       -1    1    3    3    0  502  0.64602192539E+02 -0.35988776477E+03  0.85772262724E+03  0.93240589435E+03  0.50400001928E-02 0.  1.
</event>
<event>
 5   0  0.1461334E-04  0.9991905E+03  0.7818609E-02  0.9309433E-01
        1   -1    0    0  501    0  0.00000000000E+00  0.00000000000E+00  0.89200672531E+03  0.89200672533E+03  0.50400001928E-02 0. -1.
       -1   -1    0    0    0  501  0.00000000000E+00  0.00000000000E+00 -0.27981338921E+03  0.27981338925E+03  0.50400001928E-02 0.  1.
    10030    2    1    2    0    0  0.00000000000E+00  0.00000000000E+00  0.61219333611E+03  0.11718201146E+04  0.99919052245E+03 0.  0.
        2    1    3    3  502    0  0.18882952560E+03 -0.99273164305E+02  0.83590254891E+03  0.86269625140E+03  0.25500000920E-02 0. -1.
       -2    1    3    3    0  502 -0.18882952560E+03  0.99273164305E+02 -0.22370921281E+03  0.30912386318E+03  0.25500000920E-02 0.  1.
</event>
<event>
 5   0  0.2473312E-04  0.1000082E+04  0.7818609E-02  0.9308455E-01
        2   -1    0    0  501    0  0.00000000000E+00  0.00000000000E+00  0.65220580099E+03  0.65220580099E+03  0.25500000920E-02 0. -1.
       -2   -1    0    0    0  501  0.00000000000E+00  0.00000000000E+00 -0.38337761707E+03  0.38337761708E+03  0.25500000920E-02 0.  1.
    10030    2    1    2    0    0  0.00000000000E+00  0.00000000000E+00  0.26882818391E+03  0.10355834181E+04  0.10000822083E+04 0.  0.
        5    1    3    3  502    0 -0.25728062612E+03  0.86013168336E+02 -0.30052900329E+03  0.40488437549E+03  0.46999998093E+01 0.  1.
       -5    1    3    3    0  502  0.25728062612E+03 -0.86013168336E+02  0.56935718720E+03  0.63069904258E+03  0.46999998093E+01 0. -1.
</event>
<event>
 5   0  0.2353916E-04  0.9998152E+03  0.7818609E-02  0.9308748E-01
       -2   -1    0    0    0  501  0.00000000000E+00  0.00000000000E+00  0.24987476915E+03  0.24987476916E+03  0.25500000920E-02 0.  1.
        2   -1    0    0  501    0  0.00000000000E+00  0.00000000000E+00 -0.10001314171E+04  0.10001314171E+04  0.25500000920E-02 0. -1.
    10030    2    1    2    0    0  0.00000000000E+00  0.00000000000E+00 -0.75025664791E+03  0.12500061862E+04  0.99981519685E+03 0.  0.
        4    1    3    3  502    0  0.38223900716E+03  0.28517527579E+03 -0.18769946637E+03  0.51250785271E+03  0.12699999809E+01 0. -1.
       -4    1    3    3    0  502 -0.38223900716E+03 -0.28517527579E+03 -0.56255718154E+03  0.73749833350E+03  0.12699999809E+01 0.  1.
</event>
<event>
 5   0  0.1506454E-04  0.9992552E+03  0.7818609E-02  0.9309362E-01
       -1   -1    0    0    0  501  0.00000000000E+00  0.00000000000E+00  0.32184184148E+03  0.32184184151E+03  0.50400001928E-02 0. -1.
        1   -1    0    0  501    0  0.00000000000E+00  0.00000000000E+00 -0.77562233451E+03  0.77562233452E+03  0.50400001928E-02 0.  1.
    10030    2    1    2    0    0  0.00000000000E+00  0.00000000000E+00 -0.45378049303E+03  0.10974641760E+04  0.99925516352E+03 0.  0.
        3    1    3    3  502    0 -0.14401220332E+03  0.37242938327E+03  0.10293205885E+03  0.41235685900E+03  0.10100000352E+00 0. -1.
       -3    1    3    3    0  502  0.14401220332E+03 -0.37242938327E+03 -0.55671255188E+03  0.68510731703E+03  0.10100000352E+00 0.  1.
</event>
<event>
 5   0  0.9650500E-05  0.9997506E+03  0.7818609E-02  0.9308818E-01
       -4   -1    0    0    0  501  0.00000000000E+00  0.00000000000E+00  0.24930695334E+03  0.24931018809E+03  0.12699999809E+01 0. -1.
        4   -1    0    0  501    0  0.00000000000E+00  0.00000000000E+00 -0.10022696147E+04  0.10022704193E+04  0.12699999809E+01 0.  1.
    10030    2    1    2    0    0  0.00000000000E+00  0.00000000000E+00 -0.75296266139E+03  0.12515806074E+04  0.99975059263E+03 0.  0.
        5    1    3    3  502    0  0.12646690351E+03 -0.40715491431E+03 -0.70313714147E+03  0.82230951085E+03  0.46999998093E+01 0.  1.
       -5    1    3    3    0  502 -0.12646690351E+03  0.40715491431E+03 -0.49825519917E+02  0.42927109658E+03  0.46999998093E+01 0. -1.
</event>
<event>
 5   0  0.2353916E-04  0.1000198E+04  0.7818609E-02  0.9308328E-01
       -2   -1    0    0    0  501  0.00000000000E+00  0.00000000000E+00  0.20679142066E+03  0.20679142068E+03  0.25500000920E-02 0. -1.
        2   -1    0    0  501    0  0.00000000000E+00  0.00000000000E+00 -0.12094255710E+04  0.12094255710E+04  0.25500000920E-02 0.  1.
    10030    2    1    2    0    0  0.00000000000E+00  0.00000000000E+00 -0.10026341504E+04  0.14162169917E+04  0.10001976445E+04 0.  0.
        4    1    3    3  502    0 -0.19176166986E+02 -0.26225269312E+02 -0.12079274907E+04  0.12083649804E+04  0.12699999809E+01 0.  1.
       -4    1    3    3    0  502  0.19176166986E+02  0.26225269312E+02  0.20529334033E+03  0.20785201133E+03  0.12699999809E+01 0. -1.
</event>
<event>
 5   0  0.1414165E-04  0.1001299E+04  0.7818609E-02  0.9307121E-01
       -1   -1    0    0    0  501  0.00000000000E+00  0.00000000000E+00  0.19658346947E+03  0.19658346954E+03  0.50400001928E-02 0. -1.
        1   -1    0    0  501    0  0.00000000000E+00  0.00000000000E+00 -0.12750313963E+04  0.12750313963E+04  0.50400001928E-02 0.  1.
    10030    2    1    2    0    0  0.00000000000E+00  0.00000000000E+00 -0.10784479268E+04  0.14716148658E+04  0.10012993471E+04 0.  0.
        4    1    3    3  502    0  0.26444095766E+03 -0.42427198665E+03 -0.49998685349E+03  0.70705318421E+03  0.12699999809E+01 0.  1.
       -4    1    3    3    0  502 -0.26444095766E+03  0.42427198665E+03 -0.57846107331E+03  0.76456168160E+03  0.12699999809E+01 0. -1.
</event>
<event>
 5   0  0.2353916E-04  0.9999441E+03  0.7818609E-02  0.9308606E-01
        2   -1    0    0  501    0  0.00000000000E+00  0.00000000000E+00  0.30900074305E+03  0.30900074306E+03  0.25500000920E-02 0. -1.
       -2   -1    0    0    0  501  0.00000000000E+00  0.00000000000E+00 -0.80896915741E+03  0.80896915741E+03  0.25500000920E-02 0.  1.
    10030    2    1    2    0    0  0.00000000000E+00  0.00000000000E+00 -0.49996841436E+03  0.11179699005E+04  0.99994413994E+03 0.  0.
        4    1    3    3  502    0  0.38596561607E+03  0.16819967470E+03 -0.55145903582E+03  0.69380780368E+03  0.12699999809E+01 0.  1.
       -4    1    3    3    0  502 -0.38596561607E+03 -0.16819967470E+03  0.51490621459E+02  0.42416209679E+03  0.12699999809E+01 0. -1.
</event>
<event>
 5   0  0.1414165E-04  0.9995724E+03  0.7818609E-02  0.9309014E-01
       -1   -1    0    0    0  501  0.00000000000E+00  0.00000000000E+00  0.21995956511E+03  0.21995956517E+03  0.50400001928E-02 0. -1.
        1   -1    0    0  501    0  0.00000000000E+00  0.00000000000E+00 -0.11356008407E+04  0.11356008407E+04  0.50400001928E-02 0.  1.
    10030    2    1    2    0    0  0.00000000000E+00  0.00000000000E+00 -0.91564127561E+03  0.13555604059E+04  0.99957244282E+03 0.  0.
        4    1    3    3  502    0 -0.18111574261E+03 -0.12818463692E+03  0.14949772292E+03  0.26755447188E+03  0.12699999809E+01 0. -1.
       -4    1    3    3    0  502  0.18111574261E+03  0.12818463692E+03 -0.10651389985E+04  0.10880059340E+04  0.12699999809E+01 0.  1.
</event>
<event>
 5   0  0.1453863E-04  0.1000117E+04  0.7818609E-02  0.9308416E-01
       -1   -1    0    0    0  501  0.00000000000E+00  0.00000000000E+00  0.71115080970E+03  0.71115080972E+03  0.50400001928E-02 0.  1.
        1   -1    0    0  501    0  0.00000000000E+00  0.00000000000E+00 -0.35162527465E+03  0.35162527468E+03  0.50400001928E-02 0. -1.
    10030    2    1    2    0    0  0.00000000000E+00  0.00000000000E+00  0.35952553505E+03  0.10627760844E+04  0.10001171907E+04 0.  0.
        1    1    3    3  502    0  0.31417887195E+03 -0.36861617211E+03  0.47581758976E+02  0.48667265152E+03  0.50400001928E-02 0.  1.
       -1    1    3    3    0  502 -0.31417887195E+03  0.36861617211E+03  0.31194377608E+03  0.57610343288E+03  0.50400001928E-02 0. -1.
</event>
<event>
 5   0  0.2484904E-04  0.1000298E+04  0.7818609E-02  0.9308218E-01
        2   -1    0    0  501    0  0.00000000000E+00  0.00000000000E+00  0.46898736596E+03  0.46898736597E+03  0.25500000920E-02 0.  1.
       -2   -1    0    0    0  501  0.00000000000E+00  0.00000000000E+00 -0.53338156545E+03  0.53338156546E+03  0.25500000920E-02 0. -1.
    10030    2    1    2    0    0  0.00000000000E+00  0.00000000000E+00 -0.64394199492E+02  0.10023689314E+04  0.10002983864E+04 0.  0.
        3    1    3    3  502    0  0.35248063495E+02  0.39526276374E+03  0.27285729109E+03  0.48158715710E+03  0.10100000352E+00 0.  1.
       -3    1    3    3    0  502 -0.35248063495E+02 -0.39526276374E+03 -0.33725149058E+03  0.52078177433E+03  0.10100000352E+00 0. -1.
</event>
<event>
 5   0  0.1430675E-04  0.9995735E+03  0.7818609E-02  0.9309013E-01
       -1   -1    0    0    0  501  0.00000000000E+00  0.00000000000E+00  0.42516430995E+03  0.42516430998E+03  0.50400001928E-02 0. -1.
        1   -1    0    0  501    0  0.00000000000E+00  0.00000000000E+00 -0.58750648255E+03  0.58750648257E+03  0.50400001928E-02 0.  1.
    10030    2    1    2    0    0  0.00000000000E+00  0.00000000000E+00 -0.16234217260E+03  0.10126707925E+04  0.99957348558E+03 0.  0.
        5    1    3    3  502    0 -0.80716383628E+02  0.26895599900E+03  0.33766118061E+03  0.43919201595E+03  0.46999998093E+01 0. -1.
       -5    1    3    3    0  502  0.80716383628E+02 -0.26895599900E+03 -0.50000335321E+03  0.57347877659E+03  0.46999998093E+01 0.  1.
</event>
<event>
 5   0  0.2484904E-04  0.9989495E+03  0.7818609E-02  0.9309698E-01
       -2   -1    0    0    0  501  0.00000000000E+00  0.00000000000E+00  0.25188722606E+03  0.25188722607E+03  0.25500000920E-02 0.  1.
        2   -1    0    0  501    0  0.00000000000E+00  0.00000000000E+00 -0.99042357708E+03  0.99042357709E+03  0.25500000920E-02 0. -1.
    10030    2    1    2    0    0  0.00000000000E+00  0.00000000000E+00 -0.73853635103E+03  0.12423108032E+04  0.99894954319E+03 0.  0.
        3    1    3    3  502    0  0.40878139145E+03  0.14627208106E+03 -0.62174574303E+02  0.43859256216E+03  0.10100000352E+00 0.  1.
       -3    1    3    3    0  502 -0.40878139145E+03 -0.14627208106E+03 -0.67636177673E+03  0.80371824100E+03  0.10100000352E+00 0. -1.
</event>
<event>
 5   0  0.2353916E-04  0.9996133E+03  0.7818609E-02  0.9308969E-01
       -2   -1    0    0    0  501  0.00000000000E+00  0.00000000000E+00  0.19176569878E+03  0.19176569880E+03  0.25500000920E-02 0. -1.
        2   -1    0    0  501    0  0.00000000000E+00  0.00000000000E+00 -0.13026661963E+04  0.13026661963E+04  0.25500000920E-02 0.  1.
    10030    2    1    2    0    0  0.00000000000E+00  0.00000000000E+00 -0.11109004975E+04  0.14944318951E+04  0.99961331211E+03 0.  0.
        4    1    3    3  502    0 -0.45264501069E+03  0.68363267548E+02 -0.25553753630E+03  0.52427291310E+03  0.12699999809E+01 0. -1.
       -4    1    3    3    0  502  0.45264501069E+03 -0.68363267548E+02 -0.85536296125E+03  0.97015898203E+03  0.12699999809E+01 0.  1.
</event>
<event>
 5   0  0.2484904E-04  0.1001018E+04  0.7818609E-02  0.9307429E-01
        2   -1    0    0  501    0  0.00000000000E+00  0.00000000000E+00  0.11297721379E+04  0.11297721379E+04  0.25500000920E-02 0. -1.
       -2   -1    0    0    0  501  0.00000000000E+00  0.00000000000E+00 -0.22173436593E+03  0.22173436595E+03  0.25500000920E-02 0.  1.
    10030    2    1    2    0    0  0.00000000000E+00  0.00000000000E+00  0.90803777200E+03  0.13515065039E+04  0.10010180991E+04 0.  0.
        3    1    3    3  502    0 -0.24665563726E+03 -0.41868340967E+03  0.61589118935E+03  0.78451052781E+03  0.10100000352E+00 0. -1.
       -3    1    3    3    0  502  0.24665563726E+03  0.41868340967E+03  0.29214658265E+03  0.56699597608E+03  0.10100000352E+00 0.  1.
</event>
<event>
 5   0  0.2403037E-04  0.1000250E+04  0.7818609E-02  0.9308270E-01
        2   -1    0    0  501    0  0.00000000000E+00  0.00000000000E+00  0.14105308237E+04  0.14105308237E+04  0.25500000920E-02 0.  1.
       -2   -1    0    0    0  501  0.00000000000E+00  0.00000000000E+00 -0.17732696055E+03  0.17732696057E+03  0.25500000920E-02 0. -1.
    10030    2    1    2    0    0  0.00000000000E+00  0.00000000000E+00  0.12332038632E+04  0.15878577843E+04  0.10002502562E+04 0.  0.
        1    1    3    3  502    0  0.34806702159E+03 -0.25631994826E+03  0.10159187058E+04  0.11040567849E+04  0.50400001928E-02 0.  1.
       -1    1    3    3    0  502 -0.34806702159E+03  0.25631994826E+03  0.21728515735E+03  0.48380099940E+03  0.50400001928E-02 0. -1.
</event>
<event>
 5   0  0.9650500E-05  0.9998054E+03  0.7818609E-02  0.9308758E-01
        4   -1    0    0  501    0  0.00000000000E+00  0.00000000000E+00  0.23296416684E+03  0.23296762850E+03  0.12699999809E+01 0. -1.
       -4   -1    0    0    0  501  0.00000000000E+00  0.00000000000E+00 -0.10726969334E+04  0.10726976852E+04  0.12699999809E+01 0.  1.
    10030    2    1    2    0    0  0.00000000000E+00  0.00000000000E+00 -0.83973276658E+03  0.13056653137E+04  0.99980537714E+03 0.  0.
        5    1    3    3  502    0  0.15188792295E+03  0.22526225729E+03  0.12810275428E+03  0.30040877376E+03  0.46999998093E+01 0. -1.
       -5    1    3    3    0  502 -0.15188792295E+03 -0.22526225729E+03 -0.96783552085E+03  0.10052565400E+04  0.46999998093E+01 0.  1.
</event>
<event>
 5   0  0.1414165E-04  0.1000381E+04  0.7818609E-02  0.9308128E-01
       -1   -1    0    0    0  501  0.00000000000E+00  0.00000000000E+00  0.57278950658E+03  0.57278950660E+03  0.50400001928E-02 0. -1.
        1   -1    0    0  501    0  0.00000000000E+00  0.00000000000E+00 -0.43679273604E+03  0.43679273607E+03  0.50400001928E-02 0.  1.
    10030    2    1    2    0    0  0.00000000000E+00  0.00000000000E+00  0.13599677054E+03  0.10095822427E+04  0.10003805192E+04 0.  0.
        4    1    3    3  502    0  0.34083433793E+03 -0.84261430210E+02 -0.29153781001E+03  0.45635944397E+03  0.12699999809E+01 0.  1.
       -4    1    3    3    0  502 -0.34083433793E+03  0.84261430210E+02  0.42753458055E+03  0.55322279870E+03  0.12699999809E+01 0. -1.
</event>
<event>
 5   0  0.2473312E-04  0.9988463E+03  0.7818609E-02  0.9309811E-01
       -2   -1    0    0    0  501  0.00000000000E+00  0.00000000000E+00  0.72585793815E+03  0.72585793816E+03  0.25500000920E-02 0. -1.
        2   -1    0    0  501    0  0.00000000000E+00  0.00000000000E+00 -0.34362575669E+03  0.34362575670E+03  0.25500000920E-02 0.  1.
    10030    2    1    2    0    0  0.00000000000E+00  0.00000000000E+00  0.38223218146E+03  0.10694836949E+04  0.99884630101E+03 0.  0.
        5    1    3    3  502    0  0.21371811820E+03 -0.10152706770E+03 -0.27977902543E+03  0.36644450138E+03  0.46999998093E+01 0.  1.
       -5    1    3    3    0  502 -0.21371811820E+03  0.10152706770E+03  0.66201120689E+03  0.70303919348E+03  0.46999998093E+01 0. -1.
</event>
<event>
 5   0  0.1453863E-04  0.9972111E+03  0.7818609E-02  0.9311609E-01
        1   -1    0    0  501    0  0.00000000000E+00  0.00000000000E+00  0.18464523524E+04  0.18464523524E+04  0.50400001928E-02 0.  1.
       -1   -1    0    0    0  501  0.00000000000E+00  0.00000000000E+00 -0.13464061364E+03  0.13464061374E+03  0.50400001928E-02 0. -1.
    10030    2    1    2    0    0  0.00000000000E+00  0.00000000000E+00  0.17118117388E+04  0.19810929661E+04  0.99721106671E+03 0.  0.
        1    1    3    3  502    0  0.18320685689E+03 -0.46191919516E+03  0.77463865186E+03  0.92032555993E+03  0.50400001928E-02 0.  1.
       -1    1    3    3    0  502 -0.18320685689E+03  0.46191919516E+03  0.93717308689E+03  0.10607674062E+04  0.50400001928E-02 0. -1.
</event>
<event>
 5   0  0.1414165E-04  0.9999507E+03  0.7818609E-02  0.9308599E-01
       -1   -1    0    0    0  501  0.00000000000E+00  0.00000000000E+00  0.21207654492E+03  0.21207654498E+03  0.50400001928E-02 0.  1.
        1   -1    0    0  501    0  0.00000000000E+00  0.00000000000E+00 -0.11787033537E+04  0.11787033537E+04  0.50400001928E-02 0. -1.
    10030    2    1    2    0    0  0.00000000000E+00  0.00000000000E+00 -0.96662680875E+03  0.13907798987E+04  0.99995066834E+03 0.  0.
        4    1    3    3  502    0  0.10346247227E+03  0.43882671028E+03 -0.18274734975E+03  0.48648902512E+03  0.12699999809E+01 0.  1.
       -4    1    3    3    0  502 -0.10346247227E+03 -0.43882671028E+03 -0.78387945900E+03  0.90429087353E+03  0.12699999809E+01 0. -1.
</event>
<event>
 5   0  0.1430675E-04  0.1000082E+04  0.7818609E-02  0.9308455E-01
       -1   -1    0    0    0  501  0.00000000000E+00  0.00000000000E+00  0.23139970287E+03  0.23139970293E+03  0.50400001928E-02 0. -1.
        1   -1    0    0  501    0  0.00000000000E+00  0.00000000000E+00 -0.10805594943E+04  0.10805594943E+04  0.50400001928E-02 0.  1.
    10030    2    1    2    0    0  0.00000000000E+00  0.00000000000E+00 -0.84915979144E+03  0.13119591973E+04  0.10000822885E+04 0.  0.
        5    1    3    3  502    0  0.36658468753E+03  0.26294578501E+03 -0.70744811396E+03  0.83906480258E+03  0.46999998093E+01 0.  1.
       -5    1    3    3    0  502 -0.36658468753E+03 -0.26294578501E+03 -0.14171167748E+03  0.47289439467E+03  0.46999998093E+01 0. -1.
</event>
<event>
 5   0  0.2353916E-04  0.1000155E+04  0.7818609E-02  0.9308375E-01
       -2   -1    0    0    0  501  0.00000000000E+00  0.00000000000E+00  0.19492820702E+03  0.19492820704E+03  0.25500000920E-02 0. -1.
        2   -1    0    0  501    0  0.00000000000E+00  0.00000000000E+00 -0.12829210271E+04  0.12829210271E+04  0.25500000920E-02 0.  1.
    10030    2    1    2    0    0  0.00000000000E+00  0.00000000000E+00 -0.10879928201E+04  0.14778492342E+04  0.10001549792E+04 0.  0.
        4    1    3    3  502    0  0.10903299593E+03  0.41921609321E+03 -0.91324053738E+03  0.10107621971E+04  0.12699999809E+01 0.  1.
       -4    1    3    3    0  502 -0.10903299593E+03 -0.41921609321E+03 -0.17475228273E+03  0.46708703711E+03  0.12699999809E+01 0. -1.
</event>
<event>
 5   0  0.1453863E-04  0.1000152E+04  0.7818609E-02  0.9308378E-01
       -1   -1    0    0    0  501  0.00000000000E+00  0.00000000000E+00  0.13717773933E+03  0.13717773943E+03  0.50400001928E-02 0. -1.
        1   -1    0    0  501    0  0.00000000000E+00  0.00000000000E+00 -0.18230065859E+04  0.18230065859E+04  0.50400001928E-02 0.  1.
    10030    2    1    2    0    0  0.00000000000E+00  0.00000000000E+00 -0.16858288465E+04  0.19601843253E+04  0.10001518332E+04 0.  0.
        1    1    3    3  502    0  0.75360529754E+01 -0.30295134256E+03 -0.16225444990E+04  0.16506019991E+04  0.50400001928E-02 0.  1.
       -1    1    3    3    0  502 -0.75360529754E+01  0.30295134256E+03 -0.63284347542E+02  0.30958232625E+03  0.50400001928E-02 0. -1.
</event>
<event>
 5   0  0.2503680E-04  0.1003108E+04  0.7818609E-02  0.9305142E-01
        2   -1    0    0  501    0  0.00000000000E+00  0.00000000000E+00  0.11590233826E+03  0.11590233829E+03  0.25500000920E-02 0.  1.
       -2   -1    0    0    0  501  0.00000000000E+00  0.00000000000E+00 -0.21704182438E+04  0.21704182438E+04  0.25500000920E-02 0. -1.
    10030    2    1    2    0    0  0.00000000000E+00  0.00000000000E+00 -0.20545159055E+04  0.22863205820E+04  0.10031082683E+04 0.  0.
        2    1    3    3  502    0  0.41289524072E+03 -0.21109111741E+03 -0.14627925385E+04  0.15345370476E+04  0.25500000920E-02 0.  1.
       -2    1    3    3    0  502 -0.41289524072E+03  0.21109111741E+03 -0.59172336699E+03  0.75178353448E+03  0.25500000920E-02 0. -1.
</event>
<event>
 5   0  0.2473312E-04  0.9994891E+03  0.7818609E-02  0.9309105E-01
        2   -1    0    0  501    0  0.00000000000E+00  0.00000000000E+00  0.65223012419E+03  0.65223012420E+03  0.25500000920E-02 0. -1.
       -2   -1    0    0    0  501  0.00000000000E+00  0.00000000000E+00 -0.38290874501E+03  0.38290874502E+03  0.25500000920E-02 0.  1.
    10030    2    1    2    0    0  0.00000000000E+00  0.00000000000E+00  0.26932137918E+03  0.10351388692E+04  0.99948910613E+03 0.  0.
        5    1    3    3  502    0 -0.21636368811E+03  0.12124762219E+03 -0.31464294731E+03  0.40067007090E+03  0.46999998093E+01 0.  1.
       -5    1    3    3    0  502  0.21636368811E+03 -0.12124762219E+03  0.58396432650E+03  0.63446879832E+03  0.46999998093E+01 0. -1.
</event>
<event>
 5   0  0.1506454E-04  0.9996440E+03  0.7818609E-02  0.9308935E-01
       -1   -1    0    0    0  501  0.00000000000E+00  0.00000000000E+00  0.99493250807E+02  0.99493250934E+02  0.50400001928E-02 0.  1.
        1   -1    0    0  501    0  0.00000000000E+00  0.00000000000E+00 -0.25109445996E+04  0.25109445996E+04  0.50400001928E-02 0. -1.
    10030    2    1    2    0    0  0.00000000000E+00  0.00000000000E+00 -0.24114513488E+04  0.26104378505E+04  0.99964401860E+03 0.  0.
        3    1    3    3  502    0  0.25556866990E+03 -0.42537668337E+03 -0.10498866908E+04  0.11612591190E+04  0.10100000352E+00 0.  1.
       -3    1    3    3    0  502 -0.25556866990E+03  0.42537668337E+03 -0.13615646580E+04  0.14491787315E+04  0.10100000352E+00 0. -1.
</event>
<event>
 5   0  0.9650500E-05  0.9991660E+03  0.7818609E-02  0.9309460E-01
       -3   -1    0    0    0  501  0.00000000000E+00  0.00000000000E+00  0.27713475794E+03  0.27713477635E+03  0.10100000352E+00 0.  1.
        3   -1    0    0  501    0  0.00000000000E+00  0.00000000000E+00 -0.90058409534E+03  0.90058410100E+03  0.10100000352E+00 0. -1.
    10030    2    1    2    0    0  0.00000000000E+00  0.00000000000E+00 -0.62344933740E+03  0.11777188773E+04  0.99916599109E+03 0.  0.
        4    1    3    3  502    0  0.15261741794E+03  0.10819972150E+02 -0.87228686272E+03  0.88560438787E+03  0.12699999809E+01 0. -1.
       -4    1    3    3    0  502 -0.15261741794E+03 -0.10819972150E+02  0.24883752531E+03  0.29211448948E+03  0.12699999809E+01 0.  1.
</event>
<event>
 5   0  0.1430675E-04  0.1000486E+04  0.7818609E-02  0.9308012E-01
        1   -1    0    0  501    0  0.00000000000E+00  0.00000000000E+00  0.21826965558E+03  0.21826965564E+03  0.50400001928E-02 0. -1.
       -1   -1    0    0    0  501  0.00000000000E+00  0.00000000000E+00 -0.11464860039E+04  0.11464860039E+04  0.50400001928E-02 0.  1.
    10030    2    1    2    0    0  0.00000000000E+00  0.00000000000E+00 -0.92821634827E+03  0.13647556595E+04  0.10004860923E+04 0.  0.
        5    1    3    3  502    0 -0.31763852395E+03 -0.20034488565E+01  0.63008635745E+02  0.32386791117E+03  0.46999998093E+01 0. -1.
       -5    1    3    3    0  502  0.31763852395E+03  0.20034488565E+01 -0.99122498402E+03  0.10408877483E+04  0.46999998093E+01 0.  1.
</event>
<event>
 5   0  0.2503680E-04  0.1000122E+04  0.7818609E-02  0.9308411E-01
       -2   -1    0    0    0  501  0.00000000000E+00  0.00000000000E+00  0.21181500534E+03  0.21181500536E+03  0.25500000920E-02 0.  1.
        2   -1    0    0  501    0  0.00000000000E+00  0.00000000000E+00 -0.11805642920E+04  0.11805642920E+04  0.25500000920E-02 0. -1.
    10030    2    1    2    0    0  0.00000000000E+00  0.00000000000E+00 -0.96874928664E+03  0.13923792974E+04  0.10001224562E+04 0.  0.
        2    1    3    3  502    0 -0.65830571795E+02  0.16309342561E+03 -0.11360831911E+04  0.11496165217E+04  0.25500000920E-02 0. -1.
       -2    1    3    3    0  502  0.65830571795E+02 -0.16309342561E+03  0.16733390450E+03  0.24276277569E+03  0.25500000920E-02 0.  1.
</event>
<event>
 5   0  0.1414165E-04  0.9996679E+03  0.7818609E-02  0.9308909E-01
       -1   -1    0    0    0  501  0.00000000000E+00  0.00000000000E+00  0.23233222679E+03  0.23233222684E+03  0.50400001928E-02 0.  1.
        1   -1    0    0  501    0  0.00000000000E+00  0.00000000000E+00 -0.10753306187E+04  0.10753306187E+04  0.50400001928E-02 0. -1.
    10030    2    1    2    0    0  0.00000000000E+00  0.00000000000E+00 -0.84299839191E+03  0.13076628456E+04  0.99966785928E+03 0.  0.
        4    1    3    3  502    0  0.24583707531E+03  0.18182557984E+03  0.95713840976E+02  0.32040468370E+03  0.12699999809E+01 0.  1.
       -4    1    3    3    0  502 -0.24583707531E+03 -0.18182557984E+03 -0.93871223288E+03  0.98725816185E+03  0.12699999809E+01 0. -1.
</event>
<event>
 5   0  0.2484904E-04  0.9995629E+03  0.7818609E-02  0.9309024E-01
       -2   -1    0    0    0  501  0.00000000000E+00  0.00000000000E+00  0.39347173007E+03  0.39347173008E+03  0.25500000920E-02 0. -1.
        2   -1    0    0  501    0  0.00000000000E+00  0.00000000000E+00 -0.63481430551E+03  0.63481430552E+03  0.25500000920E-02 0.  1.
    10030    2    1    2    0    0  0.00000000000E+00  0.00000000000E+00 -0.24134257544E+03  0.10282860356E+04  0.99956287060E+03 0.  0.
        3    1    3    3  502    0  0.49902848850E+03 -0.15648429595E+01 -0.14883670799E+03  0.52075354720E+03  0.10100000352E+00 0. -1.
       -3    1    3    3    0  502 -0.49902848850E+03  0.15648429595E+01 -0.92505867448E+02  0.50753248840E+03  0.10100000352E+00 0.  1.
</event>
<event>
 5   0  0.2473312E-04  0.1000923E+04  0.7818609E-02  0.9307533E-01
       -2   -1    0    0    0  501  0.00000000000E+00  0.00000000000E+00  0.20812507994E+03  0.20812507996E+03  0.25500000920E-02 0.  1.
        2   -1    0    0  501    0  0.00000000000E+00  0.00000000000E+00 -0.12034189836E+04  0.12034189836E+04  0.25500000920E-02 0. -1.
    10030    2    1    2    0    0  0.00000000000E+00  0.00000000000E+00 -0.99529390361E+03  0.14115440635E+04  0.10009229185E+04 0.  0.
        5    1    3    3  502    0 -0.37231436601E+03  0.30675765773E+03 -0.68538055577E+03  0.83814488242E+03  0.46999998093E+01 0. -1.
       -5    1    3    3    0  502  0.37231436601E+03 -0.30675765773E+03 -0.30991334785E+03  0.57339918110E+03  0.46999998093E+01 0.  1.
</event>
<event>
 5   0  0.2353916E-04  0.1000084E+04  0.7818609E-02  0.9308452E-01
       -2   -1    0    0    0  501  0.00000000000E+00  0.00000000000E+00  0.40755053913E+03  0.40755053914E+03  0.25500000920E-02 0.  1.
        2   -1    0    0  501    0  0.00000000000E+00  0.00000000000E+00 -0.61352413637E+03  0.61352413638E+03  0.25500000920E-02 0. -1.
    10030    2    1    2    0    0  0.00000000000E+00  0.00000000000E+00 -0.20597359724E+03  0.10210746755E+04  0.10000841816E+04 0.  0.
        4    1    3    3  502    0 -0.42185116621E+03  0.26220010914E+03 -0.44041378233E+02  0.49864672822E+03  0.12699999809E+01 0.  1.
       -4    1    3    3    0  502  0.42185116621E+03 -0.26220010914E+03 -0.16193221901E+03  0.52242794730E+03  0.12699999809E+01 0. -1.
</event>
<event>
 5   0  0.1414165E-04  0.1000497E+04  0.7818609E-02  0.9308000E-01
       -1   -1    0    0    0  501  0.00000000000E+00  0.00000000000E+00  0.82568020916E+03  0.82568020917E+03  0.50400001928E-02 0.  1.
        1   -1    0    0  501    0  0.00000000000E+00  0.00000000000E+00 -0.30308187408E+03  0.30308187412E+03  0.50400001928E-02 0. -1.
    10030    2    1    2    0    0  0.00000000000E+00  0.00000000000E+00  0.52259833508E+03  0.11287620833E+04  0.10004972868E+04 0.  0.
        4    1    3    3  502    0 -0.36668898717E+03 -0.64957623856E+02 -0.11553819756E+03  0.38991152100E+03  0.12699999809E+01 0.  1.
       -4    1    3    3    0  502  0.36668898717E+03  0.64957623856E+02  0.63813653264E+03  0.73885056229E+03  0.12699999809E+01 0. -1.
</event>
<event>
 5   0  0.2403037E-04  0.1000995E+04  0.7818609E-02  0.9307454E-01
        2   -1    0    0  501    0  0.00000000000E+00  0.00000000000E+00  0.43603590095E+03  0.43603590096E+03  0.25500000920E-02 0.  1.
       -2   -1    0    0    0  501  0.00000000000E+00  0.00000000000E+00 -0.57448873650E+03  0.57448873651E+03  0.25500000920E-02 0. -1.
    10030    2    1    2    0    0  0.00000000000E+00  0.00000000000E+00 -0.13845283555E+03  0.10105246375E+04  0.10009949327E+04 0.  0.
        1    1    3    3  502    0 -0.94131997221E+02  0.47221623437E+03  0.68633943483E+02  0.48637395400E+03  0.50400001928E-02 0. -1.
       -1    1    3    3    0  502  0.94131997221E+02 -0.47221623437E+03 -0.20708677904E+03  0.52415068347E+03  0.50400001928E-02 0.  1.
</event>
<event>
 5   0  0.1414165E-04  0.1000405E+04  0.7818609E-02  0.9308100E-01
       -1   -1    0    0    0  501  0.00000000000E+00  0.00000000000E+00  0.30033106715E+03  0.30033106719E+03  0.50400001928E-02 0.  1.
        1   -1    0    0  501    0  0.00000000000E+00  0.00000000000E+00 -0.83308956554E+03  0.83308956556E+03  0.50400001928E-02 0. -1.
    10030    2    1    2    0    0  0.00000000000E+00  0.00000000000E+00 -0.53275849839E+03  0.11334206327E+04  0.10004052744E+04 0.  0.
        4    1    3    3  502    0  0.18228842108E+03 -0.45141506194E+03 -0.39652905220E+03  0.62788655723E+03  0.12699999809E+01 0. -1.
       -4    1    3    3    0  502 -0.18228842108E+03  0.45141506194E+03 -0.13622944619E+03  0.50553407552E+03  0.12699999809E+01 0.  1.
</event>
<event>
 5   0  0.2353916E-04  0.1000215E+04  0.7818609E-02  0.9308309E-01
       -2   -1    0    0    0  501  0.00000000000E+00  0.00000000000E+00  0.19309810971E+03  0.19309810973E+03  0.25500000920E-02 0. -1.
        2   -1    0    0  501    0  0.00000000000E+00  0.00000000000E+00 -0.12952358192E+04  0.12952358192E+04  0.25500000920E-02 0.  1.
    10030    2    1    2    0    0  0.00000000000E+00  0.00000000000E+00 -0.11021377095E+04  0.14883339289E+04  0.10002151535E+04 0.  0.
        4    1    3    3  502    0  0.24832306847E+03 -0.21690514430E+03  0.84595213168E+01  0.32982626390E+03  0.12699999809E+01 0. -1.
       -4    1    3    3    0  502 -0.24832306847E+03  0.21690514430E+03 -0.11105972308E+04  0.11585076650E+04  0.12699999809E+01 0.  1.
</event>
<event>
 5   0  0.1453863E-04  0.1000330E+04  0.7818609E-02  0.9308183E-01
        1   -1    0    0  501    0  0.00000000000E+00  0.00000000000E+00  0.11970816872E+04  0.11970816873E+04  0.50400001928E-02 0.  1.
       -1   -1    0    0    0  501  0.00000000000E+00  0.00000000000E+00 -0.20897921813E+03  0.20897921819E+03  0.50400001928E-02 0. -1.
    10030    2    1    2    0    0  0.00000000000E+00  0.00000000000E+00  0.98810246911E+03  0.14060609054E+04  0.10003303356E+04 0.  0.
        1    1    3    3  502    0 -0.34923143659E+03 -0.29967261531E+03  0.21861554560E+03  0.50946936068E+03  0.50400001928E-02 0. -1.
       -1    1    3    3    0  502  0.34923143659E+03  0.29967261531E+03  0.76948692351E+03  0.89659154476E+03  0.50400001928E-02 0.  1.
</event>
<event>
 5   0  0.2473312E-04  0.1001078E+04  0.7818609E-02  0.9307363E-01
        2   -1    0    0  501    0  0.00000000000E+00  0.00000000000E+00  0.10658555272E+04  0.10658555273E+04  0.25500000920E-02 0. -1.
       -2   -1    0    0    0  501  0.00000000000E+00  0.00000000000E+00 -0.23505937409E+03  0.23505937410E+03  0.25500000920E-02 0.  1.
    10030    2    1    2    0    0  0.00000000000E+00  0.00000000000E+00  0.83079615316E+03  0.13009149014E+04  0.10010780851E+04 0.  0.
        5    1    3    3  502    0 -0.18498016785E+03 -0.26158144042E+03 -0.84323288238E+02  0.33132313443E+03  0.46999998093E+01 0.  1.
       -5    1    3    3    0  502  0.18498016785E+03  0.26158144042E+03  0.91511944140E+03  0.96959176693E+03  0.46999998093E+01 0. -1.
</event>
<event>
 5   0  0.2473312E-04  0.1000379E+04  0.7818609E-02  0.9308129E-01
       -2   -1    0    0    0  501  0.00000000000E+00  0.00000000000E+00  0.31117539292E+03  0.31117539293E+03  0.25500000920E-02 0.  1.
        2   -1    0    0  501    0  0.00000000000E+00  0.00000000000E+00 -0.80401414519E+03  0.80401414519E+03  0.25500000920E-02 0. -1.
    10030    2    1    2    0    0  0.00000000000E+00  0.00000000000E+00 -0.49283875227E+03  0.11151895381E+04  0.10003787634E+04 0.  0.
        5    1    3    3  502    0 -0.33388094029E+03 -0.16441209647E+03 -0.61892435119E+03  0.72221690803E+03  0.46999998093E+01 0. -1.
       -5    1    3    3    0  502  0.33388094029E+03  0.16441209647E+03  0.12608559892E+03  0.39297263010E+03  0.46999998093E+01 0.  1.
</event>
<event>
 5   0  0.2503680E-04  0.1000081E+04  0.7818609E-02  0.9308456E-01
        2   -1    0    0  501    0  0.00000000000E+00  0.00000000000E+00  0.68420880435E+03  0.68420880436E+03  0.25500000920E-02 0.  1.
       -2   -1    0    0    0  501  0.00000000000E+00  0.00000000000E+00 -0.36544445591E+03  0.36544445592E+03  0.25500000920E-02 0. -1.
    10030    2    1    2    0    0  0.00000000000E+00  0.00000000000E+00  0.31876434844E+03  0.10496532603E+04  0.10000806252E+04 0.  0.
        2    1    3    3  502    0  0.35871737630E+03 -0.14782567994E+03 -0.17170595639E+03  0.42428000563E+03  0.25500000920E-02 0. -1.
       -2    1    3    3    0  502 -0.35871737630E+03  0.14782567994E+03  0.49047030483E+03  0.62537325465E+03  0.25500000920E-02 0.  1.
</event>
<event>
 5   0  0.2503680E-04  0.9997971E+03  0.7818609E-02  0.9308767E-01
       -2   -1    0    0    0  501  0.00000000000E+00  0.00000000000E+00  0.11087554114E+04  0.11087554114E+04  0.25500000920E-02 0.  1.
        2   -1    0    0  501    0  0.00000000000E+00  0.00000000000E+00 -0.22538653103E+03  0.22538653104E+03  0.25500000920E-02 0. -1.
    10030    2    1    2    0    0  0.00000000000E+00  0.00000000000E+00  0.88336888033E+03  0.13341419424E+04  0.99979705128E+03 0.  0.
        2    1    3    3  502    0 -0.32163006330E+03 -0.38139200131E+03  0.39963922108E+03  0.63923177589E+03  0.25500000920E-02 0.  1.
       -2    1    3    3    0  502  0.32163006330E+03  0.38139200131E+03  0.48372965925E+03  0.69491016651E+03  0.25500000920E-02 0. -1.
</event>
<event>
 5   0  0.2403037E-04  0.1000578E+04  0.7818609E-02  0.9307911E-01
       -2   -1    0    0    0  501  0.00000000000E+00  0.00000000000E+00  0.93137952191E+02  0.93137952226E+02  0.25500000920E-02 0. -1.
        2   -1    0    0  501    0  0.00000000000E+00  0.00000000000E+00 -0.26872968299E+04  0.26872968299E+04  0.25500000920E-02 0.  1.
    10030    2    1    2    0    0  0.00000000000E+00  0.00000000000E+00 -0.25941588777E+04  0.27804347822E+04  0.10005784801E+04 0.  0.
        1    1    3    3  502    0  0.63427413660E+02  0.47557952192E+03 -0.90320671824E+03  0.10227322692E+04  0.50400001928E-02 0. -1.
       -1    1    3    3    0  502 -0.63427413660E+02 -0.47557952192E+03 -0.16909521595E+04  0.17577025130E+04  0.50400001928E-02 0.  1.
</event>
<event>
 5   0  0.1506454E-04  0.9999072E+03  0.7818609E-02  0.9308647E-01
       -1   -1    0    0    0  501  0.00000000000E+00  0.00000000000E+00  0.20794221072E+03  0.20794221079E+03  0.50400001928E-02 0.  1.
        1   -1    0    0  501    0  0.00000000000E+00  0.00000000000E+00 -0.12020339247E+04  0.12020339247E+04  0.50400001928E-02 0. -1.
    10030    2    1    2    0    0  0.00000000000E+00  0.00000000000E+00 -0.99409171399E+03  0.14099761355E+04  0.99990717914E+03 0.  0.
        3    1    3    3  502    0  0.28116297114E+03 -0.92800802863E+02  0.71017251225E+02  0.30447999199E+03  0.10100000352E+00 0.  1.
       -3    1    3    3    0  502 -0.28116297114E+03  0.92800802863E+02 -0.10651089652E+04  0.11054961435E+04  0.10100000352E+00 0. -1.
</event>
<event>
 5   0  0.1506454E-04  0.1000008E+04  0.7818609E-02  0.9308536E-01
        1   -1    0    0  501    0  0.00000000000E+00  0.00000000000E+00  0.21660835001E+04  0.21660835001E+04  0.50400001928E-02 0.  1.
       -1   -1    0    0    0  501  0.00000000000E+00  0.00000000000E+00 -0.11541745170E+03  0.11541745181E+03  0.50400001928E-02 0. -1.
    10030    2    1    2    0    0  0.00000000000E+00  0.00000000000E+00  0.20506660484E+04  0.22815009519E+04  0.10000076758E+04 0.  0.
        3    1    3    3  502    0  0.75813280826E+02  0.51632368712E+02  0.21467239636E+04  0.21486826990E+04  0.10100000352E+00 0.  1.
       -3    1    3    3    0  502 -0.75813280826E+02 -0.51632368712E+02 -0.96057915152E+02  0.13281825293E+03  0.10100000352E+00 0. -1.
</event>
<event>
 5   0  0.9650500E-05  0.9980149E+03  0.7818609E-02  0.9310725E-01
        3   -1    0    0  501    0  0.00000000000E+00  0.00000000000E+00  0.39471643480E+03  0.39471644772E+03  0.10100000352E+00 0. -1.
       -3   -1    0    0    0  501  0.00000000000E+00  0.00000000000E+00 -0.63085394571E+03  0.63085395379E+03  0.10100000352E+00 0.  1.
    10030    2    1    2    0    0  0.00000000000E+00  0.00000000000E+00 -0.23613751091E+03  0.10255704015E+04  0.99801489187E+03 0.  0.
        2    1    3    3  502    0 -0.46235805245E+02  0.26181033777E+01  0.39250346926E+03  0.39522598288E+03  0.25500000920E-02 0. -1.
       -2    1    3    3    0  502  0.46235805245E+02 -0.26181033777E+01 -0.62864098017E+03  0.63034441864E+03  0.25500000920E-02 0.  1.
</event>
<event>
 5   0  0.2484904E-04  0.1000833E+04  0.7818609E-02  0.9307632E-01
        2   -1    0    0  501    0  0.00000000000E+00  0.00000000000E+00  0.51448206698E+03  0.51448206699E+03  0.25500000920E-02 0. -1.
       -2   -1    0    0    0  501  0.00000000000E+00  0.00000000000E+00 -0.48673545405E+03  0.48673545405E+03  0.25500000920E-02 0.  1.
    10030    2    1    2    0    0  0.00000000000E+00  0.00000000000E+00  0.27746612934E+02  0.10012175210E+04  0.10008329780E+04 0.  0.
        3    1    3    3  502    0  0.15280330809E+03  0.12059349540E+03  0.47505478434E+03  0.51338942375E+03  0.10100000352E+00 0. -1.
       -3    1    3    3    0  502 -0.15280330809E+03 -0.12059349540E+03 -0.44730817141E+03  0.48782809729E+03  0.10100000352E+00 0.  1.
</event>
<event>
 5   0  0.1414165E-04  0.1000022E+04  0.7818609E-02  0.9308520E-01
       -1   -1    0    0    0  501  0.00000000000E+00  0.00000000000E+00  0.23509562440E+03  0.23509562446E+03  0.50400001928E-02 0. -1.
        1   -1    0    0  501    0  0.00000000000E+00  0.00000000000E+00 -0.10634444526E+04  0.10634444526E+04  0.50400001928E-02 0.  1.
    10030    2    1    2    0    0  0.00000000000E+00  0.00000000000E+00 -0.82834882817E+03  0.12985400770E+04  0.10000222750E+04 0.  0.
        4    1    3    3  502    0  0.24339180833E+03  0.10491422275E+03  0.13637434392E+03  0.29807069812E+03  0.12699999809E+01 0. -1.
       -4    1    3    3    0  502 -0.24339180833E+03 -0.10491422275E+03 -0.96472317209E+03  0.10004693789E+04  0.12699999809E+01 0.  1.
</event>
<event>
 5   0  0.2503680E-04  0.9994653E+03  0.7818609E-02  0.9309131E-01
       -2   -1    0    0    0  501  0.00000000000E+00  0.00000000000E+00  0.55074882892E+03  0.55074882892E+03  0.25500000920E-02 0. -1.
        2   -1    0    0  501    0  0.00000000000E+00  0.00000000000E+00 -0.45344211780E+03  0.45344211781E+03  0.25500000920E-02 0.  1.
    10030    2    1    2    0    0  0.00000000000E+00  0.00000000000E+00  0.97306711114E+02  0.10041909467E+04  0.99946528777E+03 0.  0.
        2    1    3    3  502    0 -0.76821541014E+02 -0.21091222161E+03 -0.39994084780E+03  0.45862642328E+03  0.25500000920E-02 0.  1.
       -2    1    3    3    0  502  0.76821541014E+02  0.21091222161E+03  0.49724755891E+03  0.54556452345E+03  0.25500000920E-02 0. -1.
</event>
<event>
 5   0  0.1414165E-04  0.9997888E+03  0.7818609E-02  0.9308776E-01
        1   -1    0    0  501    0  0.00000000000E+00  0.00000000000E+00  0.10305864849E+04  0.10305864850E+04  0.50400001928E-02 0. -1.
       -1   -1    0    0    0  501  0.00000000000E+00  0.00000000000E+00 -0.24247786995E+03  0.24247787000E+03  0.50400001928E-02 0.  1.
    10030    2    1    2    0    0  0.00000000000E+00  0.00000000000E+00  0.78810861499E+03  0.12730643550E+04  0.99978880911E+03 0.  0.
        4    1    3    3  502    0  0.17112636251E+03 -0.30384385188E+03  0.85012717047E+03  0.91887057692E+03  0.12699999809E+01 0. -1.
       -4    1    3    3    0  502 -0.17112636251E+03  0.30384385188E+03 -0.62018555473E+02  0.35419377803E+03  0.12699999809E+01 0.  1.
</event>
<event>
 5   0  0.1453863E-04  0.1002449E+04  0.7818609E-02  0.9305863E-01
        1   -1    0    0  501    0  0.00000000000E+00  0.00000000000E+00  0.12592740860E+04  0.12592740860E+04  0.50400001928E-02 0. -1.
       -1   -1    0    0    0  501  0.00000000000E+00  0.00000000000E+00 -0.19950062228E+03  0.19950062234E+03  0.50400001928E-02 0.  1.
    10030    2    1    2    0    0  0.00000000000E+00  0.00000000000E+00  0.10597734638E+04  0.14587747084E+04  0.10024489291E+04 0.  0.
        1    1    3    3  502    0  0.44669973158E+03  0.74085357202E+02  0.21711224458E+03  0.50216234140E+03  0.50400001928E-02 0.  1.
       -1    1    3    3    0  502 -0.44669973158E+03 -0.74085357202E+02  0.84266121917E+03  0.95661236699E+03  0.50400001928E-02 0. -1.
</event>
<event>
 5   0  0.1461334E-04  0.9997989E+03  0.7818609E-02  0.9308765E-01
       -1   -1    0    0    0  501  0.00000000000E+00  0.00000000000E+00  0.11128983671E+04  0.11128983671E+04  0.50400001928E-02 0.  1.
        1   -1    0    0  501    0  0.00000000000E+00  0.00000000000E+00 -0.22454833597E+03  0.22454833603E+03  0.50400001928E-02 0. -1.
    10030    2    1    2    0    0  0.00000000000E+00  0.00000000000E+00  0.88835003109E+03  0.13374467031E+04  0.99979893275E+03 0.  0.
        2    1    3    3  502    0  0.33697749752E+03  0.80988623239E+02  0.92609901227E+03  0.98882373124E+03  0.25500000920E-02 0.  1.
       -2    1    3    3    0  502 -0.33697749752E+03 -0.80988623239E+02 -0.37748981175E+02  0.34862297187E+03  0.25500000920E-02 0. -1.
</event>
<event>
 5   0  0.1506454E-04  0.1000863E+04  0.7818609E-02  0.9307599E-01
        1   -1    0    0  501    0  0.00000000000E+00  0.00000000000E+00  0.42293792633E+03  0.42293792636E+03  0.50400001928E-02 0.  1.
       -1   -1    0    0    0  501  0.00000000000E+00  0.00000000000E+00 -0.59212406320E+03  0.59212406322E+03  0.50400001928E-02 0. -1.
    10030    2    1    2    0    0  0.00000000000E+00  0.00000000000E+00 -0.16918613686E+03  0.10150619896E+04  0.10008630744E+04 0.  0.
        3    1    3    3  502    0  0.27109930630E+03  0.25596259107E+03  0.25393878320E+03  0.45110597172E+03  0.10100000352E+00 0.  1.
       -3    1    3    3    0  502 -0.27109930630E+03 -0.25596259107E+03 -0.42312492006E+03  0.56395601786E+03  0.10100000352E+00 0. -1.
</event>
<event>
 5   0  0.2353916E-04  0.9999508E+03  0.7818609E-02  0.9308599E-01
       -2   -1    0    0    0  501  0.00000000000E+00  0.00000000000E+00  0.93653378727E+03  0.93653378727E+03  0.25500000920E-02 0. -1.
        2   -1    0    0  501    0  0.00000000000E+00  0.00000000000E+00 -0.26691550837E+03  0.26691550839E+03  0.25500000920E-02 0.  1.
    10030    2    1    2    0    0  0.00000000000E+00  0.00000000000E+00  0.66961827889E+03  0.12034492957E+04  0.99995078268E+03 0.  0.
        4    1    3    3  502    0  0.46472293452E+03  0.18353055380E+03  0.35643578914E+03  0.61375805879E+03  0.12699999809E+01 0. -1.
       -4    1    3    3    0  502 -0.46472293452E+03 -0.18353055380E+03  0.31318248975E+03  0.58969123687E+03  0.12699999809E+01 0.  1.
</event>
<event>
 5   0  0.2353916E-04  0.1000428E+04  0.7818609E-02  0.9308076E-01
       -2   -1    0    0    0  501  0.00000000000E+00  0.00000000000E+00  0.85117354713E+02  0.85117354751E+02  0.25500000920E-02 0.  1.
        2   -1    0    0  501    0  0.00000000000E+00  0.00000000000E+00 -0.29396336332E+04  0.29396336332E+04  0.25500000920E-02 0. -1.
    10030    2    1    2    0    0  0.00000000000E+00  0.00000000000E+00 -0.28545162785E+04  0.30247509880E+04  0.10004275861E+04 0.  0.
        4    1    3    3  502    0 -0.93562866305E+02  0.35731917020E+03 -0.40740115565E+03  0.54991664266E+03  0.12699999809E+01 0.  1.
       -4    1    3    3    0  502  0.93562866305E+02 -0.35731917020E+03 -0.24471151229E+04  0.24748343453E+04  0.12699999809E+01 0. -1.
</event>
<event>
 5   0  0.1461334E-04  0.9996349E+03  0.7818609E-02  0.9308945E-01
        1   -1    0    0  501    0  0.00000000000E+00  0.00000000000E+00  0.81730902065E+03  0.81730902067E+03  0.50400001928E-02 0. -1.
       -1   -1    0    0    0  501  0.00000000000E+00  0.00000000000E+00 -0.30565856665E+03  0.30565856669E+03  0.50400001928E-02 0.  1.
    10030    2    1    2    0    0  0.00000000000E+00  0.00000000000E+00  0.51165045400E+03  0.11229675874E+04  0.99963494095E+03 0.  0.
        2    1    3    3  502    0 -0.42095749626E+03 -0.88445047935E+02  0.54176791212E+03  0.69176600868E+03  0.25500000920E-02 0.  1.
       -2    1    3    3    0  502  0.42095749626E+03  0.88445047935E+02 -0.30117458117E+02  0.43120157867E+03  0.25500000920E-02 0. -1.
</event>
<event>
 5   0  0.2353916E-04  0.9995368E+03  0.7818609E-02  0.9309053E-01
        2   -1    0    0  501    0  0.00000000000E+00  0.00000000000E+00  0.62759959384E+03  0.62759959385E+03  0.25500000920E-02 0.  1.
       -2   -1    0    0    0  501  0.00000000000E+00  0.00000000000E+00 -0.39797424846E+03  0.39797424846E+03  0.25500000920E-02 0. -1.
    10030    2    1    2    0    0  0.00000000000E+00  0.00000000000E+00  0.22962534539E+03  0.10255738423E+04  0.99953684614E+03 0.  0.
        4    1    3    3  502    0 -0.33731379249E+03 -0.24573752556E+03  0.39692828629E+03  0.57595243157E+03  0.12699999809E+01 0. -1.
       -4    1    3    3    0  502  0.33731379249E+03  0.24573752556E+03 -0.16730294090E+03  0.44962141075E+03  0.12699999809E+01 0.  1.
</event>
<event>
 5   0  0.2403037E-04  0.9997261E+03  0.7818609E-02  0.9308845E-01
        2   -1    0    0  501    0  0.00000000000E+00  0.00000000000E+00  0.10826550406E+04  0.10826550406E+04  0.25500000920E-02 0. -1.
       -2   -1    0    0    0  501  0.00000000000E+00  0.00000000000E+00 -0.23078732947E+03  0.23078732948E+03  0.25500000920E-02 0.  1.
    10030    2    1    2    0    0  0.00000000000E+00  0.00000000000E+00  0.85186771114E+03  0.13134423701E+04  0.99972609363E+03 0.  0.
        1    1    3    3  502    0 -0.26948329754E+03  0.98500699162E+02 -0.11182616447E+03  0.30794273246E+03  0.50400001928E-02 0.  1.
       -1    1    3    3    0  502  0.26948329754E+03 -0.98500699162E+02  0.96369387561E+03  0.10054996376E+04  0.50400001928E-02 0. -1.
</event>
<event>
 5   0  0.9650500E-05  0.1000597E+04  0.7818609E-02  0.9307890E-01
       -3   -1    0    0    0  501  0.00000000000E+00  0.00000000000E+00  0.83173408607E+03  0.83173409220E+03  0.10100000352E+00 0.  1.
        3   -1    0    0  501    0  0.00000000000E+00  0.00000000000E+00 -0.30093570959E+03  0.30093572654E+03  0.10100000352E+00 0. -1.
    10030    2    1    2    0    0  0.00000000000E+00  0.00000000000E+00  0.53079837649E+03  0.11326698187E+04  0.10005968228E+04 0.  0.
        5    1    3    3  502    0 -0.39303547783E+03  0.16892328830E+03 -0.28187929023E+02  0.42875239183E+03  0.46999998093E+01 0. -1.
       -5    1    3    3    0  502  0.39303547783E+03 -0.16892328830E+03  0.55898630551E+03  0.70391742691E+03  0.46999998093E+01 0.  1.
</event>
<event>
 5   0  0.2353916E-04  0.9998870E+03  0.7818609E-02  0.9308669E-01
       -2   -1    0    0    0  501  0.00000000000E+00  0.00000000000E+00  0.88672404198E+02  0.88672404235E+02  0.25500000920E-02 0.  1.
        2   -1    0    0  501    0  0.00000000000E+00  0.00000000000E+00 -0.28187292218E+04  0.28187292218E+04  0.25500000920E-02 0. -1.
    10030    2    1    2    0    0  0.00000000000E+00  0.00000000000E+00 -0.27300568176E+04  0.29074016261E+04  0.99988698749E+03 0.  0.
        4    1    3    3  502    0  0.18063531481E+03  0.46513125644E+03 -0.12746694874E+04  0.13688535779E+04  0.12699999809E+01 0. -1.
       -4    1    3    3    0  502 -0.18063531481E+03 -0.46513125644E+03 -0.14553873302E+04  0.15385480482E+04  0.12699999809E+01 0.  1.
</event>
<event>
 5   0  0.1506454E-04  0.9989863E+03  0.7818609E-02  0.9309657E-01
        1   -1    0    0  501    0  0.00000000000E+00  0.00000000000E+00  0.73674892917E+03  0.73674892918E+03  0.50400001928E-02 0.  1.
       -1   -1    0    0    0  501  0.00000000000E+00  0.00000000000E+00 -0.33864098543E+03  0.33864098547E+03  0.50400001928E-02 0. -1.
    10030    2    1    2    0    0  0.00000000000E+00  0.00000000000E+00  0.39810794374E+03  0.10753899146E+04  0.99898625299E+03 0.  0.
        3    1    3    3  502    0 -0.40881547769E+03 -0.12281987649E+03  0.47827285090E+03  0.64106142215E+03  0.10100000352E+00 0.  1.
       -3    1    3    3    0  502  0.40881547769E+03  0.12281987649E+03 -0.80164907162E+02  0.43432849250E+03  0.10100000352E+00 0. -1.
</event>
<event>
 5   0  0.2473312E-04  0.9974826E+03  0.7818609E-02  0.9311310E-01
        2   -1    0    0  501    0  0.00000000000E+00  0.00000000000E+00  0.17421201465E+04  0.17421201465E+04  0.25500000920E-02 0.  1.
       -2   -1    0    0    0  501  0.00000000000E+00  0.00000000000E+00 -0.14278170044E+03  0.14278170046E+03  0.25500000920E-02 0. -1.
    10030    2    1    2    0    0  0.00000000000E+00  0.00000000000E+00  0.15993384461E+04  0.18849018470E+04  0.99748258512E+03 0.  0.
        5    1    3    3  502    0  0.18297856580E+03 -0.41155475648E+03  0.39498954245E+03  0.59908038006E+03  0.46999998093E+01 0.  1.
       -5    1    3    3    0  502 -0.18297856580E+03  0.41155475648E+03  0.12043489036E+04  0.12858214669E+04  0.46999998093E+01 0. -1.
</event>
<event>
 5   0  0.1506454E-04  0.9993963E+03  0.7818609E-02  0.9309207E-01
        1   -1    0    0  501    0  0.00000000000E+00  0.00000000000E+00  0.12105467560E+04  0.12105467560E+04  0.50400001928E-02 0.  1.
       -1   -1    0    0    0  501  0.00000000000E+00  0.00000000000E+00 -0.20626896051E+03  0.20626896057E+03  0.50400001928E-02 0. -1.
    10030    2    1    2    0    0  0.00000000000E+00  0.00000000000E+00  0.10042777955E+04  0.14168157166E+04  0.99939625985E+03 0.  0.
        3    1    3    3  502    0  0.10854873071E+03  0.48191918305E+03  0.39539580348E+03  0.63274542870E+03  0.10100000352E+00 0. -1.
       -3    1    3    3    0  502 -0.10854873071E+03 -0.48191918305E+03  0.60888199200E+03  0.78407028786E+03  0.10100000352E+00 0.  1.
</event>
<event>
 5   0  0.1506454E-04  0.9999920E+03  0.7818609E-02  0.9308554E-01
       -1   -1    0    0    0  501  0.00000000000E+00  0.00000000000E+00  0.50232763900E+03  0.50232763903E+03  0.50400001928E-02 0.  1.
        1   -1    0    0  501    0  0.00000000000E+00  0.00000000000E+00 -0.49767520111E+03  0.49767520114E+03  0.50400001928E-02 0. -1.
    10030    2    1    2    0    0  0.00000000000E+00  0.00000000000E+00  0.46524378890E+01  0.10000028402E+04  0.99999201755E+03 0.  0.
        3    1    3    3  502    0 -0.29240657243E+03  0.30086371077E+03  0.27431339469E+03  0.50126681993E+03  0.10100000352E+00 0.  1.
       -3    1    3    3    0  502  0.29240657243E+03 -0.30086371077E+03 -0.26966095680E+03  0.49873602024E+03  0.10100000352E+00 0. -1.
</event>
<event>
 5   0  0.2484904E-04  0.9999347E+03  0.7818609E-02  0.9308616E-01
        2   -1    0    0  501    0  0.00000000000E+00  0.00000000000E+00  0.75693061387E+03  0.75693061388E+03  0.25500000920E-02 0.  1.
       -2   -1    0    0    0  501  0.00000000000E+00  0.00000000000E+00 -0.33023810600E+03  0.33023810601E+03  0.25500000920E-02 0. -1.
    10030    2    1    2    0    0  0.00000000000E+00  0.00000000000E+00  0.42669250787E+03  0.10871687199E+04  0.99993466248E+03 0.  0.
        3    1    3    3  502    0  0.46496206052E+03  0.12132652380E+03  0.36343842856E+03  0.60249260963E+03  0.10100000352E+00 0.  1.
       -3    1    3    3    0  502 -0.46496206052E+03 -0.12132652380E+03  0.63254079319E+02  0.48467611026E+03  0.10100000352E+00 0. -1.
</event>
<event>
 5   0  0.1453863E-04  0.9999911E+03  0.7818609E-02  0.9308555E-01
        1   -1    0    0  501    0  0.00000000000E+00  0.00000000000E+00  0.56056857891E+03  0.56056857894E+03  0.50400001928E-02 0. -1.
       -1   -1    0    0    0  501  0.00000000000E+00  0.00000000000E+00 -0.44596778646E+03  0.44596778649E+03  0.50400001928E-02 0.  1.
    10030    2    1    2    0    0  0.00000000000E+00  0.00000000000E+00  0.11460079245E+03  0.10065363654E+04  0.99999105661E+03 0.  0.
        1    1    3    3  502    0 -0.24915586963E+03  0.21910002839E+03 -0.31919609010E+03  0.46040157882E+03  0.50400001928E-02 0.  1.
       -1    1    3    3    0  502  0.24915586963E+03 -0.21910002839E+03  0.43379688255E+03  0.54613478661E+03  0.50400001928E-02 0. -1.
</event>
<event>
 5   0  0.1414165E-04  0.9997612E+03  0.7818609E-02  0.9308807E-01
       -1   -1    0    0    0  501  0.00000000000E+00  0.00000000000E+00  0.10024128179E+03  0.10024128192E+03  0.50400001928E-02 0. -1.
        1   -1    0    0  501    0  0.00000000000E+00  0.00000000000E+00 -0.24927916377E+04  0.24927916377E+04  0.50400001928E-02 0.  1.
    10030    2    1    2    0    0  0.00000000000E+00  0.00000000000E+00 -0.23925503559E+04  0.25930329196E+04  0.99976122984E+03 0.  0.
        4    1    3    3  502    0  0.23338368660E+03 -0.43567192963E+03 -0.13903843730E+04  0.14756179360E+04  0.12699999809E+01 0. -1.
       -4    1    3    3    0  502 -0.23338368660E+03  0.43567192963E+03 -0.10021659829E+04  0.11174149836E+04  0.12699999809E+01 0.  1.
</event>
<event>
 5   0  0.1430675E-04  0.1000130E+04  0.7818609E-02  0.9308402E-01
       -1   -1    0    0    0  501  0.00000000000E+00  0.00000000000E+00  0.33724043915E+03  0.33724043919E+03  0.50400001928E-02 0. -1.
        1   -1    0    0  501    0  0.00000000000E+00  0.00000000000E+00 -0.74150347019E+03  0.74150347021E+03  0.50400001928E-02 0.  1.
    10030    2    1    2    0    0  0.00000000000E+00  0.00000000000E+00 -0.40426303105E+03  0.10787439094E+04  0.10001299035E+04 0.  0.
        5    1    3    3  502    0  0.94767976774E+02  0.44061241459E+00  0.32744175141E+03  0.34091253149E+03  0.46999998093E+01 0. -1.
       -5    1    3    3    0  502 -0.94767976774E+02 -0.44061241459E+00 -0.73170478246E+03  0.73783137791E+03  0.46999998093E+01 0.  1.
</event>
<event>
 5   0  0.1414165E-04  0.1000025E+04  0.7818609E-02  0.9308517E-01
        1   -1    0    0  501    0  0.00000000000E+00  0.00000000000E+00  0.96656419840E+03  0.96656419842E+03  0.50400001928E-02 0.  1.
       -1   -1    0    0    0  501  0.00000000000E+00  0.00000000000E+00 -0.25866110462E+03  0.25866110467E+03  0.50400001928E-02 0. -1.
    10030    2    1    2    0    0  0.00000000000E+00  0.00000000000E+00  0.70790309379E+03  0.12252253031E+04  0.10000251262E+04 0.  0.
        4    1    3    3  502    0  0.31160829394E+03 -0.12096087739E+03  0.80955209732E+03  0.87584671826E+03  0.12699999809E+01 0.  1.
       -4    1    3    3    0  502 -0.31160829394E+03  0.12096087739E+03 -0.10164900354E+03  0.34937858482E+03  0.12699999809E+01 0. -1.
</event>
<event>
 5   0  0.1453863E-04  0.1000128E+04  0.7818609E-02  0.9308404E-01
        1   -1    0    0  501    0  0.00000000000E+00  0.00000000000E+00  0.41094549733E+03  0.41094549736E+03  0.50400001928E-02 0. -1.
       -1   -1    0    0    0  501  0.00000000000E+00  0.00000000000E+00 -0.60850902551E+03  0.60850902553E+03  0.50400001928E-02 0.  1.
    10030    2    1    2    0    0  0.00000000000E+00  0.00000000000E+00 -0.19756352818E+03  0.10194545229E+04  0.10001280801E+04 0.  0.
        1    1    3    3  502    0  0.45169352498E+03 -0.13040536708E+03 -0.27246046173E+03  0.54338504167E+03  0.50400001928E-02 0.  1.
       -1    1    3    3    0  502 -0.45169352498E+03  0.13040536708E+03  0.74896933542E+02  0.47606948123E+03  0.50400001928E-02 0. -1.
</event>
<event>
 5   0  0.2353916E-04  0.1000441E+04  0.7818609E-02  0.9308061E-01
       -2   -1    0    0    0  501  0.00000000000E+00  0.00000000000E+00  0.19698977641E+03  0.19698977642E+03  0.25500000920E-02 0.  1.
        2   -1    0    0  501    0  0.00000000000E+00  0.00000000000E+00 -0.12702215766E+04  0.12702215766E+04  0.25500000920E-02 0. -1.
    10030    2    1    2    0    0  0.00000000000E+00  0.00000000000E+00 -0.10732318002E+04  0.14672113530E+04  0.10004412314E+04 0.  0.
        4    1    3    3  502    0 -0.44677023853E+03 -0.91248823334E+02 -0.83820462470E+03  0.95421098273E+03  0.12699999809E+01 0. -1.
       -4    1    3    3    0  502  0.44677023853E+03  0.91248823334E+02 -0.23502717548E+03  0.51300037028E+03  0.12699999809E+01 0.  1.
</event>
<event>
 5   0  0.1414165E-04  0.1000530E+04  0.7818609E-02  0.9307964E-01
       -1   -1    0    0    0  501  0.00000000000E+00  0.00000000000E+00  0.37901893978E+03  0.37901893981E+03  0.50400001928E-02 0.  1.
        1   -1    0    0  501    0  0.00000000000E+00  0.00000000000E+00 -0.66029718714E+03  0.66029718716E+03  0.50400001928E-02 0. -1.
    10030    2    1    2    0    0  0.00000000000E+00  0.00000000000E+00 -0.28127824736E+03  0.10393161270E+04  0.10005301391E+04 0.  0.
        4    1    3    3  502    0  0.19980704002E+02  0.71772284858E+02 -0.65450058149E+03  0.65872840646E+03  0.12699999809E+01 0. -1.
       -4    1    3    3    0  502 -0.19980704002E+02 -0.71772284858E+02  0.37322233413E+03  0.38058772051E+03  0.12699999809E+01 0.  1.
</event>
<event>
 5   0  0.1414165E-04  0.1001692E+04  0.7818609E-02  0.9306691E-01
       -1   -1    0    0    0  501  0.00000000000E+00  0.00000000000E+00  0.43170147703E+03  0.43170147706E+03  0.50400001928E-02 0. -1.
        1   -1    0    0  501    0  0.00000000000E+00  0.00000000000E+00 -0.58106473014E+03  0.58106473016E+03  0.50400001928E-02 0.  1.
    10030    2    1    2    0    0  0.00000000000E+00  0.00000000000E+00 -0.14936325311E+03  0.10127662072E+04  0.10016915738E+04 0.  0.
        4    1    3    3  502    0  0.10655741473E+03  0.11237797062E+03 -0.55624746955E+03  0.57740466849E+03  0.12699999809E+01 0.  1.
       -4    1    3    3    0  502 -0.10655741473E+03 -0.11237797062E+03  0.40688421644E+03  0.43536153873E+03  0.12699999809E+01 0. -1.
</event>
<event>
 5   0  0.1506454E-04  0.1000972E+04  0.7818609E-02  0.9307479E-01
       -1   -1    0    0    0  501  0.00000000000E+00  0.00000000000E+00  0.27789519232E+03  0.27789519236E+03  0.50400001928E-02 0.  1.
        1   -1    0    0  501    0  0.00000000000E+00  0.00000000000E+00 -0.90136942060E+03  0.90136942062E+03  0.50400001928E-02 0. -1.
    10030    2    1    2    0    0  0.00000000000E+00  0.00000000000E+00 -0.62347422829E+03  0.11792646130E+04  0.10009719847E+04 0.  0.
        3    1    3    3  502    0 -0.38400210987E+03 -0.50576798982E+02 -0.68516677501E+03  0.78706362688E+03  0.10100000352E+00 0. -1.
       -3    1    3    3    0  502  0.38400210987E+03  0.50576798982E+02  0.61692546717E+02  0.39220098610E+03  0.10100000352E+00 0.  1.
</event>
<event>
 5   0  0.1506454E-04  0.9998846E+03  0.7818609E-02  0.9308671E-01
        1   -1    0    0  501    0  0.00000000000E+00  0.00000000000E+00  0.92335371948E+03  0.92335371949E+03  0.50400001928E-02 0. -1.
       -1   -1    0    0    0  501  0.00000000000E+00  0.00000000000E+00 -0.27068967520E+03  0.27068967525E+03  0.50400001928E-02 0.  1.
    10030    2    1    2    0    0  0.00000000000E+00  0.00000000000E+00  0.65266404427E+03  0.11940433947E+04  0.99988463026E+03 0.  0.
        3    1    3    3  502    0  0.68884383073E+02  0.26334467876E+03  0.82710108416E+03  0.87074203509E+03  0.10100000352E+00 0. -1.
       -3    1    3    3    0  502 -0.68884383073E+02 -0.26334467876E+03 -0.17443703989E+03  0.32330135965E+03  0.10100000352E+00 0.  1.
</event>
<event>
 5   0  0.9650500E-05  0.9998867E+03  0.7818609E-02  0.9308669E-01
       -3   -1    0    0    0  501  0.00000000000E+00  0.00000000000E+00  0.21369204578E+03  0.21369206964E+03  0.10100000352E+00 0. -1.
        3   -1    0    0  501    0  0.00000000000E+00  0.00000000000E+00 -0.11696425616E+04  0.11696425660E+04  0.10100000352E+00 0.  1.
    10030    2    1    2    0    0  0.00000000000E+00  0.00000000000E+00 -0.95595051583E+03  0.13833346356E+04  0.99988665626E+03 0.  0.
        5    1    3    3  502    0  0.20466333534E+03  0.72522107091E+01  0.15296596046E+03  0.25565670429E+03  0.46999998093E+01 0. -1.
       -5    1    3    3    0  502 -0.20466333534E+03 -0.72522107091E+01 -0.11089164763E+04  0.11276779313E+04  0.46999998093E+01 0.  1.
</event>
<event>
 5   0  0.2353916E-04  0.1000493E+04  0.7818609E-02  0.9308004E-01
       -2   -1    0    0    0  501  0.00000000000E+00  0.00000000000E+00  0.16140127436E+03  0.16140127438E+03  0.25500000920E-02 0.  1.
        2   -1    0    0  501    0  0.00000000000E+00  0.00000000000E+00 -0.15504630966E+04  0.15504630966E+04  0.25500000920E-02 0. -1.
    10030    2    1    2    0    0  0.00000000000E+00  0.00000000000E+00 -0.13890618223E+04  0.17118643710E+04  0.10004933177E+04 0.  0.
        4    1    3    3  502    0  0.24377013013E+03 -0.19374860114E+03 -0.13644182133E+04  0.13995002931E+04  0.12699999809E+01 0. -1.
       -4    1    3    3    0  502 -0.24377013013E+03  0.19374860114E+03 -0.24643608961E+02  0.31236407788E+03  0.12699999809E+01 0.  1.
</event>
<event>
 5   0  0.1461334E-04  0.1000244E+04  0.7818609E-02  0.9308277E-01
       -1   -1    0    0    0  501  0.00000000000E+00  0.00000000000E+00  0.29942455137E+03  0.29942455141E+03  0.50400001928E-02 0.  1.
        1   -1    0    0  501    0  0.00000000000E+00  0.00000000000E+00 -0.83534288915E+03  0.83534288916E+03  0.50400001928E-02 0. -1.
    10030    2    1    2    0    0  0.00000000000E+00  0.00000000000E+00 -0.53591833778E+03  0.11347674406E+04  0.10002443099E+04 0.  0.
        2    1    3    3  502    0 -0.74433829957E+02  0.47740532933E+03 -0.41441798043E+03  0.63655204502E+03  0.25500000920E-02 0. -1.
       -2    1    3    3    0  502  0.74433829957E+02 -0.47740532933E+03 -0.12150035735E+03  0.49821539554E+03  0.25500000920E-02 0.  1.
</event>
<event>
 5   0  0.1414165E-04  0.1000194E+04  0.7818609E-02  0.9308332E-01
        1   -1    0    0  501    0  0.00000000000E+00  0.00000000000E+00  0.15153208144E+04  0.15153208144E+04  0.50400001928E-02 0.  1.
       -1   -1    0    0    0  501  0.00000000000E+00  0.00000000000E+00 -0.16504547655E+03  0.16504547663E+03  0.50400001928E-02 0. -1.
    10030    2    1    2    0    0  0.00000000000E+00  0.00000000000E+00  0.13502753378E+04  0.16803662910E+04  0.10001936733E+04 0.  0.
        4    1    3    3  502    0 -0.32515069317E+03  0.38834244178E+02  0.40126292744E+02  0.32991332810E+03  0.12699999809E+01 0. -1.
       -4    1    3    3    0  502  0.32515069317E+03 -0.38834244178E+02  0.13101490451E+04  0.13504529629E+04  0.12699999809E+01 0.  1.
</event>
<event>
 5   0  0.2353916E-04  0.9999337E+03  0.7818609E-02  0.9308617E-01
        2   -1    0    0  501    0  0.00000000000E+00  0.00000000000E+00  0.12135853535E+04  0.12135853535E+04  0.25500000920E-02 0.  1.
       -2   -1    0    0    0  501  0.00000000000E+00  0.00000000000E+00 -0.20597386559E+03  0.20597386560E+03  0.25500000920E-02 0. -1.
    10030    2    1    2    0    0  0.00000000000E+00  0.00000000000E+00  0.10076114880E+04  0.14195592192E+04  0.99993373081E+03 0.  0.
        4    1    3    3  502    0  0.37261659783E+03  0.71827596869E+02  0.41680964277E+02  0.38176072131E+03  0.12699999809E+01 0. -1.
       -4    1    3    3    0  502 -0.37261659783E+03 -0.71827596869E+02  0.96593052368E+03  0.10377984978E+04  0.12699999809E+01 0.  1.
</event>
<event>
 5   0  0.2473312E-04  0.1000244E+04  0.7818609E-02  0.9308277E-01
        2   -1    0    0  501    0  0.00000000000E+00  0.00000000000E+00  0.56505195516E+03  0.56505195517E+03  0.25500000920E-02 0.  1.
       -2   -1    0    0    0  501  0.00000000000E+00  0.00000000000E+00 -0.44265302465E+03  0.44265302466E+03  0.25500000920E-02 0. -1.
    10030    2    1    2    0    0  0.00000000000E+00  0.00000000000E+00  0.12239893051E+03  0.10077049798E+04  0.10002438844E+04 0.  0.
        5    1    3    3  502    0 -0.35761469890E+03  0.70139977392E+02 -0.28383434541E+03  0.46194362744E+03  0.46999998093E+01 0. -1.
       -5    1    3    3    0  502  0.35761469890E+03 -0.70139977392E+02  0.40623327592E+03  0.54576135239E+03  0.46999998093E+01 0.  1.
</event>
<event>
 5   0  0.1414165E-04  0.9999674E+03  0.7818609E-02  0.9308581E-01
       -1   -1    0    0    0  501  0.00000000000E+00  0.00000000000E+00  0.50166290277E+03  0.50166290280E+03  0.50400001928E-02 0. -1.
        1   -1    0    0  501    0  0.00000000000E+00  0.00000000000E+00 -0.49831011256E+03  0.49831011258E+03  0.50400001928E-02 0.  1.
    10030    2    1    2    0    0  0.00000000000E+00  0.00000000000E+00  0.33527902149E+01  0.99997301538E+03  0.99996739461E+03 0.  0.
        4    1    3    3  502    0  0.25731388330E+03  0.17624198302E+03 -0.38910759934E+03  0.49867625558E+03  0.12699999809E+01 0.  1.
       -4    1    3    3    0  502 -0.25731388330E+03 -0.17624198302E+03  0.39246038956E+03  0.50129675980E+03  0.12699999809E+01 0. -1.
</event>
<event>
 5   0  0.2353916E-04  0.9996893E+03  0.7818609E-02  0.9308886E-01
       -2   -1    0    0    0  501  0.00000000000E+00  0.00000000000E+00  0.39258364387E+03  0.39258364388E+03  0.25500000920E-02 0. -1.
        2   -1    0    0  501    0  0.00000000000E+00  0.00000000000E+00 -0.63641137880E+03  0.63641137881E+03  0.25500000920E-02 0.  1.
    10030    2    1    2    0    0  0.00000000000E+00  0.00000000000E+00 -0.24382773493E+03  0.10289950227E+04  0.99968934794E+03 0.  0.
        4    1    3    3  502    0  0.65548429062E+02  0.47492705559E+03 -0.26744740462E+03  0.54898272453E+03  0.12699999809E+01 0.  1.
       -4    1    3    3    0  502 -0.65548429062E+02 -0.47492705559E+03  0.23619669690E+02  0.48001229816E+03  0.12699999809E+01 0. -1.
</event>
<event>
 5   0  0.2484904E-04  0.9999602E+03  0.7818609E-02  0.9308588E-01
       -2   -1    0    0    0  501  0.00000000000E+00  0.00000000000E+00  0.22003801750E+03  0.22003801751E+03  0.25500000920E-02 0. -1.
        2   -1    0    0  501    0  0.00000000000E+00  0.00000000000E+00 -0.11360769310E+04  0.11360769310E+04  0.25500000920E-02 0.  1.
    10030    2    1    2    0    0  0.00000000000E+00  0.00000000000E+00 -0.91603891351E+03  0.13561149485E+04  0.99996023048E+03 0.  0.
        3    1    3    3  502    0  0.42002630894E+03 -0.26889817208E+03 -0.50600136120E+03  0.71046865863E+03  0.10100000352E+00 0. -1.
       -3    1    3    3    0  502 -0.42002630894E+03  0.26889817208E+03 -0.41003755230E+03  0.64564628989E+03  0.10100000352E+00 0.  1.
</event>
<event>
 5   0  0.1430675E-04  0.9999160E+03  0.7818609E-02  0.9308637E-01
       -1   -1    0    0    0  501  0.00000000000E+00  0.00000000000E+00  0.28031412010E+03  0.28031412014E+03  0.50400001928E-02 0. -1.
        1   -1    0    0  501    0  0.00000000000E+00  0.00000000000E+00 -0.89170669972E+03  0.89170669973E+03  0.50400001928E-02 0.  1.
    10030    2    1    2    0    0  0.00000000000E+00  0.00000000000E+00 -0.61139257962E+03  0.11720208199E+04  0.99991595437E+03 0.  0.
        5    1    3    3  502    0 -0.38064420311E+03  0.15617584119E+03  0.27183508279E+02  0.41236141411E+03  0.46999998093E+01 0. -1.
       -5    1    3    3    0  502  0.38064420311E+03 -0.15617584119E+03 -0.63857608790E+03  0.75965940576E+03  0.46999998093E+01 0.  1.
</event>
<event>
 5   0  0.2503680E-04  0.9998416E+03  0.7818609E-02  0.9308719E-01
       -2   -1    0    0    0  501  0.00000000000E+00  0.00000000000E+00  0.39201588674E+03  0.39201588675E+03  0.25500000920E-02 0.  1.
        2   -1    0    0  501    0  0.00000000000E+00  0.00000000000E+00 -0.63752719426E+03  0.63752719426E+03  0.25500000920E-02 0. -1.
    10030    2    1    2    0    0  0.00000000000E+00  0.00000000000E+00 -0.24551130752E+03  0.10295430810E+04  0.99984156422E+03 0.  0.
        2    1    3    3  502    0  0.27812213436E+03  0.83995879882E+02  0.29616341176E+03  0.41487346978E+03  0.25500000920E-02 0.  1.
       -2    1    3    3    0  502 -0.27812213436E+03 -0.83995879882E+02 -0.54167471928E+03  0.61466961123E+03  0.25500000920E-02 0. -1.
</event>
<event>
 5   0  0.1430675E-04  0.1001198E+04  0.7818609E-02  0.9307232E-01
        1   -1    0    0  501    0  0.00000000000E+00  0.00000000000E+00  0.13028745907E+03  0.13028745917E+03  0.50400001928E-02 0. -1.
       -1   -1    0    0    0  501  0.00000000000E+00  0.00000000000E+00 -0.19234353000E+04  0.19234353000E+04  0.50400001928E-02 0.  1.
    10030    2    1    2    0    0  0.00000000000E+00  0.00000000000E+00 -0.17931478409E+04  0.20537227592E+04  0.10011982781E+04 0.  0.
        5    1    3    3  502    0  0.24435168187E+03 -0.40097657365E+03 -0.54076697630E+03  0.71619897354E+03  0.46999998093E+01 0. -1.
       -5    1    3    3    0  502 -0.24435168187E+03  0.40097657365E+03 -0.12523808646E+04  0.13375237856E+04  0.46999998093E+01 0.  1.
</event>
<event>
 5   0  0.2503680E-04  0.9994293E+03  0.7818609E-02  0.9309171E-01
        2   -1    0    0  501    0  0.00000000000E+00  0.00000000000E+00  0.56373589127E+03  0.56373589127E+03  0.25500000920E-02 0. -1.
       -2   -1    0    0    0  501  0.00000000000E+00  0.00000000000E+00 -0.44296404298E+03  0.44296404299E+03  0.25500000920E-02 0.  1.
    10030    2    1    2    0    0  0.00000000000E+00  0.00000000000E+00  0.12077184829E+03  0.10066999343E+04  0.99942929630E+03 0.  0.
        2    1    3    3  502    0  0.41773351020E+03  0.40154433348E+02 -0.21288285420E+03  0.47056643917E+03  0.25500000920E-02 0.  1.
       -2    1    3    3    0  502 -0.41773351020E+03 -0.40154433348E+02  0.33365470248E+03  0.53613349509E+03  0.25500000920E-02 0. -1.
</event>
<event>
 5   0  0.1506454E-04  0.9990837E+03  0.7818609E-02  0.9309550E-01
       -1   -1    0    0    0  501  0.00000000000E+00  0.00000000000E+00  0.10846720096E+04  0.10846720096E+04  0.50400001928E-02 0. -1.
        1   -1    0    0  501    0  0.00000000000E+00  0.00000000000E+00 -0.23006223116E+03  0.23006223122E+03  0.50400001928E-02 0.  1.
    10030    2    1    2    0    0  0.00000000000E+00  0.00000000000E+00  0.85460977844E+03  0.13147342408E+04  0.99908370551E+03 0.  0.
        3    1    3    3  502    0  0.12096156714E+03 -0.85019248412E+02  0.10552194039E+04  0.10655270873E+04  0.10100000352E+00 0. -1.
       -3    1    3    3    0  502 -0.12096156714E+03  0.85019248412E+02 -0.20060962545E+03  0.24920715349E+03  0.10100000352E+00 0.  1.
</event>
<event>
 5   0  0.2484904E-04  0.1000592E+04  0.7818609E-02  0.9307896E-01
        2   -1    0    0  501    0  0.00000000000E+00  0.00000000000E+00  0.33380924430E+03  0.33380924431E+03  0.25500000920E-02 0.  1.
       -2   -1    0    0    0  501  0.00000000000E+00  0.00000000000E+00 -0.74981792009E+03  0.74981792010E+03  0.25500000920E-02 0. -1.
    10030    2    1    2    0    0  0.00000000000E+00  0.00000000000E+00 -0.41600867579E+03  0.10836271644E+04  0.10005921312E+04 0.  0.
        3    1    3    3  502    0  0.35805736144E+03  0.21419881584E+03  0.90966342259E+02  0.42703757729E+03  0.10100000352E+00 0.  1.
       -3    1    3    3    0  502 -0.35805736144E+03 -0.21419881584E+03 -0.50697501805E+03  0.65658958712E+03  0.10100000352E+00 0. -1.
</event>
<event>
 5   0  0.1461334E-04  0.9991256E+03  0.7818609E-02  0.9309504E-01
       -1   -1    0    0    0  501  0.00000000000E+00  0.00000000000E+00  0.62458764185E+03  0.62458764187E+03  0.50400001928E-02 0.  1.
        1   -1    0    0  501    0  0.00000000000E+00  0.00000000000E+00 -0.39956440034E+03  0.39956440037E+03  0.50400001928E-02 0. -1.
    10030    2    1    2    0    0  0.00000000000E+00  0.00000000000E+00  0.22502324152E+03  0.10241520422E+04  0.99912559091E+03 0.  0.
        2    1    3    3  502    0  0.31675913281E+03  0.27492017562E+03 -0.16566303834E+03  0.45095642079E+03  0.25500000920E-02 0. -1.
       -2    1    3    3    0  502 -0.31675913281E+03 -0.27492017562E+03  0.39068627985E+03  0.57319562145E+03  0.25500000920E-02 0.  1.
</event>
<event>
 5   0  0.1453863E-04  0.9992217E+03  0.7818609E-02  0.9309399E-01
        1   -1    0    0  501    0  0.00000000000E+00  0.00000000000E+00  0.35289631212E+03  0.35289631215E+03  0.50400001928E-02 0. -1.
       -1   -1    0    0    0  501  0.00000000000E+00  0.00000000000E+00 -0.70732109724E+03  0.70732109726E+03  0.50400001928E-02 0.  1.
    10030    2    1    2    0    0  0.00000000000E+00  0.00000000000E+00 -0.35442478513E+03  0.10602174094E+04  0.99922171059E+03 0.  0.
        1    1    3    3  502    0  0.15412096406E+03  0.43745929841E+03 -0.37425556511E+03  0.59597914172E+03  0.50400001928E-02 0.  1.
       -1    1    3    3    0  502 -0.15412096406E+03 -0.43745929841E+03  0.19830779984E+02  0.46423826769E+03  0.50400001928E-02 0. -1.
</event>
<event>
 5   0  0.2503680E-04  0.1000389E+04  0.7818609E-02  0.9308118E-01
        2   -1    0    0  501    0  0.00000000000E+00  0.00000000000E+00  0.40900390949E+03  0.40900390950E+03  0.25500000920E-02 0.  1.
       -2   -1    0    0    0  501  0.00000000000E+00  0.00000000000E+00 -0.61171670385E+03  0.61171670386E+03  0.25500000920E-02 0. -1.
    10030    2    1    2    0    0  0.00000000000E+00  0.00000000000E+00 -0.20271279436E+03  0.10207206134E+04  0.10003889711E+04 0.  0.
        2    1    3    3  502    0  0.37641008087E+03  0.17122797292E+03 -0.38848455349E+03  0.56738330606E+03  0.25500000920E-02 0. -1.
       -2    1    3    3    0  502 -0.37641008087E+03 -0.17122797292E+03  0.18577175913E+03  0.45333730730E+03  0.25500000920E-02 0.  1.
</event>
<event>
 5   0  0.1506454E-04  0.1000253E+04  0.7818609E-02  0.9308267E-01
        1   -1    0    0  501    0  0.00000000000E+00  0.00000000000E+00  0.10729587348E+04  0.10729587348E+04  0.50400001928E-02 0. -1.
       -1   -1    0    0    0  501  0.00000000000E+00  0.00000000000E+00 -0.23311868246E+03  0.23311868252E+03  0.50400001928E-02 0.  1.
    10030    2    1    2    0    0  0.00000000000E+00  0.00000000000E+00  0.83984005236E+03  0.13060774173E+04  0.10002534212E+04 0.  0.
        3    1    3    3  502    0 -0.22467617079E+03  0.44539193156E+03  0.46651454390E+03  0.68300013491E+03  0.10100000352E+00 0.  1.
       -3    1    3    3    0  502  0.22467617079E+03 -0.44539193156E+03  0.37332550846E+03  0.62307728243E+03  0.10100000352E+00 0. -1.
</event>
<event>
 5   0  0.2353916E-04  0.1000062E+04  0.7818609E-02  0.9308477E-01
        2   -1    0    0  501    0  0.00000000000E+00  0.00000000000E+00  0.18735829293E+04  0.18735829293E+04  0.25500000920E-02 0. -1.
       -2   -1    0    0    0  501  0.00000000000E+00  0.00000000000E+00 -0.13345069299E+03  0.13345069301E+03  0.25500000920E-02 0.  1.
    10030    2    1    2    0    0  0.00000000000E+00  0.00000000000E+00  0.17401322363E+04  0.20070336223E+04  0.10000618787E+04 0.  0.
        4    1    3    3  502    0  0.19417368270E+03  0.33414817862E+03  0.15068319586E+04  0.15556036091E+04  0.12699999809E+01 0. -1.
       -4    1    3    3    0  502 -0.19417368270E+03 -0.33414817862E+03  0.23330027770E+03  0.45143001318E+03  0.12699999809E+01 0.  1.
</event>
<event>
 5   0  0.2484904E-04  0.1000345E+04  0.7818609E-02  0.9308167E-01
       -2   -1    0    0    0  501  0.00000000000E+00  0.00000000000E+00  0.34163490292E+03  0.34163490292E+03  0.25500000920E-02 0. -1.
        2   -1    0    0  501    0  0.00000000000E+00  0.00000000000E+00 -0.73227980948E+03  0.73227980948E+03  0.25500000920E-02 0.  1.
    10030    2    1    2    0    0  0.00000000000E+00  0.00000000000E+00 -0.39064490656E+03  0.10739147124E+04  0.10003446239E+04 0.  0.
        3    1    3    3  502    0 -0.52057017661E+02  0.27689949080E+03 -0.63898236347E+03  0.69834213114E+03  0.10100000352E+00 0.  1.
       -3    1    3    3    0  502  0.52057017661E+02 -0.27689949080E+03  0.24833745691E+03  0.37557258127E+03  0.10100000352E+00 0. -1.
</event>
<event>
 5   0  0.2473312E-04  0.1000044E+04  0.7818609E-02  0.9308496E-01
        2   -1    0    0  501    0  0.00000000000E+00  0.00000000000E+00  0.93400366676E+03  0.93400366676E+03  0.25500000920E-02 0.  1.
       -2   -1    0    0    0  501  0.00000000000E+00  0.00000000000E+00 -0.26768848949E+03  0.26768848950E+03  0.25500000920E-02 0. -1.
    10030    2    1    2    0    0  0.00000000000E+00  0.00000000000E+00  0.66631517727E+03  0.12016921563E+04  0.10000440605E+04 0.  0.
        5    1    3    3  502    0  0.15519448592E+03 -0.18826769283E+03 -0.19127208224E+03  0.31005991690E+03  0.46999998093E+01 0. -1.
       -5    1    3    3    0  502 -0.15519448592E+03  0.18826769283E+03  0.85758725951E+03  0.89163223937E+03  0.46999998093E+01 0.  1.
</event>
<event>
 5   0  0.1414165E-04  0.9991983E+03  0.7818609E-02  0.9309425E-01
        1   -1    0    0  501    0  0.00000000000E+00  0.00000000000E+00  0.19889292289E+03  0.19889292295E+03  0.50400001928E-02 0.  1.
       -1   -1    0    0    0  501  0.00000000000E+00  0.00000000000E+00 -0.12549431724E+04  0.12549431724E+04  0.50400001928E-02 0. -1.
    10030    2    1    2    0    0  0.00000000000E+00  0.00000000000E+00 -0.10560502495E+04  0.14538360954E+04  0.99919830999E+03 0.  0.
        4    1    3    3  502    0 -0.20504568096E+03 -0.11948788324E+03  0.11164109166E+03  0.26227167550E+03  0.12699999809E+01 0.  1.
       -4    1    3    3    0  502  0.20504568096E+03  0.11948788324E+03 -0.11676913412E+04  0.11915644199E+04  0.12699999809E+01 0. -1.
</event>
<event>
 5   0  0.1453863E-04  0.1000118E+04  0.7818609E-02  0.9308415E-01
        1   -1    0    0  501    0  0.00000000000E+00  0.00000000000E+00  0.21621223408E+03  0.21621223414E+03  0.50400001928E-02 0. -1.
       -1   -1    0    0    0  501  0.00000000000E+00  0.00000000000E+00 -0.11565440497E+04  0.11565440497E+04  0.50400001928E-02 0.  1.
    10030    2    1    2    0    0  0.00000000000E+00  0.00000000000E+00 -0.94033181564E+03  0.13727562839E+04  0.10001179388E+04 0.  0.
        1    1    3    3  502    0  0.32413717729E+03 -0.35248410178E+03 -0.66788154999E+03  0.82181245826E+03  0.50400001928E-02 0.  1.
       -1    1    3    3    0  502 -0.32413717729E+03  0.35248410178E+03 -0.27245026566E+03  0.55094382562E+03  0.50400001928E-02 0. -1.
</event>
<event>
 5   0  0.1430675E-04  0.1003169E+04  0.7818609E-02  0.9305075E-01
       -1   -1    0    0    0  501  0.00000000000E+00  0.00000000000E+00  0.68648855945E+03  0.68648855947E+03  0.50400001928E-02 0.  1.
        1   -1    0    0  501    0  0.00000000000E+00  0.00000000000E+00 -0.36648426261E+03  0.36648426264E+03  0.50400001928E-02 0. -1.
    10030    2    1    2    0    0  0.00000000000E+00  0.00000000000E+00  0.32000429684E+03  0.10529728221E+04  0.10031694842E+04 0.  0.
        5    1    3    3  502    0  0.68428050213E+02 -0.25075314131E+03  0.61025700089E+03  0.66332136485E+03  0.46999998093E+01 0.  1.
       -5    1    3    3    0  502 -0.68428050213E+02  0.25075314131E+03 -0.29025270405E+03  0.38965145726E+03  0.46999998093E+01 0. -1.
</event>
<event>
 5   0  0.2353916E-04  0.9995017E+03  0.7818609E-02  0.9309092E-01
        2   -1    0    0  501    0  0.00000000000E+00  0.00000000000E+00  0.71748250327E+03  0.71748250327E+03  0.25500000920E-02 0.  1.
       -2   -1    0    0    0  501  0.00000000000E+00  0.00000000000E+00 -0.34809337681E+03  0.34809337682E+03  0.25500000920E-02 0. -1.
    10030    2    1    2    0    0  0.00000000000E+00  0.00000000000E+00  0.36938912646E+03  0.10655758801E+04  0.99950169059E+03 0.  0.
        4    1    3    3  502    0 -0.51150903181E+02  0.48889586481E+03  0.88663736449E+02  0.49949820078E+03  0.12699999809E+01 0. -1.
       -4    1    3    3    0  502  0.51150903181E+02 -0.48889586481E+03  0.28072539001E+03  0.56607767931E+03  0.12699999809E+01 0.  1.
</event>
<event>
 5   0  0.2403037E-04  0.9998933E+03  0.7818609E-02  0.9308662E-01
        2   -1    0    0  501    0  0.00000000000E+00  0.00000000000E+00  0.11313622098E+04  0.11313622098E+04  0.25500000920E-02 0. -1.
       -2   -1    0    0    0  501  0.00000000000E+00  0.00000000000E+00 -0.22092540577E+03  0.22092540579E+03  0.25500000920E-02 0.  1.
    10030    2    1    2    0    0  0.00000000000E+00  0.00000000000E+00  0.91043680398E+03  0.13522876155E+04  0.99989330487E+03 0.  0.
        1    1    3    3  502    0 -0.25576618237E+03  0.38370246335E+03  0.19401083931E+03  0.50028404554E+03  0.50400001928E-02 0. -1.
       -1    1    3    3    0  502  0.25576618237E+03 -0.38370246335E+03  0.71642596467E+03  0.85200357001E+03  0.50400001928E-02 0.  1.
</event>
<event>
 5   0  0.2473312E-04  0.1000518E+04  0.7818609E-02  0.9307977E-01
       -2   -1    0    0    0  501  0.00000000000E+00  0.00000000000E+00  0.16784308810E+03  0.16784308812E+03  0.25500000920E-02 0.  1.
        2   -1    0    0  501    0  0.00000000000E+00  0.00000000000E+00 -0.14910301895E+04  0.14910301895E+04  0.25500000920E-02 0. -1.
    10030    2    1    2    0    0  0.00000000000E+00  0.00000000000E+00 -0.13231871014E+04  0.16588732776E+04  0.10005180887E+04 0.  0.
        5    1    3    3  502    0  0.21398783589E+03 -0.34297370402E+03 -0.17306908732E+03  0.43976897860E+03  0.46999998093E+01 0.  1.
       -5    1    3    3    0  502 -0.21398783589E+03  0.34297370402E+03 -0.11501180141E+04  0.12191042990E+04  0.46999998093E+01 0. -1.
</event>
<event>
 5   0  0.2353916E-04  0.1000139E+04  0.7818609E-02  0.9308393E-01
        2   -1    0    0  501    0  0.00000000000E+00  0.00000000000E+00  0.69787380082E+03  0.69787380082E+03  0.25500000920E-02 0. -1.
       -2   -1    0    0    0  501  0.00000000000E+00  0.00000000000E+00 -0.35833032006E+03  0.35833032006E+03  0.25500000920E-02 0.  1.
    10030    2    1    2    0    0  0.00000000000E+00  0.00000000000E+00  0.33954348076E+03  0.10562041209E+04  0.10001386752E+04 0.  0.
        4    1    3    3  502    0 -0.79863803610E+02 -0.19422458244E+03  0.64904779808E+03  0.68217744953E+03  0.12699999809E+01 0. -1.
       -4    1    3    3    0  502  0.79863803610E+02  0.19422458244E+03 -0.30950431732E+03  0.37402667136E+03  0.12699999809E+01 0.  1.
</event>
<event>
 5   0  0.2503680E-04  0.9997872E+03  0.7818609E-02  0.9308778E-01
       -2   -1    0    0    0  501  0.00000000000E+00  0.00000000000E+00  0.39758433154E+03  0.39758433155E+03  0.25500000920E-02 0. -1.
        2   -1    0    0  501    0  0.00000000000E+00  0.00000000000E+00 -0.62852980852E+03  0.62852980853E+03  0.25500000920E-02 0.  1.
    10030    2    1    2    0    0  0.00000000000E+00  0.00000000000E+00 -0.23094547698E+03  0.10261141401E+04  0.99978718491E+03 0.  0.
        2    1    3    3  502    0 -0.35677048762E+02 -0.25219122998E+03  0.32599384814E+03  0.41369705984E+03  0.25500000920E-02 0. -1.
       -2    1    3    3    0  502  0.35677048762E+02  0.25219122998E+03 -0.55693932512E+03  0.61241708023E+03  0.25500000920E-02 0.  1.
</event>
<event>
 5   0  0.2473312E-04  0.9996261E+03  0.7818609E-02  0.9308955E-01
        2   -1    0    0  501    0  0.00000000000E+00  0.00000000000E+00  0.97557661972E+03  0.97557661973E+03  0.25500000920E-02 0.  1.
       -2   -1    0    0    0  501  0.00000000000E+00  0.00000000000E+00 -0.25606709786E+03  0.25606709787E+03  0.25500000920E-02 0. -1.
    10030    2    1    2    0    0  0.00000000000E+00  0.00000000000E+00  0.71950952186E+03  0.12316437176E+04  0.99962607762E+03 0.  0.
        5    1    3    3  502    0 -0.35889304620E+03 -0.49723290840E+01 -0.68766201810E+02  0.36548573594E+03  0.46999998093E+01 0. -1.
       -5    1    3    3    0  502  0.35889304620E+03  0.49723290840E+01  0.78827572367E+03  0.86615798166E+03  0.46999998093E+01 0.  1.
</event>
<event>
 5   0  0.2473312E-04  0.9975493E+03  0.7818609E-02  0.9311237E-01
        2   -1    0    0  501    0  0.00000000000E+00  0.00000000000E+00  0.23956518835E+03  0.23956518836E+03  0.25500000920E-02 0.  1.
       -2   -1    0    0    0  501  0.00000000000E+00  0.00000000000E+00 -0.10384487241E+04  0.10384487241E+04  0.25500000920E-02 0. -1.
    10030    2    1    2    0    0  0.00000000000E+00  0.00000000000E+00 -0.79888353576E+03  0.12780139125E+04  0.99754932547E+03 0.  0.
        5    1    3    3  502    0  0.15012362393E+03 -0.46923455577E+03 -0.49897597071E+03  0.70122555582E+03  0.46999998093E+01 0. -1.
       -5    1    3    3    0  502 -0.15012362393E+03  0.46923455577E+03 -0.29990756505E+03  0.57678835665E+03  0.46999998093E+01 0.  1.
</event>
<event>
 5   0  0.9650500E-05  0.1000452E+04  0.7818609E-02  0.9308049E-01
       -4   -1    0    0    0  501  0.00000000000E+00  0.00000000000E+00  0.22990502199E+03  0.22990852972E+03  0.12699999809E+01 0. -1.
        4   -1    0    0  501    0  0.00000000000E+00  0.00000000000E+00 -0.10883765711E+04  0.10883773121E+04  0.12699999809E+01 0.  1.
    10030    2    1    2    0    0  0.00000000000E+00  0.00000000000E+00 -0.85847154912E+03  0.13182858418E+04  0.10004519779E+04 0.  0.
        5    1    3    3  502    0  0.17007608001E+03  0.42066553542E+03 -0.15183588723E+03  0.47849931278E+03  0.46999998093E+01 0. -1.
       -5    1    3    3    0  502 -0.17007608001E+03 -0.42066553542E+03 -0.70663566189E+03  0.83978652903E+03  0.46999998093E+01 0.  1.
</event>
<event>
 5   0  0.1461334E-04  0.9999651E+03  0.7818609E-02  0.9308583E-01
       -1   -1    0    0    0  501  0.00000000000E+00  0.00000000000E+00  0.25388887419E+03  0.25388887424E+03  0.50400001928E-02 0.  1.
        1   -1    0    0  501    0  0.00000000000E+00  0.00000000000E+00 -0.98461404557E+03  0.98461404558E+03  0.50400001928E-02 0. -1.
    10030    2    1    2    0    0  0.00000000000E+00  0.00000000000E+00 -0.73072517138E+03  0.12385029198E+04  0.99996510254E+03 0.  0.
        2    1    3    3  502    0 -0.97656085735E+02 -0.13713346740E+03 -0.94845381516E+03  0.96327926296E+03  0.25500000920E-02 0. -1.
       -2    1    3    3    0  502  0.97656085735E+02  0.13713346740E+03  0.21772864378E+03  0.27522365685E+03  0.25500000920E-02 0.  1.
</event>
<event>
 5   0  0.9650500E-05  0.9996239E+03  0.7818609E-02  0.9308957E-01
        4   -1    0    0  501    0  0.00000000000E+00  0.00000000000E+00  0.29727117021E+03  0.29727388304E+03  0.12699999809E+01 0. -1.
       -4   -1    0    0    0  501  0.00000000000E+00  0.00000000000E+00 -0.84034355033E+03  0.84034450999E+03  0.12699999809E+01 0.  1.
    10030    2    1    2    0    0  0.00000000000E+00  0.00000000000E+00 -0.54307238012E+03  0.11376183930E+04  0.99962392835E+03 0.  0.
        2    1    3    3  502    0  0.33515632061E+03 -0.31746331482E+03 -0.53519994182E+02  0.46473337010E+03  0.25500000920E-02 0.  1.
       -2    1    3    3    0  502 -0.33515632061E+03  0.31746331482E+03 -0.48955238594E+03  0.67288502293E+03  0.25500000920E-02 0. -1.
</event>
<event>
 5   0  0.1506454E-04  0.1000034E+04  0.7818609E-02  0.9308508E-01
       -1   -1    0    0    0  501  0.00000000000E+00  0.00000000000E+00  0.25303557813E+03  0.25303557818E+03  0.50400001928E-02 0. -1.
        1   -1    0    0  501    0  0.00000000000E+00  0.00000000000E+00 -0.98807022431E+03  0.98807022432E+03  0.50400001928E-02 0.  1.
    10030    2    1    2    0    0  0.00000000000E+00  0.00000000000E+00 -0.73503464618E+03  0.12411058025E+04  0.10000338404E+04 0.  0.
        3    1    3    3  502    0  0.34382957854E+01  0.31230324939E+03  0.11708872376E+03  0.33354897824E+03  0.10100000352E+00 0. -1.
       -3    1    3    3    0  502 -0.34382957854E+01 -0.31230324939E+03 -0.85212336994E+03  0.90755682426E+03  0.10100000352E+00 0.  1.
</event>
<event>
 5   0  0.2484904E-04  0.9992545E+03  0.7818609E-02  0.9309363E-01
       -2   -1    0    0    0  501  0.00000000000E+00  0.00000000000E+00  0.36835122515E+03  0.36835122516E+03  0.25500000920E-02 0.  1.
        2   -1    0    0  501    0  0.00000000000E+00  0.00000000000E+00 -0.67768848377E+03  0.67768848378E+03  0.25500000920E-02 0. -1.
    10030    2    1    2    0    0  0.00000000000E+00  0.00000000000E+00 -0.30933725863E+03  0.10460397089E+04  0.99925448865E+03 0.  0.
        3    1    3    3  502    0  0.40657933473E+03 -0.15630250866E+03  0.10151403615E+03  0.44726092986E+03  0.10100000352E+00 0.  1.
       -3    1    3    3    0  502 -0.40657933473E+03  0.15630250866E+03 -0.41085129478E+03  0.59877877907E+03  0.10100000352E+00 0. -1.
</event>
<event>
 5   0  0.1453863E-04  0.9999898E+03  0.7818609E-02  0.9308556E-01
       -1   -1    0    0    0  501  0.00000000000E+00  0.00000000000E+00  0.49133898671E+03  0.49133898674E+03  0.50400001928E-02 0. -1.
        1   -1    0    0  501    0  0.00000000000E+00  0.00000000000E+00 -0.50880332198E+03  0.50880332201E+03  0.50400001928E-02 0.  1.
    10030    2    1    2    0    0  0.00000000000E+00  0.00000000000E+00 -0.17464335271E+02  0.10001423087E+04  0.99998981732E+03 0.  0.
        1    1    3    3  502    0  0.35263940497E+03  0.34684423157E+03 -0.81814766977E+02  0.50134731178E+03  0.50400001928E-02 0. -1.
       -1    1    3    3    0  502 -0.35263940497E+03 -0.34684423157E+03  0.64350431706E+02  0.49879499696E+03  0.50400001928E-02 0.  1.
</event>
<event>
 5   0  0.1461334E-04  0.9998236E+03  0.7818609E-02  0.9308738E-01
        1   -1    0    0  501    0  0.00000000000E+00  0.00000000000E+00  0.74558597225E+03  0.74558597227E+03  0.50400001928E-02 0.  1.
       -1   -1    0    0    0  501  0.00000000000E+00  0.00000000000E+00 -0.33518848508E+03  0.33518848511E+03  0.50400001928E-02 0. -1.
    10030    2    1    2    0    0  0.00000000000E+00  0.00000000000E+00  0.41039748717E+03  0.10807744574E+04  0.99982364958E+03 0.  0.
        2    1    3    3  502    0 -0.23228164583E+03  0.28247594547E+03 -0.16322550978E+03  0.40048719056E+03  0.25500000920E-02 0. -1.
       -2    1    3    3    0  502  0.23228164583E+03 -0.28247594547E+03  0.57362299696E+03  0.68028726682E+03  0.25500000920E-02 0.  1.
</event>
<event>
 5   0  0.1430675E-04  0.9999350E+03  0.7818609E-02  0.9308616E-01
        1   -1    0    0  501    0  0.00000000000E+00  0.00000000000E+00  0.39546622977E+03  0.39546622980E+03  0.50400001928E-02 0. -1.
       -1   -1    0    0    0  501  0.00000000000E+00  0.00000000000E+00 -0.63208301429E+03  0.63208301431E+03  0.50400001928E-02 0.  1.
    10030    2    1    2    0    0  0.00000000000E+00  0.00000000000E+00 -0.23661678452E+03  0.10275492441E+04  0.99993497106E+03 0.  0.
        5    1    3    3  502    0 -0.20823362724E+03 -0.24434764388E+03  0.27552254283E+03  0.42308601512E+03  0.46999998093E+01 0. -1.
       -5    1    3    3    0  502  0.20823362724E+03  0.24434764388E+03 -0.51213932734E+03  0.60446322899E+03  0.46999998093E+01 0.  1.
</event>
<event>
 5   0  0.2503680E-04  0.9999324E+03  0.7818609E-02  0.9308619E-01
       -2   -1    0    0    0  501  0.00000000000E+00  0.00000000000E+00  0.16900330603E+03  0.16900330605E+03  0.25500000920E-02 0.  1.
        2   -1    0    0  501    0  0.00000000000E+00  0.00000000000E+00 -0.14790610560E+04  0.14790610560E+04  0.25500000920E-02 0. -1.
    10030    2    1    2    0    0  0.00000000000E+00  0.00000000000E+00 -0.13100577499E+04  0.16480643620E+04  0.99993241431E+03 0.  0.
        2    1    3    3  502    0 -0.48138881821E+03  0.12972850032E+03 -0.71673165768E+03  0.87308014937E+03  0.25500000920E-02 0.  1.
       -2    1    3    3    0  502  0.48138881821E+03 -0.12972850032E+03 -0.59332609225E+03  0.77498421264E+03  0.25500000920E-02 0. -1.
</event>
<event>
 5   0  0.2353916E-04  0.9997129E+03  0.7818609E-02  0.9308860E-01
        2   -1    0    0  501    0  0.00000000000E+00  0.00000000000E+00  0.41463530185E+03  0.41463530186E+03  0.25500000920E-02 0. -1.
       -2   -1    0    0    0  501  0.00000000000E+00  0.00000000000E+00 -0.60259336870E+03  0.60259336871E+03  0.25500000920E-02 0.  1.
    10030    2    1    2    0    0  0.00000000000E+00  0.00000000000E+00 -0.18795806685E+03  0.10172286706E+04  0.99971292546E+03 0.  0.
        4    1    3    3  502    0 -0.37694940806E+03  0.10673456410E+03 -0.40985613983E+03  0.56698041560E+03  0.12699999809E+01 0.  1.
       -4    1    3    3    0  502  0.37694940806E+03 -0.10673456410E+03  0.22189807298E+03  0.45024825497E+03  0.12699999809E+01 0. -1.
</event>
<event>
 5   0  0.1506454E-04  0.9994614E+03  0.7818609E-02  0.9309136E-01
        1   -1    0    0  501    0  0.00000000000E+00  0.00000000000E+00  0.42071360069E+03  0.42071360072E+03  0.50400001928E-02 0.  1.
       -1   -1    0    0    0  501  0.00000000000E+00  0.00000000000E+00 -0.59358849478E+03  0.59358849481E+03  0.50400001928E-02 0. -1.
    10030    2    1    2    0    0  0.00000000000E+00  0.00000000000E+00 -0.17287489410E+03  0.10143020955E+04  0.99946136092E+03 0.  0.
        3    1    3    3  502    0  0.38957861979E+03 -0.16547678976E+03 -0.35604490850E+03  0.55310221118E+03  0.10100000352E+00 0. -1.
       -3    1    3    3    0  502 -0.38957861979E+03  0.16547678976E+03  0.18317001440E+03  0.46119988435E+03  0.10100000352E+00 0.  1.
</event>
<event>
 5   0  0.2503680E-04  0.9987925E+03  0.7818609E-02  0.9309870E-01
        2   -1    0    0  501    0  0.00000000000E+00  0.00000000000E+00  0.17935541497E+04  0.17935541497E+04  0.25500000920E-02 0. -1.
       -2   -1    0    0    0  501  0.00000000000E+00  0.00000000000E+00 -0.13905162012E+03  0.13905162014E+03  0.25500000920E-02 0.  1.
    10030    2    1    2    0    0  0.00000000000E+00  0.00000000000E+00  0.16545025296E+04  0.19326057698E+04  0.99879249158E+03 0.  0.
        2    1    3    3  502    0  0.23540216316E+03 -0.23335514331E+03  0.10448414034E+03  0.34754242463E+03  0.25500000920E-02 0.  1.
       -2    1    3    3    0  502 -0.23540216316E+03  0.23335514331E+03  0.15500183892E+04  0.15850633452E+04  0.25500000920E-02 0. -1.
</event>
<event>
 5   0  0.1430675E-04  0.9998096E+03  0.7818609E-02  0.9308754E-01
       -1   -1    0    0    0  501  0.00000000000E+00  0.00000000000E+00  0.28881633093E+03  0.28881633097E+03  0.50400001928E-02 0. -1.
        1   -1    0    0  501    0  0.00000000000E+00  0.00000000000E+00 -0.86527246031E+03  0.86527246033E+03  0.50400001928E-02 0.  1.
    10030    2    1    2    0    0  0.00000000000E+00  0.00000000000E+00 -0.57645612938E+03  0.11540887913E+04  0.99980961643E+03 0.  0.
        5    1    3    3  502    0  0.36042559628E+03 -0.25741184875E+03 -0.55575698836E+03  0.71067249169E+03  0.46999998093E+01 0.  1.
       -5    1    3    3    0  502 -0.36042559628E+03  0.25741184875E+03 -0.20699141023E+02  0.44341629962E+03  0.46999998093E+01 0. -1.
</event>
<event>
 5   0  0.9650500E-05  0.9997068E+03  0.7818609E-02  0.9308866E-01
       -3   -1    0    0    0  501  0.00000000000E+00  0.00000000000E+00  0.24136756199E+04  0.24136756220E+04  0.10100000352E+00 0.  1.
        3   -1    0    0  501    0  0.00000000000E+00  0.00000000000E+00 -0.10351570947E+03  0.10351575875E+03  0.10100000352E+00 0. -1.
    10030    2    1    2    0    0  0.00000000000E+00  0.00000000000E+00  0.23101599104E+04  0.25171913808E+04  0.99970677483E+03 0.  0.
        2    1    3    3  502    0  0.13331179820E+03 -0.54051673191E+02 -0.50269035374E+02  0.15238305299E+03  0.25500000920E-02 0. -1.
       -2    1    3    3    0  502 -0.13331179820E+03  0.54051673191E+02  0.23604289458E+04  0.23648083278E+04  0.25500000920E-02 0.  1.
</event>
<event>
 5   0  0.1414165E-04  0.9996489E+03  0.7818609E-02  0.9308930E-01
        1   -1    0    0  501    0  0.00000000000E+00  0.00000000000E+00  0.13354258949E+04  0.13354258949E+04  0.50400001928E-02 0. -1.
       -1   -1    0    0    0  501  0.00000000000E+00  0.00000000000E+00 -0.18707476023E+03  0.18707476029E+03  0.50400001928E-02 0.  1.
    10030    2    1    2    0    0  0.00000000000E+00  0.00000000000E+00  0.11483511347E+04  0.15225006552E+04  0.99964889666E+03 0.  0.
        4    1    3    3  502    0  0.21163452038E+03 -0.21201483490E+03  0.11835484934E+04  0.12208718645E+04  0.12699999809E+01 0. -1.
       -4    1    3    3    0  502 -0.21163452038E+03  0.21201483490E+03 -0.35197358696E+02  0.30162879072E+03  0.12699999809E+01 0.  1.
</event>
<event>
 5   0  0.1461334E-04  0.1000363E+04  0.7818609E-02  0.9308147E-01
        1   -1    0    0  501    0  0.00000000000E+00  0.00000000000E+00  0.80247976724E+03  0.80247976725E+03  0.50400001928E-02 0.  1.
       -1   -1    0    0    0  501  0.00000000000E+00  0.00000000000E+00 -0.31176033253E+03  0.31176033257E+03  0.50400001928E-02 0. -1.
    10030    2    1    2    0    0  0.00000000000E+00  0.00000000000E+00  0.49071943471E+03  0.11142400998E+04  0.10003626525E+04 0.  0.
        2    1    3    3  502    0 -0.27469661777E+03 -0.38552002925E+03  0.42529661209E+03  0.63636556556E+03  0.25500000920E-02 0.  1.
       -2    1    3    3    0  502  0.27469661777E+03  0.38552002925E+03  0.65422822622E+02  0.47787453426E+03  0.25500000920E-02 0. -1.
</event>
<event>
 5   0  0.1430675E-04  0.1001473E+04  0.7818609E-02  0.9306930E-01
        1   -1    0    0  501    0  0.00000000000E+00  0.00000000000E+00  0.83365675118E+03  0.83365675119E+03  0.50400001928E-02 0. -1.
       -1   -1    0    0    0  501  0.00000000000E+00  0.00000000000E+00 -0.30076791735E+03  0.30076791740E+03  0.50400001928E-02 0.  1.
    10030    2    1    2    0    0  0.00000000000E+00  0.00000000000E+00  0.53288883382E+03  0.11344246686E+04  0.10014733244E+04 0.  0.
        5    1    3    3  502    0 -0.44853584120E+02  0.38903492241E+03  0.61988436093E+03  0.73323851903E+03  0.46999998093E+01 0. -1.
       -5    1    3    3    0  502  0.44853584120E+02 -0.38903492241E+03 -0.86995527107E+02  0.40118614956E+03  0.46999998093E+01 0.  1.
</event>
<event>
 5   0  0.1453863E-04  0.9999275E+03  0.7818609E-02  0.9308624E-01
       -1   -1    0    0    0  501  0.00000000000E+00  0.00000000000E+00  0.23394589447E+03  0.23394589452E+03  0.50400001928E-02 0.  1.
        1   -1    0    0  501    0  0.00000000000E+00  0.00000000000E+00 -0.10684683100E+04  0.10684683100E+04  0.50400001928E-02 0. -1.
    10030    2    1    2    0    0  0.00000000000E+00  0.00000000000E+00 -0.83452241553E+03  0.13024142045E+04  0.99992754644E+03 0.  0.
        1    1    3    3  502    0  0.35035829848E+03  0.34328487832E+03 -0.29119123174E+03  0.57042771538E+03  0.50400001928E-02 0. -1.
       -1    1    3    3    0  502 -0.35035829848E+03 -0.34328487832E+03 -0.54333118378E+03  0.73198648915E+03  0.50400001928E-02 0.  1.
</event>
<event>
 5   0  0.2484904E-04  0.1002103E+04  0.7818609E-02  0.9306241E-01
        2   -1    0    0  501    0  0.00000000000E+00  0.00000000000E+00  0.14894274084E+04  0.14894274084E+04  0.25500000920E-02 0.  1.
       -2   -1    0    0    0  501  0.00000000000E+00  0.00000000000E+00 -0.16855643807E+03  0.16855643809E+03  0.25500000920E-02 0. -1.
    10030    2    1    2    0    0  0.00000000000E+00  0.00000000000E+00  0.13208709703E+04  0.16579838465E+04  0.10021029463E+04 0.  0.
        3    1    3    3  502    0  0.15448504849E+03  0.41773506747E+03  0.10401950983E+04  0.11315361547E+04  0.10100000352E+00 0.  1.
       -3    1    3    3    0  502 -0.15448504849E+03 -0.41773506747E+03  0.28067587205E+03  0.52644769175E+03  0.10100000352E+00 0. -1.
</event>
<event>
 5   0  0.2484904E-04  0.9998359E+03  0.7818609E-02  0.9308725E-01
        2   -1    0    0  501    0  0.00000000000E+00  0.00000000000E+00  0.64432208648E+03  0.64432208649E+03  0.25500000920E-02 0.  1.
       -2   -1    0    0    0  501  0.00000000000E+00  0.00000000000E+00 -0.38787740315E+03  0.38787740316E+03  0.25500000920E-02 0. -1.
    10030    2    1    2    0    0  0.00000000000E+00  0.00000000000E+00  0.25644468333E+03  0.10321994896E+04  0.99983594195E+03 0.  0.
        3    1    3    3  502    0 -0.77429494241E+02  0.44093505099E+03 -0.10146272756E+03  0.45903566425E+03  0.10100000352E+00 0. -1.
       -3    1    3    3    0  502  0.77429494241E+02 -0.44093505099E+03  0.35790741090E+03  0.57316382540E+03  0.10100000352E+00 0.  1.
</event>
<event>
 5   0  0.1430675E-04  0.1000543E+04  0.7818609E-02  0.9307950E-01
        1   -1    0    0  501    0  0.00000000000E+00  0.00000000000E+00  0.73874412974E+03  0.73874412976E+03  0.50400001928E-02 0.  1.
       -1   -1    0    0    0  501  0.00000000000E+00  0.00000000000E+00 -0.33877965962E+03  0.33877965966E+03  0.50400001928E-02 0. -1.
    10030    2    1    2    0    0  0.00000000000E+00  0.00000000000E+00  0.39996447012E+03  0.10775237894E+04  0.10005428224E+04 0.  0.
        5    1    3    3  502    0 -0.25183447852E+01  0.14367760529E+03 -0.31605012612E+03  0.34721660176E+03  0.46999998093E+01 0. -1.
       -5    1    3    3    0  502  0.25183447852E+01 -0.14367760529E+03  0.71601459624E+03  0.73030718766E+03  0.46999998093E+01 0.  1.
</event>
<event>
 5   0  0.1453863E-04  0.1000003E+04  0.7818609E-02  0.9308542E-01
       -1   -1    0    0    0  501  0.00000000000E+00  0.00000000000E+00  0.33570251402E+03  0.33570251406E+03  0.50400001928E-02 0. -1.
        1   -1    0    0  501    0  0.00000000000E+00  0.00000000000E+00 -0.74471100849E+03  0.74471100851E+03  0.50400001928E-02 0.  1.
    10030    2    1    2    0    0  0.00000000000E+00  0.00000000000E+00 -0.40900849447E+03  0.10804135226E+04  0.10000027156E+04 0.  0.
        1    1    3    3  502    0  0.18991387434E+03 -0.42673041162E+03 -0.39727575953E+03  0.61318362095E+03  0.50400001928E-02 0. -1.
       -1    1    3    3    0  502 -0.18991387434E+03  0.42673041162E+03 -0.11732734948E+02  0.46722990161E+03  0.50400001928E-02 0.  1.
</event>
<event>
 5   0  0.1506454E-04  0.1001079E+04  0.7818609E-02  0.9307362E-01
        1   -1    0    0  501    0  0.00000000000E+00  0.00000000000E+00  0.42015548185E+03  0.42015548188E+03  0.50400001928E-02 0.  1.
       -1   -1    0    0    0  501  0.00000000000E+00  0.00000000000E+00 -0.59630314278E+03  0.59630314280E+03  0.50400001928E-02 0. -1.
    10030    2    1    2    0    0  0.00000000000E+00  0.00000000000E+00 -0.17614766094E+03  0.10164586247E+04  0.10010794860E+04 0.  0.
        3    1    3    3  502    0  0.36924557590E+03 -0.25766587800E+03  0.13393101646E+03  0.46975688114E+03  0.10100000352E+00 0. -1.
       -3    1    3    3    0  502 -0.36924557590E+03  0.25766587800E+03 -0.31007867740E+03  0.54670174354E+03  0.10100000352E+00 0.  1.
</event>
<event>
 5   0  0.2503680E-04  0.1000177E+04  0.7818609E-02  0.9308351E-01
       -2   -1    0    0    0  501  0.00000000000E+00  0.00000000000E+00  0.13059211408E+04  0.13059211408E+04  0.25500000920E-02 0. -1.
        2   -1    0    0  501    0  0.00000000000E+00  0.00000000000E+00 -0.19150345379E+03  0.19150345381E+03  0.25500000920E-02 0.  1.
    10030    2    1    2    0    0  0.00000000000E+00  0.00000000000E+00  0.11144176870E+04  0.14974245946E+04  0.10001768021E+04 0.  0.
        2    1    3    3  502    0 -0.20096782850E+03  0.20570491056E+03 -0.55321390989E+02  0.29285326467E+03  0.25500000920E-02 0.  1.
       -2    1    3    3    0  502  0.20096782850E+03 -0.20570491056E+03  0.11697390780E+04  0.12045713299E+04  0.25500000920E-02 0. -1.
</event>
<event>
 5   0  0.2503680E-04  0.1000748E+04  0.7818609E-02  0.9307725E-01
        2   -1    0    0  501    0  0.00000000000E+00  0.00000000000E+00  0.61664094434E+03  0.61664094434E+03  0.25500000920E-02 0. -1.
       -2   -1    0    0    0  501  0.00000000000E+00  0.00000000000E+00 -0.40602905998E+03  0.40602905999E+03  0.25500000920E-02 0.  1.
    10030    2    1    2    0    0  0.00000000000E+00  0.00000000000E+00  0.21061188436E+03  0.10226700043E+04  0.10007480062E+04 0.  0.
        2    1    3    3  502    0  0.14877173803E+03  0.35761710801E+03  0.42902769995E+03  0.57800328140E+03  0.25500000920E-02 0. -1.
       -2    1    3    3    0  502 -0.14877173803E+03 -0.35761710801E+03 -0.21841581559E+03  0.44466672293E+03  0.25500000920E-02 0.  1.
</event>
<event>
 5   0  0.1414165E-04  0.1000051E+04  0.7818609E-02  0.9308489E-01
       -1   -1    0    0    0  501  0.00000000000E+00  0.00000000000E+00  0.23872259105E+03  0.23872259111E+03  0.50400001928E-02 0.  1.
        1   -1    0    0  501    0  0.00000000000E+00  0.00000000000E+00 -0.10473467760E+04  0.10473467760E+04  0.50400001928E-02 0. -1.
    10030    2    1    2    0    0  0.00000000000E+00  0.00000000000E+00 -0.80862418495E+03  0.12860693671E+04  0.10000506710E+04 0.  0.
        4    1    3    3  502    0  0.43946509559E+03  0.11342770174E+03 -0.67415337576E+03  0.81269908374E+03  0.12699999809E+01 0. -1.
       -4    1    3    3    0  502 -0.43946509559E+03 -0.11342770174E+03 -0.13447080919E+03  0.47337028338E+03  0.12699999809E+01 0.  1.
</event>
<event>
 5   0  0.2403037E-04  0.9999911E+03  0.7818609E-02  0.9308555E-01
       -2   -1    0    0    0  501  0.00000000000E+00  0.00000000000E+00  0.43764553402E+03  0.43764553403E+03  0.25500000920E-02 0. -1.
        2   -1    0    0  501    0  0.00000000000E+00  0.00000000000E+00 -0.57122841521E+03  0.57122841522E+03  0.25500000920E-02 0.  1.
    10030    2    1    2    0    0  0.00000000000E+00  0.00000000000E+00 -0.13358288119E+03  0.10088739492E+04  0.99999112962E+03 0.  0.
        1    1    3    3  502    0 -0.19076877749E+03 -0.23933432049E+03 -0.46567919371E+03  0.55725286443E+03  0.50400001928E-02 0.  1.
       -1    1    3    3    0  502  0.19076877749E+03  0.23933432049E+03  0.33209631252E+03  0.45162108481E+03  0.50400001928E-02 0. -1.
</event>
<event>
 5   0  0.9650500E-05  0.1000179E+04  0.7818609E-02  0.9308348E-01
       -3   -1    0    0    0  501  0.00000000000E+00  0.00000000000E+00  0.24841384301E+03  0.24841386354E+03  0.10100000352E+00 0.  1.
        3   -1    0    0  501    0  0.00000000000E+00  0.00000000000E+00 -0.10067455217E+04  0.10067455268E+04  0.10100000352E+00 0. -1.
    10030    2    1    2    0    0  0.00000000000E+00  0.00000000000E+00 -0.75833167872E+03  0.12551593903E+04  0.10001790641E+04 0.  0.
        2    1    3    3  502    0  0.39837384126E+01 -0.35168701710E+03  0.66980491340E+02  0.35803074504E+03  0.25500000920E-02 0.  1.
       -2    1    3    3    0  502 -0.39837384126E+01  0.35168701710E+03 -0.82531217006E+03  0.89712864530E+03  0.25500000920E-02 0. -1.
</event>
<event>
 5   0  0.2473312E-04  0.1001321E+04  0.7818609E-02  0.9307097E-01
        2   -1    0    0  501    0  0.00000000000E+00  0.00000000000E+00  0.91373227657E+03  0.91373227658E+03  0.25500000920E-02 0.  1.
       -2   -1    0    0    0  501  0.00000000000E+00  0.00000000000E+00 -0.27432644640E+03  0.27432644641E+03  0.25500000920E-02 0. -1.
    10030    2    1    2    0    0  0.00000000000E+00  0.00000000000E+00  0.63940583018E+03  0.11880587230E+04  0.10013209843E+04 0.  0.
        5    1    3    3  502    0  0.36228193557E+03  0.15117131738E+03  0.68835224323E+03  0.79243414161E+03  0.46999998093E+01 0.  1.
       -5    1    3    3    0  502 -0.36228193557E+03 -0.15117131738E+03 -0.48946413052E+02  0.39562458137E+03  0.46999998093E+01 0. -1.
</event>
<event>
 5   0  0.2473312E-04  0.1000295E+04  0.7818609E-02  0.9308221E-01
        2   -1    0    0  501    0  0.00000000000E+00  0.00000000000E+00  0.86152480775E+03  0.86152480775E+03  0.25500000920E-02 0. -1.
       -2   -1    0    0    0  501  0.00000000000E+00  0.00000000000E+00 -0.29035459493E+03  0.29035459494E+03  0.25500000920E-02 0.  1.
    10030    2    1    2    0    0  0.00000000000E+00  0.00000000000E+00  0.57117021282E+03  0.11518794027E+04  0.10002953296E+04 0.  0.
        5    1    3    3  502    0  0.51730105723E+02  0.44130740712E+03  0.54993139794E+03  0.70701829103E+03  0.46999998093E+01 0.  1.
       -5    1    3    3    0  502 -0.51730105723E+02 -0.44130740712E+03  0.21238814875E+02  0.44486111167E+03  0.46999998093E+01 0. -1.
</event>
<event>
 5   0  0.9650500E-05  0.1000181E+04  0.7818609E-02  0.9308346E-01
       -3   -1    0    0    0  501  0.00000000000E+00  0.00000000000E+00  0.35418950103E+03  0.35418951543E+03  0.10100000352E+00 0.  1.
        3   -1    0    0  501    0  0.00000000000E+00  0.00000000000E+00 -0.70609273977E+03  0.70609274699E+03  0.10100000352E+00 0. -1.
    10030    2    1    2    0    0  0.00000000000E+00  0.00000000000E+00 -0.35190323874E+03  0.10602822624E+04  0.10001812769E+04 0.  0.
        5    1    3    3  502    0 -0.41668064564E+02  0.44161741948E+03 -0.42070707827E+03  0.61137444213E+03  0.46999998093E+01 0. -1.
       -5    1    3    3    0  502  0.41668064564E+02 -0.44161741948E+03  0.68803839530E+02  0.44890782030E+03  0.46999998093E+01 0.  1.
</event>
<event>
 5   0  0.2503680E-04  0.1000619E+04  0.7818609E-02  0.9307866E-01
        2   -1    0    0  501    0  0.00000000000E+00  0.00000000000E+00  0.24408918890E+04  0.24408918890E+04  0.25500000920E-02 0. -1.
       -2   -1    0    0    0  501  0.00000000000E+00  0.00000000000E+00 -0.10254847448E+03  0.10254847451E+03  0.25500000920E-02 0.  1.
    10030    2    1    2    0    0  0.00000000000E+00  0.00000000000E+00  0.23383434145E+04  0.25434403635E+04  0.10006192875E+04 0.  0.
        2    1    3    3  502    0  0.37200481890E+03  0.32384738775E+03  0.95582108166E+03  0.10755736404E+04  0.25500000920E-02 0.  1.
       -2    1    3    3    0  502 -0.37200481890E+03 -0.32384738775E+03  0.13825223328E+04  0.14678667230E+04  0.25500000920E-02 0. -1.
</event>
<event>
 5   0  0.1430675E-04  0.9997688E+03  0.7818609E-02  0.9308798E-01
        1   -1    0    0  501    0  0.00000000000E+00  0.00000000000E+00  0.10181000737E+04  0.10181000737E+04  0.50400001928E-02 0.  1.
       -1   -1    0    0    0  501  0.00000000000E+00  0.00000000000E+00 -0.24544189476E+03  0.24544189482E+03  0.50400001928E-02 0. -1.
    10030    2    1    2    0    0  0.00000000000E+00  0.00000000000E+00  0.77265817893E+03  0.12635419685E+04  0.99976879565E+03 0.  0.
        5    1    3    3  502    0 -0.37955511481E+03  0.44746898802E+01 -0.24718696103E+02  0.38041452649E+03  0.46999998093E+01 0. -1.
       -5    1    3    3    0  502  0.37955511481E+03 -0.44746898802E+01  0.79737687504E+03  0.88312744203E+03  0.46999998093E+01 0.  1.
</event>
<event>
 5   0  0.2484904E-04  0.1001384E+04  0.7818609E-02  0.9307028E-01
        2   -1    0    0  501    0  0.00000000000E+00  0.00000000000E+00  0.12556367427E+04  0.12556367427E+04  0.25500000920E-02 0. -1.
       -2   -1    0    0    0  501  0.00000000000E+00  0.00000000000E+00 -0.19965379155E+03  0.19965379157E+03  0.25500000920E-02 0.  1.
    10030    2    1    2    0    0  0.00000000000E+00  0.00000000000E+00  0.10559829511E+04  0.14552905342E+04  0.10013843148E+04 0.  0.
        3    1    3    3  502    0  0.35887772346E+03 -0.62551604916E+02  0.10271809873E+04  0.10898654571E+04  0.10100000352E+00 0. -1.
       -3    1    3    3    0  502 -0.35887772346E+03  0.62551604916E+02  0.28801963776E+02  0.36542507712E+03  0.10100000352E+00 0.  1.
</event>
<event>
 5   0  0.1506454E-04  0.1004587E+04  0.7818609E-02  0.9303528E-01
       -1   -1    0    0    0  501  0.00000000000E+00  0.00000000000E+00  0.34342665398E+03  0.34342665402E+03  0.50400001928E-02 0. -1.
        1   -1    0    0  501    0  0.00000000000E+00  0.00000000000E+00 -0.73465076073E+03  0.73465076075E+03  0.50400001928E-02 0.  1.
    10030    2    1    2    0    0  0.00000000000E+00  0.00000000000E+00 -0.39122410675E+03  0.10780774148E+04  0.10045867860E+04 0.  0.
        3    1    3    3  502    0  0.29993770437E+03 -0.51519102771E+02  0.23322291688E+03  0.38341854886E+03  0.10100000352E+00 0. -1.
       -3    1    3    3    0  502 -0.29993770437E+03  0.51519102771E+02 -0.62444702364E+03  0.69465886590E+03  0.10100000352E+00 0.  1.
</event>
<event>
 5   0  0.2353916E-04  0.1000903E+04  0.7818609E-02  0.9307555E-01
        2   -1    0    0  501    0  0.00000000000E+00  0.00000000000E+00  0.13769172424E+04  0.13769172424E+04  0.25500000920E-02 0.  1.
       -2   -1    0    0    0  501  0.00000000000E+00  0.00000000000E+00 -0.18189315580E+03  0.18189315582E+03  0.25500000920E-02 0. -1.
    10030    2    1    2    0    0  0.00000000000E+00  0.00000000000E+00  0.11950240866E+04  0.15588103983E+04  0.10009032371E+04 0.  0.
        4    1    3    3  502    0  0.20733025524E+03  0.11314085243E+03  0.12846492880E+04  0.13061822588E+04  0.12699999809E+01 0.  1.
       -4    1    3    3    0  502 -0.20733025524E+03 -0.11314085243E+03 -0.89625201341E+02  0.25262813945E+03  0.12699999809E+01 0. -1.
</event>
<event>
 5   0  0.1461334E-04  0.1000145E+04  0.7818609E-02  0.9308386E-01
       -1   -1    0    0    0  501  0.00000000000E+00  0.00000000000E+00  0.45427949677E+03  0.45427949680E+03  0.50400001928E-02 0. -1.
        1   -1    0    0  501    0  0.00000000000E+00  0.00000000000E+00 -0.55048150362E+03  0.55048150364E+03  0.50400001928E-02 0.  1.
    10030    2    1    2    0    0  0.00000000000E+00  0.00000000000E+00 -0.96202006848E+02  0.10047610004E+04  0.10001449104E+04 0.  0.
        2    1    3    3  502    0  0.44638637822E+03  0.49681304454E+02  0.17278518942E+03  0.48123149560E+03  0.25500000920E-02 0. -1.
       -2    1    3    3    0  502 -0.44638637822E+03 -0.49681304454E+02 -0.26898719627E+03  0.52352950484E+03  0.25500000920E-02 0.  1.
</event>
<event>
 5   0  0.1453863E-04  0.1001329E+04  0.7818609E-02  0.9307089E-01
       -1   -1    0    0    0  501  0.00000000000E+00  0.00000000000E+00  0.68553152576E+03  0.68553152578E+03  0.50400001928E-02 0.  1.
        1   -1    0    0  501    0  0.00000000000E+00  0.00000000000E+00 -0.36565039224E+03  0.36565039227E+03  0.50400001928E-02 0. -1.
    10030    2    1    2    0    0  0.00000000000E+00  0.00000000000E+00  0.31988113352E+03  0.10511819180E+04  0.10013288597E+04 0.  0.
        1    1    3    3  502    0 -0.28436252197E+03  0.17458365481E+03 -0.23190337932E+03  0.40635043226E+03  0.50400001928E-02 0. -1.
       -1    1    3    3    0  502  0.28436252197E+03 -0.17458365481E+03  0.55178451284E+03  0.64483148579E+03  0.50400001928E-02 0.  1.
</event>
<event>
 5   0  0.2473312E-04  0.1000351E+04  0.7818609E-02  0.9308160E-01
        2   -1    0    0  501    0  0.00000000000E+00  0.00000000000E+00  0.10722397238E+04  0.10722397238E+04  0.25500000920E-02 0. -1.
       -2   -1    0    0    0  501  0.00000000000E+00  0.00000000000E+00 -0.23332030757E+03  0.23332030758E+03  0.25500000920E-02 0.  1.
    10030    2    1    2    0    0  0.00000000000E+00  0.00000000000E+00  0.83891941626E+03  0.13055600314E+04  0.10003505429E+04 0.  0.
        5    1    3    3  502    0 -0.33104024346E+03 -0.37252053556E+03  0.36418095108E+03  0.61725930315E+03  0.46999998093E+01 0.  1.
       -5    1    3    3    0  502  0.33104024346E+03  0.37252053556E+03  0.47473846517E+03  0.68830072825E+03  0.46999998093E+01 0. -1.
</event>
<event>
 5   0  0.1430675E-04  0.9987811E+03  0.7818609E-02  0.9309883E-01
        1   -1    0    0  501    0  0.00000000000E+00  0.00000000000E+00  0.10341926641E+04  0.10341926641E+04  0.50400001928E-02 0.  1.
       -1   -1    0    0    0  501  0.00000000000E+00  0.00000000000E+00 -0.24114553372E+03  0.24114553377E+03  0.50400001928E-02 0. -1.
    10030    2    1    2    0    0  0.00000000000E+00  0.00000000000E+00  0.79304713035E+03  0.12753381979E+04  0.99878114116E+03 0.  0.
        5    1    3    3  502    0 -0.14765592754E+03  0.25002691157E+03 -0.12223694236E+03  0.31508679681E+03  0.46999998093E+01 0. -1.
       -5    1    3    3    0  502  0.14765592754E+03 -0.25002691157E+03  0.91528407271E+03  0.96025140104E+03  0.46999998093E+01 0.  1.
</event>
<event>
 5   0  0.2484904E-04  0.1000042E+04  0.7818609E-02  0.9308499E-01
       -2   -1    0    0    0  501  0.00000000000E+00  0.00000000000E+00  0.11568935009E+03  0.11568935011E+03  0.25500000920E-02 0. -1.
        2   -1    0    0  501    0  0.00000000000E+00  0.00000000000E+00 -0.21611418918E+04  0.21611418918E+04  0.25500000920E-02 0.  1.
    10030    2    1    2    0    0  0.00000000000E+00  0.00000000000E+00 -0.20454525417E+04  0.22768312419E+04  0.10000422010E+04 0.  0.
        3    1    3    3  502    0  0.47429260325E+02  0.24052099345E+03 -0.30526216688E+02  0.24704603443E+03  0.10100000352E+00 0. -1.
       -3    1    3    3    0  502 -0.47429260325E+02 -0.24052099345E+03 -0.20149263250E+04  0.20297852075E+04  0.10100000352E+00 0.  1.
</event>
<event>
 5   0  0.2403037E-04  0.9999456E+03  0.7818609E-02  0.9308604E-01
       -2   -1    0    0    0  501  0.00000000000E+00  0.00000000000E+00  0.23567164174E+03  0.23567164175E+03  0.25500000920E-02 0.  1.
        2   -1    0    0  501    0  0.00000000000E+00  0.00000000000E+00 -0.10606826242E+04  0.10606826242E+04  0.25500000920E-02 0. -1.
    10030    2    1    2    0    0  0.00000000000E+00  0.00000000000E+00 -0.82501098245E+03  0.12963542660E+04  0.99994562936E+03 0.  0.
        1    1    3    3  502    0  0.27796611205E+02 -0.31235686939E+00 -0.10596799831E+04  0.10600445348E+04  0.50400001928E-02 0. -1.
       -1    1    3    3    0  502 -0.27796611205E+02  0.31235686939E+00  0.23466900063E+03  0.23630973116E+03  0.50400001928E-02 0.  1.
</event>
<event>
 5   0  0.1461334E-04  0.1000054E+04  0.7818609E-02  0.9308486E-01
        1   -1    0    0  501    0  0.00000000000E+00  0.00000000000E+00  0.16503179540E+04  0.16503179540E+04  0.50400001928E-02 0.  1.
       -1   -1    0    0    0  501  0.00000000000E+00  0.00000000000E+00 -0.15150231002E+03  0.15150231010E+03  0.50400001928E-02 0. -1.
    10030    2    1    2    0    0  0.00000000000E+00  0.00000000000E+00  0.14988156440E+04  0.18018202641E+04  0.10000539633E+04 0.  0.
        2    1    3    3  502    0 -0.82003100711E+02  0.49128438846E+03  0.82880891004E+03  0.96695866936E+03  0.25500000920E-02 0.  1.
       -2    1    3    3    0  502  0.82003100711E+02 -0.49128438846E+03  0.67000673395E+03  0.83486159477E+03  0.25500000920E-02 0. -1.
</event>
<event>
 5   0  0.1461334E-04  0.9999352E+03  0.7818609E-02  0.9308616E-01
        1   -1    0    0  501    0  0.00000000000E+00  0.00000000000E+00  0.45447320084E+03  0.45447320087E+03  0.50400001928E-02 0. -1.
       -1   -1    0    0    0  501  0.00000000000E+00  0.00000000000E+00 -0.55001610690E+03  0.55001610692E+03  0.50400001928E-02 0.  1.
    10030    2    1    2    0    0  0.00000000000E+00  0.00000000000E+00 -0.95542906056E+02  0.10044893078E+04  0.99993515919E+03 0.  0.
        2    1    3    3  502    0  0.24102660985E+03  0.42229035152E+03  0.69139924986E+02  0.49112452278E+03  0.25500000920E-02 0.  1.
       -2    1    3    3    0  502 -0.24102660985E+03 -0.42229035152E+03 -0.16468283104E+03  0.51336478501E+03  0.25500000920E-02 0. -1.
</event>
<event>
 5   0  0.2484904E-04  0.9998415E+03  0.7818609E-02  0.9308719E-01
       -2   -1    0    0    0  501  0.00000000000E+00  0.00000000000E+00  0.34846022698E+03  0.34846022699E+03  0.25500000920E-02 0. -1.
        2   -1    0    0  501    0  0.00000000000E+00  0.00000000000E+00 -0.71721462116E+03  0.71721462116E+03  0.25500000920E-02 0.  1.
    10030    2    1    2    0    0  0.00000000000E+00  0.00000000000E+00 -0.36875439417E+03  0.10656748482E+04  0.99984152683E+03 0.  0.
        3    1    3    3  502    0 -0.26462958177E+03 -0.63748397520E+02 -0.63130530535E+03  0.68748750715E+03  0.10100000352E+00 0.  1.
       -3    1    3    3    0  502  0.26462958177E+03  0.63748397520E+02  0.26255091118E+03  0.37818734100E+03  0.10100000352E+00 0. -1.
</event>
<event>
 5   0  0.2484904E-04  0.1002524E+04  0.7818609E-02  0.9305780E-01
        2   -1    0    0  501    0  0.00000000000E+00  0.00000000000E+00  0.17791816967E+04  0.17791816967E+04  0.25500000920E-02 0. -1.
       -2   -1    0    0    0  501  0.00000000000E+00  0.00000000000E+00 -0.14122434224E+03  0.14122434227E+03  0.25500000920E-02 0.  1.
    10030    2    1    2    0    0  0.00000000000E+00  0.00000000000E+00  0.16379573544E+04  0.19204060389E+04  0.10025243436E+04 0.  0.
        3    1    3    3  502    0  0.38334886475E+03  0.17838654653E+03  0.30324661393E+03  0.52032358312E+03  0.10100000352E+00 0.  1.
       -3    1    3    3    0  502 -0.38334886475E+03 -0.17838654653E+03  0.13347107405E+04  0.14000824558E+04  0.10100000352E+00 0. -1.
</event>
<event>
 5   0  0.1414165E-04  0.9996498E+03  0.7818609E-02  0.9308929E-01
        1   -1    0    0  501    0  0.00000000000E+00  0.00000000000E+00  0.29786947731E+03  0.29786947735E+03  0.50400001928E-02 0. -1.
       -1   -1    0    0    0  501  0.00000000000E+00  0.00000000000E+00 -0.83870608679E+03  0.83870608680E+03  0.50400001928E-02 0.  1.
    10030    2    1    2    0    0  0.00000000000E+00  0.00000000000E+00 -0.54083660947E+03  0.11365755642E+04  0.99964982613E+03 0.  0.
        4    1    3    3  502    0 -0.39548813365E+03  0.27735861097E+03 -0.12443925884E+03  0.49882402205E+03  0.12699999809E+01 0. -1.
       -4    1    3    3    0  502  0.39548813365E+03 -0.27735861097E+03 -0.41639735064E+03  0.63775154210E+03  0.12699999809E+01 0.  1.
</event>
<event>
 5   0  0.1414165E-04  0.1000476E+04  0.7818609E-02  0.9308023E-01
        1   -1    0    0  501    0  0.00000000000E+00  0.00000000000E+00  0.76887959560E+03  0.76887959562E+03  0.50400001928E-02 0.  1.
       -1   -1    0    0    0  501  0.00000000000E+00  0.00000000000E+00 -0.32545815679E+03  0.32545815683E+03  0.50400001928E-02 0. -1.
    10030    2    1    2    0    0  0.00000000000E+00  0.00000000000E+00  0.44342143881E+03  0.10943377525E+04  0.10004761587E+04 0.  0.
        4    1    3    3  502    0 -0.33373508424E+03  0.25859801698E+03 -0.71759529669E+02  0.42825586258E+03  0.12699999809E+01 0. -1.
       -4    1    3    3    0  502  0.33373508424E+03 -0.25859801698E+03  0.51518096848E+03  0.66608188987E+03  0.12699999809E+01 0.  1.
</event>
<event>
 5   0  0.1453863E-04  0.9997030E+03  0.7818609E-02  0.9308871E-01
       -1   -1    0    0    0  501  0.00000000000E+00  0.00000000000E+00  0.13512439319E+04  0.13512439320E+04  0.50400001928E-02 0.  1.
        1   -1    0    0  501    0  0.00000000000E+00  0.00000000000E+00 -0.18490484131E+03  0.18490484138E+03  0.50400001928E-02 0. -1.
    10030    2    1    2    0    0  0.00000000000E+00  0.00000000000E+00  0.11663390906E+04  0.15361487733E+04  0.99970304563E+03 0.  0.
        1    1    3    3  502    0  0.16991701046E+03  0.22418372666E+03  0.12180709078E+04  0.12501307412E+04  0.50400001928E-02 0.  1.
       -1    1    3    3    0  502 -0.16991701046E+03 -0.22418372666E+03 -0.51731817166E+02  0.28601803208E+03  0.50400001928E-02 0. -1.
</event>
<event>
 5   0  0.1453863E-04  0.1000024E+04  0.7818609E-02  0.9308518E-01
        1   -1    0    0  501    0  0.00000000000E+00  0.00000000000E+00  0.71023366449E+03  0.71023366451E+03  0.50400001928E-02 0.  1.
       -1   -1    0    0    0  501  0.00000000000E+00  0.00000000000E+00 -0.35201396846E+03  0.35201396850E+03  0.50400001928E-02 0. -1.
    10030    2    1    2    0    0  0.00000000000E+00  0.00000000000E+00  0.35821969603E+03  0.10622476330E+04  0.10000243413E+04 0.  0.
        1    1    3    3  502    0  0.93411824487E+02  0.50273339871E+02 -0.33992327050E+03  0.35609129097E+03  0.50400001928E-02 0. -1.
       -1    1    3    3    0  502 -0.93411824487E+02 -0.50273339871E+02  0.69814296653E+03  0.70615634203E+03  0.50400001928E-02 0.  1.
</event>
<event>
 5   0  0.1461334E-04  0.9998889E+03  0.7818609E-02  0.9308667E-01
       -1   -1    0    0    0  501  0.00000000000E+00  0.00000000000E+00  0.68382096419E+03  0.68382096421E+03  0.50400001928E-02 0.  1.
        1   -1    0    0  501    0  0.00000000000E+00  0.00000000000E+00 -0.36551156290E+03  0.36551156293E+03  0.50400001928E-02 0. -1.
    10030    2    1    2    0    0  0.00000000000E+00  0.00000000000E+00  0.31830940130E+03  0.10493325271E+04  0.99988893261E+03 0.  0.
        2    1    3    3  502    0  0.10592205376E+03 -0.33526574369E+03  0.53214766962E+03  0.63781168275E+03  0.25500000920E-02 0.  1.
       -2    1    3    3    0  502 -0.10592205376E+03  0.33526574369E+03 -0.21383826832E+03  0.41152084439E+03  0.25500000920E-02 0. -1.
</event>
<event>
 5   0  0.1430675E-04  0.9997124E+03  0.7818609E-02  0.9308860E-01
        1   -1    0    0  501    0  0.00000000000E+00  0.00000000000E+00  0.47314083666E+03  0.47314083668E+03  0.50400001928E-02 0. -1.
       -1   -1    0    0    0  501  0.00000000000E+00  0.00000000000E+00 -0.52808001015E+03  0.52808001017E+03  0.50400001928E-02 0.  1.
    10030    2    1    2    0    0  0.00000000000E+00  0.00000000000E+00 -0.54939173494E+02  0.10012208469E+04  0.99971239434E+03 0.  0.
        5    1    3    3  502    0  0.32320829288E+03 -0.33807488833E+03  0.14907997542E+03  0.49092276355E+03  0.46999998093E+01 0. -1.
       -5    1    3    3    0  502 -0.32320829288E+03  0.33807488833E+03 -0.20401914891E+03  0.51029808331E+03  0.46999998093E+01 0.  1.
</event>
<event>
 5   0  0.9650500E-05  0.1000038E+04  0.7818609E-02  0.9308503E-01
       -3   -1    0    0    0  501  0.00000000000E+00  0.00000000000E+00  0.97891414638E+03  0.97891415159E+03  0.10100000352E+00 0.  1.
        3   -1    0    0  501    0  0.00000000000E+00  0.00000000000E+00 -0.25540459265E+03  0.25540461262E+03  0.10100000352E+00 0. -1.
    10030    2    1    2    0    0  0.00000000000E+00  0.00000000000E+00  0.72350955372E+03  0.12343187642E+04  0.10000383679E+04 0.  0.
        3    1    3    3  502    0 -0.36398920011E+03  0.32758471211E+03  0.48652791221E+03  0.69029653119E+03  0.10100000352E+00 0.  1.
       -3    1    3    3    0  502  0.36398920011E+03 -0.32758471211E+03  0.23698164152E+03  0.54402223303E+03  0.10100000352E+00 0. -1.
</event>
<event>
 5   0  0.1461334E-04  0.9999939E+03  0.7818609E-02  0.9308552E-01
        1   -1    0    0  501    0  0.00000000000E+00  0.00000000000E+00  0.90641887096E+03  0.90641887097E+03  0.50400001928E-02 0.  1.
       -1   -1    0    0    0  501  0.00000000000E+00  0.00000000000E+00 -0.27580728286E+03  0.27580728290E+03  0.50400001928E-02 0. -1.
    10030    2    1    2    0    0  0.00000000000E+00  0.00000000000E+00  0.63061158810E+03  0.11822261539E+04  0.99999385191E+03 0.  0.
        2    1    3    3  502    0  0.51178381097E+02  0.33405274899E+02 -0.27137483114E+03  0.27817159823E+03  0.25500000920E-02 0. -1.
       -2    1    3    3    0  502 -0.51178381097E+02 -0.33405274899E+02  0.90198641924E+03  0.90405455564E+03  0.25500000920E-02 0.  1.
</event>
<event>
 5   0  0.2403037E-04  0.9999629E+03  0.7818609E-02  0.9308585E-01
        2   -1    0    0  501    0  0.00000000000E+00  0.00000000000E+00  0.66373489332E+03  0.66373489332E+03  0.25500000920E-02 0.  1.
       -2   -1    0    0    0  501  0.00000000000E+00  0.00000000000E+00 -0.37662847499E+03  0.37662847500E+03  0.25500000920E-02 0. -1.
    10030    2    1    2    0    0  0.00000000000E+00  0.00000000000E+00  0.28710641833E+03  0.10403633683E+04  0.99996292067E+03 0.  0.
        1    1    3    3  502    0 -0.52616772459E+02 -0.49240239710E+03  0.21527921079E+03  0.53997572541E+03  0.50400001928E-02 0. -1.
       -1    1    3    3    0  502  0.52616772459E+02  0.49240239710E+03  0.71827207534E+02  0.50038764291E+03  0.50400001928E-02 0.  1.
</event>
<event>
 5   0  0.2403037E-04  0.1000216E+04  0.7818609E-02  0.9308308E-01
       -2   -1    0    0    0  501  0.00000000000E+00  0.00000000000E+00  0.97152232163E+03  0.97152232164E+03  0.25500000920E-02 0. -1.
        2   -1    0    0  501    0  0.00000000000E+00  0.00000000000E+00 -0.25743909146E+03  0.25743909147E+03  0.25500000920E-02 0.  1.
    10030    2    1    2    0    0  0.00000000000E+00  0.00000000000E+00  0.71408323017E+03  0.12289614131E+04  0.10002156244E+04 0.  0.
        1    1    3    3  502    0 -0.29967057611E+03 -0.27949491613E+03  0.47934681777E+01  0.40980829627E+03  0.50400001928E-02 0.  1.
       -1    1    3    3    0  502  0.29967057611E+03  0.27949491613E+03  0.70928976199E+03  0.81915311684E+03  0.50400001928E-02 0. -1.
</event>
<event>
 5   0  0.2503680E-04  0.9998373E+03  0.7818609E-02  0.9308723E-01
       -2   -1    0    0    0  501  0.00000000000E+00  0.00000000000E+00  0.73652451002E+03  0.73652451002E+03  0.25500000920E-02 0. -1.
        2   -1    0    0  501    0  0.00000000000E+00  0.00000000000E+00 -0.33932159264E+03  0.33932159265E+03  0.25500000920E-02 0.  1.
    10030    2    1    2    0    0  0.00000000000E+00  0.00000000000E+00  0.39720291737E+03  0.10758461027E+04  0.99983732630E+03 0.  0.
        2    1    3    3  502    0  0.21985677792E+03  0.17499378694E+03  0.64350574315E+03  0.70218193493E+03  0.25500000920E-02 0. -1.
       -2    1    3    3    0  502 -0.21985677792E+03 -0.17499378694E+03 -0.24630282577E+03  0.37366416775E+03  0.25500000920E-02 0.  1.
</event>
<event>
 5   0  0.1414165E-04  0.9998603E+03  0.7818609E-02  0.9308698E-01
        1   -1    0    0  501    0  0.00000000000E+00  0.00000000000E+00  0.17996387584E+04  0.17996387584E+04  0.50400001928E-02 0. -1.
       -1   -1    0    0    0  501  0.00000000000E+00  0.00000000000E+00 -0.13887796989E+03  0.13887796998E+03  0.50400001928E-02 0.  1.
    10030    2    1    2    0    0  0.00000000000E+00  0.00000000000E+00  0.16607607885E+04  0.19385167284E+04  0.99986034503E+03 0.  0.
        4    1    3    3  502    0 -0.70582460191E+02 -0.22911042057E+03  0.16809207340E+04  0.16979309749E+04  0.12699999809E+01 0. -1.
       -4    1    3    3    0  502  0.70582460191E+02  0.22911042057E+03 -0.20159945480E+02  0.24058575353E+03  0.12699999809E+01 0.  1.
</event>
<event>
 5   0  0.1414165E-04  0.9999585E+03  0.7818609E-02  0.9308590E-01
       -1   -1    0    0    0  501  0.00000000000E+00  0.00000000000E+00  0.86325209421E+02  0.86325209568E+02  0.50400001928E-02 0.  1.
        1   -1    0    0  501    0  0.00000000000E+00  0.00000000000E+00 -0.28957848129E+04  0.28957848129E+04  0.50400001928E-02 0. -1.
    10030    2    1    2    0    0  0.00000000000E+00  0.00000000000E+00 -0.28094596034E+04  0.29821100224E+04  0.99995846041E+03 0.  0.
        4    1    3    3  502    0 -0.47879430828E+03  0.28418838959E+01 -0.18340632792E+04  0.18955320601E+04  0.12699999809E+01 0. -1.
       -4    1    3    3    0  502  0.47879430828E+03 -0.28418838959E+01 -0.97539632428E+03  0.10865779623E+04  0.12699999809E+01 0.  1.
</event>
<event>
 5   0  0.1453863E-04  0.9999481E+03  0.7818609E-02  0.9308602E-01
       -1   -1    0    0    0  501  0.00000000000E+00  0.00000000000E+00  0.42960195371E+03  0.42960195374E+03  0.50400001928E-02 0.  1.
        1   -1    0    0  501    0  0.00000000000E+00  0.00000000000E+00 -0.58187367747E+03  0.58187367749E+03  0.50400001928E-02 0. -1.
    10030    2    1    2    0    0  0.00000000000E+00  0.00000000000E+00 -0.15227172376E+03  0.10114756312E+04  0.99994813601E+03 0.  0.
        1    1    3    3  502    0 -0.24902741973E+03  0.35311251485E+03 -0.33057280965E+03  0.54404180577E+03  0.50400001928E-02 0. -1.
       -1    1    3    3    0  502  0.24902741973E+03 -0.35311251485E+03  0.17830108589E+03  0.46743382545E+03  0.50400001928E-02 0.  1.
</event>
<event>
 5   0  0.1461334E-04  0.9993534E+03  0.7818609E-02  0.9309254E-01
       -1   -1    0    0    0  501  0.00000000000E+00  0.00000000000E+00  0.29329879249E+03  0.29329879253E+03  0.50400001928E-02 0. -1.
        1   -1    0    0  501    0  0.00000000000E+00  0.00000000000E+00 -0.85127113697E+03  0.85127113699E+03  0.50400001928E-02 0.  1.
    10030    2    1    2    0    0  0.00000000000E+00  0.00000000000E+00 -0.55797234448E+03  0.11445699295E+04  0.99935338412E+03 0.  0.
        2    1    3    3  502    0  0.30545046596E+03 -0.39471767604E+03 -0.25152818834E+03  0.55889932946E+03  0.25500000920E-02 0. -1.
       -2    1    3    3    0  502 -0.30545046596E+03  0.39471767604E+03 -0.30644415614E+03  0.58567060006E+03  0.25500000920E-02 0.  1.
</event>
<event>
 5   0  0.9650500E-05  0.9947740E+03  0.7818609E-02  0.9314295E-01
        4   -1    0    0  501    0  0.00000000000E+00  0.00000000000E+00  0.37863771876E+03  0.37863984863E+03  0.12699999809E+01 0. -1.
       -4   -1    0    0    0  501  0.00000000000E+00  0.00000000000E+00 -0.65337412719E+03  0.65337536148E+03  0.12699999809E+01 0.  1.
    10030    2    1    2    0    0  0.00000000000E+00  0.00000000000E+00 -0.27473640843E+03  0.10320152101E+04  0.99477399432E+03 0.  0.
        3    1    3    3  502    0 -0.17593616501E+03  0.19426998788E+03  0.30118600694E+03  0.39925854196E+03  0.10100000352E+00 0. -1.
       -3    1    3    3    0  502  0.17593616501E+03 -0.19426998788E+03 -0.57592241537E+03  0.63275666814E+03  0.10100000352E+00 0.  1.
</event>
<event>
 5   0  0.2484904E-04  0.1000132E+04  0.7818609E-02  0.9308400E-01
        2   -1    0    0  501    0  0.00000000000E+00  0.00000000000E+00  0.35166238323E+03  0.35166238324E+03  0.25500000920E-02 0.  1.
       -2   -1    0    0    0  501  0.00000000000E+00  0.00000000000E+00 -0.71109673812E+03  0.71109673813E+03  0.25500000920E-02 0. -1.
    10030    2    1    2    0    0  0.00000000000E+00  0.00000000000E+00 -0.35943435490E+03  0.10627591214E+04  0.10001319386E+04 0.  0.
        3    1    3    3  502    0  0.22065212925E+03  0.23838632167E+03  0.22428847217E+03  0.39474134500E+03  0.10100000352E+00 0.  1.
       -3    1    3    3    0  502 -0.22065212925E+03 -0.23838632167E+03 -0.58372282707E+03  0.66801777637E+03  0.10100000352E+00 0. -1.
</event>
<event>
 5   0  0.2403037E-04  0.1000585E+04  0.7818609E-02  0.9307904E-01
       -2   -1    0    0    0  501  0.00000000000E+00  0.00000000000E+00  0.91069473632E+03  0.91069473633E+03  0.25500000920E-02 0.  1.
        2   -1    0    0  501    0  0.00000000000E+00  0.00000000000E+00 -0.27483693037E+03  0.27483693038E+03  0.25500000920E-02 0. -1.
    10030    2    1    2    0    0  0.00000000000E+00  0.00000000000E+00  0.63585780595E+03  0.11855316667E+04  0.10005849206E+04 0.  0.
        1    1    3    3  502    0  0.24125790407E+03  0.43745418811E+03  0.34974359288E+03  0.60982958584E+03  0.50400001928E-02 0.  1.
       -1    1    3    3    0  502 -0.24125790407E+03 -0.43745418811E+03  0.28611421307E+03  0.57570208087E+03  0.50400001928E-02 0. -1.
</event>
<event>
 5   0  0.2484904E-04  0.1000990E+04  0.7818609E-02  0.9307460E-01
        2   -1    0    0  501    0  0.00000000000E+00  0.00000000000E+00  0.18839087868E+04  0.18839087868E+04  0.25500000920E-02 0.  1.
       -2   -1    0    0    0  501  0.00000000000E+00  0.00000000000E+00 -0.13296558893E+03  0.13296558895E+03  0.25500000920E-02 0. -1.
    10030    2    1    2    0    0  0.00000000000E+00  0.00000000000E+00  0.17509431979E+04  0.20168743758E+04  0.10009895931E+04 0.  0.
        3    1    3    3  502    0  0.29870279340E+03 -0.29052999808E+03  0.14340842355E+04  0.14933950058E+04  0.10100000352E+00 0.  1.
       -3    1    3    3    0  502 -0.29870279340E+03  0.29052999808E+03  0.31685896241E+03  0.52347937001E+03  0.10100000352E+00 0. -1.
</event>
<event>
 5   0  0.1414165E-04  0.1000039E+04  0.7818609E-02  0.9308502E-01
       -1   -1    0    0    0  501  0.00000000000E+00  0.00000000000E+00  0.24698477192E+03  0.24698477197E+03  0.50400001928E-02 0.  1.
        1   -1    0    0  501    0  0.00000000000E+00  0.00000000000E+00 -0.10122862938E+04  0.10122862938E+04  0.50400001928E-02 0. -1.
    10030    2    1    2    0    0  0.00000000000E+00  0.00000000000E+00 -0.76530152188E+03  0.12592710658E+04  0.10000385981E+04 0.  0.
        4    1    3    3  502    0 -0.14381870590E+03 -0.31299969203E+03  0.73745833307E+02  0.35226792106E+03  0.12699999809E+01 0.  1.
       -4    1    3    3    0  502  0.14381870590E+03  0.31299969203E+03 -0.83904735518E+03  0.90700314472E+03  0.12699999809E+01 0. -1.
</event>
<event>
 5   0  0.2503680E-04  0.9994833E+03  0.7818609E-02  0.9309112E-01
        2   -1    0    0  501    0  0.00000000000E+00  0.00000000000E+00  0.10711987747E+04  0.10711987747E+04  0.25500000920E-02 0. -1.
       -2   -1    0    0    0  501  0.00000000000E+00  0.00000000000E+00 -0.23314225929E+03  0.23314225931E+03  0.25500000920E-02 0.  1.
    10030    2    1    2    0    0  0.00000000000E+00  0.00000000000E+00  0.83805651541E+03  0.13043410340E+04  0.99948327149E+03 0.  0.
        2    1    3    3  502    0 -0.29683569633E+03 -0.13850835869E+03  0.91156690041E+03  0.96863316585E+03  0.25500000920E-02 0. -1.
       -2    1    3    3    0  502  0.29683569633E+03  0.13850835869E+03 -0.73510385000E+02  0.33570786817E+03  0.25500000920E-02 0.  1.
</event>
<event>
 5   0  0.2503680E-04  0.1000906E+04  0.7818609E-02  0.9307551E-01
       -2   -1    0    0    0  501  0.00000000000E+00  0.00000000000E+00  0.12081997285E+03  0.12081997288E+03  0.25500000920E-02 0. -1.
        2   -1    0    0  501    0  0.00000000000E+00  0.00000000000E+00 -0.20729463170E+04  0.20729463170E+04  0.25500000920E-02 0.  1.
    10030    2    1    2    0    0  0.00000000000E+00  0.00000000000E+00 -0.19521263441E+04  0.21937662899E+04  0.10009062249E+04 0.  0.
        2    1    3    3  502    0 -0.12010242525E+03  0.43383334461E+03 -0.49678269361E+03  0.67039466594E+03  0.25500000920E-02 0. -1.
       -2    1    3    3    0  502  0.12010242525E+03 -0.43383334461E+03 -0.14553436505E+04  0.15233716239E+04  0.25500000920E-02 0.  1.
</event>
<event>
 5   0  0.1414165E-04  0.1000017E+04  0.7818609E-02  0.9308526E-01
       -1   -1    0    0    0  501  0.00000000000E+00  0.00000000000E+00  0.91205852324E+03  0.91205852325E+03  0.50400001928E-02 0. -1.
        1   -1    0    0  501    0  0.00000000000E+00  0.00000000000E+00 -0.27411477635E+03  0.27411477640E+03  0.50400001928E-02 0.  1.
    10030    2    1    2    0    0  0.00000000000E+00  0.00000000000E+00  0.63794374689E+03  0.11861732996E+04  0.10000174361E+04 0.  0.
        4    1    3    3  502    0  0.67871292236E+01 -0.26064301355E+02  0.91119554687E+03  0.91159440020E+03  0.12699999809E+01 0. -1.
       -4    1    3    3    0  502 -0.67871292236E+01  0.26064301355E+02 -0.27325179999E+03  0.27457889945E+03  0.12699999809E+01 0.  1.
</event>
<event>
 5   0  0.1461334E-04  0.9985119E+03  0.7818609E-02  0.9310178E-01
        1   -1    0    0  501    0  0.00000000000E+00  0.00000000000E+00  0.32639776173E+03  0.32639776177E+03  0.50400001928E-02 0. -1.
       -1   -1    0    0    0  501  0.00000000000E+00  0.00000000000E+00 -0.76365871999E+03  0.76365872001E+03  0.50400001928E-02 0.  1.
    10030    2    1    2    0    0  0.00000000000E+00  0.00000000000E+00 -0.43726095826E+03  0.10900564818E+04  0.99851188668E+03 0.  0.
        2    1    3    3  502    0 -0.28525898262E+03  0.37792631446E+03 -0.45829025524E+02  0.47571134726E+03  0.25500000920E-02 0.  1.
       -2    1    3    3    0  502  0.28525898262E+03 -0.37792631446E+03 -0.39143193273E+03  0.61434513451E+03  0.25500000920E-02 0. -1.
</event>
<event>
 5   0  0.1430675E-04  0.9990296E+03  0.7818609E-02  0.9309610E-01
        1   -1    0    0  501    0  0.00000000000E+00  0.00000000000E+00  0.14687290282E+04  0.14687290282E+04  0.50400001928E-02 0. -1.
       -1   -1    0    0    0  501  0.00000000000E+00  0.00000000000E+00 -0.16988501119E+03  0.16988501126E+03  0.50400001928E-02 0.  1.
    10030    2    1    2    0    0  0.00000000000E+00  0.00000000000E+00  0.12988440170E+04  0.16386140394E+04  0.99902962409E+03 0.  0.
        5    1    3    3  502    0  0.48543361398E+03 -0.94630683177E+02  0.53469905916E+03  0.72837211207E+03  0.46999998093E+01 0. -1.
       -5    1    3    3    0  502 -0.48543361398E+03  0.94630683177E+02  0.76414495783E+03  0.91024192737E+03  0.46999998093E+01 0.  1.
</event>
<event>
 5   0  0.2353916E-04  0.1000535E+04  0.7818609E-02  0.9307958E-01
       -2   -1    0    0    0  501  0.00000000000E+00  0.00000000000E+00  0.99216329412E+02  0.99216329445E+02  0.25500000920E-02 0.  1.
        2   -1    0    0  501    0  0.00000000000E+00  0.00000000000E+00 -0.25224435855E+04  0.25224435855E+04  0.25500000920E-02 0. -1.
    10030    2    1    2    0    0  0.00000000000E+00  0.00000000000E+00 -0.24232272561E+04  0.26216599150E+04  0.10005350444E+04 0.  0.
        4    1    3    3  502    0  0.37155409477E+03 -0.33447450213E+03 -0.12599531573E+04  0.13555106822E+04  0.12699999809E+01 0. -1.
       -4    1    3    3    0  502 -0.37155409477E+03  0.33447450213E+03 -0.11632740988E+04  0.12661492328E+04  0.12699999809E+01 0.  1.
</event>
<event>
 5   0  0.1430675E-04  0.1000275E+04  0.7818609E-02  0.9308243E-01
       -1   -1    0    0    0  501  0.00000000000E+00  0.00000000000E+00  0.29148140019E+03  0.29148140023E+03  0.50400001928E-02 0. -1.
        1   -1    0    0  501    0  0.00000000000E+00  0.00000000000E+00 -0.85815918868E+03  0.85815918869E+03  0.50400001928E-02 0.  1.
    10030    2    1    2    0    0  0.00000000000E+00  0.00000000000E+00 -0.56667778849E+03  0.11496405889E+04  0.10002748461E+04 0.  0.
        5    1    3    3  502    0  0.14083013479E+03  0.14041733659E+03  0.24405613946E+03  0.31485813391E+03  0.46999998093E+01 0. -1.
       -5    1    3    3    0  502 -0.14083013479E+03 -0.14041733659E+03 -0.81073392795E+03  0.83478245502E+03  0.46999998093E+01 0.  1.
</event>
<event>
 5   0  0.2403037E-04  0.1000156E+04  0.7818609E-02  0.9308374E-01
        2   -1    0    0  501    0  0.00000000000E+00  0.00000000000E+00  0.14735798003E+04  0.14735798003E+04  0.25500000920E-02 0. -1.
       -2   -1    0    0    0  501  0.00000000000E+00  0.00000000000E+00 -0.16970786333E+03  0.16970786335E+03  0.25500000920E-02 0.  1.
    10030    2    1    2    0    0  0.00000000000E+00  0.00000000000E+00  0.13038719370E+04  0.16432876637E+04  0.10001561466E+04 0.  0.
        1    1    3    3  502    0 -0.44883265642E+02 -0.32404591180E+03  0.30492559446E+02  0.32855753940E+03  0.50400001928E-02 0. -1.
       -1    1    3    3    0  502  0.44883265642E+02  0.32404591180E+03  0.12733793776E+04  0.13147301243E+04  0.50400001928E-02 0.  1.
</event>
<event>
 5   0  0.1430675E-04  0.9986931E+03  0.7818609E-02  0.9309979E-01
        1   -1    0    0  501    0  0.00000000000E+00  0.00000000000E+00  0.23216973192E+03  0.23216973197E+03  0.50400001928E-02 0.  1.
       -1   -1    0    0    0  501  0.00000000000E+00  0.00000000000E+00 -0.10739856496E+04  0.10739856496E+04  0.50400001928E-02 0. -1.
    10030    2    1    2    0    0  0.00000000000E+00  0.00000000000E+00 -0.84181591766E+03  0.13061553816E+04  0.99869306674E+03 0.  0.
        5    1    3    3  502    0 -0.27628942749E+03 -0.48456323855E+02 -0.96117007124E+03  0.10012761152E+04  0.46999998093E+01 0. -1.
       -5    1    3    3    0  502  0.27628942749E+03  0.48456323855E+02  0.11935415359E+03  0.30487926633E+03  0.46999998093E+01 0.  1.
</event>
<event>
 5   0  0.1453863E-04  0.9999887E+03  0.7818609E-02  0.9308557E-01
        1   -1    0    0  501    0  0.00000000000E+00  0.00000000000E+00  0.43700053559E+03  0.43700053562E+03  0.50400001928E-02 0. -1.
       -1   -1    0    0    0  501  0.00000000000E+00  0.00000000000E+00 -0.57206876924E+03  0.57206876926E+03  0.50400001928E-02 0.  1.
    10030    2    1    2    0    0  0.00000000000E+00  0.00000000000E+00 -0.13506823365E+03  0.10090693049E+04  0.99998871708E+03 0.  0.
        1    1    3    3  502    0 -0.38010042757E+03 -0.24819318505E+03  0.14393550837E+03  0.47622854045E+03  0.50400001928E-02 0. -1.
       -1    1    3    3    0  502  0.38010042757E+03  0.24819318505E+03 -0.27900374202E+03  0.53284076442E+03  0.50400001928E-02 0.  1.
</event>
<event>
 5   0  0.1506454E-04  0.1000576E+04  0.7818609E-02  0.9307914E-01
       -1   -1    0    0    0  501  0.00000000000E+00  0.00000000000E+00  0.28118792804E+03  0.28118792809E+03  0.50400001928E-02 0. -1.
        1   -1    0    0  501    0  0.00000000000E+00  0.00000000000E+00 -0.89010917623E+03  0.89010917624E+03  0.50400001928E-02 0.  1.
    10030    2    1    2    0    0  0.00000000000E+00  0.00000000000E+00 -0.60892124819E+03  0.11712971043E+04  0.10005757443E+04 0.  0.
        3    1    3    3  502    0 -0.65974681557E+02 -0.15410895014E+03  0.24733108196E+03  0.29878905841E+03  0.10100000352E+00 0. -1.
       -3    1    3    3    0  502  0.65974681557E+02  0.15410895014E+03 -0.85625233015E+03  0.87250804592E+03  0.10100000352E+00 0.  1.
</event>
<event>
 5   0  0.1430675E-04  0.1000440E+04  0.7818609E-02  0.9308063E-01
       -1   -1    0    0    0  501  0.00000000000E+00  0.00000000000E+00  0.17686645551E+03  0.17686645558E+03  0.50400001928E-02 0. -1.
        1   -1    0    0  501    0  0.00000000000E+00  0.00000000000E+00 -0.14147386596E+04  0.14147386596E+04  0.50400001928E-02 0.  1.
    10030    2    1    2    0    0  0.00000000000E+00  0.00000000000E+00 -0.12378722041E+04  0.15916051152E+04  0.10004395279E+04 0.  0.
        5    1    3    3  502    0 -0.18703974311E+03  0.11895905042E+03  0.94426161870E+02  0.24098446262E+03  0.46999998093E+01 0. -1.
       -5    1    3    3    0  502  0.18703974311E+03 -0.11895905042E+03 -0.13322983660E+04  0.13506206526E+04  0.46999998093E+01 0.  1.
</event>
<event>
 5   0  0.2353916E-04  0.1002933E+04  0.7818609E-02  0.9305334E-01
        2   -1    0    0  501    0  0.00000000000E+00  0.00000000000E+00  0.59978373734E+03  0.59978373735E+03  0.25500000920E-02 0. -1.
       -2   -1    0    0    0  501  0.00000000000E+00  0.00000000000E+00 -0.41926531493E+03  0.41926531494E+03  0.25500000920E-02 0.  1.
    10030    2    1    2    0    0  0.00000000000E+00  0.00000000000E+00  0.18051842241E+03  0.10190490523E+04  0.10029327346E+04 0.  0.
        4    1    3    3  502    0  0.14768311255E+03  0.61019836000E+02  0.57322158000E+03  0.59507841062E+03  0.12699999809E+01 0. -1.
       -4    1    3    3    0  502 -0.14768311255E+03 -0.61019836000E+02 -0.39270315759E+03  0.42397064167E+03  0.12699999809E+01 0.  1.
</event>
<event>
 5   0  0.2484904E-04  0.1000052E+04  0.7818609E-02  0.9308488E-01
       -2   -1    0    0    0  501  0.00000000000E+00  0.00000000000E+00  0.32728493146E+03  0.32728493147E+03  0.25500000920E-02 0.  1.
        2   -1    0    0  501    0  0.00000000000E+00  0.00000000000E+00 -0.76394010768E+03  0.76394010768E+03  0.25500000920E-02 0. -1.
    10030    2    1    2    0    0  0.00000000000E+00  0.00000000000E+00 -0.43665517622E+03  0.10912250392E+04  0.10000521702E+04 0.  0.
        3    1    3    3  502    0  0.47219190946E+02 -0.29225112388E+03 -0.65803679836E+03  0.72156275514E+03  0.10100000352E+00 0. -1.
       -3    1    3    3    0  502 -0.47219190946E+02  0.29225112388E+03  0.22138162215E+03  0.36966228402E+03  0.10100000352E+00 0.  1.
</event>
<event>
 5   0  0.2503680E-04  0.9969581E+03  0.7818609E-02  0.9311887E-01
        2   -1    0    0  501    0  0.00000000000E+00  0.00000000000E+00  0.13684814278E+04  0.13684814278E+04  0.25500000920E-02 0.  1.
       -2   -1    0    0    0  501  0.00000000000E+00  0.00000000000E+00 -0.18157452057E+03  0.18157452059E+03  0.25500000920E-02 0. -1.
    10030    2    1    2    0    0  0.00000000000E+00  0.00000000000E+00  0.11869069072E+04  0.15500559484E+04  0.99695809175E+03 0.  0.
        2    1    3    3  502    0  0.43051848669E+03 -0.24364730906E+03  0.68893273366E+03  0.84813824941E+03  0.25500000920E-02 0. -1.
       -2    1    3    3    0  502 -0.43051848669E+03  0.24364730906E+03  0.49797417352E+03  0.70191769894E+03  0.25500000920E-02 0.  1.
</event>
<event>
 5   0  0.2403037E-04  0.1000492E+04  0.7818609E-02  0.9308005E-01
        2   -1    0    0  501    0  0.00000000000E+00  0.00000000000E+00  0.34479378022E+03  0.34479378023E+03  0.25500000920E-02 0. -1.
       -2   -1    0    0    0  501  0.00000000000E+00  0.00000000000E+00 -0.72578525919E+03  0.72578525919E+03  0.25500000920E-02 0.  1.
    10030    2    1    2    0    0  0.00000000000E+00  0.00000000000E+00 -0.38099147897E+03  0.10705790394E+04  0.10004923651E+04 0.  0.
        1    1    3    3  502    0 -0.92048071220E+02 -0.38475643668E+03 -0.51810629653E+03  0.65187767066E+03  0.50400001928E-02 0.  1.
       -1    1    3    3    0  502  0.92048071220E+02  0.38475643668E+03  0.13711481756E+03  0.41870136876E+03  0.50400001928E-02 0. -1.
</event>
<event>
 5   0  0.2473312E-04  0.1000475E+04  0.7818609E-02  0.9308024E-01
        2   -1    0    0  501    0  0.00000000000E+00  0.00000000000E+00  0.33140860508E+03  0.33140860509E+03  0.25500000920E-02 0. -1.
       -2   -1    0    0    0  501  0.00000000000E+00  0.00000000000E+00 -0.75507316335E+03  0.75507316336E+03  0.25500000920E-02 0.  1.
    10030    2    1    2    0    0  0.00000000000E+00  0.00000000000E+00 -0.42366455828E+03  0.10864817684E+04  0.10004753746E+04 0.  0.
        5    1    3    3  502    0 -0.79267382436E+02  0.32403693916E+03 -0.61661112278E+03  0.70108103854E+03  0.46999998093E+01 0.  1.
       -5    1    3    3    0  502  0.79267382436E+02 -0.32403693916E+03  0.19294656451E+03  0.38540072991E+03  0.46999998093E+01 0. -1.
</event>
<event>
 5   0  0.2484904E-04  0.9989333E+03  0.7818609E-02  0.9309716E-01
        2   -1    0    0  501    0  0.00000000000E+00  0.00000000000E+00  0.10275441877E+04  0.10275441877E+04  0.25500000920E-02 0.  1.
       -2   -1    0    0    0  501  0.00000000000E+00  0.00000000000E+00 -0.24277976559E+03  0.24277976561E+03  0.25500000920E-02 0. -1.
    10030    2    1    2    0    0  0.00000000000E+00  0.00000000000E+00  0.78476442213E+03  0.12703239533E+04  0.99893330517E+03 0.  0.
        3    1    3    3  502    0 -0.22783560082E+03  0.41663866997E+03  0.19549714444E+03  0.51353284803E+03  0.10100000352E+00 0. -1.
       -3    1    3    3    0  502  0.22783560082E+03 -0.41663866997E+03  0.58926727769E+03  0.75679110531E+03  0.10100000352E+00 0.  1.
</event>
<event>
 5   0  0.1453863E-04  0.1000281E+04  0.7818609E-02  0.9308237E-01
        1   -1    0    0  501    0  0.00000000000E+00  0.00000000000E+00  0.78261554715E+03  0.78261554717E+03  0.50400001928E-02 0.  1.
       -1   -1    0    0    0  501  0.00000000000E+00  0.00000000000E+00 -0.31962100322E+03  0.31962100326E+03  0.50400001928E-02 0. -1.
    10030    2    1    2    0    0  0.00000000000E+00  0.00000000000E+00  0.46299454393E+03  0.11022365504E+04  0.10002806933E+04 0.  0.
        1    1    3    3  502    0 -0.96428039903E+02 -0.48305293638E+03  0.13605573990E+03  0.51102805266E+03  0.50400001928E-02 0. -1.
       -1    1    3    3    0  502  0.96428039903E+02  0.48305293638E+03  0.32693880403E+03  0.59120849777E+03  0.50400001928E-02 0.  1.
</event>
<event>
 5   0  0.1506454E-04  0.9998697E+03  0.7818609E-02  0.9308688E-01
        1   -1    0    0  501    0  0.00000000000E+00  0.00000000000E+00  0.70542964332E+03  0.70542964333E+03  0.50400001928E-02 0.  1.
       -1   -1    0    0    0  501  0.00000000000E+00  0.00000000000E+00 -0.35430158772E+03  0.35430158776E+03  0.50400001928E-02 0. -1.
    10030    2    1    2    0    0  0.00000000000E+00  0.00000000000E+00  0.35112805560E+03  0.10597312311E+04  0.99986967687E+03 0.  0.
        3    1    3    3  502    0 -0.19824021089E+03  0.24153823156E+03 -0.23804981406E+03  0.39282008947E+03  0.10100000352E+00 0. -1.
       -3    1    3    3    0  502  0.19824021089E+03 -0.24153823156E+03  0.58917786966E+03  0.66691114162E+03  0.10100000352E+00 0.  1.
</event>
<event>
 5   0  0.1430675E-04  0.1000511E+04  0.7818609E-02  0.9307984E-01
       -1   -1    0    0    0  501  0.00000000000E+00  0.00000000000E+00  0.13621049358E+03  0.13621049367E+03  0.50400001928E-02 0. -1.
        1   -1    0    0  501    0  0.00000000000E+00  0.00000000000E+00 -0.18372709542E+04  0.18372709542E+04  0.50400001928E-02 0.  1.
    10030    2    1    2    0    0  0.00000000000E+00  0.00000000000E+00 -0.17010604606E+04  0.19734814478E+04  0.10005110366E+04 0.  0.
        5    1    3    3  502    0 -0.33676779271E+03 -0.10393392867E+03 -0.15507407604E+04  0.15902936218E+04  0.46999998093E+01 0.  1.
       -5    1    3    3    0  502  0.33676779271E+03  0.10393392867E+03 -0.15031970020E+03  0.38318782601E+03  0.46999998093E+01 0. -1.
</event>
<event>
 5   0  0.1506454E-04  0.1000006E+04  0.7818609E-02  0.9308538E-01
       -1   -1    0    0    0  501  0.00000000000E+00  0.00000000000E+00  0.11056529655E+04  0.11056529655E+04  0.50400001928E-02 0.  1.
        1   -1    0    0  501    0  0.00000000000E+00  0.00000000000E+00 -0.22611357569E+03  0.22611357574E+03  0.50400001928E-02 0. -1.
    10030    2    1    2    0    0  0.00000000000E+00  0.00000000000E+00  0.87953938978E+03  0.13317665412E+04  0.10000062911E+04 0.  0.
        3    1    3    3  502    0 -0.48953934607E+02  0.43351891942E+03  0.11446068890E+03  0.45103924520E+03  0.10100000352E+00 0. -1.
       -3    1    3    3    0  502  0.48953934607E+02 -0.43351891942E+03  0.76507870088E+03  0.88072729602E+03  0.10100000352E+00 0.  1.
</event>
<event>
 5   0  0.2503680E-04  0.9997148E+03  0.7818609E-02  0.9308858E-01
        2   -1    0    0  501    0  0.00000000000E+00  0.00000000000E+00  0.17542922951E+04  0.17542922951E+04  0.25500000920E-02 0.  1.
       -2   -1    0    0    0  501  0.00000000000E+00  0.00000000000E+00 -0.14242633482E+03  0.14242633484E+03  0.25500000920E-02 0. -1.
    10030    2    1    2    0    0  0.00000000000E+00  0.00000000000E+00  0.16118659602E+04  0.18967186299E+04  0.99971480295E+03 0.  0.
        2    1    3    3  502    0 -0.42326830110E+03  0.20155629083E+03  0.11349663311E+04  0.12279778360E+04  0.25500000920E-02 0.  1.
       -2    1    3    3    0  502  0.42326830110E+03 -0.20155629083E+03  0.47689962915E+03  0.66874079386E+03  0.25500000920E-02 0. -1.
</event>
<event>
 5   0  0.2484904E-04  0.1000252E+04  0.7818609E-02  0.9308269E-01
        2   -1    0    0  501    0  0.00000000000E+00  0.00000000000E+00  0.26070387431E+04  0.26070387431E+04  0.25500000920E-02 0.  1.
       -2   -1    0    0    0  501  0.00000000000E+00  0.00000000000E+00 -0.95942551069E+02  0.95942551103E+02  0.25500000920E-02 0. -1.
    10030    2    1    2    0    0  0.00000000000E+00  0.00000000000E+00  0.25110961921E+04  0.27029812942E+04  0.10002518639E+04 0.  0.
        3    1    3    3  502    0  0.30894547734E+03 -0.25935105952E+03  0.45658212002E+03  0.60924340174E+03  0.10100000352E+00 0. -1.
       -3    1    3    3    0  502 -0.30894547734E+03  0.25935105952E+03  0.20545140721E+04  0.20937378925E+04  0.10100000352E+00 0.  1.
</event>
<event>
 5   0  0.1506454E-04  0.1000921E+04  0.7818609E-02  0.9307535E-01
       -1   -1    0    0    0  501  0.00000000000E+00  0.00000000000E+00  0.35380262163E+03  0.35380262167E+03  0.50400001928E-02 0.  1.
        1   -1    0    0  501    0  0.00000000000E+00  0.00000000000E+00 -0.70791144864E+03  0.70791144866E+03  0.50400001928E-02 0. -1.
    10030    2    1    2    0    0  0.00000000000E+00  0.00000000000E+00 -0.35410882701E+03  0.10617140703E+04  0.10009214284E+04 0.  0.
        3    1    3    3  502    0  0.53326523627E+02  0.15619616143E+03 -0.67821175435E+03  0.69800584017E+03  0.10100000352E+00 0. -1.
       -3    1    3    3    0  502 -0.53326523627E+02 -0.15619616143E+03  0.32410292735E+03  0.36370823016E+03  0.10100000352E+00 0.  1.
</event>
<event>
 5   0  0.1461334E-04  0.9993810E+03  0.7818609E-02  0.9309224E-01
       -1   -1    0    0    0  501  0.00000000000E+00  0.00000000000E+00  0.85271832712E+03  0.85271832713E+03  0.50400001928E-02 0. -1.
        1   -1    0    0  501    0  0.00000000000E+00  0.00000000000E+00 -0.29281717553E+03  0.29281717557E+03  0.50400001928E-02 0.  1.
    10030    2    1    2    0    0  0.00000000000E+00  0.00000000000E+00  0.55990115159E+03  0.11455355027E+04  0.99938095259E+03 0.  0.
        2    1    3    3  502    0 -0.30745719109E+03 -0.33398783458E+03  0.40572516581E+02  0.45576740461E+03  0.25500000920E-02 0.  1.
       -2    1    3    3    0  502  0.30745719109E+03  0.33398783458E+03  0.51932863501E+03  0.68976809809E+03  0.25500000920E-02 0. -1.
</event>
<event>
 5   0  0.2503680E-04  0.1000391E+04  0.7818609E-02  0.9308116E-01
        2   -1    0    0  501    0  0.00000000000E+00  0.00000000000E+00  0.87527181856E+03  0.87527181856E+03  0.25500000920E-02 0.  1.
       -2   -1    0    0    0  501  0.00000000000E+00  0.00000000000E+00 -0.28584896207E+03  0.28584896208E+03  0.25500000920E-02 0. -1.
    10030    2    1    2    0    0  0.00000000000E+00  0.00000000000E+00  0.58942285649E+03  0.11611207806E+04  0.10003910053E+04 0.  0.
        2    1    3    3  502    0 -0.32711467877E+03  0.87245349949E+02  0.72208245541E+03  0.79750789123E+03  0.25500000920E-02 0. -1.
       -2    1    3    3    0  502  0.32711467877E+03 -0.87245349949E+02 -0.13265959892E+03  0.36361288942E+03  0.25500000920E-02 0.  1.
</event>
<event>
 5   0  0.1461334E-04  0.1003486E+04  0.7818609E-02  0.9304730E-01
        1   -1    0    0  501    0  0.00000000000E+00  0.00000000000E+00  0.48603166418E+03  0.48603166420E+03  0.50400001928E-02 0. -1.
       -1   -1    0    0    0  501  0.00000000000E+00  0.00000000000E+00 -0.51796203046E+03  0.51796203049E+03  0.50400001928E-02 0.  1.
    10030    2    1    2    0    0  0.00000000000E+00  0.00000000000E+00 -0.31930366286E+02  0.10039936947E+04  0.10034858199E+04 0.  0.
        2    1    3    3  502    0  0.78562212643E+02 -0.12754529162E+03 -0.49506673006E+03  0.51723388316E+03  0.25500000920E-02 0.  1.
       -2    1    3    3    0  502 -0.78562212643E+02  0.12754529162E+03  0.46313636377E+03  0.48675981153E+03  0.25500000920E-02 0. -1.
</event>
<event>
 5   0  0.9650500E-05  0.9999095E+03  0.7818609E-02  0.9308644E-01
       -3   -1    0    0    0  501  0.00000000000E+00  0.00000000000E+00  0.24124814863E+03  0.24124816977E+03  0.10100000352E+00 0.  1.
        3   -1    0    0  501    0  0.00000000000E+00  0.00000000000E+00 -0.10360897402E+04  0.10360897451E+04  0.10100000352E+00 0. -1.
    10030    2    1    2    0    0  0.00000000000E+00  0.00000000000E+00 -0.79484159156E+03  0.12773379149E+04  0.99990949246E+03 0.  0.
        4    1    3    3  502    0  0.23021011257E+03 -0.21533072653E+03 -0.89314703426E+03  0.94714162374E+03  0.12699999809E+01 0. -1.
       -4    1    3    3    0  502 -0.23021011257E+03  0.21533072653E+03  0.98305442696E+02  0.33019629114E+03  0.12699999809E+01 0.  1.
</event>
<event>
 5   0  0.2403037E-04  0.1000373E+04  0.7818609E-02  0.9308135E-01
       -2   -1    0    0    0  501  0.00000000000E+00  0.00000000000E+00  0.15193569680E+04  0.15193569680E+04  0.25500000920E-02 0. -1.
        2   -1    0    0  501    0  0.00000000000E+00  0.00000000000E+00 -0.16466620452E+03  0.16466620454E+03  0.25500000920E-02 0.  1.
    10030    2    1    2    0    0  0.00000000000E+00  0.00000000000E+00  0.13546907634E+04  0.16840231725E+04  0.10003734208E+04 0.  0.
        1    1    3    3  502    0  0.19149920297E+03  0.41751022709E+02 -0.97330137188E+02  0.21883383712E+03  0.50400001928E-02 0.  1.
       -1    1    3    3    0  502 -0.19149920297E+03 -0.41751022709E+02  0.14520209006E+04  0.14651893354E+04  0.50400001928E-02 0. -1.
</event>
<event>
 5   0  0.1414165E-04  0.1000689E+04  0.7818609E-02  0.9307789E-01
        1   -1    0    0  501    0  0.00000000000E+00  0.00000000000E+00  0.76501487539E+03  0.76501487540E+03  0.50400001928E-02 0. -1.
       -1   -1    0    0    0  501  0.00000000000E+00  0.00000000000E+00 -0.32724153313E+03  0.32724153316E+03  0.50400001928E-02 0.  1.
    10030    2    1    2    0    0  0.00000000000E+00  0.00000000000E+00  0.43777334226E+03  0.10922564086E+04  0.10006890440E+04 0.  0.
        4    1    3    3  502    0  0.73645933426E+02 -0.45511097860E+03  0.43108056011E+03  0.63117492707E+03  0.12699999809E+01 0. -1.
       -4    1    3    3    0  502 -0.73645933426E+02  0.45511097860E+03  0.66927821531E+01  0.46108148150E+03  0.12699999809E+01 0.  1.
</event>
<event>
 5   0  0.1453863E-04  0.9994807E+03  0.7818609E-02  0.9309115E-01
       -1   -1    0    0    0  501  0.00000000000E+00  0.00000000000E+00  0.11376640039E+03  0.11376640050E+03  0.50400001928E-02 0. -1.
        1   -1    0    0  501    0  0.00000000000E+00  0.00000000000E+00 -0.21952035386E+04  0.21952035386E+04  0.50400001928E-02 0.  1.
    10030    2    1    2    0    0  0.00000000000E+00  0.00000000000E+00 -0.20814371382E+04  0.23089699391E+04  0.99948067484E+03 0.  0.
        1    1    3    3  502    0  0.29113201984E+03  0.40464532671E+03 -0.95921470228E+03  0.10810127374E+04  0.50400001928E-02 0.  1.
       -1    1    3    3    0  502 -0.29113201984E+03 -0.40464532671E+03 -0.11222224359E+04  0.12279572016E+04  0.50400001928E-02 0. -1.
</event>
<event>
 5   0  0.1461334E-04  0.9998374E+03  0.7818609E-02  0.9308723E-01
        1   -1    0    0  501    0  0.00000000000E+00  0.00000000000E+00  0.43582204164E+03  0.43582204167E+03  0.50400001928E-02 0. -1.
       -1   -1    0    0    0  501  0.00000000000E+00  0.00000000000E+00 -0.57344206571E+03  0.57344206573E+03  0.50400001928E-02 0.  1.
    10030    2    1    2    0    0  0.00000000000E+00  0.00000000000E+00 -0.13762002407E+03  0.10092641074E+04  0.99983737051E+03 0.  0.
        2    1    3    3  502    0 -0.24427484193E+03 -0.42756501480E+03  0.18239067034E+02  0.49276231984E+03  0.25500000920E-02 0.  1.
       -2    1    3    3    0  502  0.24427484193E+03  0.42756501480E+03 -0.15585909110E+03  0.51650178757E+03  0.25500000920E-02 0. -1.
</event>
<event>
 5   0  0.2403037E-04  0.9997948E+03  0.7818609E-02  0.9308770E-01
       -2   -1    0    0    0  501  0.00000000000E+00  0.00000000000E+00  0.17972966265E+03  0.17972966267E+03  0.25500000920E-02 0. -1.
        2   -1    0    0  501    0  0.00000000000E+00  0.00000000000E+00 -0.13904070738E+04  0.13904070738E+04  0.25500000920E-02 0.  1.
    10030    2    1    2    0    0  0.00000000000E+00  0.00000000000E+00 -0.12106774112E+04  0.15701367365E+04  0.99979476762E+03 0.  0.
        1    1    3    3  502    0  0.47276610417E+03  0.16031911518E+03 -0.64651308608E+03  0.81681649006E+03  0.50400001928E-02 0. -1.
       -1    1    3    3    0  502 -0.47276610417E+03 -0.16031911518E+03 -0.56416432509E+03  0.75332024642E+03  0.50400001928E-02 0.  1.
</event>
<event>
 5   0  0.2473312E-04  0.1000003E+04  0.7818609E-02  0.9308542E-01
        2   -1    0    0  501    0  0.00000000000E+00  0.00000000000E+00  0.11172679730E+04  0.11172679730E+04  0.25500000920E-02 0. -1.
       -2   -1    0    0    0  501  0.00000000000E+00  0.00000000000E+00 -0.22376122493E+03  0.22376122495E+03  0.25500000920E-02 0.  1.
    10030    2    1    2    0    0  0.00000000000E+00  0.00000000000E+00  0.89350674807E+03  0.13410291980E+04  0.10000025005E+04 0.  0.
        5    1    3    3  502    0 -0.20272819828E+03  0.45653077154E+03  0.41798868275E+03  0.65134913576E+03  0.46999998093E+01 0. -1.
       -5    1    3    3    0  502  0.20272819828E+03 -0.45653077154E+03  0.47551806532E+03  0.68968006220E+03  0.46999998093E+01 0.  1.
</event>
<event>
 5   0  0.1506454E-04  0.9969230E+03  0.7818609E-02  0.9311926E-01
        1   -1    0    0  501    0  0.00000000000E+00  0.00000000000E+00  0.12553492662E+04  0.12553492662E+04  0.50400001928E-02 0. -1.
       -1   -1    0    0    0  501  0.00000000000E+00  0.00000000000E+00 -0.19792408155E+03  0.19792408161E+03  0.50400001928E-02 0.  1.
    10030    2    1    2    0    0  0.00000000000E+00  0.00000000000E+00  0.10574251846E+04  0.14532733478E+04  0.99692296710E+03 0.  0.
        3    1    3    3  502    0 -0.31266688165E+03  0.16536553787E+03  0.16714329031E+02  0.35409845946E+03  0.10100000352E+00 0.  1.
       -3    1    3    3    0  502  0.31266688165E+03 -0.16536553787E+03  0.10407108556E+04  0.10991748884E+04  0.10100000352E+00 0. -1.
</event>
<event>
 5   0  0.2353916E-04  0.9997782E+03  0.7818609E-02  0.9308788E-01
        2   -1    0    0  501    0  0.00000000000E+00  0.00000000000E+00  0.49603770773E+03  0.49603770774E+03  0.25500000920E-02 0.  1.
       -2   -1    0    0    0  501  0.00000000000E+00  0.00000000000E+00 -0.50377035930E+03  0.50377035930E+03  0.25500000920E-02 0. -1.
    10030    2    1    2    0    0  0.00000000000E+00  0.00000000000E+00 -0.77326515682E+01  0.99980806704E+03  0.99977816390E+03 0.  0.
        4    1    3    3  502    0  0.40501487482E+03  0.29223093644E+03 -0.25115780352E+02  0.50006837969E+03  0.12699999809E+01 0. -1.
       -4    1    3    3    0  502 -0.40501487482E+03 -0.29223093644E+03  0.17383128784E+02  0.49973968735E+03  0.12699999809E+01 0.  1.
</event>
<event>
 5   0  0.1414165E-04  0.9995683E+03  0.7818609E-02  0.9309018E-01
        1   -1    0    0  501    0  0.00000000000E+00  0.00000000000E+00  0.70194713882E+03  0.70194713884E+03  0.50400001928E-02 0. -1.
       -1   -1    0    0    0  501  0.00000000000E+00  0.00000000000E+00 -0.35584476799E+03  0.35584476802E+03  0.50400001928E-02 0.  1.
    10030    2    1    2    0    0  0.00000000000E+00  0.00000000000E+00  0.34610237083E+03  0.10577919069E+04  0.99956834040E+03 0.  0.
        4    1    3    3  502    0 -0.16732575407E+03  0.40811027779E+03  0.42175245943E+03  0.61026933132E+03  0.12699999809E+01 0. -1.
       -4    1    3    3    0  502  0.16732575407E+03 -0.40811027779E+03 -0.75650088605E+02  0.44752257554E+03  0.12699999809E+01 0.  1.
</event>
<event>
 5   0  0.1430675E-04  0.1000487E+04  0.7818609E-02  0.9308010E-01
       -1   -1    0    0    0  501  0.00000000000E+00  0.00000000000E+00  0.38301181645E+03  0.38301181648E+03  0.50400001928E-02 0.  1.
        1   -1    0    0  501    0  0.00000000000E+00  0.00000000000E+00 -0.65335784819E+03  0.65335784821E+03  0.50400001928E-02 0. -1.
    10030    2    1    2    0    0  0.00000000000E+00  0.00000000000E+00 -0.27034603174E+03  0.10363696647E+04  0.10004874337E+04 0.  0.
        5    1    3    3  502    0  0.34557926604E+03  0.35706086583E+03 -0.75629304012E+02  0.50265233775E+03  0.46999998093E+01 0.  1.
       -5    1    3    3    0  502 -0.34557926604E+03 -0.35706086583E+03 -0.19471672773E+03  0.53371732694E+03  0.46999998093E+01 0. -1.
</event>
<event>
 5   0  0.1461334E-04  0.9996201E+03  0.7818609E-02  0.9308962E-01
        1   -1    0    0  501    0  0.00000000000E+00  0.00000000000E+00  0.47462071923E+03  0.47462071925E+03  0.50400001928E-02 0.  1.
       -1   -1    0    0    0  501  0.00000000000E+00  0.00000000000E+00 -0.52633628618E+03  0.52633628621E+03  0.50400001928E-02 0. -1.
    10030    2    1    2    0    0  0.00000000000E+00  0.00000000000E+00 -0.51715566955E+02  0.10009570055E+04  0.99962014131E+03 0.  0.
        2    1    3    3  502    0 -0.45262433457E+03 -0.76730278840E+02 -0.22374237488E+03  0.51070243221E+03  0.25500000920E-02 0. -1.
       -2    1    3    3    0  502  0.45262433457E+03  0.76730278840E+02  0.17202680793E+03  0.49025457325E+03  0.25500000920E-02 0.  1.
</event>
<event>
 5   0  0.1461334E-04  0.9996682E+03  0.7818609E-02  0.9308909E-01
        1   -1    0    0  501    0  0.00000000000E+00  0.00000000000E+00  0.15287271402E+04  0.15287271402E+04  0.50400001928E-02 0.  1.
       -1   -1    0    0    0  501  0.00000000000E+00  0.00000000000E+00 -0.16342623148E+03  0.16342623156E+03  0.50400001928E-02 0. -1.
    10030    2    1    2    0    0  0.00000000000E+00  0.00000000000E+00  0.13653009087E+04  0.16921533718E+04  0.99966817606E+03 0.  0.
        2    1    3    3  502    0  0.21991906838E+03 -0.15567427104E+03  0.13952719133E+04  0.14210498188E+04  0.25500000920E-02 0.  1.
       -2    1    3    3    0  502 -0.21991906838E+03  0.15567427104E+03 -0.29971004642E+02  0.27110355296E+03  0.25500000920E-02 0. -1.
</event>
<event>
 5   0  0.1430675E-04  0.1000066E+04  0.7818609E-02  0.9308472E-01
        1   -1    0    0  501    0  0.00000000000E+00  0.00000000000E+00  0.54941358512E+03  0.54941358514E+03  0.50400001928E-02 0.  1.
       -1   -1    0    0    0  501  0.00000000000E+00  0.00000000000E+00 -0.45509064627E+03  0.45509064630E+03  0.50400001928E-02 0. -1.
    10030    2    1    2    0    0  0.00000000000E+00  0.00000000000E+00  0.94322938849E+02  0.10045042314E+04  0.10000659649E+04 0.  0.
        5    1    3    3  502    0 -0.10373747265E+03  0.40268194556E+03  0.32605662106E+03  0.52844036810E+03  0.46999998093E+01 0.  1.
       -5    1    3    3    0  502  0.10373747265E+03 -0.40268194556E+03 -0.23173368221E+03  0.47606386334E+03  0.46999998093E+01 0. -1.
</event>
<event>
 5   0  0.1430675E-04  0.1000152E+04  0.7818609E-02  0.9308378E-01
        1   -1    0    0  501    0  0.00000000000E+00  0.00000000000E+00  0.73902598614E+03  0.73902598616E+03  0.50400001928E-02 0.  1.
       -1   -1    0    0    0  501  0.00000000000E+00  0.00000000000E+00 -0.33838604474E+03  0.33838604478E+03  0.50400001928E-02 0. -1.
    10030    2    1    2    0    0  0.00000000000E+00  0.00000000000E+00  0.40063994140E+03  0.10774120309E+04  0.10001521493E+04 0.  0.
        5    1    3    3  502    0 -0.46483419062E+02 -0.45139149965E+03  0.42664207609E+03  0.62286478893E+03  0.46999998093E+01 0.  1.
       -5    1    3    3    0  502  0.46483419062E+02  0.45139149965E+03 -0.26002134690E+02  0.45454724200E+03  0.46999998093E+01 0. -1.
</event>
<event>
 5   0  0.1461334E-04  0.1000154E+04  0.7818609E-02  0.9308375E-01
       -1   -1    0    0    0  501  0.00000000000E+00  0.00000000000E+00  0.37131039509E+03  0.37131039513E+03  0.50400001928E-02 0.  1.
        1   -1    0    0  501    0  0.00000000000E+00  0.00000000000E+00 -0.67349918667E+03  0.67349918669E+03  0.50400001928E-02 0. -1.
    10030    2    1    2    0    0  0.00000000000E+00  0.00000000000E+00 -0.30218879157E+03  0.10448095818E+04  0.10001544863E+04 0.  0.
        2    1    3    3  502    0  0.34522659527E+03 -0.32606075548E+03  0.12686422786E+02  0.47503469734E+03  0.25500000920E-02 0. -1.
       -2    1    3    3    0  502 -0.34522659527E+03  0.32606075548E+03 -0.31487521436E+03  0.56977488447E+03  0.25500000920E-02 0.  1.
</event>
<event>
 5   0  0.9650500E-05  0.1000021E+04  0.7818609E-02  0.9308522E-01
        4   -1    0    0  501    0  0.00000000000E+00  0.00000000000E+00  0.41122464523E+03  0.41122660632E+03  0.12699999809E+01 0. -1.
       -4   -1    0    0    0  501  0.00000000000E+00  0.00000000000E+00 -0.60796180092E+03  0.60796312740E+03  0.12699999809E+01 0.  1.
    10030    2    1    2    0    0  0.00000000000E+00  0.00000000000E+00 -0.19673715569E+03  0.10191897337E+04  0.10000211022E+04 0.  0.
        5    1    3    3  502    0 -0.23895881474E+03  0.43474633411E+03 -0.34862284056E+02  0.49733606244E+03  0.46999998093E+01 0.  1.
       -5    1    3    3    0  502  0.23895881474E+03 -0.43474633411E+03 -0.16187487164E+03  0.52185367128E+03  0.46999998093E+01 0. -1.
</event>
<event>
 5   0  0.9650500E-05  0.1000029E+04  0.7818609E-02  0.9308513E-01
        4   -1    0    0  501    0  0.00000000000E+00  0.00000000000E+00  0.50917752935E+03  0.50917911318E+03  0.12699999809E+01 0. -1.
       -4   -1    0    0    0  501  0.00000000000E+00  0.00000000000E+00 -0.49101306932E+03  0.49101471174E+03  0.12699999809E+01 0.  1.
    10030    2    1    2    0    0  0.00000000000E+00  0.00000000000E+00  0.18164460032E+02  0.10001938249E+04  0.10000288695E+04 0.  0.
        2    1    3    3  502    0  0.13490496634E+03  0.32106984869E+03  0.36792998145E+03  0.50661392494E+03  0.25500000920E-02 0. -1.
       -2    1    3    3    0  502 -0.13490496634E+03 -0.32106984869E+03 -0.34976552142E+03  0.49357989998E+03  0.25500000920E-02 0.  1.
</event>
<event>
 5   0  0.2403037E-04  0.9997654E+03  0.7818609E-02  0.9308802E-01
       -2   -1    0    0    0  501  0.00000000000E+00  0.00000000000E+00  0.50131979011E+03  0.50131979012E+03  0.25500000920E-02 0. -1.
        2   -1    0    0  501    0  0.00000000000E+00  0.00000000000E+00 -0.49844973949E+03  0.49844973950E+03  0.25500000920E-02 0.  1.
    10030    2    1    2    0    0  0.00000000000E+00  0.00000000000E+00  0.28700506179E+01  0.99976952962E+03  0.99976541006E+03 0.  0.
        1    1    3    3  502    0 -0.36401940500E+03  0.31086830106E+03  0.14542690637E+03  0.50029812406E+03  0.50400001928E-02 0. -1.
       -1    1    3    3    0  502  0.36401940500E+03 -0.31086830106E+03 -0.14255685575E+03  0.49947140555E+03  0.50400001928E-02 0.  1.
</event>
<event>
 5   0  0.1430675E-04  0.9994645E+03  0.7818609E-02  0.9309132E-01
       -1   -1    0    0    0  501  0.00000000000E+00  0.00000000000E+00  0.22633614611E+03  0.22633614616E+03  0.50400001928E-02 0. -1.
        1   -1    0    0  501    0  0.00000000000E+00  0.00000000000E+00 -0.11033692231E+04  0.11033692231E+04  0.50400001928E-02 0.  1.
    10030    2    1    2    0    0  0.00000000000E+00  0.00000000000E+00 -0.87703307695E+03  0.13297053692E+04  0.99946453209E+03 0.  0.
        5    1    3    3  502    0  0.39026512324E+02  0.19034401660E+02  0.22379219139E+03  0.22801406105E+03  0.46999998093E+01 0. -1.
       -5    1    3    3    0  502 -0.39026512324E+02 -0.19034401660E+02 -0.11008252683E+04  0.11016913082E+04  0.46999998093E+01 0.  1.
</event>
<event>
 5   0  0.1461334E-04  0.9995747E+03  0.7818609E-02  0.9309011E-01
       -1   -1    0    0    0  501  0.00000000000E+00  0.00000000000E+00  0.17930007334E+03  0.17930007341E+03  0.50400001928E-02 0.  1.
        1   -1    0    0  501    0  0.00000000000E+00  0.00000000000E+00 -0.13931249448E+04  0.13931249448E+04  0.50400001928E-02 0. -1.
    10030    2    1    2    0    0  0.00000000000E+00  0.00000000000E+00 -0.12138248714E+04  0.15724250182E+04  0.99957471925E+03 0.  0.
        2    1    3    3  502    0 -0.22871609237E+03 -0.31949620426E+03 -0.10927885184E+04  0.11612818872E+04  0.25500000920E-02 0. -1.
       -2    1    3    3    0  502  0.22871609237E+03  0.31949620426E+03 -0.12103635302E+03  0.41114313104E+03  0.25500000920E-02 0.  1.
</event>
<event>
 5   0  0.1453863E-04  0.1000164E+04  0.7818609E-02  0.9308365E-01
       -1   -1    0    0    0  501  0.00000000000E+00  0.00000000000E+00  0.20410744179E+03  0.20410744185E+03  0.50400001928E-02 0. -1.
        1   -1    0    0  501    0  0.00000000000E+00  0.00000000000E+00 -0.12252467372E+04  0.12252467372E+04  0.50400001928E-02 0.  1.
    10030    2    1    2    0    0  0.00000000000E+00  0.00000000000E+00 -0.10211392954E+04  0.14293541791E+04  0.10001639408E+04 0.  0.
        1    1    3    3  502    0 -0.12533130942E+03  0.13599134081E+03 -0.11745806344E+04  0.11890505661E+04  0.50400001928E-02 0.  1.
       -1    1    3    3    0  502  0.12533130942E+03 -0.13599134081E+03  0.15344133898E+03  0.24030361302E+03  0.50400001928E-02 0. -1.
</event>
<event>
 5   0  0.2473312E-04  0.1000205E+04  0.7818609E-02  0.9308320E-01
       -2   -1    0    0    0  501  0.00000000000E+00  0.00000000000E+00  0.20396666648E+03  0.20396666649E+03  0.25500000920E-02 0.  1.
        2   -1    0    0  501    0  0.00000000000E+00  0.00000000000E+00 -0.12261936362E+04  0.12261936362E+04  0.25500000920E-02 0. -1.
    10030    2    1    2    0    0  0.00000000000E+00  0.00000000000E+00 -0.10222269697E+04  0.14301603027E+04  0.10002052358E+04 0.  0.
        5    1    3    3  502    0 -0.34926265182E+01  0.14788912748E+03 -0.11941606601E+04  0.12032976210E+04  0.46999998093E+01 0. -1.
       -5    1    3    3    0  502  0.34926265182E+01 -0.14788912748E+03  0.17193369040E+03  0.22686268172E+03  0.46999998093E+01 0.  1.
</event>
<event>
 5   0  0.2473312E-04  0.9998585E+03  0.7818609E-02  0.9308700E-01
       -2   -1    0    0    0  501  0.00000000000E+00  0.00000000000E+00  0.17532615239E+03  0.17532615241E+03  0.25500000920E-02 0.  1.
        2   -1    0    0  501    0  0.00000000000E+00  0.00000000000E+00 -0.14255105430E+04  0.14255105430E+04  0.25500000920E-02 0. -1.
    10030    2    1    2    0    0  0.00000000000E+00  0.00000000000E+00 -0.12501843906E+04  0.16008366954E+04  0.99985854743E+03 0.  0.
        5    1    3    3  502    0 -0.76168832730E+02 -0.39124907372E+03 -0.14203347386E+03  0.42317032795E+03  0.46999998093E+01 0.  1.
       -5    1    3    3    0  502  0.76168832730E+02  0.39124907372E+03 -0.11081509168E+04  0.11776663675E+04  0.46999998093E+01 0. -1.
</event>
<event>
 5   0  0.2353916E-04  0.1000412E+04  0.7818609E-02  0.9308093E-01
       -2   -1    0    0    0  501  0.00000000000E+00  0.00000000000E+00  0.47381553867E+03  0.47381553868E+03  0.25500000920E-02 0.  1.
        2   -1    0    0  501    0  0.00000000000E+00  0.00000000000E+00 -0.52806661483E+03  0.52806661483E+03  0.25500000920E-02 0. -1.
    10030    2    1    2    0    0  0.00000000000E+00  0.00000000000E+00 -0.54251076156E+02  0.10018821535E+04  0.10004122502E+04 0.  0.
        4    1    3    3  502    0  0.91605946581E+02 -0.98481574027E+02  0.45536474766E+03  0.47481463349E+03  0.12699999809E+01 0.  1.
       -4    1    3    3    0  502 -0.91605946581E+02  0.98481574027E+02 -0.50961582381E+03  0.52706752001E+03  0.12699999809E+01 0. -1.
</event>
<event>
 5   0  0.1430675E-04  0.9998790E+03  0.7818609E-02  0.9308678E-01
       -1   -1    0    0    0  501  0.00000000000E+00  0.00000000000E+00  0.60401937913E+03  0.60401937915E+03  0.50400001928E-02 0.  1.
        1   -1    0    0  501    0  0.00000000000E+00  0.00000000000E+00 -0.41379384697E+03  0.41379384700E+03  0.50400001928E-02 0. -1.
    10030    2    1    2    0    0  0.00000000000E+00  0.00000000000E+00  0.19022553216E+03  0.10178132262E+04  0.99987899780E+03 0.  0.
        5    1    3    3  502    0 -0.26937876179E+03  0.20294783406E+03 -0.28051082973E+03  0.43870395058E+03  0.46999998093E+01 0. -1.
       -5    1    3    3    0  502  0.26937876179E+03 -0.20294783406E+03  0.47073636189E+03  0.57910927558E+03  0.46999998093E+01 0.  1.
</event>
<event>
 5   0  0.2503680E-04  0.1001473E+04  0.7818609E-02  0.9306931E-01
       -2   -1    0    0    0  501  0.00000000000E+00  0.00000000000E+00  0.24436436770E+03  0.24436436772E+03  0.25500000920E-02 0.  1.
        2   -1    0    0  501    0  0.00000000000E+00  0.00000000000E+00 -0.10260786890E+04  0.10260786890E+04  0.25500000920E-02 0. -1.
    10030    2    1    2    0    0  0.00000000000E+00  0.00000000000E+00 -0.78171432127E+03  0.12704430567E+04  0.10014730552E+04 0.  0.
        2    1    3    3  502    0 -0.12698959250E+03  0.35683859533E+03 -0.80635531979E+03  0.89088104788E+03  0.25500000920E-02 0. -1.
       -2    1    3    3    0  502  0.12698959250E+03 -0.35683859533E+03  0.24640998519E+02  0.37956200881E+03  0.25500000920E-02 0.  1.
</event>
<event>
 5   0  0.1461334E-04  0.1000097E+04  0.7818609E-02  0.9308439E-01
        1   -1    0    0  501    0  0.00000000000E+00  0.00000000000E+00  0.10675523849E+04  0.10675523849E+04  0.50400001928E-02 0.  1.
       -1   -1    0    0    0  501  0.00000000000E+00  0.00000000000E+00 -0.23422577576E+03  0.23422577581E+03  0.50400001928E-02 0. -1.
    10030    2    1    2    0    0  0.00000000000E+00  0.00000000000E+00  0.83332660910E+03  0.13017781607E+04  0.10000965664E+04 0.  0.
        2    1    3    3  502    0  0.34308538197E+03 -0.30724815660E+03  0.67019926549E+03  0.81318882465E+03  0.25500000920E-02 0. -1.
       -2    1    3    3    0  502 -0.34308538197E+03  0.30724815660E+03  0.16312734360E+03  0.48858933604E+03  0.25500000920E-02 0.  1.
</event>
<event>
 5   0  0.2503680E-04  0.1007334E+04  0.7818609E-02  0.9300537E-01
        2   -1    0    0  501    0  0.00000000000E+00  0.00000000000E+00  0.36362853721E+03  0.36362853722E+03  0.25500000920E-02 0.  1.
       -2   -1    0    0    0  501  0.00000000000E+00  0.00000000000E+00 -0.69763619553E+03  0.69763619553E+03  0.25500000920E-02 0. -1.
    10030    2    1    2    0    0  0.00000000000E+00  0.00000000000E+00 -0.33400765832E+03  0.10612647328E+04  0.10073339651E+04 0.  0.
        2    1    3    3  502    0  0.72653560212E+02  0.49816840399E+03 -0.18298606646E+03  0.53566239281E+03  0.25500000920E-02 0. -1.
       -2    1    3    3    0  502 -0.72653560212E+02 -0.49816840399E+03 -0.15102159186E+03  0.52560233995E+03  0.25500000920E-02 0.  1.
</event>
<event>
 5   0  0.1430675E-04  0.1000163E+04  0.7818609E-02  0.9308366E-01
        1   -1    0    0  501    0  0.00000000000E+00  0.00000000000E+00  0.34879208112E+03  0.34879208116E+03  0.50400001928E-02 0. -1.
       -1   -1    0    0    0  501  0.00000000000E+00  0.00000000000E+00 -0.71699368341E+03  0.71699368343E+03  0.50400001928E-02 0.  1.
    10030    2    1    2    0    0  0.00000000000E+00  0.00000000000E+00 -0.36820160229E+03  0.10657857646E+04  0.10001634247E+04 0.  0.
        5    1    3    3  502    0  0.41655450123E+03 -0.15225354680E+03 -0.43025670191E+03  0.61793342242E+03  0.46999998093E+01 0. -1.
       -5    1    3    3    0  502 -0.41655450123E+03  0.15225354680E+03  0.62055099619E+02  0.44785234217E+03  0.46999998093E+01 0.  1.
</event>
<event>
 5   0  0.2353916E-04  0.1000496E+04  0.7818609E-02  0.9308001E-01
        2   -1    0    0  501    0  0.00000000000E+00  0.00000000000E+00  0.90727059429E+03  0.90727059429E+03  0.25500000920E-02 0. -1.
       -2   -1    0    0    0  501  0.00000000000E+00  0.00000000000E+00 -0.27582512806E+03  0.27582512807E+03  0.25500000920E-02 0.  1.
    10030    2    1    2    0    0  0.00000000000E+00  0.00000000000E+00  0.63144546623E+03  0.11830957224E+04  0.10004959327E+04 0.  0.
        4    1    3    3  502    0 -0.44650710498E+03 -0.14961453951E+03  0.11611562340E+03  0.48501294429E+03  0.12699999809E+01 0.  1.
       -4    1    3    3    0  502  0.44650710498E+03  0.14961453951E+03  0.51532984283E+03  0.69808277807E+03  0.12699999809E+01 0. -1.
</event>
<event>
 5   0  0.1453863E-04  0.9998855E+03  0.7818609E-02  0.9308670E-01
        1   -1    0    0  501    0  0.00000000000E+00  0.00000000000E+00  0.24976488493E+03  0.24976488498E+03  0.50400001928E-02 0.  1.
       -1   -1    0    0    0  501  0.00000000000E+00  0.00000000000E+00 -0.10007121246E+04  0.10007121246E+04  0.50400001928E-02 0. -1.
    10030    2    1    2    0    0  0.00000000000E+00  0.00000000000E+00 -0.75094723962E+03  0.12504770095E+04  0.99988549079E+03 0.  0.
        1    1    3    3  502    0 -0.41721518765E+03  0.23065849142E+03 -0.18716951418E+03  0.51215649906E+03  0.50400001928E-02 0.  1.
       -1    1    3    3    0  502  0.41721518765E+03 -0.23065849142E+03 -0.56377772545E+03  0.73832051048E+03  0.50400001928E-02 0. -1.
</event>
<event>
 5   0  0.1430675E-04  0.1000032E+04  0.7818609E-02  0.9308510E-01
        1   -1    0    0  501    0  0.00000000000E+00  0.00000000000E+00  0.89404418357E+03  0.89404418358E+03  0.50400001928E-02 0.  1.
       -1   -1    0    0    0  501  0.00000000000E+00  0.00000000000E+00 -0.27964609803E+03  0.27964609807E+03  0.50400001928E-02 0. -1.
    10030    2    1    2    0    0  0.00000000000E+00  0.00000000000E+00  0.61439808554E+03  0.11736902817E+04  0.10000319344E+04 0.  0.
        5    1    3    3  502    0  0.17813344994E+03 -0.27662760423E+03 -0.13466139527E+03  0.35554203519E+03  0.46999998093E+01 0. -1.
       -5    1    3    3    0  502 -0.17813344994E+03  0.27662760423E+03  0.74905948081E+03  0.81814824647E+03  0.46999998093E+01 0.  1.
</event>
<event>
 5   0  0.1414165E-04  0.9998672E+03  0.7818609E-02  0.9308690E-01
       -1   -1    0    0    0  501  0.00000000000E+00  0.00000000000E+00  0.65105748584E+03  0.65105748586E+03  0.50400001928E-02 0. -1.
        1   -1    0    0  501    0  0.00000000000E+00  0.00000000000E+00 -0.38388868810E+03  0.38388868813E+03  0.50400001928E-02 0.  1.
    10030    2    1    2    0    0  0.00000000000E+00  0.00000000000E+00  0.26716879774E+03  0.10349461740E+04  0.99986719947E+03 0.  0.
        4    1    3    3  502    0 -0.23205047740E+03 -0.81658620818E+02  0.58407348415E+03  0.63376573132E+03  0.12699999809E+01 0. -1.
       -4    1    3    3    0  502  0.23205047740E+03  0.81658620818E+02 -0.31690468641E+03  0.40118044267E+03  0.12699999809E+01 0.  1.
</event>
<event>
 5   0  0.2503680E-04  0.9994636E+03  0.7818609E-02  0.9309133E-01
        2   -1    0    0  501    0  0.00000000000E+00  0.00000000000E+00  0.17299037387E+04  0.17299037387E+04  0.25500000920E-02 0. -1.
       -2   -1    0    0    0  501  0.00000000000E+00  0.00000000000E+00 -0.14436170994E+03  0.14436170997E+03  0.25500000920E-02 0.  1.
    10030    2    1    2    0    0  0.00000000000E+00  0.00000000000E+00  0.15855420288E+04  0.18742654487E+04  0.99946357970E+03 0.  0.
        2    1    3    3  502    0 -0.47553218074E+03 -0.51465028804E+02  0.10642152202E+04  0.11667619890E+04  0.25500000920E-02 0. -1.
       -2    1    3    3    0  502  0.47553218074E+03  0.51465028804E+02  0.52132680862E+03  0.70750345971E+03  0.25500000920E-02 0.  1.
</event>
<event>
 5   0  0.2403037E-04  0.9996327E+03  0.7818609E-02  0.9308948E-01
        2   -1    0    0  501    0  0.00000000000E+00  0.00000000000E+00  0.16431188159E+04  0.16431188159E+04  0.25500000920E-02 0.  1.
       -2   -1    0    0    0  501  0.00000000000E+00  0.00000000000E+00 -0.15203793851E+03  0.15203793853E+03  0.25500000920E-02 0. -1.
    10030    2    1    2    0    0  0.00000000000E+00  0.00000000000E+00  0.14910808774E+04  0.17951567544E+04  0.99963272759E+03 0.  0.
        1    1    3    3  502    0 -0.28154420046E+02 -0.48225885455E+03  0.51521256925E+03  0.70626501095E+03  0.50400001928E-02 0. -1.
       -1    1    3    3    0  502  0.28154420046E+02  0.48225885455E+03  0.97586830815E+03  0.10888917435E+04  0.50400001928E-02 0.  1.
</event>
<event>
 5   0  0.1430675E-04  0.9997812E+03  0.7818609E-02  0.9308785E-01
        1   -1    0    0  501    0  0.00000000000E+00  0.00000000000E+00  0.36678929263E+03  0.36678929267E+03  0.50400001928E-02 0.  1.
       -1   -1    0    0    0  501  0.00000000000E+00  0.00000000000E+00 -0.68129194192E+03  0.68129194194E+03  0.50400001928E-02 0. -1.
    10030    2    1    2    0    0  0.00000000000E+00  0.00000000000E+00 -0.31450264929E+03  0.10480812346E+04  0.99978115501E+03 0.  0.
        5    1    3    3  502    0  0.16840552678E+03  0.47034002737E+03 -0.13945050701E+03  0.51869904251E+03  0.46999998093E+01 0.  1.
       -5    1    3    3    0  502 -0.16840552678E+03 -0.47034002737E+03 -0.17505214228E+03  0.52938219210E+03  0.46999998093E+01 0. -1.
</event>
<event>
 5   0  0.2473312E-04  0.1000243E+04  0.7818609E-02  0.9308278E-01
        2   -1    0    0  501    0  0.00000000000E+00  0.00000000000E+00  0.11046301713E+04  0.11046301713E+04  0.25500000920E-02 0.  1.
       -2   -1    0    0    0  501  0.00000000000E+00  0.00000000000E+00 -0.22643005169E+03  0.22643005170E+03  0.25500000920E-02 0. -1.
    10030    2    1    2    0    0  0.00000000000E+00  0.00000000000E+00  0.87820011956E+03  0.13310602230E+04  0.10002429041E+04 0.  0.
        5    1    3    3  502    0 -0.36345861228E+03 -0.98875747857E+02  0.87687167326E+03  0.95436083204E+03  0.46999998093E+01 0.  1.
       -5    1    3    3    0  502  0.36345861228E+03  0.98875747857E+02  0.13284462983E+01  0.37669939092E+03  0.46999998093E+01 0. -1.
</event>
<event>
 5   0  0.2473312E-04  0.9998869E+03  0.7818609E-02  0.9308669E-01
       -2   -1    0    0    0  501  0.00000000000E+00  0.00000000000E+00  0.10194158690E+03  0.10194158694E+03  0.25500000920E-02 0.  1.
        2   -1    0    0  501    0  0.00000000000E+00  0.00000000000E+00 -0.24518303212E+04  0.24518303212E+04  0.25500000920E-02 0. -1.
    10030    2    1    2    0    0  0.00000000000E+00  0.00000000000E+00 -0.23498887343E+04  0.25537719081E+04  0.99988694121E+03 0.  0.
        5    1    3    3  502    0 -0.11024973158E+03 -0.29087402604E+03 -0.17540013279E+03  0.35714142706E+03  0.46999998093E+01 0.  1.
       -5    1    3    3    0  502  0.11024973158E+03  0.29087402604E+03 -0.21744886015E+04  0.21966304810E+04  0.46999998093E+01 0. -1.
</event>
<event>
 5   0  0.2473312E-04  0.1000048E+04  0.7818609E-02  0.9308492E-01
        2   -1    0    0  501    0  0.00000000000E+00  0.00000000000E+00  0.11556655445E+04  0.11556655445E+04  0.25500000920E-02 0. -1.
       -2   -1    0    0    0  501  0.00000000000E+00  0.00000000000E+00 -0.21634628849E+03  0.21634628851E+03  0.25500000920E-02 0.  1.
    10030    2    1    2    0    0  0.00000000000E+00  0.00000000000E+00  0.93931925598E+03  0.13720118330E+04  0.10000479014E+04 0.  0.
        5    1    3    3  502    0  0.19735331253E+02  0.40742025309E+02 -0.21349854680E+03  0.21829593540E+03  0.46999998093E+01 0.  1.
       -5    1    3    3    0  502 -0.19735331253E+02 -0.40742025309E+02  0.11528178028E+04  0.11537158976E+04  0.46999998093E+01 0. -1.
</event>
<event>
 5   0  0.1414165E-04  0.9999491E+03  0.7818609E-02  0.9308601E-01
        1   -1    0    0  501    0  0.00000000000E+00  0.00000000000E+00  0.36967678939E+03  0.36967678942E+03  0.50400001928E-02 0. -1.
       -1   -1    0    0    0  501  0.00000000000E+00  0.00000000000E+00 -0.67619756931E+03  0.67619756933E+03  0.50400001928E-02 0.  1.
    10030    2    1    2    0    0  0.00000000000E+00  0.00000000000E+00 -0.30652077992E+03  0.10458743588E+04  0.99994909159E+03 0.  0.
        4    1    3    3  502    0  0.22614187862E+03  0.44490200194E+03 -0.12196996709E+03  0.51376670422E+03  0.12699999809E+01 0. -1.
       -4    1    3    3    0  502 -0.22614187862E+03 -0.44490200194E+03 -0.18455081283E+03  0.53210765453E+03  0.12699999809E+01 0.  1.
</event>
<event>
 5   0  0.2353916E-04  0.9999379E+03  0.7818609E-02  0.9308613E-01
       -2   -1    0    0    0  501  0.00000000000E+00  0.00000000000E+00  0.19649462720E+03  0.19649462721E+03  0.25500000920E-02 0. -1.
        2   -1    0    0  501    0  0.00000000000E+00  0.00000000000E+00 -0.12721413844E+04  0.12721413844E+04  0.25500000920E-02 0.  1.
    10030    2    1    2    0    0  0.00000000000E+00  0.00000000000E+00 -0.10756467572E+04  0.14686360117E+04  0.99993789225E+03 0.  0.
        4    1    3    3  502    0  0.15951303192E+03  0.23655081941E+03 -0.11408367714E+04  0.11759722996E+04  0.12699999809E+01 0.  1.
       -4    1    3    3    0  502 -0.15951303192E+03 -0.23655081941E+03  0.65190014160E+02  0.29266371206E+03  0.12699999809E+01 0. -1.
</event>
<event>
 5   0  0.1453863E-04  0.9999975E+03  0.7818609E-02  0.9308548E-01
       -1   -1    0    0    0  501  0.00000000000E+00  0.00000000000E+00  0.35391191544E+03  0.35391191547E+03  0.50400001928E-02 0. -1.
        1   -1    0    0  501    0  0.00000000000E+00  0.00000000000E+00 -0.70638691401E+03  0.70638691403E+03  0.50400001928E-02 0.  1.
    10030    2    1    2    0    0  0.00000000000E+00  0.00000000000E+00 -0.35247499857E+03  0.10602988295E+04  0.99999749161E+03 0.  0.
        1    1    3    3  502    0 -0.23737774137E+03  0.34916183219E+03 -0.46022529119E+03  0.62455543856E+03  0.50400001928E-02 0.  1.
       -1    1    3    3    0  502  0.23737774137E+03 -0.34916183219E+03  0.10775029262E+03  0.43574339094E+03  0.50400001928E-02 0. -1.
</event>
<event>
 5   0  0.9650500E-05  0.9997901E+03  0.7818609E-02  0.9308775E-01
        3   -1    0    0  501    0  0.00000000000E+00  0.00000000000E+00  0.46754484038E+03  0.46754485129E+03  0.10100000352E+00 0. -1.
       -3   -1    0    0    0  501  0.00000000000E+00  0.00000000000E+00 -0.53448356607E+03  0.53448357561E+03  0.10100000352E+00 0.  1.
    10030    2    1    2    0    0  0.00000000000E+00  0.00000000000E+00 -0.66938725693E+02  0.10020284269E+04  0.99979006562E+03 0.  0.
        3    1    3    3  502    0  0.32995050819E+02 -0.44019833365E+03 -0.26858311598E+03  0.51672056928E+03  0.10100000352E+00 0.  1.
       -3    1    3    3    0  502 -0.32995050819E+02  0.44019833365E+03  0.20164439029E+03  0.48530785762E+03  0.10100000352E+00 0. -1.
</event>
<event>
 5   0  0.1453863E-04  0.1000365E+04  0.7818609E-02  0.9308145E-01
       -1   -1    0    0    0  501  0.00000000000E+00  0.00000000000E+00  0.21926622653E+03  0.21926622659E+03  0.50400001928E-02 0. -1.
        1   -1    0    0  501    0  0.00000000000E+00  0.00000000000E+00 -0.11409982467E+04  0.11409982467E+04  0.50400001928E-02 0.  1.
    10030    2    1    2    0    0  0.00000000000E+00  0.00000000000E+00 -0.92173202015E+03  0.13602644733E+04  0.10003646936E+04 0.  0.
        1    1    3    3  502    0 -0.16613087918E+03 -0.10792237083E+03  0.16364488060E+03  0.25695593808E+03  0.50400001928E-02 0. -1.
       -1    1    3    3    0  502  0.16613087918E+03  0.10792237083E+03 -0.10853769007E+04  0.11033085352E+04  0.50400001928E-02 0.  1.
</event>
<event>
 5   0  0.1461334E-04  0.1000143E+04  0.7818609E-02  0.9308388E-01
        1   -1    0    0  501    0  0.00000000000E+00  0.00000000000E+00  0.10556441922E+04  0.10556441923E+04  0.50400001928E-02 0.  1.
       -1   -1    0    0    0  501  0.00000000000E+00  0.00000000000E+00 -0.23689003396E+03  0.23689003402E+03  0.50400001928E-02 0. -1.
    10030    2    1    2    0    0  0.00000000000E+00  0.00000000000E+00  0.81875415828E+03  0.12925342263E+04  0.10001431669E+04 0.  0.
        2    1    3    3  502    0  0.15233581850E+03  0.47082449972E+03  0.50247716104E+03  0.70524124136E+03  0.25500000920E-02 0.  1.
       -2    1    3    3    0  502 -0.15233581850E+03 -0.47082449972E+03  0.31627699724E+03  0.58729298492E+03  0.25500000920E-02 0. -1.
</event>
<event>
 5   0  0.2353916E-04  0.9993574E+03  0.7818609E-02  0.9309250E-01
       -2   -1    0    0    0  501  0.00000000000E+00  0.00000000000E+00  0.15756094304E+03  0.15756094306E+03  0.25500000920E-02 0. -1.
        2   -1    0    0  501    0  0.00000000000E+00  0.00000000000E+00 -0.15846491080E+04  0.15846491080E+04  0.25500000920E-02 0.  1.
    10030    2    1    2    0    0  0.00000000000E+00  0.00000000000E+00 -0.14270881649E+04  0.17422100510E+04  0.99935740926E+03 0.  0.
        4    1    3    3  502    0 -0.27220948982E+03 -0.62516557391E+02  0.87731575541E+01  0.27943676832E+03  0.12699999809E+01 0. -1.
       -4    1    3    3    0  502  0.27220948982E+03  0.62516557391E+02 -0.14358613225E+04  0.14627732827E+04  0.12699999809E+01 0.  1.
</event>
<event>
 5   0  0.1414165E-04  0.9988729E+03  0.7818609E-02  0.9309782E-01
       -1   -1    0    0    0  501  0.00000000000E+00  0.00000000000E+00  0.23195221636E+03  0.23195221642E+03  0.50400001928E-02 0. -1.
        1   -1    0    0  501    0  0.00000000000E+00  0.00000000000E+00 -0.10753798823E+04  0.10753798823E+04  0.50400001928E-02 0.  1.
    10030    2    1    2    0    0  0.00000000000E+00  0.00000000000E+00 -0.84342766596E+03  0.13073320987E+04  0.99887285913E+03 0.  0.
        4    1    3    3  502    0  0.26978750366E+03  0.41987258389E+03 -0.39698982755E+03  0.63771531259E+03  0.12699999809E+01 0. -1.
       -4    1    3    3    0  502 -0.26978750366E+03 -0.41987258389E+03 -0.44643783841E+03  0.66961678615E+03  0.12699999809E+01 0.  1.
</event>
<event>
 5   0  0.1453863E-04  0.1000181E+04  0.7818609E-02  0.9308346E-01
        1   -1    0    0  501    0  0.00000000000E+00  0.00000000000E+00  0.10833889724E+04  0.10833889725E+04  0.50400001928E-02 0. -1.
       -1   -1    0    0    0  501  0.00000000000E+00  0.00000000000E+00 -0.23084086341E+03  0.23084086347E+03  0.50400001928E-02 0.  1.
    10030    2    1    2    0    0  0.00000000000E+00  0.00000000000E+00  0.85254810903E+03  0.13142298359E+04  0.10001808753E+04 0.  0.
        1    1    3    3  502    0  0.39885895149E+03  0.27829698737E+03  0.57924424301E+03  0.75634751896E+03  0.50400001928E-02 0. -1.
       -1    1    3    3    0  502 -0.39885895149E+03 -0.27829698737E+03  0.27330386603E+03  0.55788231696E+03  0.50400001928E-02 0.  1.
</event>
<event>
 5   0  0.2403037E-04  0.9999218E+03  0.7818609E-02  0.9308631E-01
       -2   -1    0    0    0  501  0.00000000000E+00  0.00000000000E+00  0.33275889858E+03  0.33275889859E+03  0.25500000920E-02 0. -1.
        2   -1    0    0  501    0  0.00000000000E+00  0.00000000000E+00 -0.75117715630E+03  0.75117715631E+03  0.25500000920E-02 0.  1.
    10030    2    1    2    0    0  0.00000000000E+00  0.00000000000E+00 -0.41841825772E+03  0.10839360549E+04  0.99992176330E+03 0.  0.
        1    1    3    3  502    0 -0.41188234451E+02 -0.34529937608E+03 -0.59860166600E+03  0.69228035097E+03  0.50400001928E-02 0.  1.
       -1    1    3    3    0  502  0.41188234451E+02  0.34529937608E+03  0.18018340828E+03  0.39165570393E+03  0.50400001928E-02 0. -1.
</event>
<event>
 5   0  0.2473312E-04  0.9996329E+03  0.7818609E-02  0.9308948E-01
       -2   -1    0    0    0  501  0.00000000000E+00  0.00000000000E+00  0.43755964682E+03  0.43755964683E+03  0.25500000920E-02 0. -1.
        2   -1    0    0  501    0  0.00000000000E+00  0.00000000000E+00 -0.57093126575E+03  0.57093126576E+03  0.25500000920E-02 0.  1.
    10030    2    1    2    0    0  0.00000000000E+00  0.00000000000E+00 -0.13337161893E+03  0.10084909126E+04  0.99963289864E+03 0.  0.
        5    1    3    3  502    0  0.45905475157E+03 -0.19653731602E+03 -0.87756559674E+02  0.50703203576E+03  0.46999998093E+01 0.  1.
       -5    1    3    3    0  502 -0.45905475157E+03  0.19653731602E+03 -0.45615059254E+02  0.50145887683E+03  0.46999998093E+01 0. -1.
</event>
<event>
 5   0  0.1414165E-04  0.1000383E+04  0.7818609E-02  0.9308125E-01
       -1   -1    0    0    0  501  0.00000000000E+00  0.00000000000E+00  0.21648549201E+03  0.21648549207E+03  0.50400001928E-02 0. -1.
        1   -1    0    0  501    0  0.00000000000E+00  0.00000000000E+00 -0.11556962965E+04  0.11556962965E+04  0.50400001928E-02 0.  1.
    10030    2    1    2    0    0  0.00000000000E+00  0.00000000000E+00 -0.93921080446E+03  0.13721817885E+04  0.10003828895E+04 0.  0.
        4    1    3    3  502    0  0.30561920169E+01  0.22190577682E+03  0.14525541332E+03  0.26524000847E+03  0.12699999809E+01 0. -1.
       -4    1    3    3    0  502 -0.30561920169E+01 -0.22190577682E+03 -0.10844662178E+04  0.11069417801E+04  0.12699999809E+01 0.  1.
</event>
<event>
 5   0  0.2353916E-04  0.1000276E+04  0.7818609E-02  0.9308242E-01
        2   -1    0    0  501    0  0.00000000000E+00  0.00000000000E+00  0.13021179496E+04  0.13021179496E+04  0.25500000920E-02 0. -1.
       -2   -1    0    0    0  501  0.00000000000E+00  0.00000000000E+00 -0.19210107227E+03  0.19210107229E+03  0.25500000920E-02 0.  1.
    10030    2    1    2    0    0  0.00000000000E+00  0.00000000000E+00  0.11100168773E+04  0.14942190218E+04  0.10002764705E+04 0.  0.
        4    1    3    3  502    0 -0.11354790902E+03 -0.21076611986E+03 -0.10094278944E+03  0.25982021585E+03  0.12699999809E+01 0.  1.
       -4    1    3    3    0  502  0.11354790902E+03  0.21076611986E+03  0.12109596667E+04  0.12343988060E+04  0.12699999809E+01 0. -1.
</event>
<event>
 5   0  0.2503680E-04  0.9999303E+03  0.7818609E-02  0.9308621E-01
       -2   -1    0    0    0  501  0.00000000000E+00  0.00000000000E+00  0.30730900485E+03  0.30730900486E+03  0.25500000920E-02 0. -1.
        2   -1    0    0  501    0  0.00000000000E+00  0.00000000000E+00 -0.81340000144E+03  0.81340000144E+03  0.25500000920E-02 0.  1.
    10030    2    1    2    0    0  0.00000000000E+00  0.00000000000E+00 -0.50609099659E+03  0.11207090063E+04  0.99993028756E+03 0.  0.
        2    1    3    3  502    0 -0.19665980846E+03  0.31929099132E+03 -0.62365733176E+03  0.72771579952E+03  0.25500000920E-02 0.  1.
       -2    1    3    3    0  502  0.19665980846E+03 -0.31929099132E+03  0.11756633518E+03  0.39299320678E+03  0.25500000920E-02 0. -1.
</event>
<event>
 5   0  0.1453863E-04  0.9996600E+03  0.7818609E-02  0.9308918E-01
        1   -1    0    0  501    0  0.00000000000E+00  0.00000000000E+00  0.66510789587E+03  0.66510789589E+03  0.50400001928E-02 0.  1.
       -1   -1    0    0    0  501  0.00000000000E+00  0.00000000000E+00 -0.37562331982E+03  0.37562331985E+03  0.50400001928E-02 0. -1.
    10030    2    1    2    0    0  0.00000000000E+00  0.00000000000E+00  0.28948457606E+03  0.10407312157E+04  0.99966001403E+03 0.  0.
        1    1    3    3  502    0 -0.38352091062E+03  0.24697313353E+03 -0.67970593003E+02  0.46119845957E+03  0.50400001928E-02 0. -1.
       -1    1    3    3    0  502  0.38352091062E+03 -0.24697313353E+03  0.35745516906E+03  0.57953275618E+03  0.50400001928E-02 0.  1.
</event>
<event>
 5   0  0.2503680E-04  0.9999994E+03  0.7818609E-02  0.9308545E-01
       -2   -1    0    0    0  501  0.00000000000E+00  0.00000000000E+00  0.19338689428E+03  0.19338689429E+03  0.25500000920E-02 0. -1.
        2   -1    0    0  501    0  0.00000000000E+00  0.00000000000E+00 -0.12927438097E+04  0.12927438097E+04  0.25500000920E-02 0.  1.
    10030    2    1    2    0    0  0.00000000000E+00  0.00000000000E+00 -0.10993569155E+04  0.14861307040E+04  0.99999942094E+03 0.  0.
        2    1    3    3  502    0 -0.21194239518E+03  0.22196645057E+03  0.36940849521E+02  0.30911698501E+03  0.25500000920E-02 0. -1.
       -2    1    3    3    0  502  0.21194239518E+03 -0.22196645057E+03 -0.11362977650E+04  0.11770137190E+04  0.25500000920E-02 0.  1.
</event>
<event>
 5   0  0.1461334E-04  0.9993865E+03  0.7818609E-02  0.9309218E-01
        1   -1    0    0  501    0  0.00000000000E+00  0.00000000000E+00  0.98357789727E+03  0.98357789728E+03  0.50400001928E-02 0.  1.
       -1   -1    0    0    0  501  0.00000000000E+00  0.00000000000E+00 -0.25386231838E+03  0.25386231843E+03  0.50400001928E-02 0. -1.
    10030    2    1    2    0    0  0.00000000000E+00  0.00000000000E+00  0.72971557889E+03  0.12374402157E+04  0.99938654252E+03 0.  0.
        2    1    3    3  502    0  0.25469812131E+02  0.13105888247E+03  0.96108438737E+03  0.97031352750E+03  0.25500000920E-02 0.  1.
       -2    1    3    3    0  502 -0.25469812131E+02 -0.13105888247E+03 -0.23136880848E+03  0.26712668820E+03  0.25500000920E-02 0. -1.
</event>
<event>
 5   0  0.1414165E-04  0.9994010E+03  0.7818609E-02  0.9309202E-01
       -1   -1    0    0    0  501  0.00000000000E+00  0.00000000000E+00  0.28396773957E+03  0.28396773962E+03  0.50400001928E-02 0.  1.
        1   -1    0    0  501    0  0.00000000000E+00  0.00000000000E+00 -0.87932728283E+03  0.87932728285E+03  0.50400001928E-02 0. -1.
    10030    2    1    2    0    0  0.00000000000E+00  0.00000000000E+00 -0.59535954326E+03  0.11632950225E+04  0.99940098236E+03 0.  0.
        4    1    3    3  502    0 -0.31184879033E+03 -0.36913105525E+03 -0.14956632155E+03  0.50584493812E+03  0.12699999809E+01 0.  1.
       -4    1    3    3    0  502  0.31184879033E+03  0.36913105525E+03 -0.44579322171E+03  0.65745008434E+03  0.12699999809E+01 0. -1.
</event>
<event>
 5   0  0.2403037E-04  0.9997402E+03  0.7818609E-02  0.9308830E-01
        2   -1    0    0  501    0  0.00000000000E+00  0.00000000000E+00  0.13956797888E+04  0.13956797888E+04  0.25500000920E-02 0. -1.
       -2   -1    0    0    0  501  0.00000000000E+00  0.00000000000E+00 -0.17903112499E+03  0.17903112501E+03  0.25500000920E-02 0.  1.
    10030    2    1    2    0    0  0.00000000000E+00  0.00000000000E+00  0.12166486638E+04  0.15747109138E+04  0.99974021170E+03 0.  0.
        1    1    3    3  502    0  0.13921635675E+03  0.43361686013E+03  0.93291125344E+03  0.10381368803E+04  0.50400001928E-02 0. -1.
       -1    1    3    3    0  502 -0.13921635675E+03 -0.43361686013E+03  0.28373741035E+03  0.53657403351E+03  0.50400001928E-02 0.  1.
</event>
<event>
 5   0  0.2503680E-04  0.1000364E+04  0.7818609E-02  0.9308145E-01
       -2   -1    0    0    0  501  0.00000000000E+00  0.00000000000E+00  0.40955022189E+03  0.40955022190E+03  0.25500000920E-02 0. -1.
        2   -1    0    0  501    0  0.00000000000E+00  0.00000000000E+00 -0.61087070936E+03  0.61087070937E+03  0.25500000920E-02 0.  1.
    10030    2    1    2    0    0  0.00000000000E+00  0.00000000000E+00 -0.20132048748E+03  0.10204209313E+04  0.10003644027E+04 0.  0.
        2    1    3    3  502    0  0.25184750396E+03 -0.40926170596E+03  0.40902323142E+02  0.48228135903E+03  0.25500000920E-02 0. -1.
       -2    1    3    3    0  502 -0.25184750396E+03  0.40926170596E+03 -0.24222281062E+03  0.53813957224E+03  0.25500000920E-02 0.  1.
</event>
<event>
 5   0  0.1453863E-04  0.1000779E+04  0.7818609E-02  0.9307691E-01
       -1   -1    0    0    0  501  0.00000000000E+00  0.00000000000E+00  0.21631065651E+03  0.21631065657E+03  0.50400001928E-02 0. -1.
        1   -1    0    0  501    0  0.00000000000E+00  0.00000000000E+00 -0.11575454556E+04  0.11575454556E+04  0.50400001928E-02 0.  1.
    10030    2    1    2    0    0  0.00000000000E+00  0.00000000000E+00 -0.94123479908E+03  0.13738561122E+04  0.10007785319E+04 0.  0.
        1    1    3    3  502    0  0.23472642461E+03 -0.41242354616E+03 -0.25269528034E+03  0.53762866420E+03  0.50400001928E-02 0. -1.
       -1    1    3    3    0  502 -0.23472642461E+03  0.41242354616E+03 -0.68853951874E+03  0.83622744797E+03  0.50400001928E-02 0.  1.
</event>
<event>
 5   0  0.1461334E-04  0.1000622E+04  0.7818609E-02  0.9307862E-01
       -1   -1    0    0    0  501  0.00000000000E+00  0.00000000000E+00  0.27581822799E+03  0.27581822804E+03  0.50400001928E-02 0.  1.
        1   -1    0    0  501    0  0.00000000000E+00  0.00000000000E+00 -0.90752279074E+03  0.90752279076E+03  0.50400001928E-02 0. -1.
    10030    2    1    2    0    0  0.00000000000E+00  0.00000000000E+00 -0.63170456275E+03  0.11833410188E+04  0.10006224624E+04 0.  0.
        2    1    3    3  502    0  0.40819165544E+03  0.27820047628E+03 -0.40968432588E+03  0.64176099870E+03  0.25500000920E-02 0. -1.
       -2    1    3    3    0  502 -0.40819165544E+03 -0.27820047628E+03 -0.22202023687E+03  0.54158002009E+03  0.25500000920E-02 0.  1.
</event>
<event>
 5   0  0.2403037E-04  0.9987051E+03  0.7818609E-02  0.9309966E-01
        2   -1    0    0  501    0  0.00000000000E+00  0.00000000000E+00  0.13441875325E+04  0.13441875325E+04  0.25500000920E-02 0. -1.
       -2   -1    0    0    0  501  0.00000000000E+00  0.00000000000E+00 -0.18550460079E+03  0.18550460081E+03  0.25500000920E-02 0.  1.
    10030    2    1    2    0    0  0.00000000000E+00  0.00000000000E+00  0.11586829317E+04  0.15296921333E+04  0.99870510486E+03 0.  0.
        1    1    3    3  502    0 -0.68821839478E+02  0.13396378570E+03 -0.14988765991E+03  0.21248306306E+03  0.50400001928E-02 0.  1.
       -1    1    3    3    0  502  0.68821839478E+02 -0.13396378570E+03  0.13085705916E+04  0.13172090702E+04  0.50400001928E-02 0. -1.
</event>
<event>
 5   0  0.1461334E-04  0.1001315E+04  0.7818609E-02  0.9307104E-01
        1   -1    0    0  501    0  0.00000000000E+00  0.00000000000E+00  0.44950127757E+03  0.44950127760E+03  0.50400001928E-02 0. -1.
       -1   -1    0    0    0  501  0.00000000000E+00  0.00000000000E+00 -0.55763520301E+03  0.55763520303E+03  0.50400001928E-02 0.  1.
    10030    2    1    2    0    0  0.00000000000E+00  0.00000000000E+00 -0.10813392544E+03  0.10071364806E+04  0.10013146083E+04 0.  0.
        2    1    3    3  502    0 -0.32245457826E+03 -0.36557620591E+03  0.60766979625E+02  0.49123878428E+03  0.25500000920E-02 0. -1.
       -2    1    3    3    0  502  0.32245457826E+03  0.36557620591E+03 -0.16890090506E+03  0.51589769635E+03  0.25500000920E-02 0.  1.
</event>
<event>
 5   0  0.1453863E-04  0.9997394E+03  0.7818609E-02  0.9308831E-01
       -1   -1    0    0    0  501  0.00000000000E+00  0.00000000000E+00  0.77599575166E+03  0.77599575168E+03  0.50400001928E-02 0.  1.
        1   -1    0    0  501    0  0.00000000000E+00  0.00000000000E+00 -0.32199882939E+03  0.32199882943E+03  0.50400001928E-02 0. -1.
    10030    2    1    2    0    0  0.00000000000E+00  0.00000000000E+00  0.45399692227E+03  0.10979945811E+04  0.99973941340E+03 0.  0.
        1    1    3    3  502    0 -0.13290679842E+03 -0.16216613917E+03  0.72536585876E+03  0.75506139012E+03  0.50400001928E-02 0.  1.
       -1    1    3    3    0  502  0.13290679842E+03  0.16216613917E+03 -0.27136893649E+03  0.34293319098E+03  0.50400001928E-02 0. -1.
</event>
<event>
 5   0  0.2353916E-04  0.1004096E+04  0.7818609E-02  0.9304063E-01
        2   -1    0    0  501    0  0.00000000000E+00  0.00000000000E+00  0.26763751488E+04  0.26763751488E+04  0.25500000920E-02 0. -1.
       -2   -1    0    0    0  501  0.00000000000E+00  0.00000000000E+00 -0.94176778666E+02  0.94176778701E+02  0.25500000920E-02 0.  1.
    10030    2    1    2    0    0  0.00000000000E+00  0.00000000000E+00  0.25821983701E+04  0.27705519275E+04  0.10040963899E+04 0.  0.
        4    1    3    3  502    0  0.18724183680E+03 -0.33453697146E+03  0.39667559170E+03  0.55165897860E+03  0.12699999809E+01 0.  1.
       -4    1    3    3    0  502 -0.18724183680E+03  0.33453697146E+03  0.21855227784E+04  0.22188929489E+04  0.12699999809E+01 0. -1.
</event>
<event>
 5   0  0.2353916E-04  0.1000276E+04  0.7818609E-02  0.9308242E-01
       -2   -1    0    0    0  501  0.00000000000E+00  0.00000000000E+00  0.19840790848E+03  0.19840790850E+03  0.25500000920E-02 0. -1.
        2   -1    0    0  501    0  0.00000000000E+00  0.00000000000E+00 -0.12607258601E+04  0.12607258601E+04  0.25500000920E-02 0.  1.
    10030    2    1    2    0    0  0.00000000000E+00  0.00000000000E+00 -0.10623179516E+04  0.14591337686E+04  0.10002759241E+04 0.  0.
        4    1    3    3  502    0 -0.12090254302E+03  0.48401013883E+03 -0.58279741938E+03  0.76716209782E+03  0.12699999809E+01 0.  1.
       -4    1    3    3    0  502  0.12090254302E+03 -0.48401013883E+03 -0.47952053222E+03  0.69197167076E+03  0.12699999809E+01 0. -1.
</event>
<event>
 5   0  0.2353916E-04  0.9996296E+03  0.7818609E-02  0.9308951E-01
        2   -1    0    0  501    0  0.00000000000E+00  0.00000000000E+00  0.10444611245E+04  0.10444611245E+04  0.25500000920E-02 0. -1.
       -2   -1    0    0    0  501  0.00000000000E+00  0.00000000000E+00 -0.23918059831E+03  0.23918059833E+03  0.25500000920E-02 0.  1.
    10030    2    1    2    0    0  0.00000000000E+00  0.00000000000E+00  0.80528052620E+03  0.12836417228E+04  0.99962960478E+03 0.  0.
        4    1    3    3  502    0 -0.27174852938E+02 -0.47000711063E+03  0.18712241676E+03  0.50661777351E+03  0.12699999809E+01 0.  1.
       -4    1    3    3    0  502  0.27174852938E+02  0.47000711063E+03  0.61815810944E+03  0.77702394934E+03  0.12699999809E+01 0. -1.
</event>
<event>
 5   0  0.2484904E-04  0.1003885E+04  0.7818609E-02  0.9304294E-01
        2   -1    0    0  501    0  0.00000000000E+00  0.00000000000E+00  0.63596869926E+03  0.63596869927E+03  0.25500000920E-02 0. -1.
       -2   -1    0    0    0  501  0.00000000000E+00  0.00000000000E+00 -0.39616171507E+03  0.39616171508E+03  0.25500000920E-02 0.  1.
    10030    2    1    2    0    0  0.00000000000E+00  0.00000000000E+00  0.23980698419E+03  0.10321304143E+04  0.10038853533E+04 0.  0.
        3    1    3    3  502    0  0.22356149915E+03  0.14563707407E+03  0.55702026029E+03  0.61762568099E+03  0.10100000352E+00 0. -1.
       -3    1    3    3    0  502 -0.22356149915E+03 -0.14563707407E+03 -0.31721327609E+03  0.41450473336E+03  0.10100000352E+00 0.  1.
</event>
<event>
 5   0  0.1453863E-04  0.1000143E+04  0.7818609E-02  0.9308388E-01
        1   -1    0    0  501    0  0.00000000000E+00  0.00000000000E+00  0.12276839679E+04  0.12276839679E+04  0.50400001928E-02 0.  1.
       -1   -1    0    0    0  501  0.00000000000E+00  0.00000000000E+00 -0.20369380792E+03  0.20369380798E+03  0.50400001928E-02 0. -1.
    10030    2    1    2    0    0  0.00000000000E+00  0.00000000000E+00  0.10239901600E+04  0.14313777759E+04  0.10001432345E+04 0.  0.
        1    1    3    3  502    0 -0.35872417784E+03  0.32260118361E+03  0.32366088239E+03  0.58095690567E+03  0.50400001928E-02 0.  1.
       -1    1    3    3    0  502  0.35872417784E+03 -0.32260118361E+03  0.70032927761E+03  0.85042087024E+03  0.50400001928E-02 0. -1.
</event>
<event>
 5   0  0.2503680E-04  0.1000108E+04  0.7818609E-02  0.9308426E-01
       -2   -1    0    0    0  501  0.00000000000E+00  0.00000000000E+00  0.52086427490E+03  0.52086427491E+03  0.25500000920E-02 0.  1.
        2   -1    0    0  501    0  0.00000000000E+00  0.00000000000E+00 -0.48007556624E+03  0.48007556625E+03  0.25500000920E-02 0. -1.
    10030    2    1    2    0    0  0.00000000000E+00  0.00000000000E+00  0.40788708661E+02  0.10009398412E+04  0.10001084175E+04 0.  0.
        2    1    3    3  502    0  0.40327148781E+03 -0.28585441176E+03  0.96045380914E+02  0.50355273091E+03  0.25500000920E-02 0.  1.
       -2    1    3    3    0  502 -0.40327148781E+03  0.28585441176E+03 -0.55256672253E+02  0.49738711024E+03  0.25500000920E-02 0. -1.
</event>
<event>
 5   0  0.2403037E-04  0.1000067E+04  0.7818609E-02  0.9308471E-01
        2   -1    0    0  501    0  0.00000000000E+00  0.00000000000E+00  0.32232812863E+03  0.32232812864E+03  0.25500000920E-02 0. -1.
       -2   -1    0    0    0  501  0.00000000000E+00  0.00000000000E+00 -0.77571127935E+03  0.77571127935E+03  0.25500000920E-02 0.  1.
    10030    2    1    2    0    0  0.00000000000E+00  0.00000000000E+00 -0.45338315072E+03  0.10980394080E+04  0.10000671278E+04 0.  0.
        1    1    3    3  502    0  0.28820950612E+03  0.98686345536E+02  0.20867619515E+03  0.36925528928E+03  0.50400001928E-02 0. -1.
       -1    1    3    3    0  502 -0.28820950612E+03 -0.98686345536E+02 -0.66205934587E+03  0.72878411871E+03  0.50400001928E-02 0.  1.
</event>
<event>
 5   0  0.1461334E-04  0.9999187E+03  0.7818609E-02  0.9308634E-01
        1   -1    0    0  501    0  0.00000000000E+00  0.00000000000E+00  0.10138614553E+04  0.10138614553E+04  0.50400001928E-02 0.  1.
       -1   -1    0    0    0  501  0.00000000000E+00  0.00000000000E+00 -0.24654193259E+03  0.24654193264E+03  0.50400001928E-02 0. -1.
    10030    2    1    2    0    0  0.00000000000E+00  0.00000000000E+00  0.76731952268E+03  0.12604033879E+04  0.99991872189E+03 0.  0.
        2    1    3    3  502    0 -0.17528239986E+03 -0.15275917043E+03 -0.17424769692E+03  0.29055385687E+03  0.25500000920E-02 0. -1.
       -2    1    3    3    0  502  0.17528239986E+03  0.15275917043E+03  0.94156721960E+03  0.96984953105E+03  0.25500000920E-02 0.  1.
</event>
<event>
 5   0  0.1461334E-04  0.1004647E+04  0.7818609E-02  0.9303462E-01
       -1   -1    0    0    0  501  0.00000000000E+00  0.00000000000E+00  0.22743027724E+03  0.22743027729E+03  0.50400001928E-02 0. -1.
        1   -1    0    0  501    0  0.00000000000E+00  0.00000000000E+00 -0.11094785393E+04  0.11094785393E+04  0.50400001928E-02 0.  1.
    10030    2    1    2    0    0  0.00000000000E+00  0.00000000000E+00 -0.88204826207E+03  0.13369088166E+04  0.10046472253E+04 0.  0.
        2    1    3    3  502    0 -0.48843169154E+03 -0.92420255589E+01 -0.28539146399E+03  0.56577311712E+03  0.25500000920E-02 0. -1.
       -2    1    3    3    0  502  0.48843169154E+03  0.92420255589E+01 -0.59665679808E+03  0.77113569950E+03  0.25500000920E-02 0.  1.
</event>
<event>
 5   0  0.2353916E-04  0.9995731E+03  0.7818609E-02  0.9309013E-01
       -2   -1    0    0    0  501  0.00000000000E+00  0.00000000000E+00  0.40052744060E+03  0.40052744061E+03  0.25500000920E-02 0. -1.
        2   -1    0    0  501    0  0.00000000000E+00  0.00000000000E+00 -0.62364410492E+03  0.62364410492E+03  0.25500000920E-02 0.  1.
    10030    2    1    2    0    0  0.00000000000E+00  0.00000000000E+00 -0.22311666432E+03  0.10241715455E+04  0.99957306326E+03 0.  0.
        4    1    3    3  502    0  0.14712445416E+03  0.78148491639E+02 -0.59435705856E+03  0.61726389634E+03  0.12699999809E+01 0.  1.
       -4    1    3    3    0  502 -0.14712445416E+03 -0.78148491639E+02  0.37124039425E+03  0.40690764920E+03  0.12699999809E+01 0. -1.
</event>
<event>
 5   0  0.2353916E-04  0.1000119E+04  0.7818609E-02  0.9308414E-01
        2   -1    0    0  501    0  0.00000000000E+00  0.00000000000E+00  0.67880526772E+03  0.67880526773E+03  0.25500000920E-02 0.  1.
       -2   -1    0    0    0  501  0.00000000000E+00  0.00000000000E+00 -0.36838175225E+03  0.36838175226E+03  0.25500000920E-02 0. -1.
    10030    2    1    2    0    0  0.00000000000E+00  0.00000000000E+00  0.31042351547E+03  0.10471870200E+04  0.10001189409E+04 0.  0.
        4    1    3    3  502    0  0.48134014743E+03 -0.19993221058E+02  0.29557201492E+03  0.56520128744E+03  0.12699999809E+01 0.  1.
       -4    1    3    3    0  502 -0.48134014743E+03  0.19993221058E+02  0.14851500550E+02  0.48198573255E+03  0.12699999809E+01 0. -1.
</event>
<event>
 5   0  0.2353916E-04  0.9998350E+03  0.7818609E-02  0.9308726E-01
       -2   -1    0    0    0  501  0.00000000000E+00  0.00000000000E+00  0.58035317807E+03  0.58035317808E+03  0.25500000920E-02 0. -1.
        2   -1    0    0  501    0  0.00000000000E+00  0.00000000000E+00 -0.43063000532E+03  0.43063000533E+03  0.25500000920E-02 0.  1.
    10030    2    1    2    0    0  0.00000000000E+00  0.00000000000E+00  0.14972317275E+03  0.10109831834E+04  0.99983497072E+03 0.  0.
        4    1    3    3  502    0 -0.28265509519E+03  0.89018391891E+02 -0.33224116575E+03  0.44520105801E+03  0.12699999809E+01 0.  1.
       -4    1    3    3    0  502  0.28265509519E+03 -0.89018391891E+02  0.48196433850E+03  0.56578212540E+03  0.12699999809E+01 0. -1.
</event>
<event>
 5   0  0.1506454E-04  0.1007716E+04  0.7818609E-02  0.9300122E-01
        1   -1    0    0  501    0  0.00000000000E+00  0.00000000000E+00  0.32376920737E+04  0.32376920737E+04  0.50400001928E-02 0.  1.
       -1   -1    0    0    0  501  0.00000000000E+00  0.00000000000E+00 -0.78411755531E+02  0.78411755693E+02  0.50400001928E-02 0. -1.
    10030    2    1    2    0    0  0.00000000000E+00  0.00000000000E+00  0.31592803182E+04  0.33161038294E+04  0.10077164674E+04 0.  0.
        3    1    3    3  502    0 -0.32235377554E+03 -0.34120116075E+03  0.97695540891E+03  0.10838690280E+04  0.10100000352E+00 0. -1.
       -3    1    3    3    0  502  0.32235377554E+03  0.34120116075E+03  0.21823249093E+04  0.22322348014E+04  0.10100000352E+00 0.  1.
</event>
<event>
 5   0  0.9650500E-05  0.9996131E+03  0.7818609E-02  0.9308969E-01
       -3   -1    0    0    0  501  0.00000000000E+00  0.00000000000E+00  0.16850499177E+03  0.16850502204E+03  0.10100000352E+00 0.  1.
        3   -1    0    0  501    0  0.00000000000E+00  0.00000000000E+00 -0.14824876416E+04  0.14824876450E+04  0.10100000352E+00 0. -1.
    10030    2    1    2    0    0  0.00000000000E+00  0.00000000000E+00 -0.13139826498E+04  0.16509926670E+04  0.99961311650E+03 0.  0.
        1    1    3    3  502    0 -0.41253132471E+03 -0.27683660466E+03 -0.56673912097E+03  0.75366692300E+03  0.50400001928E-02 0. -1.
       -1    1    3    3    0  502  0.41253132471E+03  0.27683660466E+03 -0.74724352881E+03  0.89732574404E+03  0.50400001928E-02 0.  1.
</event>
<event>
 5   0  0.1506454E-04  0.9995409E+03  0.7818609E-02  0.9309048E-01
        1   -1    0    0  501    0  0.00000000000E+00  0.00000000000E+00  0.17957607280E+04  0.17957607280E+04  0.50400001928E-02 0.  1.
       -1   -1    0    0    0  501  0.00000000000E+00  0.00000000000E+00 -0.13908896796E+03  0.13908896805E+03  0.50400001928E-02 0. -1.
    10030    2    1    2    0    0  0.00000000000E+00  0.00000000000E+00  0.16566717601E+04  0.19348496961E+04  0.99954090753E+03 0.  0.
        3    1    3    3  502    0  0.13928077843E+03 -0.13096570313E+03 -0.65504486347E+02  0.20209403398E+03  0.10100000352E+00 0. -1.
       -3    1    3    3    0  502 -0.13928077843E+03  0.13096570313E+03  0.17221762464E+04  0.17327556621E+04  0.10100000352E+00 0.  1.
</event>
<event>
 5   0  0.2503680E-04  0.9995314E+03  0.7818609E-02  0.9309059E-01
        2   -1    0    0  501    0  0.00000000000E+00  0.00000000000E+00  0.69058719685E+03  0.69058719686E+03  0.25500000920E-02 0.  1.
       -2   -1    0    0    0  501  0.00000000000E+00  0.00000000000E+00 -0.36167154810E+03  0.36167154811E+03  0.25500000920E-02 0. -1.
    10030    2    1    2    0    0  0.00000000000E+00  0.00000000000E+00  0.32891564875E+03  0.10522587450E+04  0.99953137137E+03 0.  0.
        2    1    3    3  502    0 -0.32724139480E+03 -0.28119472480E+03 -0.10105355223E+03  0.44313567240E+03  0.25500000920E-02 0. -1.
       -2    1    3    3    0  502  0.32724139480E+03  0.28119472480E+03  0.42996920099E+03  0.60912307256E+03  0.25500000920E-02 0.  1.
</event>
<event>
 5   0  0.1461334E-04  0.9998420E+03  0.7818609E-02  0.9308718E-01
        1   -1    0    0  501    0  0.00000000000E+00  0.00000000000E+00  0.39079173933E+03  0.39079173936E+03  0.50400001928E-02 0.  1.
       -1   -1    0    0    0  501  0.00000000000E+00  0.00000000000E+00 -0.63952485383E+03  0.63952485385E+03  0.50400001928E-02 0. -1.
    10030    2    1    2    0    0  0.00000000000E+00  0.00000000000E+00 -0.24873311450E+03  0.10303165932E+04  0.99984204752E+03 0.  0.
        2    1    3    3  502    0 -0.36817048239E+03  0.12730036379E+03  0.19849784339E+03  0.43721422731E+03  0.25500000920E-02 0.  1.
       -2    1    3    3    0  502  0.36817048239E+03 -0.12730036379E+03 -0.44723095789E+03  0.59310236589E+03  0.25500000920E-02 0. -1.
</event>
<event>
 5   0  0.1461334E-04  0.9998932E+03  0.7818609E-02  0.9308662E-01
       -1   -1    0    0    0  501  0.00000000000E+00  0.00000000000E+00  0.58167523497E+03  0.58167523499E+03  0.50400001928E-02 0.  1.
        1   -1    0    0  501    0  0.00000000000E+00  0.00000000000E+00 -0.42970126379E+03  0.42970126382E+03  0.50400001928E-02 0. -1.
    10030    2    1    2    0    0  0.00000000000E+00  0.00000000000E+00  0.15197397117E+03  0.10113764988E+04  0.99989316151E+03 0.  0.
        2    1    3    3  502    0 -0.21698331154E+03  0.40378821180E+03 -0.12585400808E+03  0.47535871595E+03  0.25500000920E-02 0. -1.
       -2    1    3    3    0  502  0.21698331154E+03 -0.40378821180E+03  0.27782797926E+03  0.53601778286E+03  0.25500000920E-02 0.  1.
</event>
<event>
 5   0  0.1453863E-04  0.1000398E+04  0.7818609E-02  0.9308108E-01
        1   -1    0    0  501    0  0.00000000000E+00  0.00000000000E+00  0.32549291234E+03  0.32549291238E+03  0.50400001928E-02 0. -1.
       -1   -1    0    0    0  501  0.00000000000E+00  0.00000000000E+00 -0.76867750040E+03  0.76867750042E+03  0.50400001928E-02 0.  1.
    10030    2    1    2    0    0  0.00000000000E+00  0.00000000000E+00 -0.44318458807E+03  0.10941704128E+04  0.10003980773E+04 0.  0.
        1    1    3    3  502    0  0.22207961413E+03 -0.44251108363E+03 -0.29942185195E+03  0.57860941886E+03  0.50400001928E-02 0. -1.
       -1    1    3    3    0  502 -0.22207961413E+03  0.44251108363E+03 -0.14376273612E+03  0.51556099393E+03  0.50400001928E-02 0.  1.
</event>
<event>
 5   0  0.2503680E-04  0.1000244E+04  0.7818609E-02  0.9308277E-01
        2   -1    0    0  501    0  0.00000000000E+00  0.00000000000E+00  0.18084814604E+04  0.18084814604E+04  0.25500000920E-02 0.  1.
       -2   -1    0    0    0  501  0.00000000000E+00  0.00000000000E+00 -0.13830504284E+03  0.13830504287E+03  0.25500000920E-02 0. -1.
    10030    2    1    2    0    0  0.00000000000E+00  0.00000000000E+00  0.16701764176E+04  0.19467865033E+04  0.10002441820E+04 0.  0.
        2    1    3    3  502    0 -0.26495162695E+03  0.20836595281E+03  0.15541873222E+04  0.15903188257E+04  0.25500000920E-02 0.  1.
       -2    1    3    3    0  502  0.26495162695E+03 -0.20836595281E+03  0.11598909541E+03  0.35646767760E+03  0.25500000920E-02 0. -1.
</event>
<event>
 5   0  0.2353916E-04  0.1000505E+04  0.7818609E-02  0.9307991E-01
        2   -1    0    0  501    0  0.00000000000E+00  0.00000000000E+00  0.55928801228E+03  0.55928801228E+03  0.25500000920E-02 0.  1.
       -2   -1    0    0    0  501  0.00000000000E+00  0.00000000000E+00 -0.44744827907E+03  0.44744827908E+03  0.25500000920E-02 0. -1.
    10030    2    1    2    0    0  0.00000000000E+00  0.00000000000E+00  0.11183973320E+03  0.10067362914E+04  0.10005047898E+04 0.  0.
        4    1    3    3  502    0  0.31800820109E+03 -0.10952392242E+03 -0.31669199698E+03  0.46197417611E+03  0.12699999809E+01 0. -1.
       -4    1    3    3    0  502 -0.31800820109E+03  0.10952392242E+03  0.42853173018E+03  0.54476211525E+03  0.12699999809E+01 0.  1.
</event>
<event>
 5   0  0.1453863E-04  0.1000474E+04  0.7818609E-02  0.9308025E-01
       -1   -1    0    0    0  501  0.00000000000E+00  0.00000000000E+00  0.53268689458E+03  0.53268689460E+03  0.50400001928E-02 0. -1.
        1   -1    0    0  501    0  0.00000000000E+00  0.00000000000E+00 -0.46976367760E+03  0.46976367763E+03  0.50400001928E-02 0.  1.
    10030    2    1    2    0    0  0.00000000000E+00  0.00000000000E+00  0.62923216982E+02  0.10024505722E+04  0.10004737970E+04 0.  0.
        1    1    3    3  502    0 -0.38186851067E+03  0.24291137068E+03  0.24497290585E+03  0.51462726130E+03  0.50400001928E-02 0. -1.
       -1    1    3    3    0  502  0.38186851067E+03 -0.24291137068E+03 -0.18204968886E+03  0.48782331093E+03  0.50400001928E-02 0.  1.
</event>
<event>
 5   0  0.2403037E-04  0.9999719E+03  0.7818609E-02  0.9308576E-01
        2   -1    0    0  501    0  0.00000000000E+00  0.00000000000E+00  0.13268161373E+04  0.13268161373E+04  0.25500000920E-02 0.  1.
       -2   -1    0    0    0  501  0.00000000000E+00  0.00000000000E+00 -0.18841040977E+03  0.18841040979E+03  0.25500000920E-02 0. -1.
    10030    2    1    2    0    0  0.00000000000E+00  0.00000000000E+00  0.11384057275E+04  0.15152265471E+04  0.99997194387E+03 0.  0.
        1    1    3    3  502    0 -0.14196490456E+03 -0.45807392219E+03  0.35491028082E+03  0.59661298995E+03  0.50400001928E-02 0.  1.
       -1    1    3    3    0  502  0.14196490456E+03  0.45807392219E+03  0.78349544669E+03  0.91861355713E+03  0.50400001928E-02 0. -1.
</event>
<event>
 5   0  0.1461334E-04  0.9986952E+03  0.7818609E-02  0.9309977E-01
        1   -1    0    0  501    0  0.00000000000E+00  0.00000000000E+00  0.24541636835E+03  0.24541636840E+03  0.50400001928E-02 0. -1.
       -1   -1    0    0    0  501  0.00000000000E+00  0.00000000000E+00 -0.10160202538E+04  0.10160202538E+04  0.50400001928E-02 0.  1.
    10030    2    1    2    0    0  0.00000000000E+00  0.00000000000E+00 -0.77060388546E+03  0.12614366222E+04  0.99869515049E+03 0.  0.
        2    1    3    3  502    0  0.66447073219E+02 -0.11721371260E+03 -0.99262605354E+03  0.10017288806E+04  0.25500000920E-02 0.  1.
       -2    1    3    3    0  502 -0.66447073219E+02  0.11721371260E+03  0.22202216808E+03  0.25970774168E+03  0.25500000920E-02 0. -1.
</event>
<event>
 5   0  0.1414165E-04  0.1000030E+04  0.7818609E-02  0.9308512E-01
       -1   -1    0    0    0  501  0.00000000000E+00  0.00000000000E+00  0.37471738915E+03  0.37471738919E+03  0.50400001928E-02 0.  1.
        1   -1    0    0  501    0  0.00000000000E+00  0.00000000000E+00 -0.66720916019E+03  0.66720916021E+03  0.50400001928E-02 0. -1.
    10030    2    1    2    0    0  0.00000000000E+00  0.00000000000E+00 -0.29249177104E+03  0.10419265494E+04  0.10000297487E+04 0.  0.
        4    1    3    3  502    0 -0.31958837028E+03  0.97570513804E+02  0.24130079000E+03  0.41217037222E+03  0.12699999809E+01 0.  1.
       -4    1    3    3    0  502  0.31958837028E+03 -0.97570513804E+02 -0.53379256103E+03  0.62975617718E+03  0.12699999809E+01 0. -1.
</event>
<event>
 5   0  0.1453863E-04  0.1000026E+04  0.7818609E-02  0.9308516E-01
        1   -1    0    0  501    0  0.00000000000E+00  0.00000000000E+00  0.53166402639E+03  0.53166402641E+03  0.50400001928E-02 0. -1.
       -1   -1    0    0    0  501  0.00000000000E+00  0.00000000000E+00 -0.47024629981E+03  0.47024629984E+03  0.50400001928E-02 0.  1.
    10030    2    1    2    0    0  0.00000000000E+00  0.00000000000E+00  0.61417726573E+02  0.10019103263E+04  0.10000260820E+04 0.  0.
        1    1    3    3  502    0  0.18689832720E+03  0.27854843891E+03 -0.34079004433E+03  0.47818204887E+03  0.50400001928E-02 0. -1.
       -1    1    3    3    0  502 -0.18689832720E+03 -0.27854843891E+03  0.40220777090E+03  0.52372827738E+03  0.50400001928E-02 0.  1.
</event>
<event>
 5   0  0.1453863E-04  0.9984697E+03  0.7818609E-02  0.9310225E-01
        1   -1    0    0  501    0  0.00000000000E+00  0.00000000000E+00  0.24808262179E+03  0.24808262185E+03  0.50400001928E-02 0.  1.
       -1   -1    0    0    0  501  0.00000000000E+00  0.00000000000E+00 -0.10046469267E+04  0.10046469267E+04  0.50400001928E-02 0. -1.
    10030    2    1    2    0    0  0.00000000000E+00  0.00000000000E+00 -0.75656430487E+03  0.12527295485E+04  0.99846971628E+03 0.  0.
        1    1    3    3  502    0  0.23322943665E+03  0.42041745428E+03 -0.54702499193E+03  0.72827408838E+03  0.50400001928E-02 0.  1.
       -1    1    3    3    0  502 -0.23322943665E+03 -0.42041745428E+03 -0.20953931294E+03  0.52445546014E+03  0.50400001928E-02 0. -1.
</event>
<event>
 5   0  0.1453863E-04  0.9997475E+03  0.7818609E-02  0.9308822E-01
        1   -1    0    0  501    0  0.00000000000E+00  0.00000000000E+00  0.46708329646E+03  0.46708329649E+03  0.50400001928E-02 0.  1.
       -1   -1    0    0    0  501  0.00000000000E+00  0.00000000000E+00 -0.53496616912E+03  0.53496616914E+03  0.50400001928E-02 0. -1.
    10030    2    1    2    0    0  0.00000000000E+00  0.00000000000E+00 -0.67882872655E+02  0.10020494656E+04  0.99974749171E+03 0.  0.
        1    1    3    3  502    0  0.29471935496E+03 -0.37423015936E+03  0.11795304802E+03  0.49073478777E+03  0.50400001928E-02 0.  1.
       -1    1    3    3    0  502 -0.29471935496E+03  0.37423015936E+03 -0.18583592067E+03  0.51131467787E+03  0.50400001928E-02 0. -1.
</event>
<event>
 5   0  0.1461334E-04  0.9999625E+03  0.7818609E-02  0.9308586E-01
       -1   -1    0    0    0  501  0.00000000000E+00  0.00000000000E+00  0.31396844751E+03  0.31396844755E+03  0.50400001928E-02 0.  1.
        1   -1    0    0  501    0  0.00000000000E+00  0.00000000000E+00 -0.79619868629E+03  0.79619868631E+03  0.50400001928E-02 0. -1.
    10030    2    1    2    0    0  0.00000000000E+00  0.00000000000E+00 -0.48223023878E+03  0.11101671339E+04  0.99996253025E+03 0.  0.
        2    1    3    3  502    0  0.47615794638E+03  0.93857118831E+02 -0.37455147980E+03  0.61304515305E+03  0.25500000920E-02 0.  1.
       -2    1    3    3    0  502 -0.47615794638E+03 -0.93857118831E+02 -0.10767875898E+03  0.49712198080E+03  0.25500000920E-02 0. -1.
</event>
<event>
 5   0  0.1414165E-04  0.1000139E+04  0.7818609E-02  0.9308392E-01
        1   -1    0    0  501    0  0.00000000000E+00  0.00000000000E+00  0.58406209456E+03  0.58406209459E+03  0.50400001928E-02 0.  1.
       -1   -1    0    0    0  501  0.00000000000E+00  0.00000000000E+00 -0.42815557982E+03  0.42815557985E+03  0.50400001928E-02 0. -1.
    10030    2    1    2    0    0  0.00000000000E+00  0.00000000000E+00  0.15590651475E+03  0.10122176744E+04  0.10001388799E+04 0.  0.
        4    1    3    3  502    0 -0.48836640089E+03 -0.10665040076E+03  0.91969059069E+02  0.50826761674E+03  0.12699999809E+01 0.  1.
       -4    1    3    3    0  502  0.48836640089E+03  0.10665040076E+03  0.63937455679E+02  0.50395005769E+03  0.12699999809E+01 0. -1.
</event>
<event>
 5   0  0.2503680E-04  0.9999814E+03  0.7818609E-02  0.9308565E-01
       -2   -1    0    0    0  501  0.00000000000E+00  0.00000000000E+00  0.40364584190E+03  0.40364584191E+03  0.25500000920E-02 0.  1.
        2   -1    0    0  501    0  0.00000000000E+00  0.00000000000E+00 -0.61933174398E+03  0.61933174399E+03  0.25500000920E-02 0. -1.
    10030    2    1    2    0    0  0.00000000000E+00  0.00000000000E+00 -0.21568590208E+03  0.10229775859E+04  0.99998136627E+03 0.  0.
        2    1    3    3  502    0 -0.35351926238E+03  0.11220242240E+03 -0.45085272148E+03  0.58380941148E+03  0.25500000920E-02 0. -1.
       -2    1    3    3    0  502  0.35351926238E+03 -0.11220242240E+03  0.23516681940E+03  0.43916817442E+03  0.25500000920E-02 0.  1.
</event>
<event>
 5   0  0.1461334E-04  0.9947351E+03  0.7818609E-02  0.9314338E-01
       -1   -1    0    0    0  501  0.00000000000E+00  0.00000000000E+00  0.89933789641E+03  0.89933789643E+03  0.50400001928E-02 0.  1.
        1   -1    0    0  501    0  0.00000000000E+00  0.00000000000E+00 -0.27506289427E+03  0.27506289431E+03  0.50400001928E-02 0. -1.
    10030    2    1    2    0    0  0.00000000000E+00  0.00000000000E+00  0.62427500215E+03  0.11744007907E+04  0.99473510996E+03 0.  0.
        2    1    3    3  502    0  0.17852576558E+03  0.44167865535E+03  0.48085831782E+03  0.67688714377E+03  0.25500000920E-02 0.  1.
       -2    1    3    3    0  502 -0.17852576558E+03 -0.44167865535E+03  0.14341668432E+03  0.49751364697E+03  0.25500000920E-02 0. -1.
</event>
<event>
 5   0  0.1430675E-04  0.9999708E+03  0.7818609E-02  0.9308577E-01
       -1   -1    0    0    0  501  0.00000000000E+00  0.00000000000E+00  0.15344616524E+04  0.15344616524E+04  0.50400001928E-02 0.  1.
        1   -1    0    0  501    0  0.00000000000E+00  0.00000000000E+00 -0.16291406486E+03  0.16291406493E+03  0.50400001928E-02 0. -1.
    10030    2    1    2    0    0  0.00000000000E+00  0.00000000000E+00  0.13715475876E+04  0.16973757174E+04  0.99997077005E+03 0.  0.
        5    1    3    3  502    0  0.70725099792E+02  0.46564971249E+03  0.97047407892E+03  0.10787370960E+04  0.46999998093E+01 0.  1.
       -5    1    3    3    0  502 -0.70725099792E+02 -0.46564971249E+03  0.40107350866E+03  0.61863862136E+03  0.46999998093E+01 0. -1.
</event>
<event>
 5   0  0.2403037E-04  0.9952885E+03  0.7818609E-02  0.9313727E-01
       -2   -1    0    0    0  501  0.00000000000E+00  0.00000000000E+00  0.36580582599E+03  0.36580582600E+03  0.25500000920E-02 0.  1.
        2   -1    0    0  501    0  0.00000000000E+00  0.00000000000E+00 -0.67699796454E+03  0.67699796454E+03  0.25500000920E-02 0. -1.
    10030    2    1    2    0    0  0.00000000000E+00  0.00000000000E+00 -0.31119213855E+03  0.10428037905E+04  0.99528850012E+03 0.  0.
        1    1    3    3  502    0 -0.21267489774E+03 -0.35419876769E+03  0.13506908722E+03  0.43466198075E+03  0.50400001928E-02 0.  1.
       -1    1    3    3    0  502  0.21267489774E+03  0.35419876769E+03 -0.44626122576E+03  0.60814180979E+03  0.50400001928E-02 0. -1.
</event>
<event>
 5   0  0.2403037E-04  0.9996953E+03  0.7818609E-02  0.9308879E-01
        2   -1    0    0  501    0  0.00000000000E+00  0.00000000000E+00  0.21055605647E+04  0.21055605647E+04  0.25500000920E-02 0. -1.
       -2   -1    0    0    0  501  0.00000000000E+00  0.00000000000E+00 -0.11866088878E+03  0.11866088881E+03  0.25500000920E-02 0.  1.
    10030    2    1    2    0    0  0.00000000000E+00  0.00000000000E+00  0.19868996759E+04  0.22242214535E+04  0.99969532963E+03 0.  0.
        1    1    3    3  502    0 -0.46675318683E+03 -0.77810360254E+02  0.63514640993E+03  0.79203784736E+03  0.50400001928E-02 0.  1.
       -1    1    3    3    0  502  0.46675318683E+03  0.77810360254E+02  0.13517532660E+04  0.14321836062E+04  0.50400001928E-02 0. -1.
</event>
<event>
 5   0  0.2503680E-04  0.9999271E+03  0.7818609E-02  0.9308625E-01
       -2   -1    0    0    0  501  0.00000000000E+00  0.00000000000E+00  0.31676910532E+03  0.31676910533E+03  0.25500000920E-02 0. -1.
        2   -1    0    0  501    0  0.00000000000E+00  0.00000000000E+00 -0.78910325624E+03  0.78910325625E+03  0.25500000920E-02 0.  1.
    10030    2    1    2    0    0  0.00000000000E+00  0.00000000000E+00 -0.47233415092E+03  0.11058723616E+04  0.99992706233E+03 0.  0.
        2    1    3    3  502    0  0.15411831819E+03 -0.17726683451E+03  0.25194244066E+03  0.34445751557E+03  0.25500000920E-02 0. -1.
       -2    1    3    3    0  502 -0.15411831819E+03  0.17726683451E+03 -0.72427659157E+03  0.76141484601E+03  0.25500000920E-02 0.  1.
</event>
<event>
 5   0  0.2473312E-04  0.1000104E+04  0.7818609E-02  0.9308431E-01
        2   -1    0    0  501    0  0.00000000000E+00  0.00000000000E+00  0.65319276350E+03  0.65319276350E+03  0.25500000920E-02 0.  1.
       -2   -1    0    0    0  501  0.00000000000E+00  0.00000000000E+00 -0.38281489983E+03  0.38281489984E+03  0.25500000920E-02 0. -1.
    10030    2    1    2    0    0  0.00000000000E+00  0.00000000000E+00  0.27037786367E+03  0.10360076633E+04  0.10001038393E+04 0.  0.
        5    1    3    3  502    0 -0.33439125784E+03  0.33650049939E+03 -0.28534850379E+02  0.47527510675E+03  0.46999998093E+01 0. -1.
       -5    1    3    3    0  502  0.33439125784E+03 -0.33650049939E+03  0.29891271404E+03  0.56073255659E+03  0.46999998093E+01 0.  1.
</event>
<event>
 5   0  0.1461334E-04  0.1001398E+04  0.7818609E-02  0.9307013E-01
        1   -1    0    0  501    0  0.00000000000E+00  0.00000000000E+00  0.56540634249E+03  0.56540634251E+03  0.50400001928E-02 0.  1.
       -1   -1    0    0    0  501  0.00000000000E+00  0.00000000000E+00 -0.44339683209E+03  0.44339683212E+03  0.50400001928E-02 0. -1.
    10030    2    1    2    0    0  0.00000000000E+00  0.00000000000E+00  0.12200951040E+03  0.10088031746E+04  0.10013977854E+04 0.  0.
        2    1    3    3  502    0 -0.27356555573E+03 -0.30839499842E+03 -0.22526883081E+03  0.46977828225E+03  0.25500000920E-02 0. -1.
       -2    1    3    3    0  502  0.27356555573E+03  0.30839499842E+03  0.34727834121E+03  0.53902489238E+03  0.25500000920E-02 0.  1.
</event>
<event>
 5   0  0.2403037E-04  0.9993724E+03  0.7818609E-02  0.9309233E-01
        2   -1    0    0  501    0  0.00000000000E+00  0.00000000000E+00  0.25712813197E+03  0.25712813198E+03  0.25500000920E-02 0. -1.
       -2   -1    0    0    0  501  0.00000000000E+00  0.00000000000E+00 -0.97105797431E+03  0.97105797432E+03  0.25500000920E-02 0.  1.
    10030    2    1    2    0    0  0.00000000000E+00  0.00000000000E+00 -0.71392984235E+03  0.12281861063E+04  0.99937244904E+03 0.  0.
        1    1    3    3  502    0 -0.40906320977E+03 -0.22931298920E+03 -0.56900606782E+03  0.73735002668E+03  0.50400001928E-02 0. -1.
       -1    1    3    3    0  502  0.40906320977E+03  0.22931298920E+03 -0.14492377453E+03  0.49083607962E+03  0.50400001928E-02 0.  1.
</event>
<event>
 5   0  0.1453863E-04  0.9993063E+03  0.7818609E-02  0.9309306E-01
       -1   -1    0    0    0  501  0.00000000000E+00  0.00000000000E+00  0.21005291993E+03  0.21005291999E+03  0.50400001928E-02 0.  1.
        1   -1    0    0  501    0  0.00000000000E+00  0.00000000000E+00 -0.11885255048E+04  0.11885255048E+04  0.50400001928E-02 0. -1.
    10030    2    1    2    0    0  0.00000000000E+00  0.00000000000E+00 -0.97847258487E+03  0.13985784248E+04  0.99930626486E+03 0.  0.
        1    1    3    3  502    0 -0.17810096726E+03  0.46675010964E+03 -0.47690489427E+03  0.69066192713E+03  0.50400001928E-02 0.  1.
       -1    1    3    3    0  502  0.17810096726E+03 -0.46675010964E+03 -0.50156769060E+03  0.70791649767E+03  0.50400001928E-02 0. -1.
</event>
<event>
 5   0  0.9650500E-05  0.1000123E+04  0.7818609E-02  0.9308410E-01
       -4   -1    0    0    0  501  0.00000000000E+00  0.00000000000E+00  0.10630312494E+04  0.10630320081E+04  0.12699999809E+01 0.  1.
        4   -1    0    0  501    0  0.00000000000E+00  0.00000000000E+00 -0.23523162735E+03  0.23523505565E+03  0.12699999809E+01 0. -1.
    10030    2    1    2    0    0  0.00000000000E+00  0.00000000000E+00  0.82779962209E+03  0.12982670637E+04  0.10001225697E+04 0.  0.
        1    1    3    3  502    0  0.49149063589E+02  0.28839503389E+03  0.94035254962E+03  0.98480974997E+03  0.50400001928E-02 0.  1.
       -1    1    3    3    0  502 -0.49149063589E+02 -0.28839503389E+03 -0.11255292753E+03  0.31345731375E+03  0.50400001928E-02 0. -1.
</event>
<event>
 5   0  0.1453863E-04  0.9998756E+03  0.7818609E-02  0.9308681E-01
        1   -1    0    0  501    0  0.00000000000E+00  0.00000000000E+00  0.28239946627E+03  0.28239946631E+03  0.50400001928E-02 0. -1.
       -1   -1    0    0    0  501  0.00000000000E+00  0.00000000000E+00 -0.88505060968E+03  0.88505060970E+03  0.50400001928E-02 0.  1.
    10030    2    1    2    0    0  0.00000000000E+00  0.00000000000E+00 -0.60265114341E+03  0.11674500760E+04  0.99987563193E+03 0.  0.
        1    1    3    3  502    0  0.22904105933E+03  0.69651187453E+02 -0.81377451745E+03  0.84825707192E+03  0.50400001928E-02 0.  1.
       -1    1    3    3    0  502 -0.22904105933E+03 -0.69651187453E+02  0.21112337404E+03  0.31919300410E+03  0.50400001928E-02 0. -1.
</event>
<event>
 5   0  0.1430675E-04  0.1000259E+04  0.7818609E-02  0.9308261E-01
        1   -1    0    0  501    0  0.00000000000E+00  0.00000000000E+00  0.58254876094E+03  0.58254876096E+03  0.50400001928E-02 0.  1.
       -1   -1    0    0    0  501  0.00000000000E+00  0.00000000000E+00 -0.42937114532E+03  0.42937114535E+03  0.50400001928E-02 0. -1.
    10030    2    1    2    0    0  0.00000000000E+00  0.00000000000E+00  0.15317761562E+03  0.10119199063E+04  0.10002592238E+04 0.  0.
        5    1    3    3  502    0 -0.24062192993E+03  0.42925263264E+03 -0.13617948966E+02  0.49230506226E+03  0.46999998093E+01 0. -1.
       -5    1    3    3    0  502  0.24062192993E+03 -0.42925263264E+03  0.16679556458E+03  0.51961484405E+03  0.46999998093E+01 0.  1.
</event>
<event>
 5   0  0.9650500E-05  0.1005440E+04  0.7818609E-02  0.9302598E-01
       -4   -1    0    0    0  501  0.00000000000E+00  0.00000000000E+00  0.78787255381E+03  0.78787357739E+03  0.12699999809E+01 0.  1.
        4   -1    0    0  501    0  0.00000000000E+00  0.00000000000E+00 -0.32076937437E+03  0.32077188847E+03  0.12699999809E+01 0. -1.
    10030    2    1    2    0    0  0.00000000000E+00  0.00000000000E+00  0.46710317943E+03  0.11086454659E+04  0.10054398981E+04 0.  0.
        3    1    3    3  502    0 -0.16194709615E+03 -0.10390983593E+03 -0.27856033104E+03  0.33855573276E+03  0.10100000352E+00 0. -1.
       -3    1    3    3    0  502  0.16194709615E+03  0.10390983593E+03  0.74566351048E+03  0.77008973309E+03  0.10100000352E+00 0.  1.
</event>
<event>
 5   0  0.2403037E-04  0.1000071E+04  0.7818609E-02  0.9308467E-01
       -2   -1    0    0    0  501  0.00000000000E+00  0.00000000000E+00  0.22103569376E+03  0.22103569377E+03  0.25500000920E-02 0.  1.
        2   -1    0    0  501    0  0.00000000000E+00  0.00000000000E+00 -0.11311993502E+04  0.11311993502E+04  0.25500000920E-02 0. -1.
    10030    2    1    2    0    0  0.00000000000E+00  0.00000000000E+00 -0.91016365642E+03  0.13522350440E+04  0.10000708638E+04 0.  0.
        1    1    3    3  502    0 -0.27286784140E+03 -0.20455974102E+03  0.39390673929E+02  0.34329749741E+03  0.50400001928E-02 0.  1.
       -1    1    3    3    0  502  0.27286784140E+03  0.20455974102E+03 -0.94955433035E+03  0.10089375465E+04  0.50400001928E-02 0. -1.
</event>
<event>
 5   0  0.2484904E-04  0.1000017E+04  0.7818609E-02  0.9308527E-01
        2   -1    0    0  501    0  0.00000000000E+00  0.00000000000E+00  0.77041488803E+03  0.77041488804E+03  0.25500000920E-02 0. -1.
       -2   -1    0    0    0  501  0.00000000000E+00  0.00000000000E+00 -0.32451130440E+03  0.32451130441E+03  0.25500000920E-02 0.  1.
    10030    2    1    2    0    0  0.00000000000E+00  0.00000000000E+00  0.44590358363E+03  0.10949261924E+04  0.10000166804E+04 0.  0.
        3    1    3    3  502    0 -0.20248444234E+03  0.48502605450E+02  0.72069057533E+03  0.75016489367E+03  0.10100000352E+00 0. -1.
       -3    1    3    3    0  502  0.20248444234E+03 -0.48502605450E+02 -0.27478699170E+03  0.34476129878E+03  0.10100000352E+00 0.  1.
</event>
<event>
 5   0  0.1453863E-04  0.1001134E+04  0.7818609E-02  0.9307302E-01
        1   -1    0    0  501    0  0.00000000000E+00  0.00000000000E+00  0.93025839787E+03  0.93025839788E+03  0.50400001928E-02 0. -1.
       -1   -1    0    0    0  501  0.00000000000E+00  0.00000000000E+00 -0.26935217221E+03  0.26935217226E+03  0.50400001928E-02 0.  1.
    10030    2    1    2    0    0  0.00000000000E+00  0.00000000000E+00  0.66090622566E+03  0.11996105701E+04  0.10011335979E+04 0.  0.
        1    1    3    3  502    0  0.15468450374E+03 -0.29824534090E+03 -0.11417684787E+03  0.35484353126E+03  0.50400001928E-02 0.  1.
       -1    1    3    3    0  502 -0.15468450374E+03  0.29824534090E+03  0.77508307353E+03  0.84476703887E+03  0.50400001928E-02 0. -1.
</event>
<event>
 5   0  0.1461334E-04  0.1000344E+04  0.7818609E-02  0.9308168E-01
       -1   -1    0    0    0  501  0.00000000000E+00  0.00000000000E+00  0.25802031089E+03  0.25802031094E+03  0.50400001928E-02 0. -1.
        1   -1    0    0  501    0  0.00000000000E+00  0.00000000000E+00 -0.96958179249E+03  0.96958179250E+03  0.50400001928E-02 0.  1.
    10030    2    1    2    0    0  0.00000000000E+00  0.00000000000E+00 -0.71156148160E+03  0.12276021034E+04  0.10003435321E+04 0.  0.
        2    1    3    3  502    0 -0.31402129756E+03  0.38911449483E+03 -0.34063462068E+03  0.60502182624E+03  0.25500000920E-02 0.  1.
       -2    1    3    3    0  502  0.31402129756E+03 -0.38911449483E+03 -0.37092686091E+03  0.62258027720E+03  0.25500000920E-02 0. -1.
</event>
<event>
 5   0  0.9650500E-05  0.9998842E+03  0.7818609E-02  0.9308672E-01
        3   -1    0    0  501    0  0.00000000000E+00  0.00000000000E+00  0.36256010244E+03  0.36256011650E+03  0.10100000352E+00 0. -1.
       -3   -1    0    0    0  501  0.00000000000E+00  0.00000000000E+00 -0.68938109438E+03  0.68938110178E+03  0.10100000352E+00 0.  1.
    10030    2    1    2    0    0  0.00000000000E+00  0.00000000000E+00 -0.32682099194E+03  0.10519412183E+04  0.99988417627E+03 0.  0.
        4    1    3    3  502    0 -0.47099945294E+01  0.25057922950E+03  0.29169445953E+03  0.38457691679E+03  0.12699999809E+01 0. -1.
       -4    1    3    3    0  502  0.47099945294E+01 -0.25057922950E+03 -0.61851545147E+03  0.66736430150E+03  0.12699999809E+01 0.  1.
</event>
<event>
 5   0  0.1414165E-04  0.9998426E+03  0.7818609E-02  0.9308717E-01
        1   -1    0    0  501    0  0.00000000000E+00  0.00000000000E+00  0.22893198402E+03  0.22893198408E+03  0.50400001928E-02 0. -1.
       -1   -1    0    0    0  501  0.00000000000E+00  0.00000000000E+00 -0.10916837346E+04  0.10916837346E+04  0.50400001928E-02 0.  1.
    10030    2    1    2    0    0  0.00000000000E+00  0.00000000000E+00 -0.86275175059E+03  0.13206157187E+04  0.99984263428E+03 0.  0.
        4    1    3    3  502    0 -0.53471965739E+02  0.40860139890E+03 -0.57544637797E+02  0.41608575143E+03  0.12699999809E+01 0. -1.
       -4    1    3    3    0  502  0.53471965739E+02 -0.40860139890E+03 -0.80520711279E+03  0.90452996727E+03  0.12699999809E+01 0.  1.
</event>
<event>
 5   0  0.1461334E-04  0.1000307E+04  0.7818609E-02  0.9308208E-01
       -1   -1    0    0    0  501  0.00000000000E+00  0.00000000000E+00  0.18000036914E+03  0.18000036921E+03  0.50400001928E-02 0.  1.
        1   -1    0    0  501    0  0.00000000000E+00  0.00000000000E+00 -0.13897388593E+04  0.13897388593E+04  0.50400001928E-02 0. -1.
    10030    2    1    2    0    0  0.00000000000E+00  0.00000000000E+00 -0.12097384902E+04  0.15697392286E+04  0.10003069684E+04 0.  0.
        2    1    3    3  502    0  0.24861489607E+03 -0.13948791629E+03 -0.12497696735E+04  0.12818699162E+04  0.25500000920E-02 0. -1.
       -2    1    3    3    0  502 -0.24861489607E+03  0.13948791629E+03  0.40031183302E+02  0.28786931233E+03  0.25500000920E-02 0.  1.
</event>
<event>
 5   0  0.1506454E-04  0.1001393E+04  0.7818609E-02  0.9307019E-01
        1   -1    0    0  501    0  0.00000000000E+00  0.00000000000E+00  0.83210050701E+03  0.83210050703E+03  0.50400001928E-02 0.  1.
       -1   -1    0    0    0  501  0.00000000000E+00  0.00000000000E+00 -0.30128196929E+03  0.30128196933E+03  0.50400001928E-02 0. -1.
    10030    2    1    2    0    0  0.00000000000E+00  0.00000000000E+00  0.53081853772E+03  0.11333824764E+04  0.10013927889E+04 0.  0.
        3    1    3    3  502    0 -0.18576248560E+03 -0.40747844868E+03  0.51886936176E+03  0.68539901661E+03  0.10100000352E+00 0.  1.
       -3    1    3    3    0  502  0.18576248560E+03  0.40747844868E+03  0.11949175962E+02  0.44798345975E+03  0.10100000352E+00 0. -1.
</event>
<event>
 5   0  0.2403037E-04  0.1000032E+04  0.7818609E-02  0.9308510E-01
       -2   -1    0    0    0  501  0.00000000000E+00  0.00000000000E+00  0.36776590869E+03  0.36776590870E+03  0.25500000920E-02 0.  1.
        2   -1    0    0  501    0  0.00000000000E+00  0.00000000000E+00 -0.67982308296E+03  0.67982308296E+03  0.25500000920E-02 0. -1.
    10030    2    1    2    0    0  0.00000000000E+00  0.00000000000E+00 -0.31205717427E+03  0.10475889917E+04  0.10000315072E+04 0.  0.
        1    1    3    3  502    0 -0.26152266940E+03 -0.38864163538E+03  0.27156957787E+02  0.46922694695E+03  0.50400001928E-02 0.  1.
       -1    1    3    3    0  502  0.26152266940E+03  0.38864163538E+03 -0.33921413205E+03  0.57836204472E+03  0.50400001928E-02 0. -1.
</event>
<event>
 5   0  0.1430675E-04  0.9997239E+03  0.7818609E-02  0.9308848E-01
        1   -1    0    0  501    0  0.00000000000E+00  0.00000000000E+00  0.33984537340E+03  0.33984537344E+03  0.50400001928E-02 0.  1.
       -1   -1    0    0    0  501  0.00000000000E+00  0.00000000000E+00 -0.73522257007E+03  0.73522257009E+03  0.50400001928E-02 0. -1.
    10030    2    1    2    0    0  0.00000000000E+00  0.00000000000E+00 -0.39537719667E+03  0.10750679435E+04  0.99972393968E+03 0.  0.
        5    1    3    3  502    0  0.30482145411E+02 -0.41913028632E+03 -0.48871446514E+03  0.64456440837E+03  0.46999998093E+01 0. -1.
       -5    1    3    3    0  502 -0.30482145411E+02  0.41913028632E+03  0.93337268475E+02  0.43050353516E+03  0.46999998093E+01 0.  1.
</event>
<event>
 5   0  0.2503680E-04  0.1000463E+04  0.7818609E-02  0.9308037E-01
        2   -1    0    0  501    0  0.00000000000E+00  0.00000000000E+00  0.11283971781E+04  0.11283971781E+04  0.25500000920E-02 0. -1.
       -2   -1    0    0    0  501  0.00000000000E+00  0.00000000000E+00 -0.22175854030E+03  0.22175854031E+03  0.25500000920E-02 0.  1.
    10030    2    1    2    0    0  0.00000000000E+00  0.00000000000E+00  0.90663863779E+03  0.13501557184E+04  0.10004633149E+04 0.  0.
        2    1    3    3  502    0 -0.33835966561E+02  0.28209707906E+03  0.10089393436E+04  0.10481804395E+04  0.25500000920E-02 0. -1.
       -2    1    3    3    0  502  0.33835966561E+02 -0.28209707906E+03 -0.10230070583E+03  0.30197527890E+03  0.25500000920E-02 0.  1.
</event>
<event>
 5   0  0.1461334E-04  0.9981942E+03  0.7818609E-02  0.9310528E-01
       -1   -1    0    0    0  501  0.00000000000E+00  0.00000000000E+00  0.41557975042E+03  0.41557975045E+03  0.50400001928E-02 0.  1.
        1   -1    0    0  501    0  0.00000000000E+00  0.00000000000E+00 -0.59939856485E+03  0.59939856487E+03  0.50400001928E-02 0. -1.
    10030    2    1    2    0    0  0.00000000000E+00  0.00000000000E+00 -0.18381881444E+03  0.10149783153E+04  0.99819418152E+03 0.  0.
        2    1    3    3  502    0  0.38141548710E+02  0.39637496935E+03 -0.39785064440E+03  0.56289699708E+03  0.25500000920E-02 0. -1.
       -2    1    3    3    0  502 -0.38141548710E+02 -0.39637496935E+03  0.21403182996E+03  0.45208131824E+03  0.25500000920E-02 0.  1.
</event>
<event>
 5   0  0.2484904E-04  0.1000877E+04  0.7818609E-02  0.9307583E-01
       -2   -1    0    0    0  501  0.00000000000E+00  0.00000000000E+00  0.51289896393E+03  0.51289896394E+03  0.25500000920E-02 0.  1.
        2   -1    0    0  501    0  0.00000000000E+00  0.00000000000E+00 -0.48828093731E+03  0.48828093731E+03  0.25500000920E-02 0. -1.
    10030    2    1    2    0    0  0.00000000000E+00  0.00000000000E+00  0.24618026624E+02  0.10011799012E+04  0.10008771890E+04 0.  0.
        3    1    3    3  502    0  0.28213413695E+03 -0.88057249399E+02  0.41626902409E+03  0.51052292899E+03  0.10100000352E+00 0.  1.
       -3    1    3    3    0  502 -0.28213413695E+03  0.88057249399E+02 -0.39165099747E+03  0.49065697226E+03  0.10100000352E+00 0. -1.
</event>
<event>
 5   0  0.1453863E-04  0.9998810E+03  0.7818609E-02  0.9308675E-01
       -1   -1    0    0    0  501  0.00000000000E+00  0.00000000000E+00  0.26425069856E+03  0.26425069861E+03  0.50400001928E-02 0.  1.
        1   -1    0    0  501    0  0.00000000000E+00  0.00000000000E+00 -0.94584618170E+03  0.94584618171E+03  0.50400001928E-02 0. -1.
    10030    2    1    2    0    0  0.00000000000E+00  0.00000000000E+00 -0.68159548314E+03  0.12100968803E+04  0.99988102149E+03 0.  0.
        1    1    3    3  502    0  0.12786943264E+03 -0.41267760294E+03 -0.36338278406E+02  0.43355953025E+03  0.50400001928E-02 0.  1.
       -1    1    3    3    0  502 -0.12786943264E+03  0.41267760294E+03 -0.64525720473E+03  0.77653735007E+03  0.50400001928E-02 0. -1.
</event>
<event>
 5   0  0.2484904E-04  0.9999089E+03  0.7818609E-02  0.9308645E-01
       -2   -1    0    0    0  501  0.00000000000E+00  0.00000000000E+00  0.14109359600E+03  0.14109359603E+03  0.25500000920E-02 0. -1.
        2   -1    0    0  501    0  0.00000000000E+00  0.00000000000E+00 -0.17715505455E+04  0.17715505455E+04  0.25500000920E-02 0.  1.
    10030    2    1    2    0    0  0.00000000000E+00  0.00000000000E+00 -0.16304569495E+04  0.19126441415E+04  0.99990886983E+03 0.  0.
        3    1    3    3  502    0 -0.43803537010E+03  0.23950733426E+03 -0.86640050365E+03  0.99994429423E+03  0.10100000352E+00 0.  1.
       -3    1    3    3    0  502  0.43803537010E+03 -0.23950733426E+03 -0.76405644585E+03  0.91269984731E+03  0.10100000352E+00 0. -1.
</event>
<event>
 5   0  0.1506454E-04  0.1000219E+04  0.7818609E-02  0.9308305E-01
       -1   -1    0    0    0  501  0.00000000000E+00  0.00000000000E+00  0.10378862320E+04  0.10378862320E+04  0.50400001928E-02 0.  1.
        1   -1    0    0  501    0  0.00000000000E+00  0.00000000000E+00 -0.24097970593E+03  0.24097970598E+03  0.50400001928E-02 0. -1.
    10030    2    1    2    0    0  0.00000000000E+00  0.00000000000E+00  0.79690652608E+03  0.12788659380E+04  0.10002190140E+04 0.  0.
        3    1    3    3  502    0 -0.49843372805E+03  0.40752525426E+02  0.39392208243E+03  0.63660943035E+03  0.10100000352E+00 0. -1.
       -3    1    3    3    0  502  0.49843372805E+03 -0.40752525426E+02  0.40298444365E+03  0.64225650764E+03  0.10100000352E+00 0.  1.
</event>
<event>
 5   0  0.1430675E-04  0.1000212E+04  0.7818609E-02  0.9308313E-01
        1   -1    0    0  501    0  0.00000000000E+00  0.00000000000E+00  0.11877875767E+04  0.11877875768E+04  0.50400001928E-02 0. -1.
       -1   -1    0    0    0  501  0.00000000000E+00  0.00000000000E+00 -0.21056445446E+03  0.21056445452E+03  0.50400001928E-02 0.  1.
    10030    2    1    2    0    0  0.00000000000E+00  0.00000000000E+00  0.97722312228E+03  0.13983520313E+04  0.10002116639E+04 0.  0.
        5    1    3    3  502    0  0.39100182960E+03  0.15729921688E+03  0.86494136103E+03  0.96217000702E+03  0.46999998093E+01 0. -1.
       -5    1    3    3    0  502 -0.39100182960E+03 -0.15729921688E+03  0.11228176125E+03  0.43618202426E+03  0.46999998093E+01 0.  1.
</event>
<event>
 5   0  0.1506454E-04  0.1000048E+04  0.7818609E-02  0.9308492E-01
       -1   -1    0    0    0  501  0.00000000000E+00  0.00000000000E+00  0.25350878721E+03  0.25350878726E+03  0.50400001928E-02 0.  1.
        1   -1    0    0  501    0  0.00000000000E+00  0.00000000000E+00 -0.98625424856E+03  0.98625424858E+03  0.50400001928E-02 0. -1.
    10030    2    1    2    0    0  0.00000000000E+00  0.00000000000E+00 -0.73274546135E+03  0.12397630358E+04  0.10000482358E+04 0.  0.
        3    1    3    3  502    0  0.38084583423E+03 -0.27403468286E+03 -0.58068565983E+03  0.74654832569E+03  0.10100000352E+00 0. -1.
       -3    1    3    3    0  502 -0.38084583423E+03  0.27403468286E+03 -0.15205980153E+03  0.49321471014E+03  0.10100000352E+00 0.  1.
</event>
<event>
 5   0  0.2473312E-04  0.1000945E+04  0.7818609E-02  0.9307509E-01
        2   -1    0    0  501    0  0.00000000000E+00  0.00000000000E+00  0.11580834639E+04  0.11580834639E+04  0.25500000920E-02 0.  1.
       -2   -1    0    0    0  501  0.00000000000E+00  0.00000000000E+00 -0.21628189092E+03  0.21628189094E+03  0.25500000920E-02 0. -1.
    10030    2    1    2    0    0  0.00000000000E+00  0.00000000000E+00  0.94180157301E+03  0.13743653549E+04  0.10009445168E+04 0.  0.
        5    1    3    3  502    0  0.19012033710E+03 -0.89513279530E+02  0.10945399926E+04  0.11145394812E+04  0.46999998093E+01 0.  1.
       -5    1    3    3    0  502 -0.19012033710E+03  0.89513279530E+02 -0.15273841961E+03  0.25982587364E+03  0.46999998093E+01 0. -1.
</event>
<event>
 5   0  0.2403037E-04  0.9995052E+03  0.7818609E-02  0.9309088E-01
       -2   -1    0    0    0  501  0.00000000000E+00  0.00000000000E+00  0.20699042319E+03  0.20699042321E+03  0.25500000920E-02 0.  1.
        2   -1    0    0  501    0  0.00000000000E+00  0.00000000000E+00 -0.12065904324E+04  0.12065904324E+04  0.25500000920E-02 0. -1.
    10030    2    1    2    0    0  0.00000000000E+00  0.00000000000E+00 -0.99960000921E+03  0.14135808556E+04  0.99950520606E+03 0.  0.
        1    1    3    3  502    0  0.44820728270E+03 -0.17394492077E+03 -0.30688642113E+03  0.57037345593E+03  0.50400001928E-02 0.  1.
       -1    1    3    3    0  502 -0.44820728270E+03  0.17394492077E+03 -0.69271358809E+03  0.84320739968E+03  0.50400001928E-02 0. -1.
</event>
<event>
 5   0  0.2403037E-04  0.9999275E+03  0.7818609E-02  0.9308624E-01
        2   -1    0    0  501    0  0.00000000000E+00  0.00000000000E+00  0.11684413877E+04  0.11684413877E+04  0.25500000920E-02 0. -1.
       -2   -1    0    0    0  501  0.00000000000E+00  0.00000000000E+00 -0.21392922886E+03  0.21392922887E+03  0.25500000920E-02 0.  1.
    10030    2    1    2    0    0  0.00000000000E+00  0.00000000000E+00  0.95451215888E+03  0.13823706166E+04  0.99992752749E+03 0.  0.
        1    1    3    3  502    0 -0.74079703059E+02  0.31049819536E+03 -0.54711130628E+02  0.32386762661E+03  0.50400001928E-02 0.  1.
       -1    1    3    3    0  502  0.74079703059E+02 -0.31049819536E+03  0.10092232895E+04  0.10585029900E+04  0.50400001928E-02 0. -1.
</event>
<event>
 5   0  0.1461334E-04  0.9998254E+03  0.7818609E-02  0.9308736E-01
       -1   -1    0    0    0  501  0.00000000000E+00  0.00000000000E+00  0.28973711194E+03  0.28973711199E+03  0.50400001928E-02 0.  1.
        1   -1    0    0  501    0  0.00000000000E+00  0.00000000000E+00 -0.86254987154E+03  0.86254987156E+03  0.50400001928E-02 0. -1.
    10030    2    1    2    0    0  0.00000000000E+00  0.00000000000E+00 -0.57281275960E+03  0.11522869835E+04  0.99982540220E+03 0.  0.
        2    1    3    3  502    0  0.25598155457E+03 -0.24757210297E+03 -0.69075437637E+03  0.77714870581E+03  0.25500000920E-02 0. -1.
       -2    1    3    3    0  502 -0.25598155457E+03  0.24757210297E+03  0.11794161677E+03  0.37513827774E+03  0.25500000920E-02 0.  1.
</event>
<event>
 5   0  0.2473312E-04  0.1000230E+04  0.7818609E-02  0.9308293E-01
       -2   -1    0    0    0  501  0.00000000000E+00  0.00000000000E+00  0.15946530838E+03  0.15946530840E+03  0.25500000920E-02 0.  1.
        2   -1    0    0  501    0  0.00000000000E+00  0.00000000000E+00 -0.15684590243E+04  0.15684590243E+04  0.25500000920E-02 0. -1.
    10030    2    1    2    0    0  0.00000000000E+00  0.00000000000E+00 -0.14089937159E+04  0.17279243327E+04  0.10002295776E+04 0.  0.
        5    1    3    3  502    0 -0.22805511052E+03  0.44050380453E+03 -0.59469379340E+03  0.77442593780E+03  0.46999998093E+01 0.  1.
       -5    1    3    3    0  502  0.22805511052E+03 -0.44050380453E+03 -0.81429992248E+03  0.95349839485E+03  0.46999998093E+01 0. -1.
</event>
<event>
 5   0  0.2503680E-04  0.1000510E+04  0.7818609E-02  0.9307986E-01
       -2   -1    0    0    0  501  0.00000000000E+00  0.00000000000E+00  0.53762732024E+03  0.53762732025E+03  0.25500000920E-02 0. -1.
        2   -1    0    0  501    0  0.00000000000E+00  0.00000000000E+00 -0.46548031437E+03  0.46548031438E+03  0.25500000920E-02 0.  1.
    10030    2    1    2    0    0  0.00000000000E+00  0.00000000000E+00  0.72147005875E+02  0.10031076346E+04  0.10005097382E+04 0.  0.
        2    1    3    3  502    0 -0.48373133117E+03 -0.98350757049E+02  0.11743878214E+03  0.50740589248E+03  0.25500000920E-02 0. -1.
       -2    1    3    3    0  502  0.48373133117E+03  0.98350757049E+02 -0.45291776261E+02  0.49570174215E+03  0.25500000920E-02 0.  1.
</event>
<event>
 5   0  0.1430675E-04  0.9997852E+03  0.7818609E-02  0.9308780E-01
       -1   -1    0    0    0  501  0.00000000000E+00  0.00000000000E+00  0.53087065324E+03  0.53087065327E+03  0.50400001928E-02 0.  1.
        1   -1    0    0  501    0  0.00000000000E+00  0.00000000000E+00 -0.47072224760E+03  0.47072224763E+03  0.50400001928E-02 0. -1.
    10030    2    1    2    0    0  0.00000000000E+00  0.00000000000E+00  0.60148405643E+02  0.10015929009E+04  0.99978523115E+03 0.  0.
        5    1    3    3  502    0 -0.44437799691E+03 -0.15502322487E+03  0.19880239291E+03  0.51092904186E+03  0.46999998093E+01 0. -1.
       -5    1    3    3    0  502  0.44437799691E+03  0.15502322487E+03 -0.13865398727E+03  0.49066385904E+03  0.46999998093E+01 0.  1.
</event>
<event>
 5   0  0.1414165E-04  0.1000152E+04  0.7818609E-02  0.9308378E-01
        1   -1    0    0  501    0  0.00000000000E+00  0.00000000000E+00  0.45402803948E+03  0.45402803950E+03  0.50400001928E-02 0.  1.
       -1   -1    0    0    0  501  0.00000000000E+00  0.00000000000E+00 -0.55079383799E+03  0.55079383801E+03  0.50400001928E-02 0. -1.
    10030    2    1    2    0    0  0.00000000000E+00  0.00000000000E+00 -0.96765798513E+02  0.10048218775E+04  0.10001516814E+04 0.  0.
        4    1    3    3  502    0 -0.18661137028E+03 -0.45646438804E+03 -0.13178070938E+03  0.51044226836E+03  0.12699999809E+01 0.  1.
       -4    1    3    3    0  502  0.18661137028E+03  0.45646438804E+03  0.35014910864E+02  0.49437960916E+03  0.12699999809E+01 0. -1.
</event>
<event>
 5   0  0.1506454E-04  0.1000200E+04  0.7818609E-02  0.9308325E-01
        1   -1    0    0  501    0  0.00000000000E+00  0.00000000000E+00  0.72756514619E+03  0.72756514620E+03  0.50400001928E-02 0. -1.
       -1   -1    0    0    0  501  0.00000000000E+00  0.00000000000E+00 -0.34374935738E+03  0.34374935741E+03  0.50400001928E-02 0.  1.
    10030    2    1    2    0    0  0.00000000000E+00  0.00000000000E+00  0.38381578881E+03  0.10713145036E+04  0.10002000829E+04 0.  0.
        3    1    3    3  502    0 -0.42828804862E+03  0.22657249607E+03  0.59271724372E+02  0.48813819363E+03  0.10100000352E+00 0. -1.
       -3    1    3    3    0  502  0.42828804862E+03 -0.22657249607E+03  0.32454406444E+03  0.58317630999E+03  0.10100000352E+00 0.  1.
</event>
<event>
 5   0  0.1506454E-04  0.9991267E+03  0.7818609E-02  0.9309503E-01
       -1   -1    0    0    0  501  0.00000000000E+00  0.00000000000E+00  0.11951680886E+04  0.11951680886E+04  0.50400001928E-02 0. -1.
        1   -1    0    0  501    0  0.00000000000E+00  0.00000000000E+00 -0.20881039828E+03  0.20881039834E+03  0.50400001928E-02 0.  1.
    10030    2    1    2    0    0  0.00000000000E+00  0.00000000000E+00  0.98635769031E+03  0.14039784869E+04  0.99912666793E+03 0.  0.
        3    1    3    3  502    0 -0.38434484117E+03  0.31871168141E+03  0.51607212776E+03  0.71807279857E+03  0.10100000352E+00 0. -1.
       -3    1    3    3    0  502  0.38434484117E+03 -0.31871168141E+03  0.47028556255E+03  0.68590568838E+03  0.10100000352E+00 0.  1.
</event>
<event>
 5   0  0.2503680E-04  0.1000024E+04  0.7818609E-02  0.9308519E-01
       -2   -1    0    0    0  501  0.00000000000E+00  0.00000000000E+00  0.22943143261E+03  0.22943143263E+03  0.25500000920E-02 0.  1.
        2   -1    0    0  501    0  0.00000000000E+00  0.00000000000E+00 -0.10897018958E+04  0.10897018958E+04  0.25500000920E-02 0. -1.
    10030    2    1    2    0    0  0.00000000000E+00  0.00000000000E+00 -0.86027046315E+03  0.13191333284E+04  0.10000237339E+04 0.  0.
        2    1    3    3  502    0 -0.12776122343E+03  0.46428785467E+03 -0.60772832720E+03  0.77538368689E+03  0.25500000920E-02 0. -1.
       -2    1    3    3    0  502  0.12776122343E+03 -0.46428785467E+03 -0.25254213596E+03  0.54374964151E+03  0.25500000920E-02 0.  1.
</event>
<event>
 5   0  0.2503680E-04  0.1002002E+04  0.7818609E-02  0.9306352E-01
        2   -1    0    0  501    0  0.00000000000E+00  0.00000000000E+00  0.60274142900E+03  0.60274142901E+03  0.25500000920E-02 0. -1.
       -2   -1    0    0    0  501  0.00000000000E+00  0.00000000000E+00 -0.41643404682E+03  0.41643404682E+03  0.25500000920E-02 0.  1.
    10030    2    1    2    0    0  0.00000000000E+00  0.00000000000E+00  0.18630738219E+03  0.10191754758E+04  0.10020021007E+04 0.  0.
        2    1    3    3  502    0  0.25711023590E+03  0.13702438329E+03 -0.32141090036E+03  0.43380447427E+03  0.25500000920E-02 0.  1.
       -2    1    3    3    0  502 -0.25711023590E+03 -0.13702438329E+03  0.50771828255E+03  0.58537100156E+03  0.25500000920E-02 0. -1.
</event>
<event>
 5   0  0.1414165E-04  0.9976911E+03  0.7818609E-02  0.9311081E-01
        1   -1    0    0  501    0  0.00000000000E+00  0.00000000000E+00  0.17622540656E+04  0.17622540656E+04  0.50400001928E-02 0. -1.
       -1   -1    0    0    0  501  0.00000000000E+00  0.00000000000E+00 -0.14120942281E+03  0.14120942290E+03  0.50400001928E-02 0.  1.
    10030    2    1    2    0    0  0.00000000000E+00  0.00000000000E+00  0.16210446428E+04  0.19034634885E+04  0.99769109356E+03 0.  0.
        4    1    3    3  502    0  0.26242238117E+03  0.40302806957E+03  0.10632564820E+04  0.11669674761E+04  0.12699999809E+01 0. -1.
       -4    1    3    3    0  502 -0.26242238117E+03 -0.40302806957E+03  0.55778816081E+03  0.73649601237E+03  0.12699999809E+01 0.  1.
</event>
<event>
 5   0  0.1453863E-04  0.1000217E+04  0.7818609E-02  0.9308307E-01
       -1   -1    0    0    0  501  0.00000000000E+00  0.00000000000E+00  0.23738086403E+03  0.23738086408E+03  0.50400001928E-02 0.  1.
        1   -1    0    0  501    0  0.00000000000E+00  0.00000000000E+00 -0.10536174723E+04  0.10536174724E+04  0.50400001928E-02 0. -1.
    10030    2    1    2    0    0  0.00000000000E+00  0.00000000000E+00 -0.81623660832E+03  0.12909983364E+04  0.10002172284E+04 0.  0.
        1    1    3    3  502    0 -0.86302560230E+02 -0.16862205389E+03 -0.10055228915E+04  0.10232095652E+04  0.50400001928E-02 0. -1.
       -1    1    3    3    0  502  0.86302560230E+02  0.16862205389E+03  0.18928628320E+03  0.26778877123E+03  0.50400001928E-02 0.  1.
</event>
<event>
 5   0  0.1414165E-04  0.9999147E+03  0.7818609E-02  0.9308638E-01
       -1   -1    0    0    0  501  0.00000000000E+00  0.00000000000E+00  0.14252385342E+03  0.14252385350E+03  0.50400001928E-02 0. -1.
        1   -1    0    0  501    0  0.00000000000E+00  0.00000000000E+00 -0.17537932737E+04  0.17537932738E+04  0.50400001928E-02 0.  1.
    10030    2    1    2    0    0  0.00000000000E+00  0.00000000000E+00 -0.16112694203E+04  0.18963171273E+04  0.99991474749E+03 0.  0.
        4    1    3    3  502    0  0.43490556397E+03 -0.24506131764E+03 -0.85784348981E+03  0.99251950353E+03  0.12699999809E+01 0.  1.
       -4    1    3    3    0  502 -0.43490556397E+03  0.24506131764E+03 -0.75342593052E+03  0.90379762373E+03  0.12699999809E+01 0. -1.
</event>
<event>
 5   0  0.9650500E-05  0.9999823E+03  0.7818609E-02  0.9308564E-01
        3   -1    0    0  501    0  0.00000000000E+00  0.00000000000E+00  0.21023165592E+03  0.21023168018E+03  0.10100000352E+00 0. -1.
       -3   -1    0    0    0  501  0.00000000000E+00  0.00000000000E+00 -0.11891222674E+04  0.11891222717E+04  0.10100000352E+00 0.  1.
    10030    2    1    2    0    0  0.00000000000E+00  0.00000000000E+00 -0.97889061146E+03  0.13993539518E+04  0.99998232652E+03 0.  0.
        4    1    3    3  502    0  0.16866476128E+03 -0.21370606186E+03 -0.10763031964E+04  0.11102019033E+04  0.12699999809E+01 0.  1.
       -4    1    3    3    0  502 -0.16866476128E+03  0.21370606186E+03  0.97412584951E+02  0.28915204855E+03  0.12699999809E+01 0. -1.
</event>
<event>
 5   0  0.1430675E-04  0.1000038E+04  0.7818609E-02  0.9308503E-01
        1   -1    0    0  501    0  0.00000000000E+00  0.00000000000E+00  0.82038700174E+03  0.82038700175E+03  0.50400001928E-02 0.  1.
       -1   -1    0    0    0  501  0.00000000000E+00  0.00000000000E+00 -0.30475746206E+03  0.30475746210E+03  0.50400001928E-02 0. -1.
    10030    2    1    2    0    0  0.00000000000E+00  0.00000000000E+00  0.51562953968E+03  0.11251444638E+04  0.10000381204E+04 0.  0.
        5    1    3    3  502    0 -0.47734044952E+03  0.23667411127E+02  0.42310486425E+03  0.63832113176E+03  0.46999998093E+01 0.  1.
       -5    1    3    3    0  502  0.47734044952E+03 -0.23667411127E+02  0.92524675426E+02  0.48682333209E+03  0.46999998093E+01 0. -1.
</event>
<event>
 5   0  0.2353916E-04  0.9999753E+03  0.7818609E-02  0.9308572E-01
        2   -1    0    0  501    0  0.00000000000E+00  0.00000000000E+00  0.10665391177E+04  0.10665391177E+04  0.25500000920E-02 0. -1.
       -2   -1    0    0    0  501  0.00000000000E+00  0.00000000000E+00 -0.23439144545E+03  0.23439144546E+03  0.25500000920E-02 0.  1.
    10030    2    1    2    0    0  0.00000000000E+00  0.00000000000E+00  0.83214767222E+03  0.13009305631E+04  0.99997529055E+03 0.  0.
        4    1    3    3  502    0  0.49496565938E+02  0.14782298739E+03  0.10341125810E+04  0.10457972981E+04  0.12699999809E+01 0. -1.
       -4    1    3    3    0  502 -0.49496565938E+02 -0.14782298739E+03 -0.20196490879E+03  0.25513326502E+03  0.12699999809E+01 0.  1.
</event>
<event>
 5   0  0.2484904E-04  0.1002223E+04  0.7818609E-02  0.9306110E-01
       -2   -1    0    0    0  501  0.00000000000E+00  0.00000000000E+00  0.14163447801E+03  0.14163447803E+03  0.25500000920E-02 0.  1.
        2   -1    0    0  501    0  0.00000000000E+00  0.00000000000E+00 -0.17729647866E+04  0.17729647866E+04  0.25500000920E-02 0. -1.
    10030    2    1    2    0    0  0.00000000000E+00  0.00000000000E+00 -0.16313303086E+04  0.19145992646E+04  0.10022234124E+04 0.  0.
        3    1    3    3  502    0 -0.15578414605E+03 -0.12816835493E+03  0.60636968994E+02  0.21064823658E+03  0.10100000352E+00 0.  1.
       -3    1    3    3    0  502  0.15578414605E+03  0.12816835493E+03 -0.16919672776E+04  0.17039510280E+04  0.10100000352E+00 0. -1.
</event>
<event>
 5   0  0.2403037E-04  0.9997587E+03  0.7818609E-02  0.9308809E-01
        2   -1    0    0  501    0  0.00000000000E+00  0.00000000000E+00  0.82726184433E+03  0.82726184433E+03  0.25500000920E-02 0. -1.
       -2   -1    0    0    0  501  0.00000000000E+00  0.00000000000E+00 -0.30205597193E+03  0.30205597194E+03  0.25500000920E-02 0.  1.
    10030    2    1    2    0    0  0.00000000000E+00  0.00000000000E+00  0.52520587240E+03  0.11293178163E+04  0.99975873176E+03 0.  0.
        1    1    3    3  502    0  0.49386179870E+03  0.47417878928E+02  0.19360124644E+03  0.53256865671E+03  0.50400001928E-02 0.  1.
       -1    1    3    3    0  502 -0.49386179870E+03 -0.47417878928E+02  0.33160462596E+03  0.59674915956E+03  0.50400001928E-02 0. -1.
</event>
<event>
 5   0  0.9650500E-05  0.9997906E+03  0.7818609E-02  0.9308775E-01
       -3   -1    0    0    0  501  0.00000000000E+00  0.00000000000E+00  0.84844175896E+03  0.84844176497E+03  0.10100000352E+00 0. -1.
        3   -1    0    0  501    0  0.00000000000E+00  0.00000000000E+00 -0.29453441063E+03  0.29453442795E+03  0.10100000352E+00 0.  1.
    10030    2    1    2    0    0  0.00000000000E+00  0.00000000000E+00  0.55390734833E+03  0.11429761929E+04  0.99979059160E+03 0.  0.
        3    1    3    3  502    0  0.41029178854E+03  0.77410755174E+02 -0.37302796477E+02  0.41919361349E+03  0.10100000352E+00 0.  1.
       -3    1    3    3    0  502 -0.41029178854E+03 -0.77410755174E+02  0.59121014481E+03  0.72378257943E+03  0.10100000352E+00 0. -1.
</event>
<event>
 5   0  0.2484904E-04  0.9994593E+03  0.7818609E-02  0.9309138E-01
        2   -1    0    0  501    0  0.00000000000E+00  0.00000000000E+00  0.23126296878E+03  0.23126296880E+03  0.25500000920E-02 0.  1.
       -2   -1    0    0    0  501  0.00000000000E+00  0.00000000000E+00 -0.10798516922E+04  0.10798516922E+04  0.25500000920E-02 0. -1.
    10030    2    1    2    0    0  0.00000000000E+00  0.00000000000E+00 -0.84858872344E+03  0.13111146610E+04  0.99945927020E+03 0.  0.
        3    1    3    3  502    0 -0.23175103666E+03  0.98464819667E+02 -0.99054944079E+03  0.10220528697E+04  0.10100000352E+00 0. -1.
       -3    1    3    3    0  502  0.23175103666E+03 -0.98464819667E+02  0.14196071735E+03  0.28906179128E+03  0.10100000352E+00 0.  1.
</event>
<event>
 5   0  0.2473312E-04  0.1000305E+04  0.7818609E-02  0.9308210E-01
       -2   -1    0    0    0  501  0.00000000000E+00  0.00000000000E+00  0.32860898304E+03  0.32860898305E+03  0.25500000920E-02 0. -1.
        2   -1    0    0  501    0  0.00000000000E+00  0.00000000000E+00 -0.76124729697E+03  0.76124729697E+03  0.25500000920E-02 0.  1.
    10030    2    1    2    0    0  0.00000000000E+00  0.00000000000E+00 -0.43263831393E+03  0.10898562800E+04  0.10003053536E+04 0.  0.
        5    1    3    3  502    0 -0.11664279283E+03 -0.48889882605E+02 -0.74351219581E+03  0.75420702533E+03  0.46999998093E+01 0.  1.
       -5    1    3    3    0  502  0.11664279283E+03  0.48889882605E+02  0.31087388188E+03  0.33564925469E+03  0.46999998093E+01 0. -1.
</event>
<event>
 5   0  0.2473312E-04  0.9996245E+03  0.7818609E-02  0.9308957E-01
       -2   -1    0    0    0  501  0.00000000000E+00  0.00000000000E+00  0.29303731341E+03  0.29303731342E+03  0.25500000920E-02 0. -1.
        2   -1    0    0  501    0  0.00000000000E+00  0.00000000000E+00 -0.85249310648E+03  0.85249310648E+03  0.25500000920E-02 0.  1.
    10030    2    1    2    0    0  0.00000000000E+00  0.00000000000E+00 -0.55945579307E+03  0.11455304199E+04  0.99962450876E+03 0.  0.
        5    1    3    3  502    0 -0.33361424474E+03  0.23574719563E+03 -0.60970687260E+03  0.73392081660E+03  0.46999998093E+01 0.  1.
       -5    1    3    3    0  502  0.33361424474E+03 -0.23574719563E+03  0.50251079530E+02  0.41160960330E+03  0.46999998093E+01 0. -1.
</event>
<event>
 5   0  0.1453863E-04  0.9997174E+03  0.7818609E-02  0.9308855E-01
        1   -1    0    0  501    0  0.00000000000E+00  0.00000000000E+00  0.77848070469E+03  0.77848070471E+03  0.50400001928E-02 0. -1.
       -1   -1    0    0    0  501  0.00000000000E+00  0.00000000000E+00 -0.32095684092E+03  0.32095684096E+03  0.50400001928E-02 0.  1.
    10030    2    1    2    0    0  0.00000000000E+00  0.00000000000E+00  0.45752386376E+03  0.10994375457E+04  0.99971737552E+03 0.  0.
        1    1    3    3  502    0 -0.13874135982E+03  0.34513805470E+03  0.59596800197E+03  0.70252921727E+03  0.50400001928E-02 0. -1.
       -1    1    3    3    0  502  0.13874135982E+03 -0.34513805470E+03 -0.13844413820E+03  0.39690832840E+03  0.50400001928E-02 0.  1.
</event>
<event>
 5   0  0.2403037E-04  0.1000382E+04  0.7818609E-02  0.9308126E-01
       -2   -1    0    0    0  501  0.00000000000E+00  0.00000000000E+00  0.25743446770E+03  0.25743446771E+03  0.25500000920E-02 0.  1.
        2   -1    0    0  501    0  0.00000000000E+00  0.00000000000E+00 -0.97186310301E+03  0.97186310302E+03  0.25500000920E-02 0. -1.
    10030    2    1    2    0    0  0.00000000000E+00  0.00000000000E+00 -0.71442863532E+03  0.12292975707E+04  0.10003820482E+04 0.  0.
        1    1    3    3  502    0  0.21177851316E+03  0.43243379541E+03 -0.19079118097E+03  0.51792895343E+03  0.50400001928E-02 0. -1.
       -1    1    3    3    0  502 -0.21177851316E+03 -0.43243379541E+03 -0.52363745435E+03  0.71136861729E+03  0.50400001928E-02 0.  1.
</event>
<event>
 5   0  0.1506454E-04  0.9987550E+03  0.7818609E-02  0.9309911E-01
        1   -1    0    0  501    0  0.00000000000E+00  0.00000000000E+00  0.60932107109E+03  0.60932107112E+03  0.50400001928E-02 0. -1.
       -1   -1    0    0    0  501  0.00000000000E+00  0.00000000000E+00 -0.40927171528E+03  0.40927171531E+03  0.50400001928E-02 0.  1.
    10030    2    1    2    0    0  0.00000000000E+00  0.00000000000E+00  0.20004935582E+03  0.10185927864E+04  0.99875498486E+03 0.  0.
        3    1    3    3  502    0 -0.19395146454E+03  0.45993775560E+03  0.11508139039E+03  0.51225349802E+03  0.10100000352E+00 0. -1.
       -3    1    3    3    0  502  0.19395146454E+03 -0.45993775560E+03  0.84967965434E+02  0.50633928840E+03  0.10100000352E+00 0.  1.
</event>
<event>
 5   0  0.1461334E-04  0.1001038E+04  0.7818609E-02  0.9307407E-01
       -1   -1    0    0    0  501  0.00000000000E+00  0.00000000000E+00  0.28085798476E+03  0.28085798481E+03  0.50400001928E-02 0. -1.
        1   -1    0    0  501    0  0.00000000000E+00  0.00000000000E+00 -0.89197913713E+03  0.89197913714E+03  0.50400001928E-02 0.  1.
    10030    2    1    2    0    0  0.00000000000E+00  0.00000000000E+00 -0.61112115236E+03  0.11728371220E+04  0.10010383868E+04 0.  0.
        2    1    3    3  502    0 -0.35227253054E+03 -0.65758778874E+02  0.10383540680E+03  0.37309776799E+03  0.25500000920E-02 0. -1.
       -2    1    3    3    0  502  0.35227253054E+03  0.65758778874E+02 -0.71495655916E+03  0.79973935396E+03  0.25500000920E-02 0.  1.
</event>
<event>
 5   0  0.1414165E-04  0.1000030E+04  0.7818609E-02  0.9308512E-01
       -1   -1    0    0    0  501  0.00000000000E+00  0.00000000000E+00  0.31796477349E+03  0.31796477353E+03  0.50400001928E-02 0. -1.
        1   -1    0    0  501    0  0.00000000000E+00  0.00000000000E+00 -0.78629746294E+03  0.78629746296E+03  0.50400001928E-02 0.  1.
    10030    2    1    2    0    0  0.00000000000E+00  0.00000000000E+00 -0.46833268945E+03  0.11042622365E+04  0.10000297890E+04 0.  0.
        4    1    3    3  502    0 -0.40514149332E+03 -0.22080710560E+02  0.88499397345E+02  0.41528417213E+03  0.12699999809E+01 0. -1.
       -4    1    3    3    0  502  0.40514149332E+03  0.22080710560E+02 -0.55683208679E+03  0.68897806436E+03  0.12699999809E+01 0.  1.
</event>
<event>
 5   0  0.2353916E-04  0.1000361E+04  0.7818609E-02  0.9308149E-01
        2   -1    0    0  501    0  0.00000000000E+00  0.00000000000E+00  0.76898055780E+03  0.76898055781E+03  0.25500000920E-02 0. -1.
       -2   -1    0    0    0  501  0.00000000000E+00  0.00000000000E+00 -0.32534060498E+03  0.32534060499E+03  0.25500000920E-02 0.  1.
    10030    2    1    2    0    0  0.00000000000E+00  0.00000000000E+00  0.44363995282E+03  0.10943211628E+04  0.10003611346E+04 0.  0.
        4    1    3    3  502    0 -0.13470777900E+03  0.18199186468E+03  0.70970582385E+03  0.74495046402E+03  0.12699999809E+01 0. -1.
       -4    1    3    3    0  502  0.13470777900E+03 -0.18199186468E+03 -0.26606587104E+03  0.34937069878E+03  0.12699999809E+01 0.  1.
</event>
<event>
 5   0  0.1430675E-04  0.9997986E+03  0.7818609E-02  0.9308766E-01
        1   -1    0    0  501    0  0.00000000000E+00  0.00000000000E+00  0.33503944039E+03  0.33503944042E+03  0.50400001928E-02 0. -1.
       -1   -1    0    0    0  501  0.00000000000E+00  0.00000000000E+00 -0.74588031038E+03  0.74588031039E+03  0.50400001928E-02 0.  1.
    10030    2    1    2    0    0  0.00000000000E+00  0.00000000000E+00 -0.41084086999E+03  0.10809197508E+04  0.99979862335E+03 0.  0.
        5    1    3    3  502    0  0.26872863238E+03  0.20902523051E+03  0.19029745117E+03  0.39005363064E+03  0.46999998093E+01 0. -1.
       -5    1    3    3    0  502 -0.26872863238E+03 -0.20902523051E+03 -0.60113832116E+03  0.69086612018E+03  0.46999998093E+01 0.  1.
</event>
<event>
 5   0  0.1506454E-04  0.1000114E+04  0.7818609E-02  0.9308420E-01
        1   -1    0    0  501    0  0.00000000000E+00  0.00000000000E+00  0.11645062538E+04  0.11645062538E+04  0.50400001928E-02 0.  1.
       -1   -1    0    0    0  501  0.00000000000E+00  0.00000000000E+00 -0.21473208229E+03  0.21473208235E+03  0.50400001928E-02 0. -1.
    10030    2    1    2    0    0  0.00000000000E+00  0.00000000000E+00  0.94977417149E+03  0.13792383361E+04  0.10001136991E+04 0.  0.
        3    1    3    3  502    0  0.24782370881E+03 -0.19034777276E+03 -0.63498958188E+02  0.31887457273E+03  0.10100000352E+00 0. -1.
       -3    1    3    3    0  502 -0.24782370881E+03  0.19034777276E+03  0.10132731297E+04  0.10603637634E+04  0.10100000352E+00 0.  1.
</event>
<event>
 5   0  0.1430675E-04  0.1000066E+04  0.7818609E-02  0.9308472E-01
        1   -1    0    0  501    0  0.00000000000E+00  0.00000000000E+00  0.73903862392E+03  0.73903862394E+03  0.50400001928E-02 0.  1.
       -1   -1    0    0    0  501  0.00000000000E+00  0.00000000000E+00 -0.33832222514E+03  0.33832222518E+03  0.50400001928E-02 0. -1.
    10030    2    1    2    0    0  0.00000000000E+00  0.00000000000E+00  0.40071639878E+03  0.10773608491E+04  0.10000663813E+04 0.  0.
        5    1    3    3  502    0  0.19251700682E+03 -0.30061621671E+02 -0.29571523755E+03  0.35416957906E+03  0.46999998093E+01 0. -1.
       -5    1    3    3    0  502 -0.19251700682E+03  0.30061621671E+02  0.69643163633E+03  0.72319127006E+03  0.46999998093E+01 0.  1.
</event>
<event>
 5   0  0.2473312E-04  0.1000144E+04  0.7818609E-02  0.9308387E-01
        2   -1    0    0  501    0  0.00000000000E+00  0.00000000000E+00  0.37933563597E+03  0.37933563598E+03  0.25500000920E-02 0.  1.
       -2   -1    0    0    0  501  0.00000000000E+00  0.00000000000E+00 -0.65923621502E+03  0.65923621503E+03  0.25500000920E-02 0. -1.
    10030    2    1    2    0    0  0.00000000000E+00  0.00000000000E+00 -0.27990057905E+03  0.10385718510E+04  0.10001435675E+04 0.  0.
        5    1    3    3  502    0 -0.83794270626E+02  0.28318900496E+03  0.27907897578E+03  0.40635533348E+03  0.46999998093E+01 0.  1.
       -5    1    3    3    0  502  0.83794270626E+02 -0.28318900496E+03 -0.55897955483E+03  0.63221651753E+03  0.46999998093E+01 0. -1.
</event>
<event>
 5   0  0.2403037E-04  0.9998683E+03  0.7818609E-02  0.9308689E-01
       -2   -1    0    0    0  501  0.00000000000E+00  0.00000000000E+00  0.39024758923E+03  0.39024758923E+03  0.25500000920E-02 0.  1.
        2   -1    0    0  501    0  0.00000000000E+00  0.00000000000E+00 -0.64045026539E+03  0.64045026539E+03  0.25500000920E-02 0. -1.
    10030    2    1    2    0    0  0.00000000000E+00  0.00000000000E+00 -0.25020267616E+03  0.10306978546E+04  0.99986833552E+03 0.  0.
        1    1    3    3  502    0  0.39462971503E+03  0.30556337894E+03 -0.95357162015E+02  0.50812850630E+03  0.50400001928E-02 0.  1.
       -1    1    3    3    0  502 -0.39462971503E+03 -0.30556337894E+03 -0.15484551415E+03  0.52256934833E+03  0.50400001928E-02 0. -1.
</event>
<event>
 5   0  0.1461334E-04  0.1000081E+04  0.7818609E-02  0.9308455E-01
       -1   -1    0    0    0  501  0.00000000000E+00  0.00000000000E+00  0.23610701711E+03  0.23610701717E+03  0.50400001928E-02 0.  1.
        1   -1    0    0  501    0  0.00000000000E+00  0.00000000000E+00 -0.10590144237E+04  0.10590144237E+04  0.50400001928E-02 0. -1.
    10030    2    1    2    0    0  0.00000000000E+00  0.00000000000E+00 -0.82290740655E+03  0.12951214408E+04  0.10000814701E+04 0.  0.
        2    1    3    3  502    0  0.49362942372E+03  0.43506146790E+02 -0.49811285584E+03  0.70262309237E+03  0.25500000920E-02 0.  1.
       -2    1    3    3    0  502 -0.49362942372E+03 -0.43506146790E+02 -0.32479455071E+03  0.59249834848E+03  0.25500000920E-02 0. -1.
</event>
<event>
 5   0  0.2473312E-04  0.9995341E+03  0.7818609E-02  0.9309056E-01
       -2   -1    0    0    0  501  0.00000000000E+00  0.00000000000E+00  0.41991559321E+03  0.41991559322E+03  0.25500000920E-02 0. -1.
        2   -1    0    0  501    0  0.00000000000E+00  0.00000000000E+00 -0.59480306703E+03  0.59480306703E+03  0.25500000920E-02 0.  1.
    10030    2    1    2    0    0  0.00000000000E+00  0.00000000000E+00 -0.17488747382E+03  0.10147186602E+04  0.99953405693E+03 0.  0.
        5    1    3    3  502    0  0.43701509427E+03  0.87016757319E+02  0.14224746776E+03  0.46777188967E+03  0.46999998093E+01 0. -1.
       -5    1    3    3    0  502 -0.43701509427E+03 -0.87016757319E+02 -0.31713494158E+03  0.54694677058E+03  0.46999998093E+01 0.  1.
</event>
<event>
 5   0  0.2403037E-04  0.1000703E+04  0.7818609E-02  0.9307774E-01
        2   -1    0    0  501    0  0.00000000000E+00  0.00000000000E+00  0.49055960502E+03  0.49055960502E+03  0.25500000920E-02 0.  1.
       -2   -1    0    0    0  501  0.00000000000E+00  0.00000000000E+00 -0.51033888318E+03  0.51033888318E+03  0.25500000920E-02 0. -1.
    10030    2    1    2    0    0  0.00000000000E+00  0.00000000000E+00 -0.19779278163E+02  0.10008984882E+04  0.10007030348E+04 0.  0.
        1    1    3    3  502    0  0.48596910227E+03 -0.45918639738E+02 -0.11980719586E+03  0.50262138239E+03  0.50400001928E-02 0. -1.
       -1    1    3    3    0  502 -0.48596910227E+03  0.45918639738E+02  0.10002791769E+03  0.49827710581E+03  0.50400001928E-02 0.  1.
</event>
<event>
 5   0  0.9650500E-05  0.1000367E+04  0.7818609E-02  0.9308142E-01
        3   -1    0    0  501    0  0.00000000000E+00  0.00000000000E+00  0.20563437844E+03  0.20563440324E+03  0.10100000352E+00 0. -1.
       -3   -1    0    0    0  501  0.00000000000E+00  0.00000000000E+00 -0.12166424863E+04  0.12166424905E+04  0.10100000352E+00 0.  1.
    10030    2    1    2    0    0  0.00000000000E+00  0.00000000000E+00 -0.10110081079E+04  0.14222768938E+04  0.10003670168E+04 0.  0.
        2    1    3    3  502    0 -0.26419113414E+03 -0.27430098803E+03 -0.96652456589E+03  0.10388492306E+04  0.25500000920E-02 0.  1.
       -2    1    3    3    0  502  0.26419113414E+03  0.27430098803E+03 -0.44483542021E+02  0.38342766320E+03  0.25500000920E-02 0. -1.
</event>
<event>
 5   0  0.2403037E-04  0.9998547E+03  0.7818609E-02  0.9308704E-01
       -2   -1    0    0    0  501  0.00000000000E+00  0.00000000000E+00  0.37740295122E+03  0.37740295123E+03  0.25500000920E-02 0.  1.
        2   -1    0    0  501    0  0.00000000000E+00  0.00000000000E+00 -0.66222948156E+03  0.66222948156E+03  0.25500000920E-02 0. -1.
    10030    2    1    2    0    0  0.00000000000E+00  0.00000000000E+00 -0.28482653034E+03  0.10396324328E+04  0.99985471091E+03 0.  0.
        1    1    3    3  502    0  0.34554251815E+03  0.60849926698E+02 -0.51270616431E+03  0.62126480375E+03  0.50400001928E-02 0. -1.
       -1    1    3    3    0  502 -0.34554251815E+03 -0.60849926698E+02  0.22787963398E+03  0.41836762905E+03  0.50400001928E-02 0.  1.
</event>
<event>
 5   0  0.2484904E-04  0.9998800E+03  0.7818609E-02  0.9308676E-01
       -2   -1    0    0    0  501  0.00000000000E+00  0.00000000000E+00  0.23529913895E+03  0.23529913896E+03  0.25500000920E-02 0.  1.
        2   -1    0    0  501    0  0.00000000000E+00  0.00000000000E+00 -0.10622223904E+04  0.10622223904E+04  0.25500000920E-02 0. -1.
    10030    2    1    2    0    0  0.00000000000E+00  0.00000000000E+00 -0.82692325148E+03  0.12975215294E+04  0.99988002050E+03 0.  0.
        3    1    3    3  502    0  0.33149853544E+03  0.14359664594E+03  0.34995661511E+02  0.36295451815E+03  0.10100000352E+00 0.  1.
       -3    1    3    3    0  502 -0.33149853544E+03 -0.14359664594E+03 -0.86191891299E+03  0.93456701124E+03  0.10100000352E+00 0. -1.
</event>
<event>
 5   0  0.1414165E-04  0.1000181E+04  0.7818609E-02  0.9308346E-01
       -1   -1    0    0    0  501  0.00000000000E+00  0.00000000000E+00  0.51761699749E+03  0.51761699751E+03  0.50400001928E-02 0. -1.
        1   -1    0    0  501    0  0.00000000000E+00  0.00000000000E+00 -0.48315755745E+03  0.48315755747E+03  0.50400001928E-02 0.  1.
    10030    2    1    2    0    0  0.00000000000E+00  0.00000000000E+00  0.34459440038E+02  0.10007745550E+04  0.10001811120E+04 0.  0.
        4    1    3    3  502    0  0.99568863845E+02 -0.13498544717E+03 -0.45416967130E+03  0.48415569069E+03  0.12699999809E+01 0.  1.
       -4    1    3    3    0  502 -0.99568863845E+02  0.13498544717E+03  0.48862911134E+03  0.51661886429E+03  0.12699999809E+01 0. -1.
</event>
<event>
 5   0  0.1414165E-04  0.1000703E+04  0.7818609E-02  0.9307774E-01
        1   -1    0    0  501    0  0.00000000000E+00  0.00000000000E+00  0.27829361042E+03  0.27829361046E+03  0.50400001928E-02 0. -1.
       -1   -1    0    0    0  501  0.00000000000E+00  0.00000000000E+00 -0.89959515164E+03  0.89959515165E+03  0.50400001928E-02 0.  1.
    10030    2    1    2    0    0  0.00000000000E+00  0.00000000000E+00 -0.62130154122E+03  0.11778887621E+04  0.10007029183E+04 0.  0.
        4    1    3    3  502    0 -0.11632076383E+03 -0.11146992972E+03 -0.86822749952E+03  0.88304964138E+03  0.12699999809E+01 0.  1.
       -4    1    3    3    0  502  0.11632076383E+03  0.11146992972E+03  0.24692595830E+03  0.29483912073E+03  0.12699999809E+01 0. -1.
</event>
<event>
 5   0  0.1453863E-04  0.1000093E+04  0.7818609E-02  0.9308443E-01
       -1   -1    0    0    0  501  0.00000000000E+00  0.00000000000E+00  0.31655031933E+03  0.31655031937E+03  0.50400001928E-02 0. -1.
        1   -1    0    0  501    0  0.00000000000E+00  0.00000000000E+00 -0.78991038874E+03  0.78991038876E+03  0.50400001928E-02 0.  1.
    10030    2    1    2    0    0  0.00000000000E+00  0.00000000000E+00 -0.47336006941E+03  0.11064607081E+04  0.10000927674E+04 0.  0.
        1    1    3    3  502    0 -0.43118282735E+03  0.14214238385E+03 -0.46854929694E+03  0.65242741480E+03  0.50400001928E-02 0.  1.
       -1    1    3    3    0  502  0.43118282735E+03 -0.14214238385E+03 -0.48107724737E+01  0.45403329333E+03  0.50400001928E-02 0. -1.
</event>
<event>
 5   0  0.2473312E-04  0.9995225E+03  0.7818609E-02  0.9309069E-01
       -2   -1    0    0    0  501  0.00000000000E+00  0.00000000000E+00  0.13528883849E+03  0.13528883851E+03  0.25500000920E-02 0. -1.
        2   -1    0    0  501    0  0.00000000000E+00  0.00000000000E+00 -0.18461339420E+04  0.18461339420E+04  0.25500000920E-02 0.  1.
    10030    2    1    2    0    0  0.00000000000E+00  0.00000000000E+00 -0.17108451035E+04  0.19814227805E+04  0.99952251946E+03 0.  0.
        5    1    3    3  502    0 -0.15074991985E+03  0.44700339038E+03 -0.11823732367E+04  0.12730145837E+04  0.46999998093E+01 0.  1.
       -5    1    3    3    0  502  0.15074991985E+03 -0.44700339038E+03 -0.52847186679E+03  0.70840819683E+03  0.46999998093E+01 0. -1.
</event>
<event>
 5   0  0.1453863E-04  0.9997919E+03  0.7818609E-02  0.9308773E-01
        1   -1    0    0  501    0  0.00000000000E+00  0.00000000000E+00  0.11143063522E+04  0.11143063522E+04  0.50400001928E-02 0. -1.
       -1   -1    0    0    0  501  0.00000000000E+00  0.00000000000E+00 -0.22426145046E+03  0.22426145052E+03  0.50400001928E-02 0.  1.
    10030    2    1    2    0    0  0.00000000000E+00  0.00000000000E+00  0.89004490172E+03  0.13385678027E+04  0.99979189604E+03 0.  0.
        1    1    3    3  502    0 -0.19268551242E+02 -0.68321383272E+02 -0.21747911547E+03  0.22877118299E+03  0.50400001928E-02 0.  1.
       -1    1    3    3    0  502  0.19268551242E+02  0.68321383272E+02  0.11075240172E+04  0.11097966197E+04  0.50400001928E-02 0. -1.
</event>
<event>
 5   0  0.9650500E-05  0.1000082E+04  0.7818609E-02  0.9308455E-01
       -3   -1    0    0    0  501  0.00000000000E+00  0.00000000000E+00  0.15563625051E+04  0.15563625084E+04  0.10100000352E+00 0. -1.
        3   -1    0    0  501    0  0.00000000000E+00  0.00000000000E+00 -0.16065714438E+03  0.16065717613E+03  0.10100000352E+00 0.  1.
    10030    2    1    2    0    0  0.00000000000E+00  0.00000000000E+00  0.13957053608E+04  0.17170196845E+04  0.10000815682E+04 0.  0.
        4    1    3    3  502    0 -0.39187171105E+03 -0.30677818764E+03  0.78130925367E+03  0.92634877725E+03  0.12699999809E+01 0. -1.
       -4    1    3    3    0  502  0.39187171105E+03  0.30677818764E+03  0.61439610708E+03  0.79067090729E+03  0.12699999809E+01 0.  1.
</event>
<event>
 5   0  0.2473312E-04  0.9988458E+03  0.7818609E-02  0.9309812E-01
        2   -1    0    0  501    0  0.00000000000E+00  0.00000000000E+00  0.14537708551E+04  0.14537708551E+04  0.25500000920E-02 0.  1.
       -2   -1    0    0    0  501  0.00000000000E+00  0.00000000000E+00 -0.17156984813E+03  0.17156984815E+03  0.25500000920E-02 0. -1.
    10030    2    1    2    0    0  0.00000000000E+00  0.00000000000E+00  0.12822010070E+04  0.16253407033E+04  0.99884582362E+03 0.  0.
        5    1    3    3  502    0  0.33875268092E+03 -0.93589701670E+02  0.12184508134E+04  0.12681312573E+04  0.46999998093E+01 0.  1.
       -5    1    3    3    0  502 -0.33875268092E+03  0.93589701670E+02  0.63750193562E+02  0.35720944593E+03  0.46999998093E+01 0. -1.
</event>
<event>
 5   0  0.2403037E-04  0.9980222E+03  0.7818609E-02  0.9310717E-01
        2   -1    0    0  501    0  0.00000000000E+00  0.00000000000E+00  0.13453180696E+04  0.13453180696E+04  0.25500000920E-02 0. -1.
       -2   -1    0    0    0  501  0.00000000000E+00  0.00000000000E+00 -0.18509532599E+03  0.18509532601E+03  0.25500000920E-02 0.  1.
    10030    2    1    2    0    0  0.00000000000E+00  0.00000000000E+00  0.11602227436E+04  0.15304133956E+04  0.99802221753E+03 0.  0.
        1    1    3    3  502    0 -0.30472883169E+03 -0.35697105024E+02  0.11835923902E+04  0.12227121045E+04  0.50400001928E-02 0. -1.
       -1    1    3    3    0  502  0.30472883169E+03  0.35697105024E+02 -0.23369646611E+02  0.30770129116E+03  0.50400001928E-02 0.  1.
</event>
<event>
 5   0  0.2353916E-04  0.9999154E+03  0.7818609E-02  0.9308638E-01
        2   -1    0    0  501    0  0.00000000000E+00  0.00000000000E+00  0.24322971452E+03  0.24322971453E+03  0.25500000920E-02 0.  1.
       -2   -1    0    0    0  501  0.00000000000E+00  0.00000000000E+00 -0.10276609693E+04  0.10276609693E+04  0.25500000920E-02 0. -1.
    10030    2    1    2    0    0  0.00000000000E+00  0.00000000000E+00 -0.78443125482E+03  0.12708906839E+04  0.99991536483E+03 0.  0.
        4    1    3    3  502    0  0.15768400759E+03  0.13585104271E+03  0.18554545265E+03  0.27883414416E+03  0.12699999809E+01 0.  1.
       -4    1    3    3    0  502 -0.15768400759E+03 -0.13585104271E+03 -0.96997670747E+03  0.99205653971E+03  0.12699999809E+01 0. -1.
</event>
<event>
 5   0  0.2473312E-04  0.9996803E+03  0.7818609E-02  0.9308895E-01
       -2   -1    0    0    0  501  0.00000000000E+00  0.00000000000E+00  0.16500290868E+03  0.16500290870E+03  0.25500000920E-02 0.  1.
        2   -1    0    0  501    0  0.00000000000E+00  0.00000000000E+00 -0.15141562895E+04  0.15141562895E+04  0.25500000920E-02 0. -1.
    10030    2    1    2    0    0  0.00000000000E+00  0.00000000000E+00 -0.13491533808E+04  0.16791591982E+04  0.99968033287E+03 0.  0.
        5    1    3    3  502    0  0.31111750370E+03  0.51635711221E+02 -0.13258955291E+04  0.13628944903E+04  0.46999998093E+01 0. -1.
       -5    1    3    3    0  502 -0.31111750370E+03 -0.51635711221E+02 -0.23257851771E+02  0.31626470788E+03  0.46999998093E+01 0.  1.
</event>
<event>
 5   0  0.1414165E-04  0.1000147E+04  0.7818609E-02  0.9308383E-01
        1   -1    0    0  501    0  0.00000000000E+00  0.00000000000E+00  0.46278718210E+03  0.46278718213E+03  0.50400001928E-02 0. -1.
       -1   -1    0    0    0  501  0.00000000000E+00  0.00000000000E+00 -0.54036411253E+03  0.54036411255E+03  0.50400001928E-02 0.  1.
    10030    2    1    2    0    0  0.00000000000E+00  0.00000000000E+00 -0.77576930425E+02  0.10031512947E+04  0.10001471591E+04 0.  0.
        4    1    3    3  502    0 -0.33719568250E+03 -0.33783304172E+03  0.11078988855E+03  0.49000827001E+03  0.12699999809E+01 0. -1.
       -4    1    3    3    0  502  0.33719568250E+03  0.33783304172E+03 -0.18836681898E+03  0.51314302467E+03  0.12699999809E+01 0.  1.
</event>
<event>
 5   0  0.2403037E-04  0.9997525E+03  0.7818609E-02  0.9308816E-01
       -2   -1    0    0    0  501  0.00000000000E+00  0.00000000000E+00  0.18679447071E+03  0.18679447073E+03  0.25500000920E-02 0. -1.
        2   -1    0    0  501    0  0.00000000000E+00  0.00000000000E+00 -0.13377070403E+04  0.13377070403E+04  0.25500000920E-02 0.  1.
    10030    2    1    2    0    0  0.00000000000E+00  0.00000000000E+00 -0.11509125696E+04  0.15245015111E+04  0.99975252655E+03 0.  0.
        1    1    3    3  502    0  0.28585770292E+03  0.15632044880E+01 -0.12007667200E+04  0.12343248300E+04  0.50400001928E-02 0.  1.
       -1    1    3    3    0  502 -0.28585770292E+03 -0.15632044880E+01  0.49854150387E+02  0.29017668112E+03  0.50400001928E-02 0. -1.
</event>
<event>
 5   0  0.1414165E-04  0.1001444E+04  0.7818609E-02  0.9306962E-01
       -1   -1    0    0    0  501  0.00000000000E+00  0.00000000000E+00  0.19710757641E+03  0.19710757648E+03  0.50400001928E-02 0.  1.
        1   -1    0    0  501    0  0.00000000000E+00  0.00000000000E+00 -0.12720093082E+04  0.12720093082E+04  0.50400001928E-02 0. -1.
    10030    2    1    2    0    0  0.00000000000E+00  0.00000000000E+00 -0.10749017318E+04  0.14691168847E+04  0.10014443009E+04 0.  0.
        4    1    3    3  502    0 -0.45399350086E+01  0.17947113452E+03  0.14826767063E+03  0.23284203699E+03  0.12699999809E+01 0.  1.
       -4    1    3    3    0  502  0.45399350086E+01 -0.17947113452E+03 -0.12231694024E+04  0.12362748477E+04  0.12699999809E+01 0. -1.
</event>
<event>
 5   0  0.1461334E-04  0.1000156E+04  0.7818609E-02  0.9308373E-01
        1   -1    0    0  501    0  0.00000000000E+00  0.00000000000E+00  0.12824397443E+04  0.12824397443E+04  0.50400001928E-02 0.  1.
       -1   -1    0    0    0  501  0.00000000000E+00  0.00000000000E+00 -0.19500188999E+03  0.19500189006E+03  0.50400001928E-02 0. -1.
    10030    2    1    2    0    0  0.00000000000E+00  0.00000000000E+00  0.10874378543E+04  0.14774416344E+04  0.10001563358E+04 0.  0.
        2    1    3    3  502    0  0.11888871870E+03 -0.21523364821E+03  0.11869727335E+04  0.12121733873E+04  0.25500000920E-02 0.  1.
       -2    1    3    3    0  502 -0.11888871870E+03  0.21523364821E+03 -0.99534879156E+02  0.26526824712E+03  0.25500000920E-02 0. -1.
</event>
<event>
 5   0  0.9650500E-05  0.1000177E+04  0.7818609E-02  0.9308351E-01
        4   -1    0    0  501    0  0.00000000000E+00  0.00000000000E+00  0.44956252359E+03  0.44956431744E+03  0.12699999809E+01 0. -1.
       -4   -1    0    0    0  501  0.00000000000E+00  0.00000000000E+00 -0.55628935293E+03  0.55629080262E+03  0.12699999809E+01 0.  1.
    10030    2    1    2    0    0  0.00000000000E+00  0.00000000000E+00 -0.10672682934E+03  0.10058551201E+04  0.10001769376E+04 0.  0.
        4    1    3    3  502    0  0.33098094784E+03 -0.21255130368E+02 -0.42976985001E+03  0.54286637884E+03  0.12699999809E+01 0.  1.
       -4    1    3    3    0  502 -0.33098094784E+03  0.21255130368E+02  0.32304302067E+03  0.46298874123E+03  0.12699999809E+01 0. -1.
</event>
<event>
 5   0  0.1414165E-04  0.1000271E+04  0.7818609E-02  0.9308248E-01
        1   -1    0    0  501    0  0.00000000000E+00  0.00000000000E+00  0.82291710372E+03  0.82291710373E+03  0.50400001928E-02 0. -1.
       -1   -1    0    0    0  501  0.00000000000E+00  0.00000000000E+00 -0.30396201664E+03  0.30396201668E+03  0.50400001928E-02 0.  1.
    10030    2    1    2    0    0  0.00000000000E+00  0.00000000000E+00  0.51895508708E+03  0.11268791204E+04  0.10002710481E+04 0.  0.
        4    1    3    3  502    0  0.41429700150E+03 -0.22523566898E+02 -0.55126350562E+02  0.41855685868E+03  0.12699999809E+01 0.  1.
       -4    1    3    3    0  502 -0.41429700150E+03  0.22523566898E+02  0.57408143765E+03  0.70832226173E+03  0.12699999809E+01 0. -1.
</event>
<event>
 5   0  0.1414165E-04  0.9999507E+03  0.7818609E-02  0.9308599E-01
        1   -1    0    0  501    0  0.00000000000E+00  0.00000000000E+00  0.25192127937E+04  0.25192127937E+04  0.50400001928E-02 0.  1.
       -1   -1    0    0    0  501  0.00000000000E+00  0.00000000000E+00 -0.99227555155E+02  0.99227555283E+02  0.50400001928E-02 0. -1.
    10030    2    1    2    0    0  0.00000000000E+00  0.00000000000E+00  0.24199852386E+04  0.26184403490E+04  0.99995065201E+03 0.  0.
        4    1    3    3  502    0 -0.30358632785E+03  0.39584179237E+03  0.11224238524E+04  0.12282883621E+04  0.12699999809E+01 0.  1.
       -4    1    3    3    0  502  0.30358632785E+03 -0.39584179237E+03  0.12975613861E+04  0.13901519869E+04  0.12699999809E+01 0. -1.
</event>
<event>
 5   0  0.2353916E-04  0.1000491E+04  0.7818609E-02  0.9308006E-01
       -2   -1    0    0    0  501  0.00000000000E+00  0.00000000000E+00  0.43549731944E+03  0.43549731945E+03  0.25500000920E-02 0. -1.
        2   -1    0    0  501    0  0.00000000000E+00  0.00000000000E+00 -0.57462075528E+03  0.57462075529E+03  0.25500000920E-02 0.  1.
    10030    2    1    2    0    0  0.00000000000E+00  0.00000000000E+00 -0.13912343584E+03  0.10101180747E+04  0.10004914765E+04 0.  0.
        4    1    3    3  502    0  0.29304234626E+03  0.27821280114E+03 -0.36730262446E+03  0.54606685511E+03  0.12699999809E+01 0.  1.
       -4    1    3    3    0  502 -0.29304234626E+03 -0.27821280114E+03  0.22817918861E+03  0.46405121962E+03  0.12699999809E+01 0. -1.
</event>
<event>
 5   0  0.2353916E-04  0.1000253E+04  0.7818609E-02  0.9308267E-01
       -2   -1    0    0    0  501  0.00000000000E+00  0.00000000000E+00  0.47485525224E+03  0.47485525225E+03  0.25500000920E-02 0. -1.
        2   -1    0    0  501    0  0.00000000000E+00  0.00000000000E+00 -0.52674257883E+03  0.52674257884E+03  0.25500000920E-02 0.  1.
    10030    2    1    2    0    0  0.00000000000E+00  0.00000000000E+00 -0.51887326591E+02  0.10015978311E+04  0.10002529283E+04 0.  0.
        4    1    3    3  502    0  0.44650087133E+02 -0.48562240308E+03 -0.13700771135E+03  0.50655253876E+03  0.12699999809E+01 0.  1.
       -4    1    3    3    0  502 -0.44650087133E+02  0.48562240308E+03  0.85120384755E+02  0.49504529233E+03  0.12699999809E+01 0. -1.
</event>
<event>
 5   0  0.1506454E-04  0.1000316E+04  0.7818609E-02  0.9308198E-01
       -1   -1    0    0    0  501  0.00000000000E+00  0.00000000000E+00  0.35121409904E+03  0.35121409907E+03  0.50400001928E-02 0.  1.
        1   -1    0    0  501    0  0.00000000000E+00  0.00000000000E+00 -0.71226665231E+03  0.71226665232E+03  0.50400001928E-02 0. -1.
    10030    2    1    2    0    0  0.00000000000E+00  0.00000000000E+00 -0.36105255327E+03  0.10634807514E+04  0.10003161312E+04 0.  0.
        3    1    3    3  502    0 -0.17472121882E+03 -0.27282137635E+03 -0.58563750705E+03  0.66927595771E+03  0.10100000352E+00 0. -1.
       -3    1    3    3    0  502  0.17472121882E+03  0.27282137635E+03  0.22458495379E+03  0.39420479369E+03  0.10100000352E+00 0.  1.
</event>
<event>
 5   0  0.2503680E-04  0.9998593E+03  0.7818609E-02  0.9308699E-01
        2   -1    0    0  501    0  0.00000000000E+00  0.00000000000E+00  0.37911024685E+03  0.37911024686E+03  0.25500000920E-02 0.  1.
       -2   -1    0    0    0  501  0.00000000000E+00  0.00000000000E+00 -0.65925327792E+03  0.65925327792E+03  0.25500000920E-02 0. -1.
    10030    2    1    2    0    0  0.00000000000E+00  0.00000000000E+00 -0.28014303107E+03  0.10383635248E+04  0.99985933598E+03 0.  0.
        2    1    3    3  502    0 -0.33707075321E+03  0.23594172156E+03  0.15484415684E+03  0.43961562934E+03  0.25500000920E-02 0.  1.
       -2    1    3    3    0  502  0.33707075321E+03 -0.23594172156E+03 -0.43498718791E+03  0.59874789544E+03  0.25500000920E-02 0. -1.
</event>
<event>
 5   0  0.1430675E-04  0.1000002E+04  0.7818609E-02  0.9308543E-01
        1   -1    0    0  501    0  0.00000000000E+00  0.00000000000E+00  0.10448651279E+04  0.10448651279E+04  0.50400001928E-02 0. -1.
       -1   -1    0    0    0  501  0.00000000000E+00  0.00000000000E+00 -0.23926627229E+03  0.23926627234E+03  0.50400001928E-02 0.  1.
    10030    2    1    2    0    0  0.00000000000E+00  0.00000000000E+00  0.80559885559E+03  0.12841314002E+04  0.10000019685E+04 0.  0.
        5    1    3    3  502    0  0.62809505221E+02  0.45058704605E+03  0.13650077675E+03  0.47500344427E+03  0.46999998093E+01 0.  1.
       -5    1    3    3    0  502 -0.62809505221E+02 -0.45058704605E+03  0.66909807885E+03  0.80912795597E+03  0.46999998093E+01 0. -1.
</event>
<event>
 5   0  0.2403037E-04  0.9975333E+03  0.7818609E-02  0.9311254E-01
        2   -1    0    0  501    0  0.00000000000E+00  0.00000000000E+00  0.41228355058E+03  0.41228355059E+03  0.25500000920E-02 0.  1.
       -2   -1    0    0    0  501  0.00000000000E+00  0.00000000000E+00 -0.60339099613E+03  0.60339099613E+03  0.25500000920E-02 0. -1.
    10030    2    1    2    0    0  0.00000000000E+00  0.00000000000E+00 -0.19110744555E+03  0.10156745467E+04  0.99753332231E+03 0.  0.
        1    1    3    3  502    0 -0.34265960085E+03  0.32308197287E+03  0.71660268752E+02  0.47637459776E+03  0.50400001928E-02 0.  1.
       -1    1    3    3    0  502  0.34265960085E+03 -0.32308197287E+03 -0.26276771430E+03  0.53929994896E+03  0.50400001928E-02 0. -1.
</event>
<event>
 5   0  0.2353916E-04  0.9996398E+03  0.7818609E-02  0.9308940E-01
       -2   -1    0    0    0  501  0.00000000000E+00  0.00000000000E+00  0.81005179232E+03  0.81005179232E+03  0.25500000920E-02 0. -1.
        2   -1    0    0  501    0  0.00000000000E+00  0.00000000000E+00 -0.30839997709E+03  0.30839997710E+03  0.25500000920E-02 0.  1.
    10030    2    1    2    0    0  0.00000000000E+00  0.00000000000E+00  0.50165181523E+03  0.11184517694E+04  0.99963984355E+03 0.  0.
        4    1    3    3  502    0  0.12386724530E+03 -0.30766155206E+03  0.66919323038E+03  0.74687342807E+03  0.12699999809E+01 0. -1.
       -4    1    3    3    0  502 -0.12386724530E+03  0.30766155206E+03 -0.16754141515E+03  0.37157834136E+03  0.12699999809E+01 0.  1.
</event>
<event>
 5   0  0.1506454E-04  0.1000034E+04  0.7818609E-02  0.9308508E-01
       -1   -1    0    0    0  501  0.00000000000E+00  0.00000000000E+00  0.43590064390E+03  0.43590064393E+03  0.50400001928E-02 0.  1.
        1   -1    0    0  501    0  0.00000000000E+00  0.00000000000E+00 -0.57356369941E+03  0.57356369943E+03  0.50400001928E-02 0. -1.
    10030    2    1    2    0    0  0.00000000000E+00  0.00000000000E+00 -0.13766305550E+03  0.10094643434E+04  0.10000335713E+04 0.  0.
        3    1    3    3  502    0  0.35431390820E+03 -0.30670283796E+03 -0.24486589437E+03  0.52873839730E+03  0.10100000352E+00 0. -1.
       -3    1    3    3    0  502 -0.35431390820E+03  0.30670283796E+03  0.10720283886E+03  0.48072594606E+03  0.10100000352E+00 0.  1.
</event>
<event>
 5   0  0.2353916E-04  0.9998304E+03  0.7818609E-02  0.9308731E-01
       -2   -1    0    0    0  501  0.00000000000E+00  0.00000000000E+00  0.24721752660E+03  0.24721752661E+03  0.25500000920E-02 0. -1.
        2   -1    0    0  501    0  0.00000000000E+00  0.00000000000E+00 -0.10109121481E+04  0.10109121482E+04  0.25500000920E-02 0.  1.
    10030    2    1    2    0    0  0.00000000000E+00  0.00000000000E+00 -0.76369462155E+03  0.12581296748E+04  0.99983038739E+03 0.  0.
        4    1    3    3  502    0 -0.28509714672E+03  0.19156739903E+03  0.75219102853E+02  0.35162192448E+03  0.12699999809E+01 0. -1.
       -4    1    3    3    0  502  0.28509714672E+03 -0.19156739903E+03 -0.83891372440E+03  0.90650775028E+03  0.12699999809E+01 0.  1.
</event>
<event>
 5   0  0.2473312E-04  0.9994194E+03  0.7818609E-02  0.9309182E-01
       -2   -1    0    0    0  501  0.00000000000E+00  0.00000000000E+00  0.20706326893E+03  0.20706326894E+03  0.25500000920E-02 0. -1.
        2   -1    0    0  501    0  0.00000000000E+00  0.00000000000E+00 -0.12059589682E+04  0.12059589682E+04  0.25500000920E-02 0.  1.
    10030    2    1    2    0    0  0.00000000000E+00  0.00000000000E+00 -0.99889569928E+03  0.14130222372E+04  0.99941944380E+03 0.  0.
        5    1    3    3  502    0 -0.14772977128E+03  0.45794104902E+03 -0.30895314854E+03  0.57184633223E+03  0.46999998093E+01 0. -1.
       -5    1    3    3    0  502  0.14772977128E+03 -0.45794104902E+03 -0.68994255074E+03  0.84117590492E+03  0.46999998093E+01 0.  1.
</event>
<event>
 5   0  0.2403037E-04  0.1000904E+04  0.7818609E-02  0.9307553E-01
        2   -1    0    0  501    0  0.00000000000E+00  0.00000000000E+00  0.56787108973E+03  0.56787108974E+03  0.25500000920E-02 0.  1.
       -2   -1    0    0    0  501  0.00000000000E+00  0.00000000000E+00 -0.44103742746E+03  0.44103742747E+03  0.25500000920E-02 0. -1.
    10030    2    1    2    0    0  0.00000000000E+00  0.00000000000E+00  0.12683366227E+03  0.10089085172E+04  0.10009044001E+04 0.  0.
        1    1    3    3  502    0  0.24576316671E+03  0.34311162058E+03 -0.20767115738E+03  0.47037477390E+03  0.50400001928E-02 0. -1.
       -1    1    3    3    0  502 -0.24576316671E+03 -0.34311162058E+03  0.33450481964E+03  0.53853374331E+03  0.50400001928E-02 0.  1.
</event>
<event>
 5   0  0.1414165E-04  0.9998543E+03  0.7818609E-02  0.9308705E-01
       -1   -1    0    0    0  501  0.00000000000E+00  0.00000000000E+00  0.14973866455E+03  0.14973866463E+03  0.50400001928E-02 0.  1.
        1   -1    0    0  501    0  0.00000000000E+00  0.00000000000E+00 -0.16690889115E+04  0.16690889115E+04  0.50400001928E-02 0. -1.
    10030    2    1    2    0    0  0.00000000000E+00  0.00000000000E+00 -0.15193502469E+04  0.18188275761E+04  0.99985427878E+03 0.  0.
        4    1    3    3  502    0 -0.38458353836E+03 -0.31031500486E+03 -0.89732205057E+03  0.10243965910E+04  0.12699999809E+01 0.  1.
       -4    1    3    3    0  502  0.38458353836E+03  0.31031500486E+03 -0.62202819636E+03  0.79443098516E+03  0.12699999809E+01 0. -1.
</event>
<event>
 5   0  0.2403037E-04  0.1000193E+04  0.7818609E-02  0.9308334E-01
        2   -1    0    0  501    0  0.00000000000E+00  0.00000000000E+00  0.15214539781E+04  0.15214539781E+04  0.25500000920E-02 0. -1.
       -2   -1    0    0    0  501  0.00000000000E+00  0.00000000000E+00 -0.16437979918E+03  0.16437979920E+03  0.25500000920E-02 0.  1.
    10030    2    1    2    0    0  0.00000000000E+00  0.00000000000E+00  0.13570741789E+04  0.16858337773E+04  0.10001925803E+04 0.  0.
        1    1    3    3  502    0  0.30947485857E+03  0.37210513932E+03  0.46627414795E+03  0.67204799224E+03  0.50400001928E-02 0. -1.
       -1    1    3    3    0  502 -0.30947485857E+03 -0.37210513932E+03  0.89080003097E+03  0.10137857851E+04  0.50400001928E-02 0.  1.
</event>
<event>
 5   0  0.1461334E-04  0.1000101E+04  0.7818609E-02  0.9308434E-01
       -1   -1    0    0    0  501  0.00000000000E+00  0.00000000000E+00  0.88650491733E+03  0.88650491735E+03  0.50400001928E-02 0. -1.
        1   -1    0    0  501    0  0.00000000000E+00  0.00000000000E+00 -0.28206333964E+03  0.28206333968E+03  0.50400001928E-02 0.  1.
    10030    2    1    2    0    0  0.00000000000E+00  0.00000000000E+00  0.60444157769E+03  0.11685682570E+04  0.10001010701E+04 0.  0.
        2    1    3    3  502    0  0.96618067726E+02 -0.17447853808E+03 -0.23357792384E+03  0.30714240635E+03  0.25500000920E-02 0.  1.
       -2    1    3    3    0  502 -0.96618067726E+02  0.17447853808E+03  0.83801950154E+03  0.86142585068E+03  0.25500000920E-02 0. -1.
</event>
<event>
 5   0  0.2484904E-04  0.9986818E+03  0.7818609E-02  0.9309992E-01
       -2   -1    0    0    0  501  0.00000000000E+00  0.00000000000E+00  0.34993203977E+03  0.34993203977E+03  0.25500000920E-02 0.  1.
        2   -1    0    0  501    0  0.00000000000E+00  0.00000000000E+00 -0.71254216635E+03  0.71254216636E+03  0.25500000920E-02 0. -1.
    10030    2    1    2    0    0  0.00000000000E+00  0.00000000000E+00 -0.36261012659E+03  0.10624742061E+04  0.99868179857E+03 0.  0.
        3    1    3    3  502    0  0.68187548290E+02  0.48594963695E+03 -0.27964739160E+03  0.56480019938E+03  0.10100000352E+00 0.  1.
       -3    1    3    3    0  502 -0.68187548290E+02 -0.48594963695E+03 -0.82962734984E+02  0.49767400675E+03  0.10100000352E+00 0. -1.
</event>
<event>
 5   0  0.1414165E-04  0.9999841E+03  0.7818609E-02  0.9308562E-01
        1   -1    0    0  501    0  0.00000000000E+00  0.00000000000E+00  0.45567056879E+03  0.45567056882E+03  0.50400001928E-02 0.  1.
       -1   -1    0    0    0  501  0.00000000000E+00  0.00000000000E+00 -0.54862449645E+03  0.54862449647E+03  0.50400001928E-02 0. -1.
    10030    2    1    2    0    0  0.00000000000E+00  0.00000000000E+00 -0.92953927653E+02  0.10042950653E+04  0.99998407262E+03 0.  0.
        4    1    3    3  502    0  0.12719937907E+03  0.27834387786E+02  0.43834216142E+03  0.45727442368E+03  0.12699999809E+01 0.  1.
       -4    1    3    3    0  502 -0.12719937907E+03 -0.27834387786E+02 -0.53129608907E+03  0.54702064160E+03  0.12699999809E+01 0. -1.
</event>
<event>
 5   0  0.1414165E-04  0.1000064E+04  0.7818609E-02  0.9308475E-01
       -1   -1    0    0    0  501  0.00000000000E+00  0.00000000000E+00  0.33565372504E+03  0.33565372508E+03  0.50400001928E-02 0.  1.
        1   -1    0    0  501    0  0.00000000000E+00  0.00000000000E+00 -0.74491059935E+03  0.74491059937E+03  0.50400001928E-02 0. -1.
    10030    2    1    2    0    0  0.00000000000E+00  0.00000000000E+00 -0.40925687432E+03  0.10805643244E+04  0.10000640330E+04 0.  0.
        4    1    3    3  502    0 -0.42339237240E+02  0.10235112849E+02 -0.74285498002E+03  0.74413204661E+03  0.12699999809E+01 0. -1.
       -4    1    3    3    0  502  0.42339237240E+02 -0.10235112849E+02  0.33359810570E+03  0.33643227784E+03  0.12699999809E+01 0.  1.
</event>
<event>
 5   0  0.2403037E-04  0.1000258E+04  0.7818609E-02  0.9308262E-01
       -2   -1    0    0    0  501  0.00000000000E+00  0.00000000000E+00  0.20589662207E+03  0.20589662209E+03  0.25500000920E-02 0. -1.
        2   -1    0    0  501    0  0.00000000000E+00  0.00000000000E+00 -0.12148283045E+04  0.12148283045E+04  0.25500000920E-02 0.  1.
    10030    2    1    2    0    0  0.00000000000E+00  0.00000000000E+00 -0.10089316824E+04  0.14207249266E+04  0.10002580553E+04 0.  0.
        1    1    3    3  502    0 -0.20204038912E+03 -0.14962101565E+03  0.10961913760E+03  0.27426834034E+03  0.50400001928E-02 0. -1.
       -1    1    3    3    0  502  0.20204038912E+03  0.14962101565E+03 -0.11185508200E+04  0.11464565862E+04  0.50400001928E-02 0.  1.
</event>
<event>
 5   0  0.2353916E-04  0.9995442E+03  0.7818609E-02  0.9309045E-01
        2   -1    0    0  501    0  0.00000000000E+00  0.00000000000E+00  0.12111878719E+04  0.12111878719E+04  0.25500000920E-02 0.  1.
       -2   -1    0    0    0  501  0.00000000000E+00  0.00000000000E+00 -0.20622081789E+03  0.20622081791E+03  0.25500000920E-02 0. -1.
    10030    2    1    2    0    0  0.00000000000E+00  0.00000000000E+00  0.10049670540E+04  0.14174086898E+04  0.99954420327E+03 0.  0.
        4    1    3    3  502    0 -0.24732155675E+03 -0.37894882927E+03  0.80329967313E+03  0.92198814818E+03  0.12699999809E+01 0.  1.
       -4    1    3    3    0  502  0.24732155675E+03  0.37894882927E+03  0.20166738084E+03  0.49542054159E+03  0.12699999809E+01 0. -1.
</event>
<event>
 5   0  0.1430675E-04  0.1000042E+04  0.7818609E-02  0.9308499E-01
       -1   -1    0    0    0  501  0.00000000000E+00  0.00000000000E+00  0.59325325529E+03  0.59325325531E+03  0.50400001928E-02 0. -1.
        1   -1    0    0  501    0  0.00000000000E+00  0.00000000000E+00 -0.42144071487E+03  0.42144071490E+03  0.50400001928E-02 0.  1.
    10030    2    1    2    0    0  0.00000000000E+00  0.00000000000E+00  0.17181254041E+03  0.10146939702E+04  0.10000421512E+04 0.  0.
        5    1    3    3  502    0  0.34987108512E+03  0.35283180673E+03  0.14238987118E+03  0.51691104211E+03  0.46999998093E+01 0. -1.
       -5    1    3    3    0  502 -0.34987108512E+03 -0.35283180673E+03  0.29422669233E+02  0.49778292810E+03  0.46999998093E+01 0.  1.
</event>
<event>
 5   0  0.2403037E-04  0.1000396E+04  0.7818609E-02  0.9308111E-01
        2   -1    0    0  501    0  0.00000000000E+00  0.00000000000E+00  0.14668356239E+04  0.14668356239E+04  0.25500000920E-02 0. -1.
       -2   -1    0    0    0  501  0.00000000000E+00  0.00000000000E+00 -0.17056978782E+03  0.17056978784E+03  0.25500000920E-02 0.  1.
    10030    2    1    2    0    0  0.00000000000E+00  0.00000000000E+00  0.12962658361E+04  0.16374054118E+04  0.10003956041E+04 0.  0.
        1    1    3    3  502    0  0.87147737785E+02  0.76164146256E+02 -0.14835144558E+03  0.18815912629E+03  0.50400001928E-02 0.  1.
       -1    1    3    3    0  502 -0.87147737785E+02 -0.76164146256E+02  0.14446172817E+04  0.14492462855E+04  0.50400001928E-02 0. -1.
</event>
<event>
 5   0  0.2484904E-04  0.9996675E+03  0.7818609E-02  0.9308910E-01
       -2   -1    0    0    0  501  0.00000000000E+00  0.00000000000E+00  0.48134584213E+03  0.48134584214E+03  0.25500000920E-02 0. -1.
        2   -1    0    0  501    0  0.00000000000E+00  0.00000000000E+00 -0.51903173886E+03  0.51903173887E+03  0.25500000920E-02 0.  1.
    10030    2    1    2    0    0  0.00000000000E+00  0.00000000000E+00 -0.37685896731E+02  0.10003775810E+04  0.99966748360E+03 0.  0.
        3    1    3    3  502    0 -0.31787264984E+03  0.12397729695E+02  0.36696564768E+03  0.48565473538E+03  0.10100000352E+00 0. -1.
       -3    1    3    3    0  502  0.31787264984E+03 -0.12397729695E+02 -0.40465154441E+03  0.51472284563E+03  0.10100000352E+00 0.  1.
</event>
<event>
 5   0  0.1453863E-04  0.1000858E+04  0.7818609E-02  0.9307604E-01
       -1   -1    0    0    0  501  0.00000000000E+00  0.00000000000E+00  0.26024876938E+03  0.26024876943E+03  0.50400001928E-02 0.  1.
        1   -1    0    0  501    0  0.00000000000E+00  0.00000000000E+00 -0.96226856607E+03  0.96226856609E+03  0.50400001928E-02 0. -1.
    10030    2    1    2    0    0  0.00000000000E+00  0.00000000000E+00 -0.70201979669E+03  0.12225173355E+04  0.10008580522E+04 0.  0.
        1    1    3    3  502    0 -0.13078477636E+03  0.13331897193E+03 -0.91810665160E+03  0.93690897623E+03  0.50400001928E-02 0. -1.
       -1    1    3    3    0  502  0.13078477636E+03 -0.13331897193E+03  0.21608685491E+03  0.28560835929E+03  0.50400001928E-02 0.  1.
</event>
<event>
 5   0  0.1414165E-04  0.1001478E+04  0.7818609E-02  0.9306926E-01
       -1   -1    0    0    0  501  0.00000000000E+00  0.00000000000E+00  0.16433700919E+03  0.16433700926E+03  0.50400001928E-02 0. -1.
        1   -1    0    0  501    0  0.00000000000E+00  0.00000000000E+00 -0.15257628337E+04  0.15257628337E+04  0.50400001928E-02 0.  1.
    10030    2    1    2    0    0  0.00000000000E+00  0.00000000000E+00 -0.13614258245E+04  0.16900998429E+04  0.10014775103E+04 0.  0.
        4    1    3    3  502    0  0.13980850585E+02  0.42588672042E+03 -0.23689256487E+03  0.48753939636E+03  0.12699999809E+01 0. -1.
       -4    1    3    3    0  502 -0.13980850585E+02 -0.42588672042E+03 -0.11245332596E+04  0.12025604466E+04  0.12699999809E+01 0.  1.
</event>
<event>
 5   0  0.1506454E-04  0.1000547E+04  0.7818609E-02  0.9307945E-01
        1   -1    0    0  501    0  0.00000000000E+00  0.00000000000E+00  0.82146282612E+03  0.82146282613E+03  0.50400001928E-02 0. -1.
       -1   -1    0    0    0  501  0.00000000000E+00  0.00000000000E+00 -0.30466828941E+03  0.30466828945E+03  0.50400001928E-02 0.  1.
    10030    2    1    2    0    0  0.00000000000E+00  0.00000000000E+00  0.51679453671E+03  0.11261311156E+04  0.10005471985E+04 0.  0.
        3    1    3    3  502    0 -0.76910630732E+02 -0.20852171770E+02  0.81427374193E+03  0.81816367262E+03  0.10100000352E+00 0. -1.
       -3    1    3    3    0  502  0.76910630732E+02  0.20852171770E+02 -0.29747920523E+03  0.30796744297E+03  0.10100000352E+00 0.  1.
</event>
<event>
 5   0  0.1430675E-04  0.1000122E+04  0.7818609E-02  0.9308411E-01
       -1   -1    0    0    0  501  0.00000000000E+00  0.00000000000E+00  0.32244331530E+03  0.32244331534E+03  0.50400001928E-02 0.  1.
        1   -1    0    0  501    0  0.00000000000E+00  0.00000000000E+00 -0.77551978125E+03  0.77551978127E+03  0.50400001928E-02 0. -1.
    10030    2    1    2    0    0  0.00000000000E+00  0.00000000000E+00 -0.45307646595E+03  0.10979630966E+04  0.10001223313E+04 0.  0.
        5    1    3    3  502    0 -0.39004601196E+03  0.22013862669E+03  0.17570543333E+02  0.44824961840E+03  0.46999998093E+01 0.  1.
       -5    1    3    3    0  502  0.39004601196E+03 -0.22013862669E+03 -0.47064700929E+03  0.64971347820E+03  0.46999998093E+01 0. -1.
</event>
<event>
 5   0  0.9650500E-05  0.1000284E+04  0.7818609E-02  0.9308233E-01
        3   -1    0    0  501    0  0.00000000000E+00  0.00000000000E+00  0.16303655998E+04  0.16303656029E+04  0.10100000352E+00 0. -1.
       -3   -1    0    0    0  501  0.00000000000E+00  0.00000000000E+00 -0.15342689657E+03  0.15342692982E+03  0.10100000352E+00 0.  1.
    10030    2    1    2    0    0  0.00000000000E+00  0.00000000000E+00  0.14769387032E+04  0.17837925328E+04  0.10002838931E+04 0.  0.
        1    1    3    3  502    0  0.40925763315E+02  0.26477080310E+03  0.14916064187E+04  0.15154762303E+04  0.50400001928E-02 0. -1.
       -1    1    3    3    0  502 -0.40925763315E+02 -0.26477080310E+03 -0.14667715427E+02  0.26831630249E+03  0.50400001928E-02 0.  1.
</event>
<event>
 5   0  0.1506454E-04  0.9984515E+03  0.7818609E-02  0.9310245E-01
       -1   -1    0    0    0  501  0.00000000000E+00  0.00000000000E+00  0.49728312253E+03  0.49728312256E+03  0.50400001928E-02 0. -1.
        1   -1    0    0  501    0  0.00000000000E+00  0.00000000000E+00 -0.50117591732E+03  0.50117591735E+03  0.50400001928E-02 0.  1.
    10030    2    1    2    0    0  0.00000000000E+00  0.00000000000E+00 -0.38927947873E+01  0.99845903991E+03  0.99845145126E+03 0.  0.
        3    1    3    3  502    0  0.29767024056E+03 -0.35818012358E+03 -0.18174137305E+03  0.49993050509E+03  0.10100000352E+00 0. -1.
       -3    1    3    3    0  502 -0.29767024056E+03  0.35818012358E+03  0.17784857826E+03  0.49852853482E+03  0.10100000352E+00 0.  1.
</event>
<event>
 5   0  0.2353916E-04  0.1000521E+04  0.7818609E-02  0.9307974E-01
       -2   -1    0    0    0  501  0.00000000000E+00  0.00000000000E+00  0.14473362484E+03  0.14473362486E+03  0.25500000920E-02 0. -1.
        2   -1    0    0  501    0  0.00000000000E+00  0.00000000000E+00 -0.17291102779E+04  0.17291102779E+04  0.25500000920E-02 0.  1.
    10030    2    1    2    0    0  0.00000000000E+00  0.00000000000E+00 -0.15843766531E+04  0.18738439028E+04  0.10005206611E+04 0.  0.
        4    1    3    3  502    0  0.21827840142E+02 -0.31050219055E+03 -0.58724706863E+02  0.31676216478E+03  0.12699999809E+01 0. -1.
       -4    1    3    3    0  502 -0.21827840142E+02  0.31050219055E+03 -0.15256519462E+04  0.15570817380E+04  0.12699999809E+01 0.  1.
</event>
<event>
 5   0  0.2403037E-04  0.9999996E+03  0.7818609E-02  0.9308545E-01
       -2   -1    0    0    0  501  0.00000000000E+00  0.00000000000E+00  0.24960425168E+03  0.24960425170E+03  0.25500000920E-02 0. -1.
        2   -1    0    0  501    0  0.00000000000E+00  0.00000000000E+00 -0.10015847221E+04  0.10015847221E+04  0.25500000920E-02 0.  1.
    10030    2    1    2    0    0  0.00000000000E+00  0.00000000000E+00 -0.75198047040E+03  0.12511889738E+04  0.99999961013E+03 0.  0.
        1    1    3    3  502    0  0.35617341832E+03 -0.22959229561E+03 -0.70803356896E+03  0.82515674930E+03  0.50400001928E-02 0.  1.
       -1    1    3    3    0  502 -0.35617341832E+03  0.22959229561E+03 -0.43946901437E+02  0.42603222448E+03  0.50400001928E-02 0. -1.
</event>
<event>
 5   0  0.1461334E-04  0.9998493E+03  0.7818609E-02  0.9308710E-01
        1   -1    0    0  501    0  0.00000000000E+00  0.00000000000E+00  0.21360549442E+04  0.21360549442E+04  0.50400001928E-02 0. -1.
       -1   -1    0    0    0  501  0.00000000000E+00  0.00000000000E+00 -0.11700291468E+03  0.11700291479E+03  0.50400001928E-02 0.  1.
    10030    2    1    2    0    0  0.00000000000E+00  0.00000000000E+00  0.20190520296E+04  0.22530578590E+04  0.99984929769E+03 0.  0.
        2    1    3    3  502    0 -0.13932794288E+03 -0.24103065605E+03  0.73846030647E+02  0.28803001419E+03  0.25500000920E-02 0.  1.
       -2    1    3    3    0  502  0.13932794288E+03  0.24103065605E+03  0.19452059989E+04  0.19650278449E+04  0.25500000920E-02 0. -1.
</event>
<event>
 5   0  0.2473312E-04  0.1000270E+04  0.7818609E-02  0.9308249E-01
        2   -1    0    0  501    0  0.00000000000E+00  0.00000000000E+00  0.35420904628E+03  0.35420904629E+03  0.25500000920E-02 0.  1.
       -2   -1    0    0    0  501  0.00000000000E+00  0.00000000000E+00 -0.70617850128E+03  0.70617850128E+03  0.25500000920E-02 0. -1.
    10030    2    1    2    0    0  0.00000000000E+00  0.00000000000E+00 -0.35196945500E+03  0.10603875476E+04  0.10002695906E+04 0.  0.
        5    1    3    3  502    0 -0.41035797387E+03 -0.97591806040E+02  0.10885515705E+03  0.43564820961E+03  0.46999998093E+01 0.  1.
       -5    1    3    3    0  502  0.41035797387E+03  0.97591806040E+02 -0.46082461205E+03  0.62473933796E+03  0.46999998093E+01 0. -1.
</event>
<event>
 5   0  0.1461334E-04  0.1000130E+04  0.7818609E-02  0.9308403E-01
        1   -1    0    0  501    0  0.00000000000E+00  0.00000000000E+00  0.29852160667E+03  0.29852160672E+03  0.50400001928E-02 0.  1.
       -1   -1    0    0    0  501  0.00000000000E+00  0.00000000000E+00 -0.83767729944E+03  0.83767729946E+03  0.50400001928E-02 0. -1.
    10030    2    1    2    0    0  0.00000000000E+00  0.00000000000E+00 -0.53915569277E+03  0.11361989062E+04  0.10001295383E+04 0.  0.
        2    1    3    3  502    0 -0.97414935130E+02 -0.43202720650E+03 -0.53339537363E+03  0.69328767576E+03  0.25500000920E-02 0. -1.
       -2    1    3    3    0  502  0.97414935130E+02  0.43202720650E+03 -0.57603191366E+01  0.44291123041E+03  0.25500000920E-02 0.  1.
</event>
<event>
 5   0  0.2503680E-04  0.1000001E+04  0.7818609E-02  0.9308544E-01
        2   -1    0    0  501    0  0.00000000000E+00  0.00000000000E+00  0.51417177377E+03  0.51417177377E+03  0.25500000920E-02 0.  1.
       -2   -1    0    0    0  501  0.00000000000E+00  0.00000000000E+00 -0.48621948132E+03  0.48621948133E+03  0.25500000920E-02 0. -1.
    10030    2    1    2    0    0  0.00000000000E+00  0.00000000000E+00  0.27952292443E+02  0.10003912551E+04  0.10000006663E+04 0.  0.
        2    1    3    3  502    0 -0.28666221044E+03 -0.23801304437E+03 -0.31958309172E+03  0.49087552872E+03  0.25500000920E-02 0. -1.
       -2    1    3    3    0  502  0.28666221044E+03  0.23801304437E+03  0.34753538416E+03  0.50951572638E+03  0.25500000920E-02 0.  1.
</event>
<event>
 5   0  0.2484904E-04  0.1000063E+04  0.7818609E-02  0.9308475E-01
       -2   -1    0    0    0  501  0.00000000000E+00  0.00000000000E+00  0.54065705591E+03  0.54065705591E+03  0.25500000920E-02 0.  1.
        2   -1    0    0  501    0  0.00000000000E+00  0.00000000000E+00 -0.46245899754E+03  0.46245899754E+03  0.25500000920E-02 0. -1.
    10030    2    1    2    0    0  0.00000000000E+00  0.00000000000E+00  0.78198058371E+02  0.10031160535E+04  0.10000634382E+04 0.  0.
        3    1    3    3  502    0  0.31987766050E+03 -0.37179418160E+03  0.13675677514E+03  0.50917095057E+03  0.10100000352E+00 0. -1.
       -3    1    3    3    0  502 -0.31987766050E+03  0.37179418160E+03 -0.58558716767E+02  0.49394510289E+03  0.10100000352E+00 0.  1.
</event>
<event>
 5   0  0.9650500E-05  0.9999354E+03  0.7818609E-02  0.9308616E-01
        3   -1    0    0  501    0  0.00000000000E+00  0.00000000000E+00  0.44979786372E+03  0.44979787506E+03  0.10100000352E+00 0.  1.
       -3   -1    0    0    0  501  0.00000000000E+00  0.00000000000E+00 -0.55573342923E+03  0.55573343841E+03  0.10100000352E+00 0. -1.
    10030    2    1    2    0    0  0.00000000000E+00  0.00000000000E+00 -0.10593556550E+03  0.10055313135E+04  0.99993543708E+03 0.  0.
        2    1    3    3  502    0 -0.49340709715E+03  0.15872889562E+02 -0.13256380546E+03  0.51115132267E+03  0.25500000920E-02 0. -1.
       -2    1    3    3    0  502  0.49340709715E+03 -0.15872889562E+02  0.26628239954E+02  0.49437999080E+03  0.25500000920E-02 0.  1.
</event>
<event>
 5   0  0.2403037E-04  0.9995187E+03  0.7818609E-02  0.9309073E-01
        2   -1    0    0  501    0  0.00000000000E+00  0.00000000000E+00  0.85862614809E+03  0.85862614809E+03  0.25500000920E-02 0. -1.
       -2   -1    0    0    0  501  0.00000000000E+00  0.00000000000E+00 -0.29088261207E+03  0.29088261208E+03  0.25500000920E-02 0.  1.
    10030    2    1    2    0    0  0.00000000000E+00  0.00000000000E+00  0.56774353602E+03  0.11495087602E+04  0.99951871769E+03 0.  0.
        1    1    3    3  502    0  0.10404484834E+03 -0.97442970583E+02 -0.26700560033E+03  0.30267549226E+03  0.50400001928E-02 0.  1.
       -1    1    3    3    0  502 -0.10404484834E+03  0.97442970583E+02  0.83474913635E+03  0.84683326791E+03  0.50400001928E-02 0. -1.
</event>
<event>
 5   0  0.2353916E-04  0.1000053E+04  0.7818609E-02  0.9308487E-01
       -2   -1    0    0    0  501  0.00000000000E+00  0.00000000000E+00  0.27895294754E+03  0.27895294755E+03  0.25500000920E-02 0.  1.
        2   -1    0    0  501    0  0.00000000000E+00  0.00000000000E+00 -0.89630283160E+03  0.89630283160E+03  0.25500000920E-02 0. -1.
    10030    2    1    2    0    0  0.00000000000E+00  0.00000000000E+00 -0.61734988406E+03  0.11752557792E+04  0.10000526322E+04 0.  0.
        4    1    3    3  502    0  0.12643066608E+03  0.25179009326E+03 -0.79413351282E+03  0.84263432963E+03  0.12699999809E+01 0. -1.
       -4    1    3    3    0  502 -0.12643066608E+03 -0.25179009326E+03  0.17678362876E+03  0.33262144953E+03  0.12699999809E+01 0.  1.
</event>
<event>
 5   0  0.1430675E-04  0.1000873E+04  0.7818609E-02  0.9307587E-01
        1   -1    0    0  501    0  0.00000000000E+00  0.00000000000E+00  0.83556291216E+03  0.83556291217E+03  0.50400001928E-02 0.  1.
       -1   -1    0    0    0  501  0.00000000000E+00  0.00000000000E+00 -0.29972239288E+03  0.29972239292E+03  0.50400001928E-02 0. -1.
    10030    2    1    2    0    0  0.00000000000E+00  0.00000000000E+00  0.53584051928E+03  0.11352853051E+04  0.10008734495E+04 0.  0.
        5    1    3    3  502    0 -0.27008610127E+03  0.42054020905E+03  0.29603282836E+03  0.58091143472E+03  0.46999998093E+01 0. -1.
       -5    1    3    3    0  502  0.27008610127E+03 -0.42054020905E+03  0.23980769092E+03  0.55437387037E+03  0.46999998093E+01 0.  1.
</event>
<event>
 5   0  0.1461334E-04  0.1000162E+04  0.7818609E-02  0.9308367E-01
        1   -1    0    0  501    0  0.00000000000E+00  0.00000000000E+00  0.97868591449E+03  0.97868591450E+03  0.50400001928E-02 0.  1.
       -1   -1    0    0    0  501  0.00000000000E+00  0.00000000000E+00 -0.25552721363E+03  0.25552721368E+03  0.50400001928E-02 0. -1.
    10030    2    1    2    0    0  0.00000000000E+00  0.00000000000E+00  0.72315870086E+03  0.12342131282E+04  0.10001617565E+04 0.  0.
        2    1    3    3  502    0 -0.22200462807E+03 -0.25189979378E+03  0.81889970540E+03  0.88506287263E+03  0.25500000920E-02 0.  1.
       -2    1    3    3    0  502  0.22200462807E+03  0.25189979378E+03 -0.95741004541E+02  0.34915025555E+03  0.25500000920E-02 0. -1.
</event>
<event>
 5   0  0.1430675E-04  0.1000101E+04  0.7818609E-02  0.9308434E-01
        1   -1    0    0  501    0  0.00000000000E+00  0.00000000000E+00  0.20611509999E+04  0.20611510000E+04  0.50400001928E-02 0. -1.
       -1   -1    0    0    0  501  0.00000000000E+00  0.00000000000E+00 -0.12131592694E+03  0.12131592705E+03  0.50400001928E-02 0.  1.
    10030    2    1    2    0    0  0.00000000000E+00  0.00000000000E+00  0.19398350730E+04  0.21824669270E+04  0.10001008834E+04 0.  0.
        5    1    3    3  502    0 -0.76070353550E+01  0.45890623270E+03  0.53688830466E+03  0.70634548139E+03  0.46999998093E+01 0.  1.
       -5    1    3    3    0  502  0.76070353550E+01 -0.45890623270E+03  0.14029467683E+04  0.14761214456E+04  0.46999998093E+01 0. -1.
</event>
<event>
 5   0  0.2484904E-04  0.9979009E+03  0.7818609E-02  0.9310850E-01
       -2   -1    0    0    0  501  0.00000000000E+00  0.00000000000E+00  0.12947300081E+03  0.12947300083E+03  0.25500000920E-02 0.  1.
        2   -1    0    0  501    0  0.00000000000E+00  0.00000000000E+00 -0.19228066575E+04  0.19228066575E+04  0.25500000920E-02 0. -1.
    10030    2    1    2    0    0  0.00000000000E+00  0.00000000000E+00 -0.17933336567E+04  0.20522796583E+04  0.99790089276E+03 0.  0.
        3    1    3    3  502    0 -0.32454936512E+02  0.26854399131E+03 -0.34409786986E+02  0.27267790856E+03  0.10100000352E+00 0.  1.
       -3    1    3    3    0  502  0.32454936512E+02 -0.26854399131E+03 -0.17589238697E+04  0.17796017498E+04  0.10100000352E+00 0. -1.
</event>
<event>
 5   0  0.2503680E-04  0.1000025E+04  0.7818609E-02  0.9308518E-01
       -2   -1    0    0    0  501  0.00000000000E+00  0.00000000000E+00  0.32216800596E+03  0.32216800597E+03  0.25500000920E-02 0.  1.
        2   -1    0    0  501    0  0.00000000000E+00  0.00000000000E+00 -0.77603071585E+03  0.77603071585E+03  0.25500000920E-02 0. -1.
    10030    2    1    2    0    0  0.00000000000E+00  0.00000000000E+00 -0.45386270989E+03  0.10981987218E+04  0.10000245363E+04 0.  0.
        2    1    3    3  502    0 -0.49016650841E+03 -0.79792278654E+02 -0.29079790033E+03  0.57549407690E+03  0.25500000920E-02 0. -1.
       -2    1    3    3    0  502  0.49016650841E+03  0.79792278654E+02 -0.16306480956E+03  0.52270464493E+03  0.25500000920E-02 0.  1.
</event>
<event>
 5   0  0.2473312E-04  0.9999419E+03  0.7818609E-02  0.9308609E-01
       -2   -1    0    0    0  501  0.00000000000E+00  0.00000000000E+00  0.14132912574E+03  0.14132912577E+03  0.25500000920E-02 0.  1.
        2   -1    0    0  501    0  0.00000000000E+00  0.00000000000E+00 -0.17687150499E+04  0.17687150499E+04  0.25500000920E-02 0. -1.
    10030    2    1    2    0    0  0.00000000000E+00  0.00000000000E+00 -0.16273859241E+04  0.19100441756E+04  0.99994190173E+03 0.  0.
        5    1    3    3  502    0  0.33391601324E+03  0.25438724083E+02 -0.10461149366E+03  0.35087417572E+03  0.46999998093E+01 0.  1.
       -5    1    3    3    0  502 -0.33391601324E+03 -0.25438724083E+02 -0.15227744305E+04  0.15591699999E+04  0.46999998093E+01 0. -1.
</event>
<event>
 5   0  0.1414165E-04  0.9997888E+03  0.7818609E-02  0.9308776E-01
        1   -1    0    0  501    0  0.00000000000E+00  0.00000000000E+00  0.97225409917E+03  0.97225409919E+03  0.50400001928E-02 0.  1.
       -1   -1    0    0    0  501  0.00000000000E+00  0.00000000000E+00 -0.25702582342E+03  0.25702582347E+03  0.50400001928E-02 0. -1.
    10030    2    1    2    0    0  0.00000000000E+00  0.00000000000E+00  0.71522827576E+03  0.12292799227E+04  0.99978879860E+03 0.  0.
        4    1    3    3  502    0 -0.13743143136E+03 -0.20369600627E+03 -0.17764292960E+03  0.30321293612E+03  0.12699999809E+01 0. -1.
       -4    1    3    3    0  502  0.13743143136E+03  0.20369600627E+03  0.89287120535E+03  0.92606698653E+03  0.12699999809E+01 0.  1.
</event>
<event>
 5   0  0.1453863E-04  0.1000050E+04  0.7818609E-02  0.9308490E-01
       -1   -1    0    0    0  501  0.00000000000E+00  0.00000000000E+00  0.48577066111E+03  0.48577066114E+03  0.50400001928E-02 0.  1.
        1   -1    0    0  501    0  0.00000000000E+00  0.00000000000E+00 -0.51469777748E+03  0.51469777751E+03  0.50400001928E-02 0. -1.
    10030    2    1    2    0    0  0.00000000000E+00  0.00000000000E+00 -0.28927116367E+02  0.10004684386E+04  0.10000501581E+04 0.  0.
        1    1    3    3  502    0 -0.35716181200E+03 -0.24796752299E+03  0.23256608108E+03  0.49309171003E+03  0.50400001928E-02 0.  1.
       -1    1    3    3    0  502  0.35716181200E+03  0.24796752299E+03 -0.26149319745E+03  0.50737672862E+03  0.50400001928E-02 0. -1.
</event>
<event>
 5   0  0.2503680E-04  0.1000239E+04  0.7818609E-02  0.9308283E-01
       -2   -1    0    0    0  501  0.00000000000E+00  0.00000000000E+00  0.74605430213E+03  0.74605430214E+03  0.25500000920E-02 0.  1.
        2   -1    0    0  501    0  0.00000000000E+00  0.00000000000E+00 -0.33525639163E+03  0.33525639164E+03  0.25500000920E-02 0. -1.
    10030    2    1    2    0    0  0.00000000000E+00  0.00000000000E+00  0.41079791051E+03  0.10813106938E+04  0.10002389181E+04 0.  0.
        2    1    3    3  502    0 -0.68452476490E+02 -0.43150419392E+03 -0.57716548366E+02  0.44069582579E+03  0.25500000920E-02 0. -1.
       -2    1    3    3    0  502  0.68452476490E+02  0.43150419392E+03  0.46851445887E+03  0.64061486799E+03  0.25500000920E-02 0.  1.
</event>
<event>
 5   0  0.1430675E-04  0.1000403E+04  0.7818609E-02  0.9308103E-01
        1   -1    0    0  501    0  0.00000000000E+00  0.00000000000E+00  0.10384975351E+04  0.10384975351E+04  0.50400001928E-02 0.  1.
       -1   -1    0    0    0  501  0.00000000000E+00  0.00000000000E+00 -0.24092644780E+03  0.24092644785E+03  0.50400001928E-02 0. -1.
    10030    2    1    2    0    0  0.00000000000E+00  0.00000000000E+00  0.79757108729E+03  0.12794239830E+04  0.10004029632E+04 0.  0.
        5    1    3    3  502    0 -0.35957551624E+03 -0.23689013870E+02 -0.44838551743E+02  0.36316429750E+03  0.46999998093E+01 0. -1.
       -5    1    3    3    0  502  0.35957551624E+03  0.23689013870E+02  0.84240963904E+03  0.91625968546E+03  0.46999998093E+01 0.  1.
</event>
<event>
 5   0  0.1414165E-04  0.9998366E+03  0.7818609E-02  0.9308724E-01
       -1   -1    0    0    0  501  0.00000000000E+00  0.00000000000E+00  0.25890104974E+03  0.25890104979E+03  0.50400001928E-02 0. -1.
        1   -1    0    0  501    0  0.00000000000E+00  0.00000000000E+00 -0.96530429254E+03  0.96530429255E+03  0.50400001928E-02 0.  1.
    10030    2    1    2    0    0  0.00000000000E+00  0.00000000000E+00 -0.70640324279E+03  0.12242053423E+04  0.99983657604E+03 0.  0.
        4    1    3    3  502    0 -0.35197746100E+03  0.11744955453E+03 -0.76339416627E+03  0.84879608677E+03  0.12699999809E+01 0.  1.
       -4    1    3    3    0  502  0.35197746100E+03 -0.11744955453E+03  0.56990923481E+02  0.37540925557E+03  0.12699999809E+01 0. -1.
</event>
<event>
 5   0  0.2353916E-04  0.1000038E+04  0.7818609E-02  0.9308503E-01
        2   -1    0    0  501    0  0.00000000000E+00  0.00000000000E+00  0.12142863282E+04  0.12142863282E+04  0.25500000920E-02 0.  1.
       -2   -1    0    0    0  501  0.00000000000E+00  0.00000000000E+00 -0.20589794651E+03  0.20589794653E+03  0.25500000920E-02 0. -1.
    10030    2    1    2    0    0  0.00000000000E+00  0.00000000000E+00  0.10083883817E+04  0.14201842747E+04  0.10000381222E+04 0.  0.
        4    1    3    3  502    0 -0.46386422504E+03 -0.12036550675E+03  0.30156011144E+03  0.56621373014E+03  0.12699999809E+01 0. -1.
       -4    1    3    3    0  502  0.46386422504E+03  0.12036550675E+03  0.70682827022E+03  0.85397054456E+03  0.12699999809E+01 0.  1.
</event>
<event>
 5   0  0.1430675E-04  0.9987502E+03  0.7818609E-02  0.9309917E-01
       -1   -1    0    0    0  501  0.00000000000E+00  0.00000000000E+00  0.22466309011E+03  0.22466309017E+03  0.50400001928E-02 0. -1.
        1   -1    0    0  501    0  0.00000000000E+00  0.00000000000E+00 -0.11099976526E+04  0.11099976526E+04  0.50400001928E-02 0.  1.
    10030    2    1    2    0    0  0.00000000000E+00  0.00000000000E+00 -0.88533456250E+03  0.13346607428E+04  0.99875022443E+03 0.  0.
        5    1    3    3  502    0 -0.38558515949E+03  0.24523186253E+03 -0.71172757221E+03  0.84580896700E+03  0.46999998093E+01 0. -1.
       -5    1    3    3    0  502  0.38558515949E+03 -0.24523186253E+03 -0.17360699028E+03  0.48885177579E+03  0.46999998093E+01 0.  1.
</event>
<event>
 5   0  0.2484904E-04  0.1000277E+04  0.7818609E-02  0.9308241E-01
       -2   -1    0    0    0  501  0.00000000000E+00  0.00000000000E+00  0.93476990603E+03  0.93476990603E+03  0.25500000920E-02 0. -1.
        2   -1    0    0  501    0  0.00000000000E+00  0.00000000000E+00 -0.26759368002E+03  0.26759368003E+03  0.25500000920E-02 0.  1.
    10030    2    1    2    0    0  0.00000000000E+00  0.00000000000E+00  0.66717622601E+03  0.12023635861E+04  0.10002769999E+04 0.  0.
        3    1    3    3  502    0  0.16365259954E+03 -0.31229277302E+03  0.75997797513E+03  0.83778009185E+03  0.10100000352E+00 0. -1.
       -3    1    3    3    0  502 -0.16365259954E+03  0.31229277302E+03 -0.92801749115E+02  0.36458349422E+03  0.10100000352E+00 0.  1.
</event>
<event>
 5   0  0.2403037E-04  0.9999953E+03  0.7818609E-02  0.9308550E-01
        2   -1    0    0  501    0  0.00000000000E+00  0.00000000000E+00  0.10677212829E+04  0.10677212829E+04  0.25500000920E-02 0. -1.
       -2   -1    0    0    0  501  0.00000000000E+00  0.00000000000E+00 -0.23414128773E+03  0.23414128775E+03  0.25500000920E-02 0.  1.
    10030    2    1    2    0    0  0.00000000000E+00  0.00000000000E+00  0.83357999516E+03  0.13018625706E+04  0.99999527224E+03 0.  0.
        1    1    3    3  502    0 -0.31165258265E+03 -0.12729052871E+02  0.92553303657E+03  0.97667843371E+03  0.50400001928E-02 0. -1.
       -1    1    3    3    0  502  0.31165258265E+03  0.12729052871E+02 -0.91953041414E+02  0.32518413693E+03  0.50400001928E-02 0.  1.
</event>
<event>
 5   0  0.1453863E-04  0.9999241E+03  0.7818609E-02  0.9308628E-01
        1   -1    0    0  501    0  0.00000000000E+00  0.00000000000E+00  0.59303493827E+03  0.59303493829E+03  0.50400001928E-02 0.  1.
       -1   -1    0    0    0  501  0.00000000000E+00  0.00000000000E+00 -0.42149636360E+03  0.42149636363E+03  0.50400001928E-02 0. -1.
    10030    2    1    2    0    0  0.00000000000E+00  0.00000000000E+00  0.17153857467E+03  0.10145313019E+04  0.99992413711E+03 0.  0.
        1    1    3    3  502    0 -0.49749751872E+03 -0.29793901352E+02  0.45559396544E+02  0.50046689833E+03  0.50400001928E-02 0.  1.
       -1    1    3    3    0  502  0.49749751872E+03  0.29793901352E+02  0.12597917813E+03  0.51406440358E+03  0.50400001928E-02 0. -1.
</event>
<event>
 5   0  0.9650500E-05  0.9998397E+03  0.7818609E-02  0.9308721E-01
        3   -1    0    0  501    0  0.00000000000E+00  0.00000000000E+00  0.71374282303E+03  0.71374283017E+03  0.10100000352E+00 0.  1.
       -3   -1    0    0    0  501  0.00000000000E+00  0.00000000000E+00 -0.35015393470E+03  0.35015394926E+03  0.10100000352E+00 0. -1.
    10030    2    1    2    0    0  0.00000000000E+00  0.00000000000E+00  0.36358888833E+03  0.10638967794E+04  0.99983972595E+03 0.  0.
        1    1    3    3  502    0  0.15996867523E+03 -0.87788979011E+02  0.67704090019E+03  0.70119987339E+03  0.50400001928E-02 0.  1.
       -1    1    3    3    0  502 -0.15996867523E+03  0.87788979011E+02 -0.31345201186E+03  0.36269690605E+03  0.50400001928E-02 0. -1.
</event>
<event>
 5   0  0.1461334E-04  0.1000341E+04  0.7818609E-02  0.9308171E-01
        1   -1    0    0  501    0  0.00000000000E+00  0.00000000000E+00  0.37146243517E+03  0.37146243521E+03  0.50400001928E-02 0. -1.
       -1   -1    0    0    0  501  0.00000000000E+00  0.00000000000E+00 -0.67347488839E+03  0.67347488841E+03  0.50400001928E-02 0.  1.
    10030    2    1    2    0    0  0.00000000000E+00  0.00000000000E+00 -0.30201245322E+03  0.10449373236E+04  0.10003411860E+04 0.  0.
        2    1    3    3  502    0  0.23476214539E+02  0.51109392450E+02  0.36814872815E+03  0.37242017761E+03  0.25500000920E-02 0. -1.
       -2    1    3    3    0  502 -0.23476214539E+02 -0.51109392450E+02 -0.67016118137E+03  0.67251714600E+03  0.25500000920E-02 0.  1.
</event>
<event>
 5   0  0.1414165E-04  0.9985507E+03  0.7818609E-02  0.9310136E-01
       -1   -1    0    0    0  501  0.00000000000E+00  0.00000000000E+00  0.16911526225E+03  0.16911526232E+03  0.50400001928E-02 0. -1.
        1   -1    0    0  501    0  0.00000000000E+00  0.00000000000E+00 -0.14739998563E+04  0.14739998563E+04  0.50400001928E-02 0.  1.
    10030    2    1    2    0    0  0.00000000000E+00  0.00000000000E+00 -0.13048845941E+04  0.16431151187E+04  0.99855069441E+03 0.  0.
        4    1    3    3  502    0 -0.17332582663E+03 -0.18946705544E+03  0.52121223038E+02  0.26202641482E+03  0.12699999809E+01 0. -1.
       -4    1    3    3    0  502  0.17332582663E+03  0.18946705544E+03 -0.13570058171E+04  0.13810887038E+04  0.12699999809E+01 0.  1.
</event>
<event>
 5   0  0.1414165E-04  0.9994765E+03  0.7818609E-02  0.9309119E-01
        1   -1    0    0  501    0  0.00000000000E+00  0.00000000000E+00  0.11495868370E+04  0.11495868370E+04  0.50400001928E-02 0.  1.
       -1   -1    0    0    0  501  0.00000000000E+00  0.00000000000E+00 -0.21724181805E+03  0.21724181811E+03  0.50400001928E-02 0. -1.
    10030    2    1    2    0    0  0.00000000000E+00  0.00000000000E+00  0.93234501893E+03  0.13668286551E+04  0.99947653203E+03 0.  0.
        4    1    3    3  502    0 -0.48553546581E+03 -0.11372287825E+03  0.51067846842E+03  0.71377285786E+03  0.12699999809E+01 0.  1.
       -4    1    3    3    0  502  0.48553546581E+03  0.11372287825E+03  0.42166655051E+03  0.65305579725E+03  0.12699999809E+01 0. -1.
</event>
<event>
 5   0  0.1453863E-04  0.9996209E+03  0.7818609E-02  0.9308961E-01
        1   -1    0    0  501    0  0.00000000000E+00  0.00000000000E+00  0.49141207492E+03  0.49141207495E+03  0.50400001928E-02 0. -1.
       -1   -1    0    0    0  501  0.00000000000E+00  0.00000000000E+00 -0.50835233622E+03  0.50835233625E+03  0.50400001928E-02 0.  1.
    10030    2    1    2    0    0  0.00000000000E+00  0.00000000000E+00 -0.16940261300E+02  0.99976441119E+03  0.99962088085E+03 0.  0.
        1    1    3    3  502    0  0.38312060933E+03  0.31869335132E+03  0.29792686826E+02  0.49923387073E+03  0.50400001928E-02 0.  1.
       -1    1    3    3    0  502 -0.38312060933E+03 -0.31869335132E+03 -0.46732948125E+02  0.50053054046E+03  0.50400001928E-02 0. -1.
</event>
<event>
 5   0  0.2473312E-04  0.9998235E+03  0.7818609E-02  0.9308738E-01
        2   -1    0    0  501    0  0.00000000000E+00  0.00000000000E+00  0.61524055712E+03  0.61524055713E+03  0.25500000920E-02 0. -1.
       -2   -1    0    0    0  501  0.00000000000E+00  0.00000000000E+00 -0.40620166440E+03  0.40620166441E+03  0.25500000920E-02 0.  1.
    10030    2    1    2    0    0  0.00000000000E+00  0.00000000000E+00  0.20903889273E+03  0.10214422215E+04  0.99982346105E+03 0.  0.
        5    1    3    3  502    0  0.20657127434E+03 -0.42734778452E+03  0.26472806969E+03  0.54350792192E+03  0.46999998093E+01 0. -1.
       -5    1    3    3    0  502 -0.20657127434E+03  0.42734778452E+03 -0.55689176960E+02  0.47793429961E+03  0.46999998093E+01 0.  1.
</event>
<event>
 5   0  0.2503680E-04  0.1000736E+04  0.7818609E-02  0.9307738E-01
       -2   -1    0    0    0  501  0.00000000000E+00  0.00000000000E+00  0.19381353980E+03  0.19381353982E+03  0.25500000920E-02 0.  1.
        2   -1    0    0  501    0  0.00000000000E+00  0.00000000000E+00 -0.12917984741E+04  0.12917984741E+04  0.25500000920E-02 0. -1.
    10030    2    1    2    0    0  0.00000000000E+00  0.00000000000E+00 -0.10979849343E+04  0.14856120139E+04  0.10007357993E+04 0.  0.
        2    1    3    3  502    0 -0.14533529519E+03 -0.44463251455E+03 -0.81266763167E+03  0.93768283582E+03  0.25500000920E-02 0. -1.
       -2    1    3    3    0  502  0.14533529519E+03  0.44463251455E+03 -0.28531730261E+03  0.54792917809E+03  0.25500000920E-02 0.  1.
</event>
<event>
 5   0  0.1461334E-04  0.1000303E+04  0.7818609E-02  0.9308213E-01
        1   -1    0    0  501    0  0.00000000000E+00  0.00000000000E+00  0.67884735284E+03  0.67884735286E+03  0.50400001928E-02 0.  1.
       -1   -1    0    0    0  501  0.00000000000E+00  0.00000000000E+00 -0.36849450877E+03  0.36849450880E+03  0.50400001928E-02 0. -1.
    10030    2    1    2    0    0  0.00000000000E+00  0.00000000000E+00  0.31035284408E+03  0.10473418617E+04  0.10003029978E+04 0.  0.
        2    1    3    3  502    0 -0.45565193854E+02  0.18202890483E+03  0.64059493491E+03  0.66751223189E+03  0.25500000920E-02 0.  1.
       -2    1    3    3    0  502  0.45565193854E+02 -0.18202890483E+03 -0.33024209083E+03  0.37982962977E+03  0.25500000920E-02 0. -1.
</event>
<event>
 5   0  0.1414165E-04  0.1000411E+04  0.7818609E-02  0.9308094E-01
       -1   -1    0    0    0  501  0.00000000000E+00  0.00000000000E+00  0.78146791189E+03  0.78146791190E+03  0.50400001928E-02 0.  1.
        1   -1    0    0  501    0  0.00000000000E+00  0.00000000000E+00 -0.32017410108E+03  0.32017410112E+03  0.50400001928E-02 0. -1.
    10030    2    1    2    0    0  0.00000000000E+00  0.00000000000E+00  0.46129381080E+03  0.11016420130E+04  0.10004114878E+04 0.  0.
        4    1    3    3  502    0 -0.38355039373E+03 -0.18032089025E+03 -0.61899928668E+02  0.42832200744E+03  0.12699999809E+01 0. -1.
       -4    1    3    3    0  502  0.38355039373E+03  0.18032089025E+03  0.52319373947E+03  0.67332000558E+03  0.12699999809E+01 0.  1.
</event>
<event>
 5   0  0.1506454E-04  0.9997188E+03  0.7818609E-02  0.9308853E-01
        1   -1    0    0  501    0  0.00000000000E+00  0.00000000000E+00  0.87476578502E+03  0.87476578504E+03  0.50400001928E-02 0.  1.
       -1   -1    0    0    0  501  0.00000000000E+00  0.00000000000E+00 -0.28563005349E+03  0.28563005354E+03  0.50400001928E-02 0. -1.
    10030    2    1    2    0    0  0.00000000000E+00  0.00000000000E+00  0.58913573153E+03  0.11603958386E+04  0.99971875646E+03 0.  0.
        3    1    3    3  502    0 -0.37995776927E+03 -0.31687091169E+03  0.37733238428E+03  0.62221766250E+03  0.10100000352E+00 0. -1.
       -3    1    3    3    0  502  0.37995776927E+03  0.31687091169E+03  0.21180334725E+03  0.53817817608E+03  0.10100000352E+00 0.  1.
</event>
<event>
 5   0  0.1453863E-04  0.1000511E+04  0.7818609E-02  0.9307985E-01
       -1   -1    0    0    0  501  0.00000000000E+00  0.00000000000E+00  0.16031691861E+03  0.16031691869E+03  0.50400001928E-02 0.  1.
        1   -1    0    0  501    0  0.00000000000E+00  0.00000000000E+00 -0.15610038490E+04  0.15610038490E+04  0.50400001928E-02 0. -1.
    10030    2    1    2    0    0  0.00000000000E+00  0.00000000000E+00 -0.14006869303E+04  0.17213207677E+04  0.10005105238E+04 0.  0.
        1    1    3    3  502    0 -0.22065765234E+03 -0.55337376459E+02 -0.14668643909E+04  0.14843999347E+04  0.50400001928E-02 0. -1.
       -1    1    3    3    0  502  0.22065765234E+03  0.55337376459E+02  0.66177460579E+02  0.23692083295E+03  0.50400001928E-02 0.  1.
</event>
<event>
 5   0  0.1461334E-04  0.1001159E+04  0.7818609E-02  0.9307274E-01
       -1   -1    0    0    0  501  0.00000000000E+00  0.00000000000E+00  0.40011511820E+03  0.40011511823E+03  0.50400001928E-02 0.  1.
        1   -1    0    0  501    0  0.00000000000E+00  0.00000000000E+00 -0.62626976676E+03  0.62626976678E+03  0.50400001928E-02 0. -1.
    10030    2    1    2    0    0  0.00000000000E+00  0.00000000000E+00 -0.22615464855E+03  0.10263848850E+04  0.10011593315E+04 0.  0.
        2    1    3    3  502    0  0.19933692356E+03  0.61548021799E+02  0.35342264841E+03  0.41040338266E+03  0.25500000920E-02 0.  1.
       -2    1    3    3    0  502 -0.19933692356E+03 -0.61548021799E+02 -0.57957729696E+03  0.61598150235E+03  0.25500000920E-02 0. -1.
</event>
<event>
 5   0  0.1414165E-04  0.1000075E+04  0.7818609E-02  0.9308462E-01
       -1   -1    0    0    0  501  0.00000000000E+00  0.00000000000E+00  0.76068503700E+03  0.76068503702E+03  0.50400001928E-02 0.  1.
        1   -1    0    0  501    0  0.00000000000E+00  0.00000000000E+00 -0.32870060659E+03  0.32870060662E+03  0.50400001928E-02 0. -1.
    10030    2    1    2    0    0  0.00000000000E+00  0.00000000000E+00  0.43198443041E+03  0.10893856436E+04  0.10000752634E+04 0.  0.
        4    1    3    3  502    0  0.13586560473E+03 -0.30951333830E+03 -0.18539519622E+03  0.38552686134E+03  0.12699999809E+01 0. -1.
       -4    1    3    3    0  502 -0.13586560473E+03  0.30951333830E+03  0.61737962663E+03  0.70385878230E+03  0.12699999809E+01 0.  1.
</event>
<event>
 5   0  0.1506454E-04  0.1000602E+04  0.7818609E-02  0.9307885E-01
        1   -1    0    0  501    0  0.00000000000E+00  0.00000000000E+00  0.44270217893E+03  0.44270217896E+03  0.50400001928E-02 0. -1.
       -1   -1    0    0    0  501  0.00000000000E+00  0.00000000000E+00 -0.56539371960E+03  0.56539371962E+03  0.50400001928E-02 0.  1.
    10030    2    1    2    0    0  0.00000000000E+00  0.00000000000E+00 -0.12269154067E+03  0.10080958986E+04  0.10006018822E+04 0.  0.
        3    1    3    3  502    0  0.63558310228E+01  0.36218841080E+03 -0.40901021134E+03  0.54636087404E+03  0.10100000352E+00 0.  1.
       -3    1    3    3    0  502 -0.63558310228E+01 -0.36218841080E+03  0.28631867067E+03  0.46173502453E+03  0.10100000352E+00 0. -1.
</event>
<event>
 5   0  0.2503680E-04  0.9998484E+03  0.7818609E-02  0.9308711E-01
        2   -1    0    0  501    0  0.00000000000E+00  0.00000000000E+00  0.97293082912E+03  0.97293082912E+03  0.25500000920E-02 0. -1.
       -2   -1    0    0    0  501  0.00000000000E+00  0.00000000000E+00 -0.25687767256E+03  0.25687767257E+03  0.25500000920E-02 0.  1.
    10030    2    1    2    0    0  0.00000000000E+00  0.00000000000E+00  0.71605315656E+03  0.12298085017E+04  0.99984840242E+03 0.  0.
        2    1    3    3  502    0 -0.42151179579E+03  0.26876870095E+03  0.36285316724E+03  0.61771452111E+03  0.25500000920E-02 0. -1.
       -2    1    3    3    0  502  0.42151179579E+03 -0.26876870095E+03  0.35319998933E+03  0.61209398059E+03  0.25500000920E-02 0.  1.
</event>
<event>
 5   0  0.1430675E-04  0.9985406E+03  0.7818609E-02  0.9310147E-01
        1   -1    0    0  501    0  0.00000000000E+00  0.00000000000E+00  0.12447983413E+04  0.12447983413E+04  0.50400001928E-02 0.  1.
       -1   -1    0    0    0  501  0.00000000000E+00  0.00000000000E+00 -0.20024996880E+03  0.20024996887E+03  0.50400001928E-02 0. -1.
    10030    2    1    2    0    0  0.00000000000E+00  0.00000000000E+00  0.10445483725E+04  0.14450483102E+04  0.99854059320E+03 0.  0.
        5    1    3    3  502    0 -0.21108434317E+03 -0.32336142354E+03  0.64345628572E+02  0.39151201780E+03  0.46999998093E+01 0. -1.
       -5    1    3    3    0  502  0.21108434317E+03  0.32336142354E+03  0.98020274393E+03  0.10535362924E+04  0.46999998093E+01 0.  1.
</event>
<event>
 5   0  0.2403037E-04  0.1000184E+04  0.7818609E-02  0.9308343E-01
        2   -1    0    0  501    0  0.00000000000E+00  0.00000000000E+00  0.35419765733E+03  0.35419765734E+03  0.25500000920E-02 0.  1.
       -2   -1    0    0    0  501  0.00000000000E+00  0.00000000000E+00 -0.70608082255E+03  0.70608082255E+03  0.25500000920E-02 0. -1.
    10030    2    1    2    0    0  0.00000000000E+00  0.00000000000E+00 -0.35188316521E+03  0.10602784799E+04  0.10001843295E+04 0.  0.
        1    1    3    3  502    0  0.86883970777E+02 -0.32143384099E+03  0.21960385971E+03  0.39886638582E+03  0.50400001928E-02 0.  1.
       -1    1    3    3    0  502 -0.86883970777E+02  0.32143384099E+03 -0.57148702492E+03  0.66141209407E+03  0.50400001928E-02 0. -1.
</event>
<event>
 5   0  0.1506454E-04  0.1000420E+04  0.7818609E-02  0.9308084E-01
       -1   -1    0    0    0  501  0.00000000000E+00  0.00000000000E+00  0.40169957720E+03  0.40169957723E+03  0.50400001928E-02 0.  1.
        1   -1    0    0  501    0  0.00000000000E+00  0.00000000000E+00 -0.62287910465E+03  0.62287910467E+03  0.50400001928E-02 0. -1.
    10030    2    1    2    0    0  0.00000000000E+00  0.00000000000E+00 -0.22117952745E+03  0.10245786819E+04  0.10004204576E+04 0.  0.
        3    1    3    3  502    0 -0.47441794985E+03  0.14068786932E+03 -0.18546328898E+03  0.52845256123E+03  0.10100000352E+00 0. -1.
       -3    1    3    3    0  502  0.47441794985E+03 -0.14068786932E+03 -0.35716238475E+02  0.49612612067E+03  0.10100000352E+00 0.  1.
</event>
<event>
 5   0  0.2403037E-04  0.9992590E+03  0.7818609E-02  0.9309358E-01
        2   -1    0    0  501    0  0.00000000000E+00  0.00000000000E+00  0.21670458260E+04  0.21670458260E+04  0.25500000920E-02 0. -1.
       -2   -1    0    0    0  501  0.00000000000E+00  0.00000000000E+00 -0.11519352313E+03  0.11519352315E+03  0.25500000920E-02 0.  1.
    10030    2    1    2    0    0  0.00000000000E+00  0.00000000000E+00  0.20518523028E+04  0.22822393491E+04  0.99925901248E+03 0.  0.
        1    1    3    3  502    0  0.45595382732E+03 -0.36322423731E+02  0.56676820751E+03  0.72831271593E+03  0.50400001928E-02 0.  1.
       -1    1    3    3    0  502 -0.45595382732E+03  0.36322423731E+02  0.14850840953E+04  0.15539266332E+04  0.50400001928E-02 0. -1.
</event>
<event>
 5   0  0.1453863E-04  0.1000190E+04  0.7818609E-02  0.9308336E-01
        1   -1    0    0  501    0  0.00000000000E+00  0.00000000000E+00  0.72378515271E+03  0.72378515273E+03  0.50400001928E-02 0.  1.
       -1   -1    0    0    0  501  0.00000000000E+00  0.00000000000E+00 -0.34553774264E+03  0.34553774268E+03  0.50400001928E-02 0. -1.
    10030    2    1    2    0    0  0.00000000000E+00  0.00000000000E+00  0.37824741007E+03  0.10693228954E+04  0.10001901576E+04 0.  0.
        1    1    3    3  502    0  0.22259981208E+03 -0.18017881056E+03  0.62743667184E+03  0.68970418101E+03  0.50400001928E-02 0.  1.
       -1    1    3    3    0  502 -0.22259981208E+03  0.18017881056E+03 -0.24918926177E+03  0.37961871439E+03  0.50400001928E-02 0. -1.
</event>
<event>
 5   0  0.2473312E-04  0.1000159E+04  0.7818609E-02  0.9308371E-01
        2   -1    0    0  501    0  0.00000000000E+00  0.00000000000E+00  0.15745949830E+04  0.15745949830E+04  0.25500000920E-02 0.  1.
       -2   -1    0    0    0  501  0.00000000000E+00  0.00000000000E+00 -0.15882145987E+03  0.15882145989E+03  0.25500000920E-02 0. -1.
    10030    2    1    2    0    0  0.00000000000E+00  0.00000000000E+00  0.14157735231E+04  0.17334164429E+04  0.10001589352E+04 0.  0.
        5    1    3    3  502    0  0.37801186187E+03 -0.20668581166E+03  0.26790991191E+03  0.50735569708E+03  0.46999998093E+01 0. -1.
       -5    1    3    3    0  502 -0.37801186187E+03  0.20668581166E+03  0.11478636112E+04  0.12260607458E+04  0.46999998093E+01 0.  1.
</event>
<event>
 5   0  0.1461334E-04  0.9997240E+03  0.7818609E-02  0.9308848E-01
        1   -1    0    0  501    0  0.00000000000E+00  0.00000000000E+00  0.58115321984E+03  0.58115321986E+03  0.50400001928E-02 0. -1.
       -1   -1    0    0    0  501  0.00000000000E+00  0.00000000000E+00 -0.42994171874E+03  0.42994171877E+03  0.50400001928E-02 0.  1.
    10030    2    1    2    0    0  0.00000000000E+00  0.00000000000E+00  0.15121150110E+03  0.10110949386E+04  0.99972399034E+03 0.  0.
        2    1    3    3  502    0 -0.46584874712E+01 -0.49764491555E+03  0.28277649588E+02  0.49846944636E+03  0.25500000920E-02 0.  1.
       -2    1    3    3    0  502  0.46584874712E+01  0.49764491555E+03  0.12293385151E+03  0.51262549228E+03  0.25500000920E-02 0. -1.
</event>
<event>
 5   0  0.2484904E-04  0.1000270E+04  0.7818609E-02  0.9308249E-01
        2   -1    0    0  501    0  0.00000000000E+00  0.00000000000E+00  0.11450004977E+04  0.11450004977E+04  0.25500000920E-02 0. -1.
       -2   -1    0    0    0  501  0.00000000000E+00  0.00000000000E+00 -0.21845845249E+03  0.21845845251E+03  0.25500000920E-02 0.  1.
    10030    2    1    2    0    0  0.00000000000E+00  0.00000000000E+00  0.92654204524E+03  0.13634589502E+04  0.10002700372E+04 0.  0.
        3    1    3    3  502    0 -0.48435553464E+03  0.47290540275E+02  0.30608148145E+03  0.57491091712E+03  0.10100000352E+00 0.  1.
       -3    1    3    3    0  502  0.48435553464E+03 -0.47290540275E+02  0.62046056379E+03  0.78854803313E+03  0.10100000352E+00 0. -1.
</event>
<event>
 5   0  0.2503680E-04  0.1000192E+04  0.7818609E-02  0.9308334E-01
        2   -1    0    0  501    0  0.00000000000E+00  0.00000000000E+00  0.72387798289E+03  0.72387798289E+03  0.25500000920E-02 0.  1.
       -2   -1    0    0    0  501  0.00000000000E+00  0.00000000000E+00 -0.34549463756E+03  0.34549463757E+03  0.25500000920E-02 0. -1.
    10030    2    1    2    0    0  0.00000000000E+00  0.00000000000E+00  0.37838334532E+03  0.10693726205E+04  0.10001919043E+04 0.  0.
        2    1    3    3  502    0  0.19373398890E+03 -0.43838380006E+03  0.36548607082E+02  0.48067558218E+03  0.25500000920E-02 0. -1.
       -2    1    3    3    0  502 -0.19373398890E+03  0.43838380006E+03  0.34183473824E+03  0.58869703829E+03  0.25500000920E-02 0.  1.
</event>
<event>
 5   0  0.9650500E-05  0.1000925E+04  0.7818609E-02  0.9307531E-01
        4   -1    0    0  501    0  0.00000000000E+00  0.00000000000E+00  0.29192290283E+03  0.29192566536E+03  0.12699999809E+01 0. -1.
       -4   -1    0    0    0  501  0.00000000000E+00  0.00000000000E+00 -0.85796869676E+03  0.85796963671E+03  0.12699999809E+01 0.  1.
    10030    2    1    2    0    0  0.00000000000E+00  0.00000000000E+00 -0.56604579393E+03  0.11498953021E+04  0.10009252544E+04 0.  0.
        4    1    3    3  502    0  0.34052651948E+03 -0.33390628012E+02 -0.70260311725E+03  0.78148960184E+03  0.12699999809E+01 0.  1.
       -4    1    3    3    0  502 -0.34052651948E+03  0.33390628012E+02  0.13655732333E+03  0.36840570023E+03  0.12699999809E+01 0. -1.
</event>
<event>
 5   0  0.2473312E-04  0.1000269E+04  0.7818609E-02  0.9308249E-01
       -2   -1    0    0    0  501  0.00000000000E+00  0.00000000000E+00  0.16452617381E+03  0.16452617383E+03  0.25500000920E-02 0.  1.
        2   -1    0    0  501    0  0.00000000000E+00  0.00000000000E+00 -0.15203337981E+04  0.15203337981E+04  0.25500000920E-02 0. -1.
    10030    2    1    2    0    0  0.00000000000E+00  0.00000000000E+00 -0.13558076243E+04  0.16848599720E+04  0.10002693692E+04 0.  0.
        5    1    3    3  502    0 -0.39590194032E+03  0.27136897885E+02 -0.11905775708E+04  0.12549788045E+04  0.46999998093E+01 0. -1.
       -5    1    3    3    0  502  0.39590194032E+03 -0.27136897885E+02 -0.16523005350E+03  0.42988116748E+03  0.46999998093E+01 0.  1.
</event>
<event>
 5   0  0.2473312E-04  0.1000612E+04  0.7818609E-02  0.9307874E-01
       -2   -1    0    0    0  501  0.00000000000E+00  0.00000000000E+00  0.18301348015E+03  0.18301348017E+03  0.25500000920E-02 0. -1.
        2   -1    0    0  501    0  0.00000000000E+00  0.00000000000E+00 -0.13676913991E+04  0.13676913991E+04  0.25500000920E-02 0.  1.
    10030    2    1    2    0    0  0.00000000000E+00  0.00000000000E+00 -0.11846779189E+04  0.15507048793E+04  0.10006117383E+04 0.  0.
        5    1    3    3  502    0 -0.42644737176E+03  0.25795746080E+03 -0.52506344113E+03  0.72395657306E+03  0.46999998093E+01 0.  1.
       -5    1    3    3    0  502  0.42644737176E+03 -0.25795746080E+03 -0.65961447781E+03  0.82674830620E+03  0.46999998093E+01 0. -1.
</event>
<event>
 5   0  0.2484904E-04  0.1000889E+04  0.7818609E-02  0.9307570E-01
       -2   -1    0    0    0  501  0.00000000000E+00  0.00000000000E+00  0.15671526699E+04  0.15671526699E+04  0.25500000920E-02 0.  1.
        2   -1    0    0  501    0  0.00000000000E+00  0.00000000000E+00 -0.15980869930E+03  0.15980869932E+03  0.25500000920E-02 0. -1.
    10030    2    1    2    0    0  0.00000000000E+00  0.00000000000E+00  0.14073439706E+04  0.17269613693E+04  0.10008888646E+04 0.  0.
        3    1    3    3  502    0  0.24666590369E+03  0.20543338404E+03  0.41238795375E+02  0.32364732622E+03  0.10100000352E+00 0. -1.
       -3    1    3    3    0  502 -0.24666590369E+03 -0.20543338404E+03  0.13661051753E+04  0.14033140430E+04  0.10100000352E+00 0.  1.
</event>
<event>
 5   0  0.2403037E-04  0.1000093E+04  0.7818609E-02  0.9308443E-01
        2   -1    0    0  501    0  0.00000000000E+00  0.00000000000E+00  0.12966350243E+04  0.12966350243E+04  0.25500000920E-02 0. -1.
       -2   -1    0    0    0  501  0.00000000000E+00  0.00000000000E+00 -0.19284266993E+03  0.19284266994E+03  0.25500000920E-02 0.  1.
    10030    2    1    2    0    0  0.00000000000E+00  0.00000000000E+00  0.11037923544E+04  0.14894776943E+04  0.10000931157E+04 0.  0.
        1    1    3    3  502    0  0.13907006276E+03 -0.39870655491E+03  0.95080322721E+03  0.10403529094E+04  0.50400001928E-02 0.  1.
       -1    1    3    3    0  502 -0.13907006276E+03  0.39870655491E+03  0.15298912719E+03  0.44912478483E+03  0.50400001928E-02 0. -1.
</event>
<event>
 5   0  0.1430675E-04  0.1000179E+04  0.7818609E-02  0.9308349E-01
       -1   -1    0    0    0  501  0.00000000000E+00  0.00000000000E+00  0.55387958806E+03  0.55387958809E+03  0.50400001928E-02 0.  1.
        1   -1    0    0  501    0  0.00000000000E+00  0.00000000000E+00 -0.45152320838E+03  0.45152320841E+03  0.50400001928E-02 0. -1.
    10030    2    1    2    0    0  0.00000000000E+00  0.00000000000E+00  0.10235637969E+03  0.10054027965E+04  0.10001789614E+04 0.  0.
        5    1    3    3  502    0 -0.39682774493E+03  0.15649158418E+03 -0.21115518239E+03  0.47599419756E+03  0.46999998093E+01 0. -1.
       -5    1    3    3    0  502  0.39682774493E+03 -0.15649158418E+03  0.31351156207E+03  0.52940859893E+03  0.46999998093E+01 0.  1.
</event>
<event>
 5   0  0.1453863E-04  0.1000281E+04  0.7818609E-02  0.9308237E-01
       -1   -1    0    0    0  501  0.00000000000E+00  0.00000000000E+00  0.57536639077E+03  0.57536639079E+03  0.50400001928E-02 0.  1.
        1   -1    0    0  501    0  0.00000000000E+00  0.00000000000E+00 -0.43474961579E+03  0.43474961581E+03  0.50400001928E-02 0. -1.
    10030    2    1    2    0    0  0.00000000000E+00  0.00000000000E+00  0.14061677498E+03  0.10101160066E+04  0.10002805953E+04 0.  0.
        1    1    3    3  502    0 -0.30808238986E+02 -0.27186588347E+03 -0.35247287294E+03  0.44620324110E+03  0.50400001928E-02 0. -1.
       -1    1    3    3    0  502  0.30808238986E+02  0.27186588347E+03  0.49308964792E+03  0.56391276550E+03  0.50400001928E-02 0.  1.
</event>
<event>
 5   0  0.9650500E-05  0.1000588E+04  0.7818609E-02  0.9307900E-01
        3   -1    0    0  501    0  0.00000000000E+00  0.00000000000E+00  0.42933379501E+03  0.42933380689E+03  0.10100000352E+00 0. -1.
       -3   -1    0    0    0  501  0.00000000000E+00  0.00000000000E+00 -0.58298210185E+03  0.58298211060E+03  0.10100000352E+00 0.  1.
    10030    2    1    2    0    0  0.00000000000E+00  0.00000000000E+00 -0.15364830684E+03  0.10123159175E+04  0.10005876846E+04 0.  0.
        4    1    3    3  502    0 -0.76443291984E+02 -0.39035022544E+03  0.23017191577E+03  0.45956239957E+03  0.12699999809E+01 0. -1.
       -4    1    3    3    0  502  0.76443291984E+02  0.39035022544E+03 -0.38382022261E+03  0.55275351792E+03  0.12699999809E+01 0.  1.
</event>
<event>
 5   0  0.2503680E-04  0.9995934E+03  0.7818609E-02  0.9308991E-01
        2   -1    0    0  501    0  0.00000000000E+00  0.00000000000E+00  0.13010960958E+04  0.13010960958E+04  0.25500000920E-02 0.  1.
       -2   -1    0    0    0  501  0.00000000000E+00  0.00000000000E+00 -0.19198944590E+03  0.19198944592E+03  0.25500000920E-02 0. -1.
    10030    2    1    2    0    0  0.00000000000E+00  0.00000000000E+00  0.11091066499E+04  0.14930855417E+04  0.99959335435E+03 0.  0.
        2    1    3    3  502    0 -0.21918860729E+03 -0.26384893445E+03  0.11586564774E+02  0.34321152991E+03  0.25500000920E-02 0. -1.
       -2    1    3    3    0  502  0.21918860729E+03  0.26384893445E+03  0.10975200851E+04  0.11498740118E+04  0.25500000920E-02 0.  1.
</event>
<event>
 5   0  0.1461334E-04  0.9983879E+03  0.7818609E-02  0.9310315E-01
       -1   -1    0    0    0  501  0.00000000000E+00  0.00000000000E+00  0.38259856067E+03  0.38259856070E+03  0.50400001928E-02 0.  1.
        1   -1    0    0  501    0  0.00000000000E+00  0.00000000000E+00 -0.65132127240E+03  0.65132127242E+03  0.50400001928E-02 0. -1.
    10030    2    1    2    0    0  0.00000000000E+00  0.00000000000E+00 -0.26872271173E+03  0.10339198331E+04  0.99838786327E+03 0.  0.
        2    1    3    3  502    0  0.79761290056E+02  0.44327751930E+03  0.88561750362E+02  0.45902070339E+03  0.25500000920E-02 0.  1.
       -2    1    3    3    0  502 -0.79761290056E+02 -0.44327751930E+03 -0.35728446210E+03  0.57489912973E+03  0.25500000920E-02 0. -1.
</event>
<event>
 5   0  0.2403037E-04  0.9983568E+03  0.7818609E-02  0.9310349E-01
       -2   -1    0    0    0  501  0.00000000000E+00  0.00000000000E+00  0.71077927920E+03  0.71077927921E+03  0.25500000920E-02 0. -1.
        2   -1    0    0  501    0  0.00000000000E+00  0.00000000000E+00 -0.35057168195E+03  0.35057168196E+03  0.25500000920E-02 0.  1.
    10030    2    1    2    0    0  0.00000000000E+00  0.00000000000E+00  0.36020759725E+03  0.10613509612E+04  0.99835682482E+03 0.  0.
        1    1    3    3  502    0 -0.33893051138E+03  0.34201130986E+03  0.32006764046E+03  0.57817724109E+03  0.50400001928E-02 0. -1.
       -1    1    3    3    0  502  0.33893051138E+03 -0.34201130986E+03  0.40139956791E+02  0.48317372008E+03  0.50400001928E-02 0.  1.
</event>
<event>
 5   0  0.2473312E-04  0.9999023E+03  0.7818609E-02  0.9308652E-01
       -2   -1    0    0    0  501  0.00000000000E+00  0.00000000000E+00  0.53901299244E+03  0.53901299244E+03  0.25500000920E-02 0. -1.
        2   -1    0    0  501    0  0.00000000000E+00  0.00000000000E+00 -0.46372010731E+03  0.46372010732E+03  0.25500000920E-02 0.  1.
    10030    2    1    2    0    0  0.00000000000E+00  0.00000000000E+00  0.75292885124E+02  0.10027330998E+04  0.99990232063E+03 0.  0.
        5    1    3    3  502    0 -0.44146404838E+03 -0.11559923432E+03 -0.16707700113E+03  0.48599434492E+03  0.46999998093E+01 0.  1.
       -5    1    3    3    0  502  0.44146404838E+03  0.11559923432E+03  0.24236988625E+03  0.51673875484E+03  0.46999998093E+01 0. -1.
</event>
<event>
 5   0  0.9650500E-05  0.1000329E+04  0.7818609E-02  0.9308184E-01
       -3   -1    0    0    0  501  0.00000000000E+00  0.00000000000E+00  0.10815969654E+04  0.10815969701E+04  0.10100000352E+00 0. -1.
        3   -1    0    0  501    0  0.00000000000E+00  0.00000000000E+00 -0.23129179617E+03  0.23129181822E+03  0.10100000352E+00 0.  1.
    10030    2    1    2    0    0  0.00000000000E+00  0.00000000000E+00  0.85030516920E+03  0.13128887883E+04  0.10003289907E+04 0.  0.
        4    1    3    3  502    0  0.14066568668E+03 -0.47878029730E+03  0.38073214744E+03  0.62767506680E+03  0.12699999809E+01 0.  1.
       -4    1    3    3    0  502 -0.14066568668E+03  0.47878029730E+03  0.46957302176E+03  0.68521372151E+03  0.12699999809E+01 0. -1.
</event>
<event>
 5   0  0.1506454E-04  0.9991656E+03  0.7818609E-02  0.9309460E-01
        1   -1    0    0  501    0  0.00000000000E+00  0.00000000000E+00  0.71414003330E+03  0.71414003332E+03  0.50400001928E-02 0.  1.
       -1   -1    0    0    0  501  0.00000000000E+00  0.00000000000E+00 -0.34948746928E+03  0.34948746932E+03  0.50400001928E-02 0. -1.
    10030    2    1    2    0    0  0.00000000000E+00  0.00000000000E+00  0.36465256402E+03  0.10636275026E+04  0.99916563788E+03 0.  0.
        3    1    3    3  502    0 -0.38580737309E+03 -0.31250913876E+03  0.24134397522E+03  0.55204729464E+03  0.10100000352E+00 0.  1.
       -3    1    3    3    0  502  0.38580737309E+03  0.31250913876E+03  0.12330858880E+03  0.51158020799E+03  0.10100000352E+00 0. -1.
</event>
<event>
 5   0  0.1430675E-04  0.1000003E+04  0.7818609E-02  0.9308542E-01
        1   -1    0    0  501    0  0.00000000000E+00  0.00000000000E+00  0.16561665620E+04  0.16561665620E+04  0.50400001928E-02 0. -1.
       -1   -1    0    0    0  501  0.00000000000E+00  0.00000000000E+00 -0.15095188974E+03  0.15095188982E+03  0.50400001928E-02 0.  1.
    10030    2    1    2    0    0  0.00000000000E+00  0.00000000000E+00  0.15052146723E+04  0.18071184519E+04  0.10000029447E+04 0.  0.
        5    1    3    3  502    0  0.92268911633E+02 -0.40504540331E+03  0.12553748270E+04  0.13223325516E+04  0.46999998093E+01 0.  1.
       -5    1    3    3    0  502 -0.92268911633E+02  0.40504540331E+03  0.24983984532E+03  0.48478590027E+03  0.46999998093E+01 0. -1.
</event>
<event>
 5   0  0.2403037E-04  0.1000150E+04  0.7818609E-02  0.9308380E-01
        2   -1    0    0  501    0  0.00000000000E+00  0.00000000000E+00  0.13315857479E+04  0.13315857479E+04  0.25500000920E-02 0. -1.
       -2   -1    0    0    0  501  0.00000000000E+00  0.00000000000E+00 -0.18780242720E+03  0.18780242721E+03  0.25500000920E-02 0.  1.
    10030    2    1    2    0    0  0.00000000000E+00  0.00000000000E+00  0.11437833207E+04  0.15193881751E+04  0.10001500597E+04 0.  0.
        1    1    3    3  502    0 -0.35621236749E+03  0.11252246135E+03  0.66838902187E+02  0.37949439249E+03  0.50400001928E-02 0.  1.
       -1    1    3    3    0  502  0.35621236749E+03 -0.11252246135E+03  0.10769444185E+04  0.11398937826E+04  0.50400001928E-02 0. -1.
</event>
<event>
 5   0  0.2353916E-04  0.9998929E+03  0.7818609E-02  0.9308662E-01
        2   -1    0    0  501    0  0.00000000000E+00  0.00000000000E+00  0.52211213496E+03  0.52211213496E+03  0.25500000920E-02 0. -1.
       -2   -1    0    0    0  501  0.00000000000E+00  0.00000000000E+00 -0.47872178791E+03  0.47872178792E+03  0.25500000920E-02 0.  1.
    10030    2    1    2    0    0  0.00000000000E+00  0.00000000000E+00  0.43390347043E+02  0.10008339229E+04  0.99989290375E+03 0.  0.
        4    1    3    3  502    0 -0.45172928166E+02  0.17432179737E+03 -0.44513002888E+03  0.48017813152E+03  0.12699999809E+01 0.  1.
       -4    1    3    3    0  502  0.45172928166E+02 -0.17432179737E+03  0.48852037593E+03  0.52065579136E+03  0.12699999809E+01 0. -1.
</event>
<event>
 5   0  0.9650500E-05  0.9982741E+03  0.7818609E-02  0.9310440E-01
       -4   -1    0    0    0  501  0.00000000000E+00  0.00000000000E+00  0.33110559452E+03  0.33110803014E+03  0.12699999809E+01 0.  1.
        4   -1    0    0  501    0  0.00000000000E+00  0.00000000000E+00 -0.75243631366E+03  0.75243738544E+03  0.12699999809E+01 0. -1.
    10030    2    1    2    0    0  0.00000000000E+00  0.00000000000E+00 -0.42133071914E+03  0.10835454156E+04  0.99827405693E+03 0.  0.
        4    1    3    3  502    0  0.23070957712E+03 -0.19250286313E+03 -0.64327235676E+03  0.70998957679E+03  0.12699999809E+01 0. -1.
       -4    1    3    3    0  502 -0.23070957712E+03  0.19250286313E+03  0.22194163761E+03  0.37355583879E+03  0.12699999809E+01 0.  1.
</event>
<event>
 5   0  0.1461334E-04  0.1003341E+04  0.7818609E-02  0.9304888E-01
        1   -1    0    0  501    0  0.00000000000E+00  0.00000000000E+00  0.17192547134E+03  0.17192547141E+03  0.50400001928E-02 0.  1.
       -1   -1    0    0    0  501  0.00000000000E+00  0.00000000000E+00 -0.14638507108E+04  0.14638507108E+04  0.50400001928E-02 0. -1.
    10030    2    1    2    0    0  0.00000000000E+00  0.00000000000E+00 -0.12919252394E+04  0.16357761822E+04  0.10033408663E+04 0.  0.
        2    1    3    3  502    0 -0.37016608153E+03 -0.10786226610E+03 -0.11692349581E+04  0.12311651325E+04  0.25500000920E-02 0. -1.
       -2    1    3    3    0  502  0.37016608153E+03  0.10786226610E+03 -0.12269028135E+03  0.40461104966E+03  0.25500000920E-02 0.  1.
</event>
<event>
 5   0  0.2484904E-04  0.9999896E+03  0.7818609E-02  0.9308556E-01
       -2   -1    0    0    0  501  0.00000000000E+00  0.00000000000E+00  0.19150403260E+03  0.19150403262E+03  0.25500000920E-02 0.  1.
        2   -1    0    0  501    0  0.00000000000E+00  0.00000000000E+00 -0.13054284984E+04  0.13054284984E+04  0.25500000920E-02 0. -1.
    10030    2    1    2    0    0  0.00000000000E+00  0.00000000000E+00 -0.11139244658E+04  0.14969325310E+04  0.99998964342E+03 0.  0.
        3    1    3    3  502    0 -0.38343222389E+03  0.29445282412E+03 -0.36600847885E+03  0.60637030991E+03  0.10100000352E+00 0.  1.
       -3    1    3    3    0  502  0.38343222389E+03 -0.29445282412E+03 -0.74791598694E+03  0.89056222111E+03  0.10100000352E+00 0. -1.
</event>
<event>
 5   0  0.1414165E-04  0.1000037E+04  0.7818609E-02  0.9308504E-01
        1   -1    0    0  501    0  0.00000000000E+00  0.00000000000E+00  0.68839566773E+03  0.68839566775E+03  0.50400001928E-02 0.  1.
       -1   -1    0    0    0  501  0.00000000000E+00  0.00000000000E+00 -0.36319014878E+03  0.36319014882E+03  0.50400001928E-02 0. -1.
    10030    2    1    2    0    0  0.00000000000E+00  0.00000000000E+00  0.32520551895E+03  0.10515858166E+04  0.10000370493E+04 0.  0.
        4    1    3    3  502    0  0.26473245643E+03 -0.28809054911E+03  0.48999959656E+03  0.62704119124E+03  0.12699999809E+01 0.  1.
       -4    1    3    3    0  502 -0.26473245643E+03  0.28809054911E+03 -0.16479407762E+03  0.42454462533E+03  0.12699999809E+01 0. -1.
</event>
<event>
 5   0  0.2484904E-04  0.1001717E+04  0.7818609E-02  0.9306663E-01
       -2   -1    0    0    0  501  0.00000000000E+00  0.00000000000E+00  0.43768580335E+03  0.43768580336E+03  0.25500000920E-02 0. -1.
        2   -1    0    0  501    0  0.00000000000E+00  0.00000000000E+00 -0.57314932962E+03  0.57314932963E+03  0.25500000920E-02 0.  1.
    10030    2    1    2    0    0  0.00000000000E+00  0.00000000000E+00 -0.13546352627E+03  0.10108351330E+04  0.10017171752E+04 0.  0.
        3    1    3    3  502    0 -0.47470540642E+03 -0.44327212911E+02 -0.22258603618E+03  0.52616981896E+03  0.10100000352E+00 0.  1.
       -3    1    3    3    0  502  0.47470540642E+03  0.44327212911E+02  0.87122509910E+02  0.48466531403E+03  0.10100000352E+00 0. -1.
</event>
<event>
 5   0  0.1461334E-04  0.1000073E+04  0.7818609E-02  0.9308465E-01
       -1   -1    0    0    0  501  0.00000000000E+00  0.00000000000E+00  0.19057273391E+03  0.19057273398E+03  0.50400001928E-02 0.  1.
        1   -1    0    0  501    0  0.00000000000E+00  0.00000000000E+00 -0.13120258727E+04  0.13120258727E+04  0.50400001928E-02 0. -1.
    10030    2    1    2    0    0  0.00000000000E+00  0.00000000000E+00 -0.11214531388E+04  0.15025986067E+04  0.10000727125E+04 0.  0.
        2    1    3    3  502    0 -0.35411476944E+03  0.34514881543E+03 -0.67226940852E+03  0.83454846017E+03  0.25500000920E-02 0. -1.
       -2    1    3    3    0  502  0.35411476944E+03 -0.34514881543E+03 -0.44918373028E+03  0.66805014653E+03  0.25500000920E-02 0.  1.
</event>
<event>
 5   0  0.2403037E-04  0.1000218E+04  0.7818609E-02  0.9308306E-01
       -2   -1    0    0    0  501  0.00000000000E+00  0.00000000000E+00  0.81154965966E+03  0.81154965967E+03  0.25500000920E-02 0. -1.
        2   -1    0    0  501    0  0.00000000000E+00  0.00000000000E+00 -0.30818700302E+03  0.30818700303E+03  0.25500000920E-02 0.  1.
    10030    2    1    2    0    0  0.00000000000E+00  0.00000000000E+00  0.50336265664E+03  0.11197366627E+04  0.10002180911E+04 0.  0.
        1    1    3    3  502    0  0.15092552278E+03 -0.12285507181E+03 -0.26405998430E+03  0.32802371474E+03  0.50400001928E-02 0.  1.
       -1    1    3    3    0  502 -0.15092552278E+03  0.12285507181E+03  0.76742264095E+03  0.79171294795E+03  0.50400001928E-02 0. -1.
</event>
<event>
 5   0  0.2503680E-04  0.9995376E+03  0.7818609E-02  0.9309052E-01
        2   -1    0    0  501    0  0.00000000000E+00  0.00000000000E+00  0.18338093210E+04  0.18338093210E+04  0.25500000920E-02 0. -1.
       -2   -1    0    0    0  501  0.00000000000E+00  0.00000000000E+00 -0.13620218471E+03  0.13620218473E+03  0.25500000920E-02 0.  1.
    10030    2    1    2    0    0  0.00000000000E+00  0.00000000000E+00  0.16976071363E+04  0.19700115057E+04  0.99953756485E+03 0.  0.
        2    1    3    3  502    0  0.30983248156E+03  0.19776429280E+02  0.76912136008E+02  0.31984801149E+03  0.25500000920E-02 0.  1.
       -2    1    3    3    0  502 -0.30983248156E+03 -0.19776429280E+02  0.16206950003E+04  0.16501634942E+04  0.25500000920E-02 0. -1.
</event>
<event>
 5   0  0.1430675E-04  0.1001075E+04  0.7818609E-02  0.9307367E-01
       -1   -1    0    0    0  501  0.00000000000E+00  0.00000000000E+00  0.10900726960E+04  0.10900726960E+04  0.50400001928E-02 0. -1.
        1   -1    0    0  501    0  0.00000000000E+00  0.00000000000E+00 -0.22983570495E+03  0.22983570501E+03  0.50400001928E-02 0.  1.
    10030    2    1    2    0    0  0.00000000000E+00  0.00000000000E+00  0.86023699100E+03  0.13199084010E+04  0.10010746757E+04 0.  0.
        5    1    3    3  502    0  0.15398102174E+03 -0.11622372404E+03 -0.17881536861E+03  0.26308769476E+03  0.46999998093E+01 0.  1.
       -5    1    3    3    0  502 -0.15398102174E+03  0.11622372404E+03  0.10390523596E+04  0.10568207062E+04  0.46999998093E+01 0. -1.
</event>
<event>
 5   0  0.1414165E-04  0.9993954E+03  0.7818609E-02  0.9309208E-01
       -1   -1    0    0    0  501  0.00000000000E+00  0.00000000000E+00  0.17727423889E+03  0.17727423896E+03  0.50400001928E-02 0. -1.
        1   -1    0    0  501    0  0.00000000000E+00  0.00000000000E+00 -0.14085395152E+04  0.14085395152E+04  0.50400001928E-02 0.  1.
    10030    2    1    2    0    0  0.00000000000E+00  0.00000000000E+00 -0.12312652763E+04  0.15858137541E+04  0.99939535834E+03 0.  0.
        4    1    3    3  502    0  0.27846637994E+03  0.22178014964E+03 -0.59206240811E+02  0.36088357040E+03  0.12699999809E+01 0. -1.
       -4    1    3    3    0  502 -0.27846637994E+03 -0.22178014964E+03 -0.11720590355E+04  0.12249301838E+04  0.12699999809E+01 0.  1.
</event>
<event>
 5   0  0.9650500E-05  0.1000278E+04  0.7818609E-02  0.9308240E-01
       -3   -1    0    0    0  501  0.00000000000E+00  0.00000000000E+00  0.30756784711E+03  0.30756786369E+03  0.10100000352E+00 0. -1.
        3   -1    0    0  501    0  0.00000000000E+00  0.00000000000E+00 -0.81328130562E+03  0.81328131189E+03  0.10100000352E+00 0.  1.
    10030    2    1    2    0    0  0.00000000000E+00  0.00000000000E+00 -0.50571345851E+03  0.11208491756E+04  0.10002783474E+04 0.  0.
        4    1    3    3  502    0 -0.34814339592E+03  0.59302455480E+02 -0.64968670392E+03  0.73946942567E+03  0.12699999809E+01 0.  1.
       -4    1    3    3    0  502  0.34814339592E+03 -0.59302455480E+02  0.14397324541E+03  0.38137974992E+03  0.12699999809E+01 0. -1.
</event>
<event>
 5   0  0.2353916E-04  0.1000071E+04  0.7818609E-02  0.9308467E-01
       -2   -1    0    0    0  501  0.00000000000E+00  0.00000000000E+00  0.18944105546E+03  0.18944105548E+03  0.25500000920E-02 0.  1.
        2   -1    0    0  501    0  0.00000000000E+00  0.00000000000E+00 -0.13198598057E+04  0.13198598057E+04  0.25500000920E-02 0. -1.
    10030    2    1    2    0    0  0.00000000000E+00  0.00000000000E+00 -0.11304187502E+04  0.15093008612E+04  0.10000712668E+04 0.  0.
        4    1    3    3  502    0  0.20711417217E+03 -0.11131886169E+03  0.10079790858E+03  0.25583197719E+03  0.12699999809E+01 0.  1.
       -4    1    3    3    0  502 -0.20711417217E+03  0.11131886169E+03 -0.12312166588E+04  0.12534688840E+04  0.12699999809E+01 0. -1.
</event>
<event>
 5   0  0.2473312E-04  0.9999201E+03  0.7818609E-02  0.9308632E-01
       -2   -1    0    0    0  501  0.00000000000E+00  0.00000000000E+00  0.48107290867E+03  0.48107290868E+03  0.25500000920E-02 0.  1.
        2   -1    0    0  501    0  0.00000000000E+00  0.00000000000E+00 -0.51958872889E+03  0.51958872890E+03  0.25500000920E-02 0. -1.
    10030    2    1    2    0    0  0.00000000000E+00  0.00000000000E+00 -0.38515820221E+02  0.10006616376E+04  0.99992011907E+03 0.  0.
        5    1    3    3  502    0 -0.31921293990E+03  0.23949768183E+03  0.28209981055E+03  0.48873145357E+03  0.46999998093E+01 0.  1.
       -5    1    3    3    0  502  0.31921293990E+03 -0.23949768183E+03 -0.32061563077E+03  0.51193018400E+03  0.46999998093E+01 0. -1.
</event>
<event>
 5   0  0.1414165E-04  0.1001092E+04  0.7818609E-02  0.9307348E-01
        1   -1    0    0  501    0  0.00000000000E+00  0.00000000000E+00  0.47314100607E+03  0.47314100610E+03  0.50400001928E-02 0. -1.
       -1   -1    0    0    0  501  0.00000000000E+00  0.00000000000E+00 -0.52953858931E+03  0.52953858933E+03  0.50400001928E-02 0.  1.
    10030    2    1    2    0    0  0.00000000000E+00  0.00000000000E+00 -0.56397583233E+02  0.10026795954E+04  0.10010922454E+04 0.  0.
        4    1    3    3  502    0 -0.42798637721E+03  0.18395121705E+03 -0.21161320920E+03  0.51165628359E+03  0.12699999809E+01 0.  1.
       -4    1    3    3    0  502  0.42798637721E+03 -0.18395121705E+03  0.15521562597E+03  0.49102331184E+03  0.12699999809E+01 0. -1.
</event>
<event>
 5   0  0.2353916E-04  0.1003894E+04  0.7818609E-02  0.9304284E-01
       -2   -1    0    0    0  501  0.00000000000E+00  0.00000000000E+00  0.13960089663E+03  0.13960089665E+03  0.25500000920E-02 0.  1.
        2   -1    0    0  501    0  0.00000000000E+00  0.00000000000E+00 -0.18047937985E+04  0.18047937985E+04  0.25500000920E-02 0. -1.
    10030    2    1    2    0    0  0.00000000000E+00  0.00000000000E+00 -0.16651929018E+04  0.19443946951E+04  0.10038940831E+04 0.  0.
        4    1    3    3  502    0  0.46155414698E+03  0.44924901477E+02 -0.12046473123E+04  0.12908242473E+04  0.12699999809E+01 0. -1.
       -4    1    3    3    0  502 -0.46155414698E+03 -0.44924901477E+02 -0.46054558948E+03  0.65357044782E+03  0.12699999809E+01 0.  1.
</event>
<event>
 5   0  0.9650500E-05  0.1000506E+04  0.7818609E-02  0.9307990E-01
        3   -1    0    0  501    0  0.00000000000E+00  0.00000000000E+00  0.46652651280E+03  0.46652652373E+03  0.10100000352E+00 0.  1.
       -3   -1    0    0    0  501  0.00000000000E+00  0.00000000000E+00 -0.53641753438E+03  0.53641754389E+03  0.10100000352E+00 0. -1.
    10030    2    1    2    0    0  0.00000000000E+00  0.00000000000E+00 -0.69891021585E+02  0.10029440676E+04  0.10005058960E+04 0.  0.
        2    1    3    3  502    0 -0.31565158954E+03 -0.37144089032E+03 -0.14768625125E+03  0.50932846946E+03  0.25500000920E-02 0.  1.
       -2    1    3    3    0  502  0.31565158954E+03  0.37144089032E+03  0.77795229666E+02  0.49361559816E+03  0.25500000920E-02 0. -1.
</event>
<event>
 5   0  0.1506454E-04  0.9999149E+03  0.7818609E-02  0.9308638E-01
        1   -1    0    0  501    0  0.00000000000E+00  0.00000000000E+00  0.11623849720E+04  0.11623849721E+04  0.50400001928E-02 0. -1.
       -1   -1    0    0    0  501  0.00000000000E+00  0.00000000000E+00 -0.21503845168E+03  0.21503845174E+03  0.50400001928E-02 0.  1.
    10030    2    1    2    0    0  0.00000000000E+00  0.00000000000E+00  0.94734652036E+03  0.13774234238E+04  0.99991492577E+03 0.  0.
        3    1    3    3  502    0  0.22517258219E+03 -0.22259023768E+03 -0.59327002615E+02  0.32213166426E+03  0.10100000352E+00 0.  1.
       -3    1    3    3    0  502 -0.22517258219E+03  0.22259023768E+03  0.10066735230E+04  0.10552917595E+04  0.10100000352E+00 0. -1.
</event>
<event>
 5   0  0.1461334E-04  0.1000077E+04  0.7818609E-02  0.9308460E-01
        1   -1    0    0  501    0  0.00000000000E+00  0.00000000000E+00  0.34433522446E+03  0.34433522449E+03  0.50400001928E-02 0. -1.
       -1   -1    0    0    0  501  0.00000000000E+00  0.00000000000E+00 -0.72614853343E+03  0.72614853345E+03  0.50400001928E-02 0.  1.
    10030    2    1    2    0    0  0.00000000000E+00  0.00000000000E+00 -0.38181330897E+03  0.10704837579E+04  0.10000770336E+04 0.  0.
        2    1    3    3  502    0  0.25094639453E+03 -0.29743510370E+03  0.14520069108E+03  0.41536125787E+03  0.25500000920E-02 0. -1.
       -2    1    3    3    0  502 -0.25094639453E+03  0.29743510370E+03 -0.52701400005E+03  0.65512250007E+03  0.25500000920E-02 0.  1.
</event>
<event>
 5   0  0.1461334E-04  0.9998998E+03  0.7818609E-02  0.9308655E-01
       -1   -1    0    0    0  501  0.00000000000E+00  0.00000000000E+00  0.24664083509E+03  0.24664083514E+03  0.50400001928E-02 0. -1.
        1   -1    0    0  501    0  0.00000000000E+00  0.00000000000E+00 -0.10134165368E+04  0.10134165369E+04  0.50400001928E-02 0.  1.
    10030    2    1    2    0    0  0.00000000000E+00  0.00000000000E+00 -0.76677570175E+03  0.12600573720E+04  0.99989979693E+03 0.  0.
        2    1    3    3  502    0  0.41014242552E+03  0.23584703646E+03 -0.17976281195E+03  0.50611787400E+03  0.25500000920E-02 0. -1.
       -2    1    3    3    0  502 -0.41014242552E+03 -0.23584703646E+03 -0.58701288981E+03  0.75393949799E+03  0.25500000920E-02 0.  1.
</event>
<event>
 5   0  0.1453863E-04  0.1000280E+04  0.7818609E-02  0.9308238E-01
        1   -1    0    0  501    0  0.00000000000E+00  0.00000000000E+00  0.52135604488E+03  0.52135604490E+03  0.50400001928E-02 0. -1.
       -1   -1    0    0    0  501  0.00000000000E+00  0.00000000000E+00 -0.47978692020E+03  0.47978692022E+03  0.50400001928E-02 0.  1.
    10030    2    1    2    0    0  0.00000000000E+00  0.00000000000E+00  0.41569124680E+02  0.10011429651E+04  0.10002795832E+04 0.  0.
        1    1    3    3  502    0 -0.34884201592E+03 -0.30082532808E+03 -0.17419935278E+03  0.49247542539E+03  0.50400001928E-02 0.  1.
       -1    1    3    3    0  502  0.34884201592E+03  0.30082532808E+03  0.21576847746E+03  0.50866753973E+03  0.50400001928E-02 0. -1.
</event>
<event>
 5   0  0.1430675E-04  0.9995860E+03  0.7818609E-02  0.9308999E-01
        1   -1    0    0  501    0  0.00000000000E+00  0.00000000000E+00  0.55078585184E+03  0.55078585186E+03  0.50400001928E-02 0. -1.
       -1   -1    0    0    0  501  0.00000000000E+00  0.00000000000E+00 -0.45352114493E+03  0.45352114496E+03  0.50400001928E-02 0.  1.
    10030    2    1    2    0    0  0.00000000000E+00  0.00000000000E+00  0.97264706905E+02  0.10043069968E+04  0.99958597462E+03 0.  0.
        5    1    3    3  502    0 -0.18917783663E+03 -0.78490498207E+02  0.50666034430E+03  0.54651240303E+03  0.46999998093E+01 0. -1.
       -5    1    3    3    0  502  0.18917783663E+03  0.78490498207E+02 -0.40939563740E+03  0.45779459379E+03  0.46999998093E+01 0.  1.
</event>
<event>
 5   0  0.1461334E-04  0.9982347E+03  0.7818609E-02  0.9310483E-01
        1   -1    0    0  501    0  0.00000000000E+00  0.00000000000E+00  0.74450374697E+03  0.74450374699E+03  0.50400001928E-02 0.  1.
       -1   -1    0    0    0  501  0.00000000000E+00  0.00000000000E+00 -0.33460961793E+03  0.33460961797E+03  0.50400001928E-02 0. -1.
    10030    2    1    2    0    0  0.00000000000E+00  0.00000000000E+00  0.40989412904E+03  0.10791133650E+04  0.99823467051E+03 0.  0.
        2    1    3    3  502    0 -0.49220661989E+03  0.48858887888E+02  0.27717005037E+03  0.56699010963E+03  0.25500000920E-02 0. -1.
       -2    1    3    3    0  502  0.49220661989E+03 -0.48858887888E+02  0.13272407868E+03  0.51212325533E+03  0.25500000920E-02 0.  1.
</event>
<event>
 5   0  0.2353916E-04  0.9932897E+03  0.7818609E-02  0.9315935E-01
        2   -1    0    0  501    0  0.00000000000E+00  0.00000000000E+00  0.10991176089E+04  0.10991176089E+04  0.25500000920E-02 0. -1.
       -2   -1    0    0    0  501  0.00000000000E+00  0.00000000000E+00 -0.22441285510E+03  0.22441285512E+03  0.25500000920E-02 0.  1.
    10030    2    1    2    0    0  0.00000000000E+00  0.00000000000E+00  0.87470475382E+03  0.13235304640E+04  0.99328972757E+03 0.  0.
        4    1    3    3  502    0 -0.39055306324E+03  0.57854681026E+02  0.83881274460E+03  0.92708537510E+03  0.12699999809E+01 0. -1.
       -4    1    3    3    0  502  0.39055306324E+03 -0.57854681026E+02  0.35892009222E+02  0.39644508894E+03  0.12699999809E+01 0.  1.
</event>
<event>
 5   0  0.2353916E-04  0.9998124E+03  0.7818609E-02  0.9308751E-01
       -2   -1    0    0    0  501  0.00000000000E+00  0.00000000000E+00  0.85514744655E+02  0.85514744693E+02  0.25500000920E-02 0.  1.
        2   -1    0    0  501    0  0.00000000000E+00  0.00000000000E+00 -0.29223756446E+04  0.29223756446E+04  0.25500000920E-02 0. -1.
    10030    2    1    2    0    0  0.00000000000E+00  0.00000000000E+00 -0.28368608999E+04  0.30078903893E+04  0.99981239658E+03 0.  0.
        4    1    3    3  502    0  0.10703337230E+03  0.13004612523E+03 -0.28344397035E+04  0.28394397657E+04  0.12699999809E+01 0. -1.
       -4    1    3    3    0  502 -0.10703337230E+03 -0.13004612523E+03 -0.24211963900E+01  0.16845062352E+03  0.12699999809E+01 0.  1.
</event>
<event>
 5   0  0.2403037E-04  0.1000072E+04  0.7818609E-02  0.9308465E-01
        2   -1    0    0  501    0  0.00000000000E+00  0.00000000000E+00  0.64620000650E+03  0.64620000650E+03  0.25500000920E-02 0.  1.
       -2   -1    0    0    0  501  0.00000000000E+00  0.00000000000E+00 -0.38693314219E+03  0.38693314220E+03  0.25500000920E-02 0. -1.
    10030    2    1    2    0    0  0.00000000000E+00  0.00000000000E+00  0.25926686430E+03  0.10331331487E+04  0.10000723954E+04 0.  0.
        1    1    3    3  502    0  0.37500709567E+03 -0.26952190127E+03 -0.68444084922E+02  0.46685861870E+03  0.50400001928E-02 0. -1.
       -1    1    3    3    0  502 -0.37500709567E+03  0.26952190127E+03  0.32771094922E+03  0.56627453001E+03  0.50400001928E-02 0.  1.
</event>
<event>
 5   0  0.1414165E-04  0.9995668E+03  0.7818609E-02  0.9309020E-01
        1   -1    0    0  501    0  0.00000000000E+00  0.00000000000E+00  0.16686345179E+04  0.16686345179E+04  0.50400001928E-02 0. -1.
       -1   -1    0    0    0  501  0.00000000000E+00  0.00000000000E+00 -0.14969332100E+03  0.14969332109E+03  0.50400001928E-02 0.  1.
    10030    2    1    2    0    0  0.00000000000E+00  0.00000000000E+00  0.15189411969E+04  0.18183278390E+04  0.99956679139E+03 0.  0.
        4    1    3    3  502    0  0.88728149267E+02  0.48921352361E+03  0.66708397992E+03  0.83198870504E+03  0.12699999809E+01 0.  1.
       -4    1    3    3    0  502 -0.88728149267E+02 -0.48921352361E+03  0.85185721700E+03  0.98633913397E+03  0.12699999809E+01 0. -1.
</event>
<event>
 5   0  0.1414165E-04  0.9999066E+03  0.7818609E-02  0.9308647E-01
       -1   -1    0    0    0  501  0.00000000000E+00  0.00000000000E+00  0.12466759152E+03  0.12466759162E+03  0.50400001928E-02 0. -1.
        1   -1    0    0  501    0  0.00000000000E+00  0.00000000000E+00 -0.20049580446E+04  0.20049580446E+04  0.50400001928E-02 0.  1.
    10030    2    1    2    0    0  0.00000000000E+00  0.00000000000E+00 -0.18802904531E+04  0.21296256362E+04  0.99990657691E+03 0.  0.
        4    1    3    3  502    0  0.44571717462E+03 -0.22583122093E+03 -0.90399226885E+03  0.10328926252E+04  0.12699999809E+01 0.  1.
       -4    1    3    3    0  502 -0.44571717462E+03  0.22583122093E+03 -0.97629818422E+03  0.10967330110E+04  0.12699999809E+01 0. -1.
</event>
<event>
 5   0  0.2473312E-04  0.1000096E+04  0.7818609E-02  0.9308439E-01
        2   -1    0    0  501    0  0.00000000000E+00  0.00000000000E+00  0.45445254946E+03  0.45445254946E+03  0.25500000920E-02 0. -1.
       -2   -1    0    0    0  501  0.00000000000E+00  0.00000000000E+00 -0.55021852020E+03  0.55021852020E+03  0.25500000920E-02 0.  1.
    10030    2    1    2    0    0  0.00000000000E+00  0.00000000000E+00 -0.95765970741E+02  0.10046710697E+04  0.10000964139E+04 0.  0.
        5    1    3    3  502    0  0.15820069700E+03 -0.42328342791E+03  0.16717521139E+03  0.48183603246E+03  0.46999998093E+01 0. -1.
       -5    1    3    3    0  502 -0.15820069700E+03  0.42328342791E+03 -0.26294118213E+03  0.52283503721E+03  0.46999998093E+01 0.  1.
</event>
<event>
 5   0  0.1430675E-04  0.9999771E+03  0.7818609E-02  0.9308570E-01
        1   -1    0    0  501    0  0.00000000000E+00  0.00000000000E+00  0.28866849552E+03  0.28866849556E+03  0.50400001928E-02 0. -1.
       -1   -1    0    0    0  501  0.00000000000E+00  0.00000000000E+00 -0.86600568853E+03  0.86600568854E+03  0.50400001928E-02 0.  1.
    10030    2    1    2    0    0  0.00000000000E+00  0.00000000000E+00 -0.57733719301E+03  0.11546741841E+04  0.99997711824E+03 0.  0.
        5    1    3    3  502    0 -0.34290218201E+03  0.85907612675E+00  0.13146446218E+03  0.36727052598E+03  0.46999998093E+01 0. -1.
       -5    1    3    3    0  502  0.34290218201E+03 -0.85907612675E+00 -0.70880165519E+03  0.78740365813E+03  0.46999998093E+01 0.  1.
</event>
<event>
 5   0  0.1430675E-04  0.1000046E+04  0.7818609E-02  0.9308494E-01
       -1   -1    0    0    0  501  0.00000000000E+00  0.00000000000E+00  0.30092818880E+03  0.30092818884E+03  0.50400001928E-02 0. -1.
        1   -1    0    0  501    0  0.00000000000E+00  0.00000000000E+00 -0.83083979740E+03  0.83083979742E+03  0.50400001928E-02 0.  1.
    10030    2    1    2    0    0  0.00000000000E+00  0.00000000000E+00 -0.52991160860E+03  0.11317679863E+04  0.10000462298E+04 0.  0.
        5    1    3    3  502    0 -0.44230421194E+03 -0.23302148968E+03 -0.25555541564E+03  0.56148258300E+03  0.46999998093E+01 0.  1.
       -5    1    3    3    0  502  0.44230421194E+03  0.23302148968E+03 -0.27435619296E+03  0.57028540326E+03  0.46999998093E+01 0. -1.
</event>
<event>
 5   0  0.2503680E-04  0.1000382E+04  0.7818609E-02  0.9308125E-01
        2   -1    0    0  501    0  0.00000000000E+00  0.00000000000E+00  0.88139948497E+03  0.88139948498E+03  0.25500000920E-02 0. -1.
       -2   -1    0    0    0  501  0.00000000000E+00  0.00000000000E+00 -0.28385681981E+03  0.28385681982E+03  0.25500000920E-02 0.  1.
    10030    2    1    2    0    0  0.00000000000E+00  0.00000000000E+00  0.59754266516E+03  0.11652563048E+04  0.10003824365E+04 0.  0.
        2    1    3    3  502    0 -0.10793164577E+03 -0.32024040968E+03 -0.13077087770E+03  0.36235919005E+03  0.25500000920E-02 0.  1.
       -2    1    3    3    0  502  0.10793164577E+03  0.32024040968E+03  0.72831354286E+03  0.80289711475E+03  0.25500000920E-02 0. -1.
</event>
<event>
 5   0  0.1506454E-04  0.9999689E+03  0.7818609E-02  0.9308579E-01
        1   -1    0    0  501    0  0.00000000000E+00  0.00000000000E+00  0.21143324823E+04  0.21143324824E+04  0.50400001928E-02 0.  1.
       -1   -1    0    0    0  501  0.00000000000E+00  0.00000000000E+00 -0.11823326676E+03  0.11823326687E+03  0.50400001928E-02 0. -1.
    10030    2    1    2    0    0  0.00000000000E+00  0.00000000000E+00  0.19960992156E+04  0.22325657492E+04  0.99996887258E+03 0.  0.
        3    1    3    3  502    0  0.20864812978E+03  0.42636322805E+03  0.64741367712E+03  0.80278522895E+03  0.10100000352E+00 0. -1.
       -3    1    3    3    0  502 -0.20864812978E+03 -0.42636322805E+03  0.13486855385E+04  0.14297805203E+04  0.10100000352E+00 0.  1.
</event>
<event>
 5   0  0.2484904E-04  0.1000816E+04  0.7818609E-02  0.9307651E-01
       -2   -1    0    0    0  501  0.00000000000E+00  0.00000000000E+00  0.24529981794E+03  0.24529981795E+03  0.25500000920E-02 0. -1.
        2   -1    0    0  501    0  0.00000000000E+00  0.00000000000E+00 -0.10208241191E+04  0.10208241191E+04  0.25500000920E-02 0.  1.
    10030    2    1    2    0    0  0.00000000000E+00  0.00000000000E+00 -0.77552430114E+03  0.12661239370E+04  0.10008156085E+04 0.  0.
        3    1    3    3  502    0 -0.37745999997E+02  0.12013004638E+03  0.22492912152E+03  0.25777724583E+03  0.10100000352E+00 0. -1.
       -3    1    3    3    0  502  0.37745999997E+02 -0.12013004638E+03 -0.10004534227E+04  0.10083466912E+04  0.10100000352E+00 0.  1.
</event>
<event>
 5   0  0.9650500E-05  0.9997584E+03  0.7818609E-02  0.9308810E-01
       -3   -1    0    0    0  501  0.00000000000E+00  0.00000000000E+00  0.73108806369E+03  0.73108807066E+03  0.10100000352E+00 0. -1.
        3   -1    0    0  501    0  0.00000000000E+00  0.00000000000E+00 -0.34179083363E+03  0.34179084856E+03  0.10100000352E+00 0.  1.
    10030    2    1    2    0    0  0.00000000000E+00  0.00000000000E+00  0.38929723005E+03  0.10728789192E+04  0.99975839180E+03 0.  0.
        4    1    3    3  502    0  0.29708147571E+03  0.11843112642E+03  0.60692683443E+03  0.68603580823E+03  0.12699999809E+01 0. -1.
       -4    1    3    3    0  502 -0.29708147571E+03 -0.11843112642E+03 -0.21762960438E+03  0.38684311099E+03  0.12699999809E+01 0.  1.
</event>
<event>
 5   0  0.2353916E-04  0.9989236E+03  0.7818609E-02  0.9309726E-01
       -2   -1    0    0    0  501  0.00000000000E+00  0.00000000000E+00  0.10584254018E+04  0.10584254019E+04  0.25500000920E-02 0. -1.
        2   -1    0    0  501    0  0.00000000000E+00  0.00000000000E+00 -0.23569169037E+03  0.23569169039E+03  0.25500000920E-02 0.  1.
    10030    2    1    2    0    0  0.00000000000E+00  0.00000000000E+00  0.82273371147E+03  0.12941170922E+04  0.99892356486E+03 0.  0.
        4    1    3    3  502    0 -0.38464660514E+03 -0.29619253460E+03  0.56343051397E+03  0.74373287232E+03  0.12699999809E+01 0. -1.
       -4    1    3    3    0  502  0.38464660514E+03  0.29619253460E+03  0.25930319751E+03  0.55038421992E+03  0.12699999809E+01 0.  1.
</event>
<event>
 5   0  0.2353916E-04  0.9999520E+03  0.7818609E-02  0.9308597E-01
       -2   -1    0    0    0  501  0.00000000000E+00  0.00000000000E+00  0.51958024185E+03  0.51958024185E+03  0.25500000920E-02 0.  1.
        2   -1    0    0  501    0  0.00000000000E+00  0.00000000000E+00 -0.48111139924E+03  0.48111139925E+03  0.25500000920E-02 0. -1.
    10030    2    1    2    0    0  0.00000000000E+00  0.00000000000E+00  0.38468842607E+02  0.10006916411E+04  0.99995195321E+03 0.  0.
        4    1    3    3  502    0  0.55797385820E+02  0.18588255736E+03  0.48034493570E+03  0.51807194824E+03  0.12699999809E+01 0.  1.
       -4    1    3    3    0  502 -0.55797385820E+02 -0.18588255736E+03 -0.44187609310E+03  0.48261969287E+03  0.12699999809E+01 0. -1.
</event>
<event>
 5   0  0.1461334E-04  0.1000593E+04  0.7818609E-02  0.9307894E-01
        1   -1    0    0  501    0  0.00000000000E+00  0.00000000000E+00  0.10380635042E+04  0.10380635042E+04  0.50400001928E-02 0.  1.
       -1   -1    0    0    0  501  0.00000000000E+00  0.00000000000E+00 -0.24111885473E+03  0.24111885478E+03  0.50400001928E-02 0. -1.
    10030    2    1    2    0    0  0.00000000000E+00  0.00000000000E+00  0.79694464950E+03  0.12791823590E+04  0.10005931907E+04 0.  0.
        2    1    3    3  502    0 -0.42206515459E+03 -0.12063500398E+03  0.70530709588E+03  0.83075260963E+03  0.25500000920E-02 0.  1.
       -2    1    3    3    0  502  0.42206515459E+03  0.12063500398E+03  0.91637553618E+02  0.44842974940E+03  0.25500000920E-02 0. -1.
</event>
<event>
 5   0  0.2403037E-04  0.1000110E+04  0.7818609E-02  0.9308424E-01
       -2   -1    0    0    0  501  0.00000000000E+00  0.00000000000E+00  0.46900025328E+03  0.46900025329E+03  0.25500000920E-02 0. -1.
        2   -1    0    0  501    0  0.00000000000E+00  0.00000000000E+00 -0.53316622415E+03  0.53316622416E+03  0.25500000920E-02 0.  1.
    10030    2    1    2    0    0  0.00000000000E+00  0.00000000000E+00 -0.64165970868E+02  0.10021664774E+04  0.10001101823E+04 0.  0.
        1    1    3    3  502    0 -0.41345971556E+03 -0.27463346715E+03  0.28726351642E+02  0.49718978365E+03  0.50400001928E-02 0.  1.
       -1    1    3    3    0  502  0.41345971556E+03  0.27463346715E+03 -0.92892322510E+02  0.50497669379E+03  0.50400001928E-02 0. -1.
</event>
<event>
 5   0  0.1453863E-04  0.1000019E+04  0.7818609E-02  0.9308524E-01
        1   -1    0    0  501    0  0.00000000000E+00  0.00000000000E+00  0.10639487012E+04  0.10639487012E+04  0.50400001928E-02 0.  1.
       -1   -1    0    0    0  501  0.00000000000E+00  0.00000000000E+00 -0.23498243852E+03  0.23498243857E+03  0.50400001928E-02 0. -1.
    10030    2    1    2    0    0  0.00000000000E+00  0.00000000000E+00  0.82896626263E+03  0.12989311397E+04  0.10000185204E+04 0.  0.
        1    1    3    3  502    0  0.89434641154E+01 -0.46866419331E+03  0.64051964448E+03  0.79372005558E+03  0.50400001928E-02 0. -1.
       -1    1    3    3    0  502 -0.89434641154E+01  0.46866419331E+03  0.18844661815E+03  0.50521108416E+03  0.50400001928E-02 0.  1.
</event>
<event>
 5   0  0.1430675E-04  0.9981555E+03  0.7818609E-02  0.9310570E-01
        1   -1    0    0  501    0  0.00000000000E+00  0.00000000000E+00  0.74614648307E+03  0.74614648309E+03  0.50400001928E-02 0. -1.
       -1   -1    0    0    0  501  0.00000000000E+00  0.00000000000E+00 -0.33382000379E+03  0.33382000383E+03  0.50400001928E-02 0.  1.
    10030    2    1    2    0    0  0.00000000000E+00  0.00000000000E+00  0.41232647928E+03  0.10799664869E+04  0.99815554267E+03 0.  0.
        5    1    3    3  502    0  0.17158309202E+03  0.11713738688E+03 -0.28478368258E+03  0.35254185671E+03  0.46999998093E+01 0.  1.
       -5    1    3    3    0  502 -0.17158309202E+03 -0.11713738688E+03  0.69711016185E+03  0.72742463021E+03  0.46999998093E+01 0. -1.
</event>
<event>
 5   0  0.2403037E-04  0.1002453E+04  0.7818609E-02  0.9305858E-01
        2   -1    0    0  501    0  0.00000000000E+00  0.00000000000E+00  0.86529244524E+03  0.86529244524E+03  0.25500000920E-02 0.  1.
       -2   -1    0    0    0  501  0.00000000000E+00  0.00000000000E+00 -0.29033889423E+03  0.29033889424E+03  0.25500000920E-02 0. -1.
    10030    2    1    2    0    0  0.00000000000E+00  0.00000000000E+00  0.57495355101E+03  0.11556313395E+04  0.10024530947E+04 0.  0.
        1    1    3    3  502    0 -0.24048586952E+03 -0.34427398796E+03 -0.27957747383E+02  0.42087963587E+03  0.50400001928E-02 0.  1.
       -1    1    3    3    0  502  0.24048586952E+03  0.34427398796E+03  0.60291129839E+03  0.73475170362E+03  0.50400001928E-02 0. -1.
</event>
<event>
 5   0  0.1430675E-04  0.1000193E+04  0.7818609E-02  0.9308333E-01
       -1   -1    0    0    0  501  0.00000000000E+00  0.00000000000E+00  0.25612583724E+03  0.25612583729E+03  0.50400001928E-02 0.  1.
        1   -1    0    0  501    0  0.00000000000E+00  0.00000000000E+00 -0.97645899772E+03  0.97645899773E+03  0.50400001928E-02 0. -1.
    10030    2    1    2    0    0  0.00000000000E+00  0.00000000000E+00 -0.72033316048E+03  0.12325848350E+04  0.10001927382E+04 0.  0.
        5    1    3    3  502    0  0.16583728025E+03 -0.31442104929E+02 -0.94026543403E+03  0.95530716836E+03  0.46999998093E+01 0. -1.
       -5    1    3    3    0  502 -0.16583728025E+03  0.31442104929E+02  0.21993227355E+03  0.27727766667E+03  0.46999998093E+01 0.  1.
</event>
<event>
 5   0  0.1506454E-04  0.9992162E+03  0.7818609E-02  0.9309405E-01
       -1   -1    0    0    0  501  0.00000000000E+00  0.00000000000E+00  0.16328986166E+03  0.16328986174E+03  0.50400001928E-02 0. -1.
        1   -1    0    0  501    0  0.00000000000E+00  0.00000000000E+00 -0.15286205241E+04  0.15286205241E+04  0.50400001928E-02 0.  1.
    10030    2    1    2    0    0  0.00000000000E+00  0.00000000000E+00 -0.13653306624E+04  0.16919103858E+04  0.99921616075E+03 0.  0.
        3    1    3    3  502    0  0.46872384148E+03  0.99336691467E+02 -0.92235509752E+03  0.10393790232E+04  0.10100000352E+00 0.  1.
       -3    1    3    3    0  502 -0.46872384148E+03 -0.99336691467E+02 -0.44297556490E+03  0.65253136258E+03  0.10100000352E+00 0. -1.
</event>
<event>
 5   0  0.1414165E-04  0.9991067E+03  0.7818609E-02  0.9309525E-01
       -1   -1    0    0    0  501  0.00000000000E+00  0.00000000000E+00  0.15634426492E+03  0.15634426500E+03  0.50400001928E-02 0.  1.
        1   -1    0    0  501    0  0.00000000000E+00  0.00000000000E+00 -0.15961797314E+04  0.15961797314E+04  0.50400001928E-02 0. -1.
    10030    2    1    2    0    0  0.00000000000E+00  0.00000000000E+00 -0.14398354665E+04  0.17525239964E+04  0.99910669472E+03 0.  0.
        4    1    3    3  502    0 -0.30077486519E+03  0.35246384978E+03 -0.39243478533E+03  0.60720915554E+03  0.12699999809E+01 0.  1.
       -4    1    3    3    0  502  0.30077486519E+03 -0.35246384978E+03 -0.10474006812E+04  0.11453148409E+04  0.12699999809E+01 0. -1.
</event>
<event>
 5   0  0.2473312E-04  0.1000662E+04  0.7818609E-02  0.9307820E-01
        2   -1    0    0  501    0  0.00000000000E+00  0.00000000000E+00  0.14008269230E+04  0.14008269230E+04  0.25500000920E-02 0.  1.
       -2   -1    0    0    0  501  0.00000000000E+00  0.00000000000E+00 -0.17870221058E+03  0.17870221059E+03  0.25500000920E-02 0. -1.
    10030    2    1    2    0    0  0.00000000000E+00  0.00000000000E+00  0.12221247124E+04  0.15795291336E+04  0.10006615168E+04 0.  0.
        5    1    3    3  502    0 -0.23174902463E+03 -0.43917966474E+03  0.70736791316E+03  0.86427879929E+03  0.46999998093E+01 0. -1.
       -5    1    3    3    0  502  0.23174902463E+03  0.43917966474E+03  0.51475679926E+03  0.71525033430E+03  0.46999998093E+01 0.  1.
</event>
<event>
 5   0  0.2403037E-04  0.9991729E+03  0.7818609E-02  0.9309452E-01
       -2   -1    0    0    0  501  0.00000000000E+00  0.00000000000E+00  0.18385841677E+03  0.18385841679E+03  0.25500000920E-02 0.  1.
        2   -1    0    0  501    0  0.00000000000E+00  0.00000000000E+00 -0.13574935204E+04  0.13574935204E+04  0.25500000920E-02 0. -1.
    10030    2    1    2    0    0  0.00000000000E+00  0.00000000000E+00 -0.11736351036E+04  0.15413519372E+04  0.99917287682E+03 0.  0.
        1    1    3    3  502    0 -0.68897683934E+02 -0.46806681566E+03 -0.83437532227E+03  0.95917444358E+03  0.50400001928E-02 0.  1.
       -1    1    3    3    0  502  0.68897683934E+02  0.46806681566E+03 -0.33925978132E+03  0.58217749357E+03  0.50400001928E-02 0. -1.
</event>
<event>
 5   0  0.1461334E-04  0.1000454E+04  0.7818609E-02  0.9308047E-01
       -1   -1    0    0    0  501  0.00000000000E+00  0.00000000000E+00  0.54186043609E+03  0.54186043611E+03  0.50400001928E-02 0. -1.
        1   -1    0    0  501    0  0.00000000000E+00  0.00000000000E+00 -0.46179240026E+03  0.46179240029E+03  0.50400001928E-02 0.  1.
    10030    2    1    2    0    0  0.00000000000E+00  0.00000000000E+00  0.80068035826E+02  0.10036528364E+04  0.10004539598E+04 0.  0.
        2    1    3    3  502    0  0.26431114630E+03  0.12475092228E+03 -0.36722442288E+03  0.46933671435E+03  0.25500000920E-02 0.  1.
       -2    1    3    3    0  502 -0.26431114630E+03 -0.12475092228E+03  0.44729245871E+03  0.53431612206E+03  0.25500000920E-02 0. -1.
</event>
<event>
 5   0  0.1430675E-04  0.9995802E+03  0.7818609E-02  0.9309005E-01
        1   -1    0    0  501    0  0.00000000000E+00  0.00000000000E+00  0.25624174657E+04  0.25624174657E+04  0.50400001928E-02 0.  1.
       -1   -1    0    0    0  501  0.00000000000E+00  0.00000000000E+00 -0.97482214549E+02  0.97482214680E+02  0.50400001928E-02 0. -1.
    10030    2    1    2    0    0  0.00000000000E+00  0.00000000000E+00  0.24649352511E+04  0.26598996803E+04  0.99958017053E+03 0.  0.
        5    1    3    3  502    0 -0.41415890233E+03  0.92730051035E+02  0.53023349296E+03  0.67918782807E+03  0.46999998093E+01 0. -1.
       -5    1    3    3    0  502  0.41415890233E+03 -0.92730051035E+02  0.19347017581E+04  0.19807118523E+04  0.46999998093E+01 0.  1.
</event>
<event>
 5   0  0.2484904E-04  0.9997941E+03  0.7818609E-02  0.9308771E-01
       -2   -1    0    0    0  501  0.00000000000E+00  0.00000000000E+00  0.20472645637E+03  0.20472645639E+03  0.25500000920E-02 0.  1.
        2   -1    0    0  501    0  0.00000000000E+00  0.00000000000E+00 -0.12206387936E+04  0.12206387936E+04  0.25500000920E-02 0. -1.
    10030    2    1    2    0    0  0.00000000000E+00  0.00000000000E+00 -0.10159123372E+04  0.14253652500E+04  0.99979408828E+03 0.  0.
        3    1    3    3  502    0 -0.29136024828E+03  0.40465946352E+03 -0.55850112881E+03  0.74870795159E+03  0.10100000352E+00 0. -1.
       -3    1    3    3    0  502  0.29136024828E+03 -0.40465946352E+03 -0.45741120842E+03  0.67665729840E+03  0.10100000352E+00 0.  1.
</event>
<event>
 5   0  0.2403037E-04  0.9993790E+03  0.7818609E-02  0.9309226E-01
       -2   -1    0    0    0  501  0.00000000000E+00  0.00000000000E+00  0.20234919241E+03  0.20234919243E+03  0.25500000920E-02 0.  1.
        2   -1    0    0  501    0  0.00000000000E+00  0.00000000000E+00 -0.12339541082E+04  0.12339541082E+04  0.25500000920E-02 0. -1.
    10030    2    1    2    0    0  0.00000000000E+00  0.00000000000E+00 -0.10316049158E+04  0.14363033006E+04  0.99937904175E+03 0.  0.
        1    1    3    3  502    0 -0.67640105064E+02  0.30036664911E+03 -0.10814340428E+04  0.11244086876E+04  0.50400001928E-02 0. -1.
       -1    1    3    3    0  502  0.67640105064E+02 -0.30036664911E+03  0.49829127052E+02  0.31189461303E+03  0.50400001928E-02 0.  1.
</event>
<event>
 5   0  0.9650500E-05  0.1000057E+04  0.7818609E-02  0.9308483E-01
        3   -1    0    0  501    0  0.00000000000E+00  0.00000000000E+00  0.61738791492E+03  0.61738792318E+03  0.10100000352E+00 0. -1.
       -3   -1    0    0    0  501  0.00000000000E+00  0.00000000000E+00 -0.40497756835E+03  0.40497758095E+03  0.10100000352E+00 0.  1.
    10030    2    1    2    0    0  0.00000000000E+00  0.00000000000E+00  0.21241034657E+03  0.10223655041E+04  0.10000565328E+04 0.  0.
        1    1    3    3  502    0  0.41296946847E+03 -0.64655803609E+02  0.38674271238E+03  0.56946824357E+03  0.50400001928E-02 0. -1.
       -1    1    3    3    0  502 -0.41296946847E+03  0.64655803609E+02 -0.17433236582E+03  0.45289726056E+03  0.50400001928E-02 0.  1.
</event>
<event>
 5   0  0.1430675E-04  0.1000236E+04  0.7818609E-02  0.9308285E-01
        1   -1    0    0  501    0  0.00000000000E+00  0.00000000000E+00  0.11802422287E+04  0.11802422287E+04  0.50400001928E-02 0.  1.
       -1   -1    0    0    0  501  0.00000000000E+00  0.00000000000E+00 -0.21192112640E+03  0.21192112646E+03  0.50400001928E-02 0. -1.
    10030    2    1    2    0    0  0.00000000000E+00  0.00000000000E+00  0.96832110225E+03  0.13921633551E+04  0.10002364972E+04 0.  0.
        5    1    3    3  502    0 -0.26074193475E+03 -0.38624746448E+03  0.23161756951E+03  0.52042506556E+03  0.46999998093E+01 0. -1.
       -5    1    3    3    0  502  0.26074193475E+03  0.38624746448E+03  0.73670353274E+03  0.87173828957E+03  0.46999998093E+01 0.  1.
</event>
<event>
 5   0  0.1461334E-04  0.9997525E+03  0.7818609E-02  0.9308816E-01
       -1   -1    0    0    0  501  0.00000000000E+00  0.00000000000E+00  0.20848064412E+03  0.20848064418E+03  0.50400001928E-02 0.  1.
        1   -1    0    0  501    0  0.00000000000E+00  0.00000000000E+00 -0.11985586026E+04  0.11985586026E+04  0.50400001928E-02 0. -1.
    10030    2    1    2    0    0  0.00000000000E+00  0.00000000000E+00 -0.99007795844E+03  0.14070392468E+04  0.99975250843E+03 0.  0.
        2    1    3    3  502    0  0.27838768440E+03  0.85584307904E+02 -0.10668124009E+04  0.11058540027E+04  0.25500000920E-02 0. -1.
       -2    1    3    3    0  502 -0.27838768440E+03 -0.85584307904E+02  0.76734442433E+02  0.30118524407E+03  0.25500000920E-02 0.  1.
</event>
<event>
 5   0  0.1430675E-04  0.1000191E+04  0.7818609E-02  0.9308335E-01
       -1   -1    0    0    0  501  0.00000000000E+00  0.00000000000E+00  0.45801317059E+03  0.45801317062E+03  0.50400001928E-02 0. -1.
        1   -1    0    0  501    0  0.00000000000E+00  0.00000000000E+00 -0.54604451266E+03  0.54604451268E+03  0.50400001928E-02 0.  1.
    10030    2    1    2    0    0  0.00000000000E+00  0.00000000000E+00 -0.88031342068E+02  0.10040576833E+04  0.10001911388E+04 0.  0.
        5    1    3    3  502    0  0.34148444883E+02  0.49752145707E+03 -0.67267919483E+01  0.49875951746E+03  0.46999998093E+01 0.  1.
       -5    1    3    3    0  502 -0.34148444883E+02 -0.49752145707E+03 -0.81304550120E+02  0.50529816584E+03  0.46999998093E+01 0. -1.
</event>
<event>
 5   0  0.1461334E-04  0.1000041E+04  0.7818609E-02  0.9308500E-01
        1   -1    0    0  501    0  0.00000000000E+00  0.00000000000E+00  0.56666593773E+03  0.56666593775E+03  0.50400001928E-02 0. -1.
       -1   -1    0    0    0  501  0.00000000000E+00  0.00000000000E+00 -0.44121297526E+03  0.44121297529E+03  0.50400001928E-02 0.  1.
    10030    2    1    2    0    0  0.00000000000E+00  0.00000000000E+00  0.12545296246E+03  0.10078789130E+04  0.10000407280E+04 0.  0.
        2    1    3    3  502    0  0.30209205466E+03  0.17411877344E+03 -0.29847255335E+03  0.45898019768E+03  0.25500000920E-02 0.  1.
       -2    1    3    3    0  502 -0.30209205466E+03 -0.17411877344E+03  0.42392551581E+03  0.54889871536E+03  0.25500000920E-02 0. -1.
</event>
<event>
 5   0  0.1430675E-04  0.9997807E+03  0.7818609E-02  0.9308785E-01
       -1   -1    0    0    0  501  0.00000000000E+00  0.00000000000E+00  0.58109704205E+03  0.58109704207E+03  0.50400001928E-02 0. -1.
        1   -1    0    0  501    0  0.00000000000E+00  0.00000000000E+00 -0.43003208413E+03  0.43003208416E+03  0.50400001928E-02 0.  1.
    10030    2    1    2    0    0  0.00000000000E+00  0.00000000000E+00  0.15106495792E+03  0.10111291262E+04  0.99978072016E+03 0.  0.
        5    1    3    3  502    0 -0.26323362534E+03 -0.38354183117E+03  0.26056272345E+03  0.53320849639E+03  0.46999998093E+01 0. -1.
       -5    1    3    3    0  502  0.26323362534E+03  0.38354183117E+03 -0.10949776554E+03  0.47792062984E+03  0.46999998093E+01 0.  1.
</event>
<event>
 5   0  0.9650500E-05  0.1000006E+04  0.7818609E-02  0.9308539E-01
        4   -1    0    0  501    0  0.00000000000E+00  0.00000000000E+00  0.56520064002E+03  0.56520206685E+03  0.12699999809E+01 0. -1.
       -4   -1    0    0    0  501  0.00000000000E+00  0.00000000000E+00 -0.44232294772E+03  0.44232477093E+03  0.12699999809E+01 0.  1.
    10030    2    1    2    0    0  0.00000000000E+00  0.00000000000E+00  0.12287769230E+03  0.10075268378E+04  0.10000057008E+04 0.  0.
        1    1    3    3  502    0  0.15840523140E+02  0.49385099417E+03  0.13858578141E+03  0.51317223761E+03  0.50400001928E-02 0. -1.
       -1    1    3    3    0  502 -0.15840523140E+02 -0.49385099417E+03 -0.15708089109E+02  0.49435460017E+03  0.50400001928E-02 0.  1.
</event>
<event>
 5   0  0.2484904E-04  0.9996472E+03  0.7818609E-02  0.9308932E-01
       -2   -1    0    0    0  501  0.00000000000E+00  0.00000000000E+00  0.14208001072E+04  0.14208001072E+04  0.25500000920E-02 0. -1.
        2   -1    0    0  501    0  0.00000000000E+00  0.00000000000E+00 -0.17583307727E+03  0.17583307729E+03  0.25500000920E-02 0.  1.
    10030    2    1    2    0    0  0.00000000000E+00  0.00000000000E+00  0.12449670299E+04  0.15966331845E+04  0.99964724788E+03 0.  0.
        3    1    3    3  502    0  0.19093719880E+03 -0.23955988670E+03  0.12532805178E+04  0.12901775148E+04  0.10100000352E+00 0. -1.
       -3    1    3    3    0  502 -0.19093719880E+03  0.23955988670E+03 -0.83134878675E+01  0.30645566969E+03  0.10100000352E+00 0.  1.
</event>
<event>
 5   0  0.2503680E-04  0.9985547E+03  0.7818609E-02  0.9310131E-01
       -2   -1    0    0    0  501  0.00000000000E+00  0.00000000000E+00  0.28653815816E+03  0.28653815817E+03  0.25500000920E-02 0.  1.
        2   -1    0    0  501    0  0.00000000000E+00  0.00000000000E+00 -0.86996395279E+03  0.86996395279E+03  0.25500000920E-02 0. -1.
    10030    2    1    2    0    0  0.00000000000E+00  0.00000000000E+00 -0.58342579463E+03  0.11565021110E+04  0.99855469295E+03 0.  0.
        2    1    3    3  502    0  0.41396232727E+03 -0.13858712305E+03 -0.57233268694E+03  0.71981657637E+03  0.25500000920E-02 0. -1.
       -2    1    3    3    0  502 -0.41396232727E+03  0.13858712305E+03 -0.11093107691E+02  0.43668553459E+03  0.25500000920E-02 0.  1.
</event>
<event>
 5   0  0.2403037E-04  0.1000671E+04  0.7818609E-02  0.9307809E-01
       -2   -1    0    0    0  501  0.00000000000E+00  0.00000000000E+00  0.32491243425E+03  0.32491243426E+03  0.25500000920E-02 0. -1.
        2   -1    0    0  501    0  0.00000000000E+00  0.00000000000E+00 -0.77047066687E+03  0.77047066687E+03  0.25500000920E-02 0.  1.
    10030    2    1    2    0    0  0.00000000000E+00  0.00000000000E+00 -0.44555823261E+03  0.10953831011E+04  0.10006707748E+04 0.  0.
        1    1    3    3  502    0  0.37576612010E+03 -0.32655054792E+03 -0.27751224246E+03  0.56995480707E+03  0.50400001928E-02 0.  1.
       -1    1    3    3    0  502 -0.37576612010E+03  0.32655054792E+03 -0.16804599015E+03  0.52542829406E+03  0.50400001928E-02 0. -1.
</event>
<event>
 5   0  0.1461334E-04  0.1000756E+04  0.7818609E-02  0.9307716E-01
       -1   -1    0    0    0  501  0.00000000000E+00  0.00000000000E+00  0.21728595690E+03  0.21728595696E+03  0.50400001928E-02 0. -1.
        1   -1    0    0  501    0  0.00000000000E+00  0.00000000000E+00 -0.11522988710E+04  0.11522988710E+04  0.50400001928E-02 0.  1.
    10030    2    1    2    0    0  0.00000000000E+00  0.00000000000E+00 -0.93501291408E+03  0.13695848280E+04  0.10007564396E+04 0.  0.
        2    1    3    3  502    0 -0.32701966607E+03 -0.12732535437E+03 -0.95564865750E+03  0.10180461505E+04  0.25500000920E-02 0.  1.
       -2    1    3    3    0  502  0.32701966607E+03  0.12732535437E+03  0.20635743423E+02  0.35153867750E+03  0.25500000920E-02 0. -1.
</event>
<event>
 5   0  0.2353916E-04  0.9937566E+03  0.7818609E-02  0.9315419E-01
        2   -1    0    0  501    0  0.00000000000E+00  0.00000000000E+00  0.11346781881E+04  0.11346781882E+04  0.25500000920E-02 0.  1.
       -2   -1    0    0    0  501  0.00000000000E+00  0.00000000000E+00 -0.21758418132E+03  0.21758418133E+03  0.25500000920E-02 0. -1.
    10030    2    1    2    0    0  0.00000000000E+00  0.00000000000E+00  0.91709400683E+03  0.13522623695E+04  0.99375655900E+03 0.  0.
        4    1    3    3  502    0  0.30119931713E+02  0.33759402537E+03  0.95295274699E+03  0.10114333825E+04  0.12699999809E+01 0.  1.
       -4    1    3    3    0  502 -0.30119931713E+02 -0.33759402537E+03 -0.35858740157E+02  0.34082898703E+03  0.12699999809E+01 0. -1.
</event>
<event>
 5   0  0.1414165E-04  0.1000145E+04  0.7818609E-02  0.9308386E-01
        1   -1    0    0  501    0  0.00000000000E+00  0.00000000000E+00  0.12350382034E+04  0.12350382034E+04  0.50400001928E-02 0. -1.
       -1   -1    0    0    0  501  0.00000000000E+00  0.00000000000E+00 -0.20248159713E+03  0.20248159719E+03  0.50400001928E-02 0.  1.
    10030    2    1    2    0    0  0.00000000000E+00  0.00000000000E+00  0.10325566063E+04  0.14375198006E+04  0.10001450055E+04 0.  0.
        4    1    3    3  502    0 -0.25083425578E+03 -0.20389922579E+03  0.10646802693E+04  0.11126717427E+04  0.12699999809E+01 0. -1.
       -4    1    3    3    0  502  0.25083425578E+03  0.20389922579E+03 -0.32123663008E+02  0.32484805798E+03  0.12699999809E+01 0.  1.
</event>
<event>
 5   0  0.1461334E-04  0.9986768E+03  0.7818609E-02  0.9309997E-01
        1   -1    0    0  501    0  0.00000000000E+00  0.00000000000E+00  0.27962459064E+03  0.27962459068E+03  0.50400001928E-02 0.  1.
       -1   -1    0    0    0  501  0.00000000000E+00  0.00000000000E+00 -0.89169138349E+03  0.89169138351E+03  0.50400001928E-02 0. -1.
    10030    2    1    2    0    0  0.00000000000E+00  0.00000000000E+00 -0.61206679286E+03  0.11713159742E+04  0.99867680081E+03 0.  0.
        2    1    3    3  502    0 -0.22260066033E+03  0.41822319137E+03 -0.12104291393E+03  0.48899190055E+03  0.25500000920E-02 0.  1.
       -2    1    3    3    0  502  0.22260066033E+03 -0.41822319137E+03 -0.49102387893E+03  0.68232407364E+03  0.25500000920E-02 0. -1.
</event>
<event>
 5   0  0.2484904E-04  0.1000999E+04  0.7818609E-02  0.9307450E-01
        2   -1    0    0  501    0  0.00000000000E+00  0.00000000000E+00  0.38412848379E+03  0.38412848380E+03  0.25500000920E-02 0.  1.
       -2   -1    0    0    0  501  0.00000000000E+00  0.00000000000E+00 -0.65212445343E+03  0.65212445344E+03  0.25500000920E-02 0. -1.
    10030    2    1    2    0    0  0.00000000000E+00  0.00000000000E+00 -0.26799596964E+03  0.10362529372E+04  0.10009986564E+04 0.  0.
        3    1    3    3  502    0 -0.81833225551E+02 -0.23696598644E+03  0.31444432211E+03  0.40215021750E+03  0.10100000352E+00 0.  1.
       -3    1    3    3    0  502  0.81833225551E+02  0.23696598644E+03 -0.58244029174E+03  0.63410271974E+03  0.10100000352E+00 0. -1.
</event>
<event>
 5   0  0.1430675E-04  0.1000051E+04  0.7818609E-02  0.9308489E-01
       -1   -1    0    0    0  501  0.00000000000E+00  0.00000000000E+00  0.21252661798E+03  0.21252661804E+03  0.50400001928E-02 0.  1.
        1   -1    0    0  501    0  0.00000000000E+00  0.00000000000E+00 -0.11764426079E+04  0.11764426079E+04  0.50400001928E-02 0. -1.
    10030    2    1    2    0    0  0.00000000000E+00  0.00000000000E+00 -0.96391598993E+03  0.13889692260E+04  0.10000507362E+04 0.  0.
        5    1    3    3  502    0 -0.36025176235E+03  0.24162266038E+03 -0.82734569135E+03  0.93417654930E+03  0.46999998093E+01 0. -1.
       -5    1    3    3    0  502  0.36025176235E+03 -0.24162266038E+03 -0.13657029859E+03  0.45479267665E+03  0.46999998093E+01 0.  1.
</event>
<event>
 5   0  0.2484904E-04  0.1000045E+04  0.7818609E-02  0.9308496E-01
        2   -1    0    0  501    0  0.00000000000E+00  0.00000000000E+00  0.51547785191E+03  0.51547785191E+03  0.25500000920E-02 0. -1.
       -2   -1    0    0    0  501  0.00000000000E+00  0.00000000000E+00 -0.48503047633E+03  0.48503047633E+03  0.25500000920E-02 0.  1.
    10030    2    1    2    0    0  0.00000000000E+00  0.00000000000E+00  0.30447375581E+02  0.10005083282E+04  0.10000449351E+04 0.  0.
        3    1    3    3  502    0 -0.19887390727E+03  0.17443420304E+03  0.43973661981E+03  0.51317290184E+03  0.10100000352E+00 0. -1.
       -3    1    3    3    0  502  0.19887390727E+03 -0.17443420304E+03 -0.40928924423E+03  0.48733542640E+03  0.10100000352E+00 0.  1.
</event>
<event>
 5   0  0.9650500E-05  0.1000057E+04  0.7818609E-02  0.9308483E-01
       -3   -1    0    0    0  501  0.00000000000E+00  0.00000000000E+00  0.25973604522E+03  0.25973606486E+03  0.10100000352E+00 0.  1.
        3   -1    0    0  501    0  0.00000000000E+00  0.00000000000E+00 -0.96262468837E+03  0.96262469367E+03  0.10100000352E+00 0. -1.
    10030    2    1    2    0    0  0.00000000000E+00  0.00000000000E+00 -0.70288864315E+03  0.12223607585E+04  0.10000566880E+04 0.  0.
        3    1    3    3  502    0  0.18385922863E+03  0.37883976274E+03 -0.21868316980E+02  0.42166576251E+03  0.10100000352E+00 0.  1.
       -3    1    3    3    0  502 -0.18385922863E+03 -0.37883976274E+03 -0.68102032617E+03  0.80069499602E+03  0.10100000352E+00 0. -1.
</event>
<event>
 5   0  0.1414165E-04  0.1000354E+04  0.7818609E-02  0.9308157E-01
       -1   -1    0    0    0  501  0.00000000000E+00  0.00000000000E+00  0.12309537128E+04  0.12309537128E+04  0.50400001928E-02 0.  1.
        1   -1    0    0  501    0  0.00000000000E+00  0.00000000000E+00 -0.20323823894E+03  0.20323823900E+03  0.50400001928E-02 0. -1.
    10030    2    1    2    0    0  0.00000000000E+00  0.00000000000E+00  0.10277154738E+04  0.14341919518E+04  0.10003536672E+04 0.  0.
        4    1    3    3  502    0  0.21146659884E+03 -0.16177110169E+03  0.11209132443E+04  0.11521007447E+04  0.12699999809E+01 0.  1.
       -4    1    3    3    0  502 -0.21146659884E+03  0.16177110169E+03 -0.93197770518E+02  0.28209120705E+03  0.12699999809E+01 0. -1.
</event>
<event>
 5   0  0.1430675E-04  0.1001206E+04  0.7818609E-02  0.9307223E-01
        1   -1    0    0  501    0  0.00000000000E+00  0.00000000000E+00  0.84623918625E+03  0.84623918627E+03  0.50400001928E-02 0. -1.
       -1   -1    0    0    0  501  0.00000000000E+00  0.00000000000E+00 -0.29613758314E+03  0.29613758319E+03  0.50400001928E-02 0.  1.
    10030    2    1    2    0    0  0.00000000000E+00  0.00000000000E+00  0.55010160311E+03  0.11423767695E+04  0.10012057279E+04 0.  0.
        5    1    3    3  502    0 -0.32308538325E+03 -0.28789037863E+03 -0.12055763963E+02  0.43293471381E+03  0.46999998093E+01 0.  1.
       -5    1    3    3    0  502  0.32308538325E+03  0.28789037863E+03  0.56215736707E+03  0.70944205565E+03  0.46999998093E+01 0. -1.
</event>
<event>
 5   0  0.2484904E-04  0.9992227E+03  0.7818609E-02  0.9309398E-01
        2   -1    0    0  501    0  0.00000000000E+00  0.00000000000E+00  0.91278470022E+03  0.91278470022E+03  0.25500000920E-02 0.  1.
       -2   -1    0    0    0  501  0.00000000000E+00  0.00000000000E+00 -0.27346151683E+03  0.27346151684E+03  0.25500000920E-02 0. -1.
    10030    2    1    2    0    0  0.00000000000E+00  0.00000000000E+00  0.63932318339E+03  0.11862462171E+04  0.99922267523E+03 0.  0.
        3    1    3    3  502    0  0.22305317272E+03 -0.28752715155E+03  0.72606008421E+03  0.81215013195E+03  0.10100000352E+00 0.  1.
       -3    1    3    3    0  502 -0.22305317272E+03  0.28752715155E+03 -0.86736900818E+02  0.37409608512E+03  0.10100000352E+00 0. -1.
</event>
<event>
 5   0  0.1453863E-04  0.1000354E+04  0.7818609E-02  0.9308157E-01
       -1   -1    0    0    0  501  0.00000000000E+00  0.00000000000E+00  0.66152044439E+03  0.66152044441E+03  0.50400001928E-02 0.  1.
        1   -1    0    0  501    0  0.00000000000E+00  0.00000000000E+00 -0.37818479434E+03  0.37818479437E+03  0.50400001928E-02 0. -1.
    10030    2    1    2    0    0  0.00000000000E+00  0.00000000000E+00  0.28333565005E+03  0.10397052388E+04  0.10003538839E+04 0.  0.
        1    1    3    3  502    0  0.35281445359E+03 -0.24767948604E+03 -0.12199183676E+03  0.44800131108E+03  0.50400001928E-02 0. -1.
       -1    1    3    3    0  502 -0.35281445359E+03  0.24767948604E+03  0.40532748681E+03  0.59170392770E+03  0.50400001928E-02 0.  1.
</event>
<event>
 5   0  0.2473312E-04  0.9988310E+03  0.7818609E-02  0.9309828E-01
       -2   -1    0    0    0  501  0.00000000000E+00  0.00000000000E+00  0.16805259325E+03  0.16805259327E+03  0.25500000920E-02 0. -1.
        2   -1    0    0  501    0  0.00000000000E+00  0.00000000000E+00 -0.14841533722E+04  0.14841533723E+04  0.25500000920E-02 0.  1.
    10030    2    1    2    0    0  0.00000000000E+00  0.00000000000E+00 -0.13161007790E+04  0.16522059655E+04  0.99883096269E+03 0.  0.
        5    1    3    3  502    0 -0.39135068204E+03  0.40977361442E+02 -0.14939440473E+03  0.42092193890E+03  0.46999998093E+01 0. -1.
       -5    1    3    3    0  502  0.39135068204E+03 -0.40977361442E+02 -0.11667063743E+04  0.12312840266E+04  0.46999998093E+01 0.  1.
</event>
<event>
 5   0  0.1461334E-04  0.9978718E+03  0.7818609E-02  0.9310882E-01
       -1   -1    0    0    0  501  0.00000000000E+00  0.00000000000E+00  0.41407783154E+03  0.41407783157E+03  0.50400001928E-02 0. -1.
        1   -1    0    0  501    0  0.00000000000E+00  0.00000000000E+00 -0.60118411028E+03  0.60118411030E+03  0.50400001928E-02 0.  1.
    10030    2    1    2    0    0  0.00000000000E+00  0.00000000000E+00 -0.18710627874E+03  0.10152619419E+04  0.99787176083E+03 0.  0.
        2    1    3    3  502    0 -0.35722504687E+03 -0.32274997307E+03  0.39724914872E+02  0.48306867845E+03  0.25500000920E-02 0.  1.
       -2    1    3    3    0  502  0.35722504687E+03  0.32274997307E+03 -0.22683119361E+03  0.53219326342E+03  0.25500000920E-02 0. -1.
</event>
<event>
 5   0  0.1506454E-04  0.9999848E+03  0.7818609E-02  0.9308561E-01
       -1   -1    0    0    0  501  0.00000000000E+00  0.00000000000E+00  0.43027294660E+03  0.43027294663E+03  0.50400001928E-02 0. -1.
        1   -1    0    0  501    0  0.00000000000E+00  0.00000000000E+00 -0.58100893095E+03  0.58100893097E+03  0.50400001928E-02 0.  1.
    10030    2    1    2    0    0  0.00000000000E+00  0.00000000000E+00 -0.15073598434E+03  0.10112818776E+04  0.99998484938E+03 0.  0.
        3    1    3    3  502    0  0.79023591459E+02 -0.46965512179E+03 -0.22931039140E+03  0.52858672631E+03  0.10100000352E+00 0.  1.
       -3    1    3    3    0  502 -0.79023591459E+02  0.46965512179E+03  0.78574407059E+02  0.48269515129E+03  0.10100000352E+00 0. -1.
</event>
<event>
 5   0  0.9650500E-05  0.1000048E+04  0.7818609E-02  0.9308492E-01
       -3   -1    0    0    0  501  0.00000000000E+00  0.00000000000E+00  0.69466185796E+03  0.69466186530E+03  0.10100000352E+00 0. -1.
        3   -1    0    0  501    0  0.00000000000E+00  0.00000000000E+00 -0.35992179606E+03  0.35992181023E+03  0.10100000352E+00 0.  1.
    10030    2    1    2    0    0  0.00000000000E+00  0.00000000000E+00  0.33474006190E+03  0.10545836755E+04  0.10000479087E+04 0.  0.
        3    1    3    3  502    0 -0.34105997585E+03  0.29067381807E+03  0.40130239762E+03  0.60154534341E+03  0.10100000352E+00 0. -1.
       -3    1    3    3    0  502  0.34105997585E+03 -0.29067381807E+03 -0.66562335720E+02  0.45303833213E+03  0.10100000352E+00 0.  1.
</event>
<event>
 5   0  0.1430675E-04  0.9994530E+03  0.7818609E-02  0.9309145E-01
       -1   -1    0    0    0  501  0.00000000000E+00  0.00000000000E+00  0.11639175843E+03  0.11639175854E+03  0.50400001928E-02 0.  1.
        1   -1    0    0  501    0  0.00000000000E+00  0.00000000000E+00 -0.21455691988E+04  0.21455691988E+04  0.50400001928E-02 0. -1.
    10030    2    1    2    0    0  0.00000000000E+00  0.00000000000E+00 -0.20291774404E+04  0.22619609574E+04  0.99945299444E+03 0.  0.
        5    1    3    3  502    0  0.15553965764E+03 -0.13399940319E+03  0.16486706819E+02  0.20601535538E+03  0.46999998093E+01 0.  1.
       -5    1    3    3    0  502 -0.15553965764E+03  0.13399940319E+03 -0.20456641472E+04  0.20559456020E+04  0.46999998093E+01 0. -1.
</event>
<event>
 5   0  0.2503680E-04  0.9996164E+03  0.7818609E-02  0.9308966E-01
        2   -1    0    0  501    0  0.00000000000E+00  0.00000000000E+00  0.82632094672E+03  0.82632094672E+03  0.25500000920E-02 0.  1.
       -2   -1    0    0    0  501  0.00000000000E+00  0.00000000000E+00 -0.30231379112E+03  0.30231379114E+03  0.25500000920E-02 0. -1.
    10030    2    1    2    0    0  0.00000000000E+00  0.00000000000E+00  0.52400715559E+03  0.11286347379E+04  0.99961636260E+03 0.  0.
        2    1    3    3  502    0 -0.21240067182E+03 -0.66166247374E+02 -0.24332992670E+03  0.32969906113E+03  0.25500000920E-02 0. -1.
       -2    1    3    3    0  502  0.21240067182E+03  0.66166247374E+02  0.76733708229E+03  0.79893567673E+03  0.25500000920E-02 0.  1.
</event>
<event>
 5   0  0.2403037E-04  0.1000349E+04  0.7818609E-02  0.9308163E-01
        2   -1    0    0  501    0  0.00000000000E+00  0.00000000000E+00  0.60951548894E+03  0.60951548895E+03  0.25500000920E-02 0.  1.
       -2   -1    0    0    0  501  0.00000000000E+00  0.00000000000E+00 -0.41044785330E+03  0.41044785330E+03  0.25500000920E-02 0. -1.
    10030    2    1    2    0    0  0.00000000000E+00  0.00000000000E+00  0.19906763565E+03  0.10199633423E+04  0.10003485872E+04 0.  0.
        1    1    3    3  502    0 -0.54419217920E+02  0.17681071896E+03  0.57335083181E+03  0.60245718353E+03  0.50400001928E-02 0.  1.
       -1    1    3    3    0  502  0.54419217920E+02 -0.17681071896E+03 -0.37428319616E+03  0.41750615873E+03  0.50400001928E-02 0. -1.
</event>
<event>
 5   0  0.1414165E-04  0.1001842E+04  0.7818609E-02  0.9306527E-01
        1   -1    0    0  501    0  0.00000000000E+00  0.00000000000E+00  0.15940762506E+03  0.15940762514E+03  0.50400001928E-02 0.  1.
       -1   -1    0    0    0  501  0.00000000000E+00  0.00000000000E+00 -0.15740900261E+04  0.15740900262E+04  0.50400001928E-02 0. -1.
    10030    2    1    2    0    0  0.00000000000E+00  0.00000000000E+00 -0.14146824011E+04  0.17334976513E+04  0.10018422087E+04 0.  0.
        4    1    3    3  502    0 -0.11650108880E+03  0.91877375730E+02 -0.15351935488E+04  0.15423471727E+04  0.12699999809E+01 0. -1.
       -4    1    3    3    0  502  0.11650108880E+03 -0.91877375730E+02  0.12051114770E+03  0.19115047864E+03  0.12699999809E+01 0.  1.
</event>
<event>
 5   0  0.1506454E-04  0.1000090E+04  0.7818609E-02  0.9308446E-01
       -1   -1    0    0    0  501  0.00000000000E+00  0.00000000000E+00  0.69330520535E+03  0.69330520537E+03  0.50400001928E-02 0.  1.
        1   -1    0    0  501    0  0.00000000000E+00  0.00000000000E+00 -0.36065629218E+03  0.36065629221E+03  0.50400001928E-02 0. -1.
    10030    2    1    2    0    0  0.00000000000E+00  0.00000000000E+00  0.33264891318E+03  0.10539614976E+04  0.10000897655E+04 0.  0.
        3    1    3    3  502    0  0.17550753275E+03 -0.44458492329E+03  0.32116123533E+03  0.57584997816E+03  0.10100000352E+00 0.  1.
       -3    1    3    3    0  502 -0.17550753275E+03  0.44458492329E+03  0.11487677848E+02  0.47811151943E+03  0.10100000352E+00 0. -1.
</event>
<event>
 5   0  0.1506454E-04  0.9994923E+03  0.7818609E-02  0.9309102E-01
       -1   -1    0    0    0  501  0.00000000000E+00  0.00000000000E+00  0.25101485904E+03  0.25101485909E+03  0.50400001928E-02 0.  1.
        1   -1    0    0  501    0  0.00000000000E+00  0.00000000000E+00 -0.99494601515E+03  0.99494601516E+03  0.50400001928E-02 0. -1.
    10030    2    1    2    0    0  0.00000000000E+00  0.00000000000E+00 -0.74393115610E+03  0.12459608743E+04  0.99949233871E+03 0.  0.
        3    1    3    3  502    0  0.22155669004E+03 -0.44352521846E+03 -0.29367554945E+03  0.57623547692E+03  0.10100000352E+00 0.  1.
       -3    1    3    3    0  502 -0.22155669004E+03  0.44352521846E+03 -0.45025560666E+03  0.66972539734E+03  0.10100000352E+00 0. -1.
</event>
<event>
 5   0  0.1461334E-04  0.9998414E+03  0.7818609E-02  0.9308719E-01
        1   -1    0    0  501    0  0.00000000000E+00  0.00000000000E+00  0.85587540429E+03  0.85587540430E+03  0.50400001928E-02 0. -1.
       -1   -1    0    0    0  501  0.00000000000E+00  0.00000000000E+00 -0.29200592088E+03  0.29200592093E+03  0.50400001928E-02 0.  1.
    10030    2    1    2    0    0  0.00000000000E+00  0.00000000000E+00  0.56386948341E+03  0.11478813252E+04  0.99984135867E+03 0.  0.
        2    1    3    3  502    0 -0.97316923391E+02  0.45430878788E+03  0.70075417685E+02  0.46986979313E+03  0.25500000920E-02 0.  1.
       -2    1    3    3    0  502  0.97316923391E+02 -0.45430878788E+03  0.49379406572E+03  0.67801153211E+03  0.25500000920E-02 0. -1.
</event>
<event>
 5   0  0.2403037E-04  0.1000298E+04  0.7818609E-02  0.9308218E-01
       -2   -1    0    0    0  501  0.00000000000E+00  0.00000000000E+00  0.34267992939E+03  0.34267992940E+03  0.25500000920E-02 0. -1.
        2   -1    0    0  501    0  0.00000000000E+00  0.00000000000E+00 -0.72997930112E+03  0.72997930113E+03  0.25500000920E-02 0.  1.
    10030    2    1    2    0    0  0.00000000000E+00  0.00000000000E+00 -0.38729937173E+03  0.10726592305E+04  0.10002984662E+04 0.  0.
        1    1    3    3  502    0  0.25188858842E+03 -0.38864835906E+03  0.88318246309E+01  0.46322069160E+03  0.50400001928E-02 0.  1.
       -1    1    3    3    0  502 -0.25188858842E+03  0.38864835906E+03 -0.39613119636E+03  0.60943853893E+03  0.50400001928E-02 0. -1.
</event>
<event>
 5   0  0.2484904E-04  0.9999459E+03  0.7818609E-02  0.9308604E-01
       -2   -1    0    0    0  501  0.00000000000E+00  0.00000000000E+00  0.11557462509E+04  0.11557462509E+04  0.25500000920E-02 0.  1.
        2   -1    0    0  501    0  0.00000000000E+00  0.00000000000E+00 -0.21628705420E+03  0.21628705421E+03  0.25500000920E-02 0. -1.
    10030    2    1    2    0    0  0.00000000000E+00  0.00000000000E+00  0.93945919674E+03  0.13720333052E+04  0.99994590260E+03 0.  0.
        3    1    3    3  502    0 -0.25400174832E+03 -0.76445144768E+02  0.10512380845E+04  0.10841873772E+04  0.10100000352E+00 0.  1.
       -3    1    3    3    0  502  0.25400174832E+03  0.76445144768E+02 -0.11177888776E+03  0.28784592799E+03  0.10100000352E+00 0. -1.
</event>
<event>
 5   0  0.1506454E-04  0.1000203E+04  0.7818609E-02  0.9308322E-01
        1   -1    0    0  501    0  0.00000000000E+00  0.00000000000E+00  0.11528324689E+04  0.11528324690E+04  0.50400001928E-02 0. -1.
       -1   -1    0    0    0  501  0.00000000000E+00  0.00000000000E+00 -0.21694525922E+03  0.21694525928E+03  0.50400001928E-02 0.  1.
    10030    2    1    2    0    0  0.00000000000E+00  0.00000000000E+00  0.93588720973E+03  0.13697777282E+04  0.10002030571E+04 0.  0.
        3    1    3    3  502    0 -0.30547903368E+03 -0.22149167170E+03  0.18452358309E+02  0.37777837468E+03  0.10100000352E+00 0.  1.
       -3    1    3    3    0  502  0.30547903368E+03  0.22149167170E+03  0.91743485142E+03  0.99199935355E+03  0.10100000352E+00 0. -1.
</event>
<event>
 5   0  0.2353916E-04  0.1000798E+04  0.7818609E-02  0.9307670E-01
        2   -1    0    0  501    0  0.00000000000E+00  0.00000000000E+00  0.47668484453E+03  0.47668484454E+03  0.25500000920E-02 0. -1.
       -2   -1    0    0    0  501  0.00000000000E+00  0.00000000000E+00 -0.52529248175E+03  0.52529248176E+03  0.25500000920E-02 0.  1.
    10030    2    1    2    0    0  0.00000000000E+00  0.00000000000E+00 -0.48607637216E+02  0.10019773263E+04  0.10007976119E+04 0.  0.
        4    1    3    3  502    0  0.10769180469E+02  0.34327376406E+03 -0.38866206006E+03  0.51866430585E+03  0.12699999809E+01 0.  1.
       -4    1    3    3    0  502 -0.10769180469E+02 -0.34327376406E+03  0.34005442284E+03  0.48331302044E+03  0.12699999809E+01 0. -1.
</event>
<event>
 5   0  0.1506454E-04  0.1000611E+04  0.7818609E-02  0.9307875E-01
        1   -1    0    0  501    0  0.00000000000E+00  0.00000000000E+00  0.16801896300E+04  0.16801896300E+04  0.50400001928E-02 0. -1.
       -1   -1    0    0    0  501  0.00000000000E+00  0.00000000000E+00 -0.14897460277E+03  0.14897460286E+03  0.50400001928E-02 0.  1.
    10030    2    1    2    0    0  0.00000000000E+00  0.00000000000E+00  0.15312150272E+04  0.18291642329E+04  0.10006109790E+04 0.  0.
        3    1    3    3  502    0 -0.42817875013E+03 -0.11833741981E+03  0.34489924645E+03  0.56240224697E+03  0.10100000352E+00 0.  1.
       -3    1    3    3    0  502  0.42817875013E+03  0.11833741981E+03  0.11863157808E+04  0.12667619859E+04  0.10100000352E+00 0. -1.
</event>
<event>
 5   0  0.1506454E-04  0.9975306E+03  0.7818609E-02  0.9311257E-01
       -1   -1    0    0    0  501  0.00000000000E+00  0.00000000000E+00  0.69775312275E+03  0.69775312277E+03  0.50400001928E-02 0.  1.
        1   -1    0    0  501    0  0.00000000000E+00  0.00000000000E+00 -0.35652553213E+03  0.35652553216E+03  0.50400001928E-02 0. -1.
    10030    2    1    2    0    0  0.00000000000E+00  0.00000000000E+00  0.34122759062E+03  0.10542786549E+04  0.99753055775E+03 0.  0.
        3    1    3    3  502    0 -0.42236915587E+03  0.12378278031E+03 -0.77358737491E+02  0.44688059367E+03  0.10100000352E+00 0. -1.
       -3    1    3    3    0  502  0.42236915587E+03 -0.12378278031E+03  0.41858632811E+03  0.60739806126E+03  0.10100000352E+00 0.  1.
</event>
<event>
 5   0  0.2484904E-04  0.1000292E+04  0.7818609E-02  0.9308225E-01
       -2   -1    0    0    0  501  0.00000000000E+00  0.00000000000E+00  0.21717038503E+03  0.21717038504E+03  0.25500000920E-02 0.  1.
        2   -1    0    0  501    0  0.00000000000E+00  0.00000000000E+00 -0.11518420106E+04  0.11518420106E+04  0.25500000920E-02 0. -1.
    10030    2    1    2    0    0  0.00000000000E+00  0.00000000000E+00 -0.93467162557E+03  0.13690123956E+04  0.10002919033E+04 0.  0.
        3    1    3    3  502    0 -0.94103948693E+02 -0.18933945053E+03  0.15299616325E+03  0.26098432301E+03  0.10100000352E+00 0.  1.
       -3    1    3    3    0  502  0.94103948693E+02  0.18933945053E+03 -0.10876677888E+04  0.11080280726E+04  0.10100000352E+00 0. -1.
</event>
<event>
 5   0  0.1414165E-04  0.1000010E+04  0.7818609E-02  0.9308534E-01
       -1   -1    0    0    0  501  0.00000000000E+00  0.00000000000E+00  0.65857180151E+03  0.65857180153E+03  0.50400001928E-02 0.  1.
        1   -1    0    0  501    0  0.00000000000E+00  0.00000000000E+00 -0.37961700126E+03  0.37961700129E+03  0.50400001928E-02 0. -1.
    10030    2    1    2    0    0  0.00000000000E+00  0.00000000000E+00  0.27895480026E+03  0.10381888028E+04  0.10000101048E+04 0.  0.
        4    1    3    3  502    0  0.46254389167E+03 -0.18911637386E+03  0.15720518605E+03  0.52385774597E+03  0.12699999809E+01 0.  1.
       -4    1    3    3    0  502 -0.46254389167E+03  0.18911637386E+03  0.12174961421E+03  0.51433105686E+03  0.12699999809E+01 0. -1.
</event>
<event>
 5   0  0.1506454E-04  0.9995398E+03  0.7818609E-02  0.9309050E-01
       -1   -1    0    0    0  501  0.00000000000E+00  0.00000000000E+00  0.25876473403E+03  0.25876473408E+03  0.50400001928E-02 0. -1.
        1   -1    0    0  501    0  0.00000000000E+00  0.00000000000E+00 -0.96523948212E+03  0.96523948214E+03  0.50400001928E-02 0.  1.
    10030    2    1    2    0    0  0.00000000000E+00  0.00000000000E+00 -0.70647474809E+03  0.12240042162E+04  0.99953976991E+03 0.  0.
        3    1    3    3  502    0  0.18592112669E+03  0.21774685364E+03 -0.85484636910E+03  0.90152242489E+03  0.10100000352E+00 0.  1.
       -3    1    3    3    0  502 -0.18592112669E+03 -0.21774685364E+03  0.14837162101E+03  0.32248179133E+03  0.10100000352E+00 0. -1.
</event>
<event>
 5   0  0.2503680E-04  0.1001748E+04  0.7818609E-02  0.9306630E-01
        2   -1    0    0  501    0  0.00000000000E+00  0.00000000000E+00  0.42183369620E+03  0.42183369621E+03  0.25500000920E-02 0. -1.
       -2   -1    0    0    0  501  0.00000000000E+00  0.00000000000E+00 -0.59472374063E+03  0.59472374064E+03  0.25500000920E-02 0.  1.
    10030    2    1    2    0    0  0.00000000000E+00  0.00000000000E+00 -0.17289004443E+03  0.10165574368E+04  0.10017475006E+04 0.  0.
        2    1    3    3  502    0 -0.19751164840E+03 -0.45780695340E+03 -0.38027420448E+02  0.50004414060E+03  0.25500000920E-02 0. -1.
       -2    1    3    3    0  502  0.19751164840E+03  0.45780695340E+03 -0.13486262398E+03  0.51651329624E+03  0.25500000920E-02 0.  1.
</event>
<event>
 5   0  0.1414165E-04  0.9997574E+03  0.7818609E-02  0.9308811E-01
       -1   -1    0    0    0  501  0.00000000000E+00  0.00000000000E+00  0.53754243342E+03  0.53754243345E+03  0.50400001928E-02 0. -1.
        1   -1    0    0  501    0  0.00000000000E+00  0.00000000000E+00 -0.46485390274E+03  0.46485390277E+03  0.50400001928E-02 0.  1.
    10030    2    1    2    0    0  0.00000000000E+00  0.00000000000E+00  0.72688530679E+02  0.10023963362E+04  0.99975736675E+03 0.  0.
        4    1    3    3  502    0  0.30221313246E+03  0.23073005504E+02 -0.36221216094E+03  0.47229694414E+03  0.12699999809E+01 0.  1.
       -4    1    3    3    0  502 -0.30221313246E+03 -0.23073005504E+02  0.43490069162E+03  0.53009939208E+03  0.12699999809E+01 0. -1.
</event>
<event>
 5   0  0.2403037E-04  0.9997620E+03  0.7818609E-02  0.9308806E-01
        2   -1    0    0  501    0  0.00000000000E+00  0.00000000000E+00  0.10140474030E+04  0.10140474030E+04  0.25500000920E-02 0. -1.
       -2   -1    0    0    0  501  0.00000000000E+00  0.00000000000E+00 -0.24641947722E+03  0.24641947724E+03  0.25500000920E-02 0.  1.
    10030    2    1    2    0    0  0.00000000000E+00  0.00000000000E+00  0.76762792576E+03  0.12604668802E+04  0.99976203355E+03 0.  0.
        1    1    3    3  502    0 -0.21584084156E+02  0.28747849825E+03 -0.13105346538E+03  0.31667770755E+03  0.50400001928E-02 0.  1.
       -1    1    3    3    0  502  0.21584084156E+02 -0.28747849825E+03  0.89868139114E+03  0.94378917267E+03  0.50400001928E-02 0. -1.
</event>
<event>
 5   0  0.9650500E-05  0.9994029E+03  0.7818609E-02  0.9309200E-01
       -4   -1    0    0    0  501  0.00000000000E+00  0.00000000000E+00  0.18422790415E+03  0.18423228156E+03  0.12699999809E+01 0.  1.
        4   -1    0    0  501    0  0.00000000000E+00  0.00000000000E+00 -0.13553741344E+04  0.13553747294E+04  0.12699999809E+01 0. -1.
    10030    2    1    2    0    0  0.00000000000E+00  0.00000000000E+00 -0.11711462302E+04  0.15396070109E+04  0.99940294955E+03 0.  0.
        1    1    3    3  502    0  0.49136657398E+03  0.44860159305E+02 -0.70734315739E+03  0.86243138061E+03  0.50400001928E-02 0. -1.
       -1    1    3    3    0  502 -0.49136657398E+03 -0.44860159305E+02 -0.46380307283E+03  0.67717563033E+03  0.50400001928E-02 0.  1.
</event>
<event>
 5   0  0.1414165E-04  0.9998620E+03  0.7818609E-02  0.9308696E-01
       -1   -1    0    0    0  501  0.00000000000E+00  0.00000000000E+00  0.82381345219E+03  0.82381345221E+03  0.50400001928E-02 0. -1.
        1   -1    0    0  501    0  0.00000000000E+00  0.00000000000E+00 -0.30338300362E+03  0.30338300366E+03  0.50400001928E-02 0.  1.
    10030    2    1    2    0    0  0.00000000000E+00  0.00000000000E+00  0.52043044858E+03  0.11271964559E+04  0.99986198964E+03 0.  0.
        4    1    3    3  502    0 -0.33143651048E+03  0.13162562113E+03  0.65519716956E+03  0.74596273936E+03  0.12699999809E+01 0. -1.
       -4    1    3    3    0  502  0.33143651048E+03 -0.13162562113E+03 -0.13476672098E+03  0.38123371651E+03  0.12699999809E+01 0.  1.
</event>
<event>
 5   0  0.2484904E-04  0.1000160E+04  0.7818609E-02  0.9308369E-01
        2   -1    0    0  501    0  0.00000000000E+00  0.00000000000E+00  0.27811277937E+03  0.27811277938E+03  0.25500000920E-02 0. -1.
       -2   -1    0    0    0  501  0.00000000000E+00  0.00000000000E+00 -0.89920386746E+03  0.89920386747E+03  0.25500000920E-02 0.  1.
    10030    2    1    2    0    0  0.00000000000E+00  0.00000000000E+00 -0.62109108809E+03  0.11773166469E+04  0.10001601608E+04 0.  0.
        3    1    3    3  502    0 -0.11415968472E+03 -0.13248508589E+03  0.24094286697E+03  0.29772169377E+03  0.10100000352E+00 0. -1.
       -3    1    3    3    0  502  0.11415968472E+03  0.13248508589E+03 -0.86203395506E+03  0.87959495308E+03  0.10100000352E+00 0.  1.
</event>
<event>
 5   0  0.1506454E-04  0.1000973E+04  0.7818609E-02  0.9307478E-01
       -1   -1    0    0    0  501  0.00000000000E+00  0.00000000000E+00  0.28483918172E+03  0.28483918177E+03  0.50400001928E-02 0. -1.
        1   -1    0    0  501    0  0.00000000000E+00  0.00000000000E+00 -0.87939673724E+03  0.87939673726E+03  0.50400001928E-02 0.  1.
    10030    2    1    2    0    0  0.00000000000E+00  0.00000000000E+00 -0.59455755552E+03  0.11642359190E+04  0.10009728210E+04 0.  0.
        3    1    3    3  502    0  0.40243591265E+03 -0.27725205146E+03 -0.17166741419E+03  0.51797014888E+03  0.10100000352E+00 0. -1.
       -3    1    3    3    0  502 -0.40243591265E+03  0.27725205146E+03 -0.42289014133E+03  0.64626577015E+03  0.10100000352E+00 0.  1.
</event>
<event>
 5   0  0.2503680E-04  0.9990418E+03  0.7818609E-02  0.9309596E-01
        2   -1    0    0  501    0  0.00000000000E+00  0.00000000000E+00  0.26202520128E+03  0.26202520130E+03  0.25500000920E-02 0. -1.
       -2   -1    0    0    0  501  0.00000000000E+00  0.00000000000E+00 -0.95227905638E+03  0.95227905638E+03  0.25500000920E-02 0.  1.
    10030    2    1    2    0    0  0.00000000000E+00  0.00000000000E+00 -0.69025385510E+03  0.12143042577E+04  0.99904176376E+03 0.  0.
        2    1    3    3  502    0 -0.31492365192E+03 -0.14418723349E+03  0.92364654019E+02  0.35846630826E+03  0.25500000920E-02 0. -1.
       -2    1    3    3    0  502  0.31492365192E+03  0.14418723349E+03 -0.78261850912E+03  0.85583794942E+03  0.25500000920E-02 0.  1.
</event>
<event>
 5   0  0.2484904E-04  0.9999189E+03  0.7818609E-02  0.9308634E-01
       -2   -1    0    0    0  501  0.00000000000E+00  0.00000000000E+00  0.22549540824E+03  0.22549540826E+03  0.25500000920E-02 0.  1.
        2   -1    0    0  501    0  0.00000000000E+00  0.00000000000E+00 -0.11084901860E+04  0.11084901860E+04  0.25500000920E-02 0. -1.
    10030    2    1    2    0    0  0.00000000000E+00  0.00000000000E+00 -0.88299477775E+03  0.13339855942E+04  0.99991889078E+03 0.  0.
        3    1    3    3  502    0 -0.26443846208E+03  0.74615547143E+02  0.11573916615E+03  0.29814550958E+03  0.10100000352E+00 0.  1.
       -3    1    3    3    0  502  0.26443846208E+03 -0.74615547143E+02 -0.99873394390E+03  0.10358400847E+04  0.10100000352E+00 0. -1.
</event>
<event>
 5   0  0.2503680E-04  0.9995074E+03  0.7818609E-02  0.9309085E-01
       -2   -1    0    0    0  501  0.00000000000E+00  0.00000000000E+00  0.14984726147E+03  0.14984726149E+03  0.25500000920E-02 0. -1.
        2   -1    0    0  501    0  0.00000000000E+00  0.00000000000E+00 -0.16667221407E+04  0.16667221407E+04  0.25500000920E-02 0.  1.
    10030    2    1    2    0    0  0.00000000000E+00  0.00000000000E+00 -0.15168748793E+04  0.18165694022E+04  0.99950737555E+03 0.  0.
        2    1    3    3  502    0  0.12365222303E+02  0.19957523459E+03 -0.15908493323E+04  0.16033666989E+04  0.25500000920E-02 0.  1.
       -2    1    3    3    0  502 -0.12365222303E+02 -0.19957523459E+03  0.73974453076E+02  0.21320270331E+03  0.25500000920E-02 0. -1.
</event>
<event>
 5   0  0.2503680E-04  0.9992759E+03  0.7818609E-02  0.9309339E-01
        2   -1    0    0  501    0  0.00000000000E+00  0.00000000000E+00  0.47789536783E+03  0.47789536784E+03  0.25500000920E-02 0. -1.
       -2   -1    0    0    0  501  0.00000000000E+00  0.00000000000E+00 -0.52236973930E+03  0.52236973930E+03  0.25500000920E-02 0.  1.
    10030    2    1    2    0    0  0.00000000000E+00  0.00000000000E+00 -0.44474371465E+02  0.10002651071E+04  0.99927589526E+03 0.  0.
        2    1    3    3  502    0 -0.46615713098E+03  0.17762385246E+03  0.58150990843E+01  0.49888527650E+03  0.25500000920E-02 0.  1.
       -2    1    3    3    0  502  0.46615713098E+03 -0.17762385246E+03 -0.50289470549E+02  0.50137983064E+03  0.25500000920E-02 0. -1.
</event>
<event>
 5   0  0.1430675E-04  0.1000503E+04  0.7818609E-02  0.9307993E-01
       -1   -1    0    0    0  501  0.00000000000E+00  0.00000000000E+00  0.26421210893E+03  0.26421210897E+03  0.50400001928E-02 0.  1.
        1   -1    0    0  501    0  0.00000000000E+00  0.00000000000E+00 -0.94716250775E+03  0.94716250776E+03  0.50400001928E-02 0. -1.
    10030    2    1    2    0    0  0.00000000000E+00  0.00000000000E+00 -0.68295039882E+03  0.12113746167E+04  0.10005034807E+04 0.  0.
        5    1    3    3  502    0 -0.19604407763E+03 -0.38901900317E+03 -0.63918714841E+03  0.77353174847E+03  0.46999998093E+01 0. -1.
       -5    1    3    3    0  502  0.19604407763E+03  0.38901900317E+03 -0.43763250410E+02  0.43784286826E+03  0.46999998093E+01 0.  1.
</event>
<event>
 5   0  0.1414165E-04  0.9997868E+03  0.7818609E-02  0.9308779E-01
       -1   -1    0    0    0  501  0.00000000000E+00  0.00000000000E+00  0.12828625883E+03  0.12828625893E+03  0.50400001928E-02 0. -1.
        1   -1    0    0  501    0  0.00000000000E+00  0.00000000000E+00 -0.19479359323E+04  0.19479359323E+04  0.50400001928E-02 0.  1.
    10030    2    1    2    0    0  0.00000000000E+00  0.00000000000E+00 -0.18196496735E+04  0.20762221913E+04  0.99978680388E+03 0.  0.
        4    1    3    3  502    0  0.67780425206E+02 -0.19882941152E+03 -0.18518264169E+04  0.18637033059E+04  0.12699999809E+01 0.  1.
       -4    1    3    3    0  502 -0.67780425206E+02  0.19882941152E+03  0.32176743443E+02  0.21251888539E+03  0.12699999809E+01 0. -1.
</event>
<event>
 5   0  0.2503680E-04  0.9999794E+03  0.7818609E-02  0.9308567E-01
        2   -1    0    0  501    0  0.00000000000E+00  0.00000000000E+00  0.69514345711E+03  0.69514345711E+03  0.25500000920E-02 0.  1.
       -2   -1    0    0    0  501  0.00000000000E+00  0.00000000000E+00 -0.35962319552E+03  0.35962319553E+03  0.25500000920E-02 0. -1.
    10030    2    1    2    0    0  0.00000000000E+00  0.00000000000E+00  0.33552026159E+03  0.10547666526E+04  0.99997942258E+03 0.  0.
        2    1    3    3  502    0 -0.33309601461E+03  0.18375684667E+03 -0.17446981273E+03  0.41852030919E+03  0.25500000920E-02 0. -1.
       -2    1    3    3    0  502  0.33309601461E+03 -0.18375684667E+03  0.50999007431E+03  0.63624634345E+03  0.25500000920E-02 0.  1.
</event>
<event>
 5   0  0.2503680E-04  0.1000067E+04  0.7818609E-02  0.9308471E-01
        2   -1    0    0  501    0  0.00000000000E+00  0.00000000000E+00  0.46273826163E+03  0.46273826164E+03  0.25500000920E-02 0.  1.
       -2   -1    0    0    0  501  0.00000000000E+00  0.00000000000E+00 -0.54033512850E+03  0.54033512851E+03  0.25500000920E-02 0. -1.
    10030    2    1    2    0    0  0.00000000000E+00  0.00000000000E+00 -0.77596866870E+02  0.10030733901E+04  0.10000674739E+04 0.  0.
        2    1    3    3  502    0  0.35959541162E+03  0.22429689899E+03 -0.30495574514E+03  0.52212638839E+03  0.25500000920E-02 0. -1.
       -2    1    3    3    0  502 -0.35959541162E+03 -0.22429689899E+03  0.22735887827E+03  0.48094700175E+03  0.25500000920E-02 0.  1.
</event>
<event>
 5   0  0.9650500E-05  0.1001165E+04  0.7818609E-02  0.9307268E-01
       -3   -1    0    0    0  501  0.00000000000E+00  0.00000000000E+00  0.60642740370E+03  0.60642741211E+03  0.10100000352E+00 0. -1.
        3   -1    0    0  501    0  0.00000000000E+00  0.00000000000E+00 -0.41321173096E+03  0.41321174330E+03  0.10100000352E+00 0.  1.
    10030    2    1    2    0    0  0.00000000000E+00  0.00000000000E+00  0.19321567273E+03  0.10196391554E+04  0.10011651767E+04 0.  0.
        2    1    3    3  502    0 -0.18968696643E+03  0.45652301942E+03  0.16489116281E+02  0.49463754756E+03  0.25500000920E-02 0.  1.
       -2    1    3    3    0  502  0.18968696643E+03 -0.45652301942E+03  0.17672655645E+03  0.52500160786E+03  0.25500000920E-02 0. -1.
</event>
<event>
 5   0  0.2484904E-04  0.9936847E+03  0.7818609E-02  0.9315499E-01
        2   -1    0    0  501    0  0.00000000000E+00  0.00000000000E+00  0.55926457937E+03  0.55926457937E+03  0.25500000920E-02 0. -1.
       -2   -1    0    0    0  501  0.00000000000E+00  0.00000000000E+00 -0.44138737996E+03  0.44138737997E+03  0.25500000920E-02 0.  1.
    10030    2    1    2    0    0  0.00000000000E+00  0.00000000000E+00  0.11787719940E+03  0.10006519593E+04  0.99368471338E+03 0.  0.
        3    1    3    3  502    0  0.19565853873E+03 -0.64772353437E+02  0.51418644264E+03  0.55395435691E+03  0.10100000352E+00 0. -1.
       -3    1    3    3    0  502 -0.19565853873E+03  0.64772353437E+02 -0.39630924323E+03  0.44669760243E+03  0.10100000352E+00 0.  1.
</event>
<event>
 5   0  0.9650500E-05  0.1000181E+04  0.7818609E-02  0.9308346E-01
        4   -1    0    0  501    0  0.00000000000E+00  0.00000000000E+00  0.62298362941E+03  0.62298492390E+03  0.12699999809E+01 0. -1.
       -4   -1    0    0    0  501  0.00000000000E+00  0.00000000000E+00 -0.40143748516E+03  0.40143949406E+03  0.12699999809E+01 0.  1.
    10030    2    1    2    0    0  0.00000000000E+00  0.00000000000E+00  0.22154614425E+03  0.10244244180E+04  0.10001813306E+04 0.  0.
        4    1    3    3  502    0  0.34012955310E+03 -0.36352974170E+03  0.15932538535E+03  0.52271232748E+03  0.12699999809E+01 0. -1.
       -4    1    3    3    0  502 -0.34012955310E+03  0.36352974170E+03  0.62220758904E+02  0.50171209047E+03  0.12699999809E+01 0.  1.
</event>
<event>
 5   0  0.1414165E-04  0.9998319E+03  0.7818609E-02  0.9308729E-01
       -1   -1    0    0    0  501  0.00000000000E+00  0.00000000000E+00  0.41511195629E+03  0.41511195632E+03  0.50400001928E-02 0.  1.
        1   -1    0    0  501    0  0.00000000000E+00  0.00000000000E+00 -0.60204475649E+03  0.60204475652E+03  0.50400001928E-02 0. -1.
    10030    2    1    2    0    0  0.00000000000E+00  0.00000000000E+00 -0.18693280021E+03  0.10171567128E+04  0.99983193921E+03 0.  0.
        4    1    3    3  502    0 -0.34030442729E+03 -0.36274056129E+03 -0.42330671900E+02  0.49918064538E+03  0.12699999809E+01 0. -1.
       -4    1    3    3    0  502  0.34030442729E+03  0.36274056129E+03 -0.14460212831E+03  0.51797606745E+03  0.12699999809E+01 0.  1.
</event>
<event>
 5   0  0.2503680E-04  0.1000081E+04  0.7818609E-02  0.9308455E-01
        2   -1    0    0  501    0  0.00000000000E+00  0.00000000000E+00  0.51474214812E+03  0.51474214813E+03  0.25500000920E-02 0. -1.
       -2   -1    0    0    0  501  0.00000000000E+00  0.00000000000E+00 -0.48575919445E+03  0.48575919446E+03  0.25500000920E-02 0.  1.
    10030    2    1    2    0    0  0.00000000000E+00  0.00000000000E+00  0.28982953672E+02  0.10005013426E+04  0.10000814591E+04 0.  0.
        2    1    3    3  502    0  0.69526622816E+02 -0.60922497042E+02  0.50611944089E+03  0.51449236183E+03  0.25500000920E-02 0. -1.
       -2    1    3    3    0  502 -0.69526622816E+02  0.60922497042E+02 -0.47713648722E+03  0.48600898075E+03  0.25500000920E-02 0.  1.
</event>
<event>
 5   0  0.2473312E-04  0.9997689E+03  0.7818609E-02  0.9308798E-01
       -2   -1    0    0    0  501  0.00000000000E+00  0.00000000000E+00  0.48430345996E+03  0.48430345997E+03  0.25500000920E-02 0.  1.
        2   -1    0    0  501    0  0.00000000000E+00  0.00000000000E+00 -0.51596667545E+03  0.51596667546E+03  0.25500000920E-02 0. -1.
    10030    2    1    2    0    0  0.00000000000E+00  0.00000000000E+00 -0.31663215490E+02  0.10002701354E+04  0.99976886559E+03 0.  0.
        5    1    3    3  502    0  0.19271101013E+03 -0.20560878702E+03 -0.42889433242E+03  0.51321042966E+03  0.46999998093E+01 0. -1.
       -5    1    3    3    0  502 -0.19271101013E+03  0.20560878702E+03  0.39723111693E+03  0.48705970577E+03  0.46999998093E+01 0.  1.
</event>
<event>
 5   0  0.9650500E-05  0.9992408E+03  0.7818609E-02  0.9309378E-01
        4   -1    0    0  501    0  0.00000000000E+00  0.00000000000E+00  0.12545379527E+04  0.12545385956E+04  0.12699999809E+01 0. -1.
       -4   -1    0    0    0  501  0.00000000000E+00  0.00000000000E+00 -0.19897137367E+03  0.19897542673E+03  0.12699999809E+01 0.  1.
    10030    2    1    2    0    0  0.00000000000E+00  0.00000000000E+00  0.10555665791E+04  0.14535140223E+04  0.99924081690E+03 0.  0.
        2    1    3    3  502    0  0.56365063097E+02 -0.35730255134E+03  0.10291065208E+04  0.10908264595E+04  0.25500000920E-02 0. -1.
       -2    1    3    3    0  502 -0.56365063097E+02  0.35730255134E+03  0.26460058270E+02  0.36268756282E+03  0.25500000920E-02 0.  1.
</event>
<event>
 5   0  0.1430675E-04  0.9993675E+03  0.7818609E-02  0.9309239E-01
       -1   -1    0    0    0  501  0.00000000000E+00  0.00000000000E+00  0.41541156261E+03  0.41541156264E+03  0.50400001928E-02 0. -1.
        1   -1    0    0  501    0  0.00000000000E+00  0.00000000000E+00 -0.60105177946E+03  0.60105177948E+03  0.50400001928E-02 0.  1.
    10030    2    1    2    0    0  0.00000000000E+00  0.00000000000E+00 -0.18564021685E+03  0.10164633421E+04  0.99936751786E+03 0.  0.
        5    1    3    3  502    0 -0.31514170811E+03 -0.13332218955E+03 -0.46315402399E+03  0.57586703531E+03  0.46999998093E+01 0.  1.
       -5    1    3    3    0  502  0.31514170811E+03  0.13332218955E+03  0.27751380714E+03  0.44059630681E+03  0.46999998093E+01 0. -1.
</event>
<event>
 5   0  0.2353916E-04  0.9988301E+03  0.7818609E-02  0.9309829E-01
        2   -1    0    0  501    0  0.00000000000E+00  0.00000000000E+00  0.64675922962E+03  0.64675922962E+03  0.25500000920E-02 0.  1.
       -2   -1    0    0    0  501  0.00000000000E+00  0.00000000000E+00 -0.38563870807E+03  0.38563870807E+03  0.25500000920E-02 0. -1.
    10030    2    1    2    0    0  0.00000000000E+00  0.00000000000E+00  0.26112052155E+03  0.10323979377E+04  0.99883010317E+03 0.  0.
        4    1    3    3  502    0  0.36471666686E+03 -0.29760239489E+03  0.30298485826E+03  0.55980967280E+03  0.12699999809E+01 0.  1.
       -4    1    3    3    0  502 -0.36471666686E+03  0.29760239489E+03 -0.41864336707E+02  0.47258826490E+03  0.12699999809E+01 0. -1.
</event>
<event>
 5   0  0.1506454E-04  0.1000370E+04  0.7818609E-02  0.9308139E-01
        1   -1    0    0  501    0  0.00000000000E+00  0.00000000000E+00  0.55891590561E+03  0.55891590564E+03  0.50400001928E-02 0.  1.
       -1   -1    0    0    0  501  0.00000000000E+00  0.00000000000E+00 -0.44762574575E+03  0.44762574578E+03  0.50400001928E-02 0. -1.
    10030    2    1    2    0    0  0.00000000000E+00  0.00000000000E+00  0.11129015986E+03  0.10065416514E+04  0.10003702296E+04 0.  0.
        3    1    3    3  502    0  0.44913462819E+03 -0.21318248164E+03  0.38400133832E+00  0.49716078122E+03  0.10100000352E+00 0. -1.
       -3    1    3    3    0  502 -0.44913462819E+03  0.21318248164E+03  0.11090615853E+03  0.50938087020E+03  0.10100000352E+00 0.  1.
</event>
<event>
 5   0  0.1461334E-04  0.9995129E+03  0.7818609E-02  0.9309079E-01
        1   -1    0    0  501    0  0.00000000000E+00  0.00000000000E+00  0.86016015811E+03  0.86016015812E+03  0.50400001928E-02 0. -1.
       -1   -1    0    0    0  501  0.00000000000E+00  0.00000000000E+00 -0.29036046585E+03  0.29036046589E+03  0.50400001928E-02 0.  1.
    10030    2    1    2    0    0  0.00000000000E+00  0.00000000000E+00  0.56979969226E+03  0.11505206240E+04  0.99951288985E+03 0.  0.
        2    1    3    3  502    0  0.31898568191E+03 -0.30361631326E+03  0.55686159375E+03  0.70995039654E+03  0.25500000920E-02 0. -1.
       -2    1    3    3    0  502 -0.31898568191E+03  0.30361631326E+03  0.12938098507E+02  0.44057022747E+03  0.25500000920E-02 0.  1.
</event>
<event>
 5   0  0.2503680E-04  0.1000104E+04  0.7818609E-02  0.9308431E-01
       -2   -1    0    0    0  501  0.00000000000E+00  0.00000000000E+00  0.15804906453E+03  0.15804906455E+03  0.25500000920E-02 0.  1.
        2   -1    0    0  501    0  0.00000000000E+00  0.00000000000E+00 -0.15821166969E+04  0.15821166969E+04  0.25500000920E-02 0. -1.
    10030    2    1    2    0    0  0.00000000000E+00  0.00000000000E+00 -0.14240676324E+04  0.17401657614E+04  0.10001041224E+04 0.  0.
        2    1    3    3  502    0  0.60764518800E+02 -0.48474934400E+03 -0.89763244075E+03  0.10219678331E+04  0.25500000920E-02 0.  1.
       -2    1    3    3    0  502 -0.60764518800E+02  0.48474934400E+03 -0.52643519161E+03  0.71819792831E+03  0.25500000920E-02 0. -1.
</event>
<event>
 5   0  0.2484904E-04  0.9995502E+03  0.7818609E-02  0.9309038E-01
       -2   -1    0    0    0  501  0.00000000000E+00  0.00000000000E+00  0.10275742558E+04  0.10275742558E+04  0.25500000920E-02 0. -1.
        2   -1    0    0  501    0  0.00000000000E+00  0.00000000000E+00 -0.24307260307E+03  0.24307260309E+03  0.25500000920E-02 0.  1.
    10030    2    1    2    0    0  0.00000000000E+00  0.00000000000E+00  0.78450165271E+03  0.12706468589E+04  0.99955019727E+03 0.  0.
        3    1    3    3  502    0  0.32031766897E+02  0.33150240153E+03 -0.81447041782E+02  0.34286076930E+03  0.10100000352E+00 0.  1.
       -3    1    3    3    0  502 -0.32031766897E+02 -0.33150240153E+03  0.86594869450E+03  0.92778608958E+03  0.10100000352E+00 0. -1.
</event>
<event>
 5   0  0.1414165E-04  0.9997865E+03  0.7818609E-02  0.9308779E-01
        1   -1    0    0  501    0  0.00000000000E+00  0.00000000000E+00  0.51892077227E+03  0.51892077230E+03  0.50400001928E-02 0. -1.
       -1   -1    0    0    0  501  0.00000000000E+00  0.00000000000E+00 -0.48156342997E+03  0.48156343000E+03  0.50400001928E-02 0.  1.
    10030    2    1    2    0    0  0.00000000000E+00  0.00000000000E+00  0.37357342297E+02  0.10004842023E+04  0.99978651122E+03 0.  0.
        4    1    3    3  502    0  0.26707783596E+03  0.89681918367E+02 -0.39454803311E+03  0.48481252075E+03  0.12699999809E+01 0.  1.
       -4    1    3    3    0  502 -0.26707783596E+03 -0.89681918367E+02  0.43190537541E+03  0.51567168155E+03  0.12699999809E+01 0. -1.
</event>
<event>
 5   0  0.2484904E-04  0.9996466E+03  0.7818609E-02  0.9308933E-01
        2   -1    0    0  501    0  0.00000000000E+00  0.00000000000E+00  0.21906808900E+04  0.21906808900E+04  0.25500000920E-02 0.  1.
       -2   -1    0    0    0  501  0.00000000000E+00  0.00000000000E+00 -0.11403912174E+03  0.11403912177E+03  0.25500000920E-02 0. -1.
    10030    2    1    2    0    0  0.00000000000E+00  0.00000000000E+00  0.20766417682E+04  0.23047200117E+04  0.99964658704E+03 0.  0.
        3    1    3    3  502    0  0.72304107142E+02  0.48592140417E+03  0.12505781363E+04  0.13436119901E+04  0.10100000352E+00 0.  1.
       -3    1    3    3    0  502 -0.72304107142E+02 -0.48592140417E+03  0.82606363196E+03  0.96110802160E+03  0.10100000352E+00 0. -1.
</event>
<event>
 5   0  0.9650500E-05  0.1000012E+04  0.7818609E-02  0.9308532E-01
       -3   -1    0    0    0  501  0.00000000000E+00  0.00000000000E+00  0.42568719422E+03  0.42568720620E+03  0.10100000352E+00 0. -1.
        3   -1    0    0  501    0  0.00000000000E+00  0.00000000000E+00 -0.58729976252E+03  0.58729977121E+03  0.10100000352E+00 0.  1.
    10030    2    1    2    0    0  0.00000000000E+00  0.00000000000E+00 -0.16161256831E+03  0.10129869774E+04  0.10000119970E+04 0.  0.
        3    1    3    3  502    0 -0.13557262358E+03 -0.81066751279E+02 -0.56136033876E+03  0.58316137951E+03  0.10100000352E+00 0.  1.
       -3    1    3    3    0  502  0.13557262358E+03  0.81066751279E+02  0.39974777045E+03  0.42982559789E+03  0.10100000352E+00 0. -1.
</event>
<event>
 5   0  0.1506454E-04  0.1000089E+04  0.7818609E-02  0.9308447E-01
       -1   -1    0    0    0  501  0.00000000000E+00  0.00000000000E+00  0.97522909165E+03  0.97522909166E+03  0.50400001928E-02 0.  1.
        1   -1    0    0  501    0  0.00000000000E+00  0.00000000000E+00 -0.25639557699E+03  0.25639557704E+03  0.50400001928E-02 0. -1.
    10030    2    1    2    0    0  0.00000000000E+00  0.00000000000E+00  0.71883351466E+03  0.12316246687E+04  0.10000888474E+04 0.  0.
        3    1    3    3  502    0 -0.31932644803E+03 -0.24944810033E+03 -0.14207427006E+01  0.40521076477E+03  0.10100000352E+00 0. -1.
       -3    1    3    3    0  502  0.31932644803E+03  0.24944810033E+03  0.72025425736E+03  0.82641390394E+03  0.10100000352E+00 0.  1.
</event>
<event>
 5   0  0.2503680E-04  0.1000008E+04  0.7818609E-02  0.9308537E-01
        2   -1    0    0  501    0  0.00000000000E+00  0.00000000000E+00  0.12040410414E+04  0.12040410414E+04  0.25500000920E-02 0. -1.
       -2   -1    0    0    0  501  0.00000000000E+00  0.00000000000E+00 -0.20763724921E+03  0.20763724923E+03  0.25500000920E-02 0.  1.
    10030    2    1    2    0    0  0.00000000000E+00  0.00000000000E+00  0.99640379216E+03  0.14116782906E+04  0.10000075395E+04 0.  0.
        2    1    3    3  502    0 -0.49124706835E+03  0.35922651416E+02  0.37685060041E+03  0.62018585447E+03  0.25500000920E-02 0. -1.
       -2    1    3    3    0  502  0.49124706835E+03 -0.35922651416E+02  0.61955319174E+03  0.79149243613E+03  0.25500000920E-02 0.  1.
</event>
<event>
 5   0  0.2484904E-04  0.9999693E+03  0.7818609E-02  0.9308578E-01
       -2   -1    0    0    0  501  0.00000000000E+00  0.00000000000E+00  0.14209339581E+04  0.14209339581E+04  0.25500000920E-02 0.  1.
        2   -1    0    0  501    0  0.00000000000E+00  0.00000000000E+00 -0.17592983372E+03  0.17592983374E+03  0.25500000920E-02 0. -1.
    10030    2    1    2    0    0  0.00000000000E+00  0.00000000000E+00  0.12450041244E+04  0.15968637918E+04  0.99996934951E+03 0.  0.
        3    1    3    3  502    0  0.15714453707E+03  0.10862351842E+03 -0.11535317574E+03  0.22315877675E+03  0.10100000352E+00 0. -1.
       -3    1    3    3    0  502 -0.15714453707E+03 -0.10862351842E+03  0.13603573001E+04  0.13737050151E+04  0.10100000352E+00 0.  1.
</event>
<event>
 5   0  0.2403037E-04  0.1000775E+04  0.7818609E-02  0.9307695E-01
       -2   -1    0    0    0  501  0.00000000000E+00  0.00000000000E+00  0.10575863420E+03  0.10575863423E+03  0.25500000920E-02 0.  1.
        2   -1    0    0  501    0  0.00000000000E+00  0.00000000000E+00 -0.23675402900E+04  0.23675402900E+04  0.25500000920E-02 0. -1.
    10030    2    1    2    0    0  0.00000000000E+00  0.00000000000E+00 -0.22617816558E+04  0.24732989243E+04  0.10007753545E+04 0.  0.
        1    1    3    3  502    0 -0.26368093955E+03  0.40045833642E+03 -0.14846812457E+04  0.15601836169E+04  0.50400001928E-02 0. -1.
       -1    1    3    3    0  502  0.26368093955E+03 -0.40045833642E+03 -0.77710041013E+03  0.91311530736E+03  0.50400001928E-02 0.  1.
</event>
<event>
 5   0  0.1414165E-04  0.1000168E+04  0.7818609E-02  0.9308361E-01
        1   -1    0    0  501    0  0.00000000000E+00  0.00000000000E+00  0.44892911159E+03  0.44892911162E+03  0.50400001928E-02 0.  1.
       -1   -1    0    0    0  501  0.00000000000E+00  0.00000000000E+00 -0.55706769788E+03  0.55706769790E+03  0.50400001928E-02 0. -1.
    10030    2    1    2    0    0  0.00000000000E+00  0.00000000000E+00 -0.10813858629E+03  0.10059968095E+04  0.10001677994E+04 0.  0.
        4    1    3    3  502    0 -0.30918182294E+03 -0.95930498656E+02  0.32931645790E+03  0.46178675008E+03  0.12699999809E+01 0.  1.
       -4    1    3    3    0  502  0.30918182294E+03  0.95930498656E+02 -0.43745504419E+03  0.54421005944E+03  0.12699999809E+01 0. -1.
</event>
<event>
 5   0  0.2484904E-04  0.1000111E+04  0.7818609E-02  0.9308423E-01
        2   -1    0    0  501    0  0.00000000000E+00  0.00000000000E+00  0.63982902289E+03  0.63982902289E+03  0.25500000920E-02 0. -1.
       -2   -1    0    0    0  501  0.00000000000E+00  0.00000000000E+00 -0.39081603921E+03  0.39081603922E+03  0.25500000920E-02 0.  1.
    10030    2    1    2    0    0  0.00000000000E+00  0.00000000000E+00  0.24901298368E+03  0.10306450621E+04  0.10001108829E+04 0.  0.
        3    1    3    3  502    0 -0.24385651107E+03  0.32663197896E+03 -0.17399362653E+03  0.44320225625E+03  0.10100000352E+00 0.  1.
       -3    1    3    3    0  502  0.24385651107E+03 -0.32663197896E+03  0.42300661021E+03  0.58744280586E+03  0.10100000352E+00 0. -1.
</event>
<event>
 5   0  0.1414165E-04  0.9995319E+03  0.7818609E-02  0.9309058E-01
       -1   -1    0    0    0  501  0.00000000000E+00  0.00000000000E+00  0.11138363528E+03  0.11138363540E+03  0.50400001928E-02 0. -1.
        1   -1    0    0  501    0  0.00000000000E+00  0.00000000000E+00 -0.22423942140E+04  0.22423942140E+04  0.50400001928E-02 0.  1.
    10030    2    1    2    0    0  0.00000000000E+00  0.00000000000E+00 -0.21310105787E+04  0.23537778494E+04  0.99953192931E+03 0.  0.
        4    1    3    3  502    0  0.19520029437E+03 -0.34716713709E+03 -0.17764148102E+04  0.18205162364E+04  0.12699999809E+01 0.  1.
       -4    1    3    3    0  502 -0.19520029437E+03  0.34716713709E+03 -0.35459576847E+03  0.53326161301E+03  0.12699999809E+01 0. -1.
</event>
<event>
 5   0  0.2473312E-04  0.9998940E+03  0.7818609E-02  0.9308661E-01
        2   -1    0    0  501    0  0.00000000000E+00  0.00000000000E+00  0.98952521712E+03  0.98952521712E+03  0.25500000920E-02 0. -1.
       -2   -1    0    0    0  501  0.00000000000E+00  0.00000000000E+00 -0.25259286354E+03  0.25259286355E+03  0.25500000920E-02 0.  1.
    10030    2    1    2    0    0  0.00000000000E+00  0.00000000000E+00  0.73693235358E+03  0.12421180807E+04  0.99989401067E+03 0.  0.
        5    1    3    3  502    0 -0.41850592458E+03 -0.65441620246E+02  0.38637514739E+02  0.42537602437E+03  0.46999998093E+01 0.  1.
       -5    1    3    3    0  502  0.41850592458E+03  0.65441620246E+02  0.69829483884E+03  0.81674205630E+03  0.46999998093E+01 0. -1.
</event>
<event>
 5   0  0.1414165E-04  0.9997319E+03  0.7818609E-02  0.9308839E-01
        1   -1    0    0  501    0  0.00000000000E+00  0.00000000000E+00  0.10094153328E+04  0.10094153328E+04  0.50400001928E-02 0. -1.
       -1   -1    0    0    0  501  0.00000000000E+00  0.00000000000E+00 -0.24753535785E+03  0.24753535790E+03  0.50400001928E-02 0.  1.
    10030    2    1    2    0    0  0.00000000000E+00  0.00000000000E+00  0.76187997495E+03  0.12569506907E+04  0.99973193540E+03 0.  0.
        4    1    3    3  502    0 -0.29797310330E+03 -0.24319718122E+03  0.78235069645E+03  0.87178384040E+03  0.12699999809E+01 0. -1.
       -4    1    3    3    0  502  0.29797310330E+03  0.24319718122E+03 -0.20470721498E+02  0.38516685032E+03  0.12699999809E+01 0.  1.
</event>
<event>
 5   0  0.1506454E-04  0.9991425E+03  0.7818609E-02  0.9309486E-01
        1   -1    0    0  501    0  0.00000000000E+00  0.00000000000E+00  0.10637909644E+04  0.10637909644E+04  0.50400001928E-02 0.  1.
       -1   -1    0    0    0  501  0.00000000000E+00  0.00000000000E+00 -0.23460569975E+03  0.23460569981E+03  0.50400001928E-02 0. -1.
    10030    2    1    2    0    0  0.00000000000E+00  0.00000000000E+00  0.82918526466E+03  0.12983966642E+04  0.99914247961E+03 0.  0.
        3    1    3    3  502    0 -0.14137957033E+03  0.45274616097E+03  0.21075512513E+03  0.51902312295E+03  0.10100000352E+00 0. -1.
       -3    1    3    3    0  502  0.14137957033E+03 -0.45274616097E+03  0.61843013952E+03  0.77937354128E+03  0.10100000352E+00 0.  1.
</event>
<event>
 5   0  0.2403037E-04  0.9999112E+03  0.7818609E-02  0.9308642E-01
       -2   -1    0    0    0  501  0.00000000000E+00  0.00000000000E+00  0.96272925731E+02  0.96272925765E+02  0.25500000920E-02 0.  1.
        2   -1    0    0  501    0  0.00000000000E+00  0.00000000000E+00 -0.25963229799E+04  0.25963229799E+04  0.25500000920E-02 0. -1.
    10030    2    1    2    0    0  0.00000000000E+00  0.00000000000E+00 -0.25000500542E+04  0.26925959057E+04  0.99991121499E+03 0.  0.
        1    1    3    3  502    0  0.13465856765E+03  0.47275032613E+03 -0.14957941142E+04  0.15744922461E+04  0.50400001928E-02 0. -1.
       -1    1    3    3    0  502 -0.13465856765E+03 -0.47275032613E+03 -0.10042559399E+04  0.11181036596E+04  0.50400001928E-02 0.  1.
</event>
<event>
 5   0  0.2353916E-04  0.9989862E+03  0.7818609E-02  0.9309657E-01
        2   -1    0    0  501    0  0.00000000000E+00  0.00000000000E+00  0.76744231417E+03  0.76744231417E+03  0.25500000920E-02 0. -1.
       -2   -1    0    0    0  501  0.00000000000E+00  0.00000000000E+00 -0.32509719165E+03  0.32509719166E+03  0.25500000920E-02 0.  1.
    10030    2    1    2    0    0  0.00000000000E+00  0.00000000000E+00  0.44234512252E+03  0.10925395058E+04  0.99898616827E+03 0.  0.
        4    1    3    3  502    0  0.10265032946E+03  0.13203231834E+03  0.73591053606E+03  0.75467579344E+03  0.12699999809E+01 0. -1.
       -4    1    3    3    0  502 -0.10265032946E+03 -0.13203231834E+03 -0.29356541354E+03  0.33786371239E+03  0.12699999809E+01 0.  1.
</event>
<event>
 5   0  0.2484904E-04  0.1000329E+04  0.7818609E-02  0.9308184E-01
       -2   -1    0    0    0  501  0.00000000000E+00  0.00000000000E+00  0.28868257162E+03  0.28868257163E+03  0.25500000920E-02 0. -1.
        2   -1    0    0  501    0  0.00000000000E+00  0.00000000000E+00 -0.86657368677E+03  0.86657368678E+03  0.25500000920E-02 0.  1.
    10030    2    1    2    0    0  0.00000000000E+00  0.00000000000E+00 -0.57789111516E+03  0.11552562584E+04  0.10003293866E+04 0.  0.
        3    1    3    3  502    0 -0.34321733220E+03 -0.22465855260E+03  0.41548977246E+02  0.41230562704E+03  0.10100000352E+00 0. -1.
       -3    1    3    3    0  502  0.34321733220E+03  0.22465855260E+03 -0.61944009240E+03  0.74295063137E+03  0.10100000352E+00 0.  1.
</event>
<event>
 5   0  0.1461334E-04  0.1000226E+04  0.7818609E-02  0.9308297E-01
       -1   -1    0    0    0  501  0.00000000000E+00  0.00000000000E+00  0.20087108760E+03  0.20087108766E+03  0.50400001928E-02 0. -1.
        1   -1    0    0  501    0  0.00000000000E+00  0.00000000000E+00 -0.12451417460E+04  0.12451417460E+04  0.50400001928E-02 0.  1.
    10030    2    1    2    0    0  0.00000000000E+00  0.00000000000E+00 -0.10442706584E+04  0.14460128336E+04  0.10002259280E+04 0.  0.
        2    1    3    3  502    0 -0.44989167003E+03 -0.39566904731E+02 -0.83268852127E+03  0.94727938232E+03  0.25500000920E-02 0.  1.
       -2    1    3    3    0  502  0.44989167003E+03  0.39566904731E+02 -0.21158213709E+03  0.49873345130E+03  0.25500000920E-02 0. -1.
</event>
<event>
 5   0  0.1461334E-04  0.1001006E+04  0.7818609E-02  0.9307443E-01
       -1   -1    0    0    0  501  0.00000000000E+00  0.00000000000E+00  0.66123473559E+03  0.66123473561E+03  0.50400001928E-02 0. -1.
        1   -1    0    0  501    0  0.00000000000E+00  0.00000000000E+00 -0.37884137405E+03  0.37884137408E+03  0.50400001928E-02 0.  1.
    10030    2    1    2    0    0  0.00000000000E+00  0.00000000000E+00  0.28239336155E+03  0.10400761097E+04  0.10010056460E+04 0.  0.
        2    1    3    3  502    0 -0.10638141039E+03  0.39690823235E+03  0.43809414798E+03  0.60064934186E+03  0.25500000920E-02 0. -1.
       -2    1    3    3    0  502  0.10638141039E+03 -0.39690823235E+03 -0.15570078643E+03  0.43942676783E+03  0.25500000920E-02 0.  1.
</event>
<event>
 5   0  0.2473312E-04  0.1000425E+04  0.7818609E-02  0.9308079E-01
        2   -1    0    0  501    0  0.00000000000E+00  0.00000000000E+00  0.91717683667E+03  0.91717683668E+03  0.25500000920E-02 0. -1.
       -2   -1    0    0    0  501  0.00000000000E+00  0.00000000000E+00 -0.27280734334E+03  0.27280734335E+03  0.25500000920E-02 0.  1.
    10030    2    1    2    0    0  0.00000000000E+00  0.00000000000E+00  0.64436949333E+03  0.11899841800E+04  0.10004250620E+04 0.  0.
        5    1    3    3  502    0 -0.12882189213E+03  0.45567402651E+03  0.51382221537E+03  0.69876266166E+03  0.46999998093E+01 0.  1.
       -5    1    3    3    0  502  0.12882189213E+03 -0.45567402651E+03  0.13054727797E+03  0.49122151837E+03  0.46999998093E+01 0. -1.
</event>
<event>
 5   0  0.1453863E-04  0.9998209E+03  0.7818609E-02  0.9308741E-01
        1   -1    0    0  501    0  0.00000000000E+00  0.00000000000E+00  0.17288890383E+04  0.17288890384E+04  0.50400001928E-02 0.  1.
       -1   -1    0    0    0  501  0.00000000000E+00  0.00000000000E+00 -0.14454973543E+03  0.14454973552E+03  0.50400001928E-02 0. -1.
    10030    2    1    2    0    0  0.00000000000E+00  0.00000000000E+00  0.15843393029E+04  0.18734387739E+04  0.99982089029E+03 0.  0.
        1    1    3    3  502    0  0.14764486498E+03 -0.16251721128E+03  0.16337000711E+04  0.16483891447E+04  0.50400001928E-02 0.  1.
       -1    1    3    3    0  502 -0.14764486498E+03  0.16251721128E+03 -0.49360768184E+02  0.22504962914E+03  0.50400001928E-02 0. -1.
</event>
<event>
 5   0  0.2403037E-04  0.9999696E+03  0.7818609E-02  0.9308578E-01
        2   -1    0    0  501    0  0.00000000000E+00  0.00000000000E+00  0.72865540690E+03  0.72865540691E+03  0.25500000920E-02 0.  1.
       -2   -1    0    0    0  501  0.00000000000E+00  0.00000000000E+00 -0.34307685902E+03  0.34307685903E+03  0.25500000920E-02 0. -1.
    10030    2    1    2    0    0  0.00000000000E+00  0.00000000000E+00  0.38557854788E+03  0.10717322659E+04  0.99996961617E+03 0.  0.
        1    1    3    3  502    0  0.24437105276E+03  0.62482810307E+02  0.65546841985E+03  0.70232482689E+03  0.50400001928E-02 0.  1.
       -1    1    3    3    0  502 -0.24437105276E+03 -0.62482810307E+02 -0.26988987197E+03  0.36940743905E+03  0.50400001928E-02 0. -1.
</event>
<event>
 5   0  0.9650500E-05  0.9997982E+03  0.7818609E-02  0.9308766E-01
        4   -1    0    0  501    0  0.00000000000E+00  0.00000000000E+00  0.24497407414E+03  0.24497736609E+03  0.12699999809E+01 0.  1.
       -4   -1    0    0    0  501  0.00000000000E+00  0.00000000000E+00 -0.10200936949E+04  0.10200944855E+04  0.12699999809E+01 0. -1.
    10030    2    1    2    0    0  0.00000000000E+00  0.00000000000E+00 -0.77511962080E+03  0.12650718516E+04  0.99979816121E+03 0.  0.
        3    1    3    3  502    0  0.34115680641E+03  0.32400499711E+03 -0.60129105852E+03  0.76349076744E+03  0.10100000352E+00 0. -1.
       -3    1    3    3    0  502 -0.34115680641E+03 -0.32400499711E+03 -0.17382856229E+03  0.50158108416E+03  0.10100000352E+00 0.  1.
</event>
<event>
 5   0  0.1414165E-04  0.1000858E+04  0.7818609E-02  0.9307604E-01
       -1   -1    0    0    0  501  0.00000000000E+00  0.00000000000E+00  0.37806139412E+03  0.37806139416E+03  0.50400001928E-02 0. -1.
        1   -1    0    0  501    0  0.00000000000E+00  0.00000000000E+00 -0.66240368544E+03  0.66240368546E+03  0.50400001928E-02 0.  1.
    10030    2    1    2    0    0  0.00000000000E+00  0.00000000000E+00 -0.28434229132E+03  0.10404650796E+04  0.10008581534E+04 0.  0.
        4    1    3    3  502    0  0.22316450324E+03  0.38572651273E+03  0.94523684064E+02  0.45554766807E+03  0.12699999809E+01 0. -1.
       -4    1    3    3    0  502 -0.22316450324E+03 -0.38572651273E+03 -0.37886597538E+03  0.58491741155E+03  0.12699999809E+01 0.  1.
</event>
<event>
 5   0  0.1430675E-04  0.9993040E+03  0.7818609E-02  0.9309308E-01
       -1   -1    0    0    0  501  0.00000000000E+00  0.00000000000E+00  0.11056430391E+03  0.11056430403E+03  0.50400001928E-02 0.  1.
        1   -1    0    0  501    0  0.00000000000E+00  0.00000000000E+00 -0.22579812107E+04  0.22579812107E+04  0.50400001928E-02 0. -1.
    10030    2    1    2    0    0  0.00000000000E+00  0.00000000000E+00 -0.21474169068E+04  0.23685455148E+04  0.99930399971E+03 0.  0.
        5    1    3    3  502    0 -0.29394967771E+03  0.39746573526E+03 -0.90205972384E+03  0.10286492401E+04  0.46999998093E+01 0. -1.
       -5    1    3    3    0  502  0.29394967771E+03 -0.39746573526E+03 -0.12453571830E+04  0.13398962747E+04  0.46999998093E+01 0.  1.
</event>
<event>
 5   0  0.2353916E-04  0.1000093E+04  0.7818609E-02  0.9308443E-01
       -2   -1    0    0    0  501  0.00000000000E+00  0.00000000000E+00  0.41469554951E+03  0.41469554952E+03  0.25500000920E-02 0. -1.
        2   -1    0    0  501    0  0.00000000000E+00  0.00000000000E+00 -0.60296388815E+03  0.60296388816E+03  0.25500000920E-02 0.  1.
    10030    2    1    2    0    0  0.00000000000E+00  0.00000000000E+00 -0.18826833864E+03  0.10176594377E+04  0.10000928776E+04 0.  0.
        4    1    3    3  502    0 -0.21326424478E+03 -0.88722764880E+02  0.35715497135E+03  0.42534063240E+03  0.12699999809E+01 0. -1.
       -4    1    3    3    0  502  0.21326424478E+03  0.88722764880E+02 -0.54542330999E+03  0.59231880528E+03  0.12699999809E+01 0.  1.
</event>
<event>
 5   0  0.1430675E-04  0.9994282E+03  0.7818609E-02  0.9309172E-01
        1   -1    0    0  501    0  0.00000000000E+00  0.00000000000E+00  0.16410208455E+04  0.16410208455E+04  0.50400001928E-02 0. -1.
       -1   -1    0    0    0  501  0.00000000000E+00  0.00000000000E+00 -0.15217002751E+03  0.15217002760E+03  0.50400001928E-02 0.  1.
    10030    2    1    2    0    0  0.00000000000E+00  0.00000000000E+00  0.14888508180E+04  0.17931908731E+04  0.99942821110E+03 0.  0.
        5    1    3    3  502    0  0.17971828023E+03  0.37920575755E+02 -0.89365233774E+02  0.20431560225E+03  0.46999998093E+01 0.  1.
       -5    1    3    3    0  502 -0.17971828023E+03 -0.37920575755E+02  0.15782160517E+04  0.15888752708E+04  0.46999998093E+01 0. -1.
</event>
<event>
 5   0  0.2503680E-04  0.1000182E+04  0.7818609E-02  0.9308346E-01
       -2   -1    0    0    0  501  0.00000000000E+00  0.00000000000E+00  0.37835873028E+03  0.37835873029E+03  0.25500000920E-02 0.  1.
        2   -1    0    0  501    0  0.00000000000E+00  0.00000000000E+00 -0.66098863896E+03  0.66098863896E+03  0.25500000920E-02 0. -1.
    10030    2    1    2    0    0  0.00000000000E+00  0.00000000000E+00 -0.28262990867E+03  0.10393473693E+04  0.10001816279E+04 0.  0.
        2    1    3    3  502    0  0.20320369138E+03 -0.45680683139E+03 -0.15300725647E+03  0.52285317436E+03  0.25500000920E-02 0.  1.
       -2    1    3    3    0  502 -0.20320369138E+03  0.45680683139E+03 -0.12962265220E+03  0.51649419490E+03  0.25500000920E-02 0. -1.
</event>
<event>
 5   0  0.1461334E-04  0.9999010E+03  0.7818609E-02  0.9308653E-01
       -1   -1    0    0    0  501  0.00000000000E+00  0.00000000000E+00  0.52433884634E+03  0.52433884636E+03  0.50400001928E-02 0. -1.
        1   -1    0    0  501    0  0.00000000000E+00  0.00000000000E+00 -0.47669649525E+03  0.47669649527E+03  0.50400001928E-02 0.  1.
    10030    2    1    2    0    0  0.00000000000E+00  0.00000000000E+00  0.47642351091E+02  0.10010353416E+04  0.99990097589E+03 0.  0.
        2    1    3    3  502    0  0.35835785570E+03  0.34852731069E+03  0.16141008999E+02  0.50015214807E+03  0.25500000920E-02 0.  1.
       -2    1    3    3    0  502 -0.35835785570E+03 -0.34852731069E+03  0.31501342092E+02  0.50088319357E+03  0.25500000920E-02 0. -1.
</event>
<event>
 5   0  0.1414165E-04  0.9998778E+03  0.7818609E-02  0.9308679E-01
       -1   -1    0    0    0  501  0.00000000000E+00  0.00000000000E+00  0.12170439251E+04  0.12170439251E+04  0.50400001928E-02 0.  1.
        1   -1    0    0  501    0  0.00000000000E+00  0.00000000000E+00 -0.20536556081E+03  0.20536556088E+03  0.50400001928E-02 0. -1.
    10030    2    1    2    0    0  0.00000000000E+00  0.00000000000E+00  0.10116783643E+04  0.14224094860E+04  0.99987780905E+03 0.  0.
        4    1    3    3  502    0  0.35221180527E+03 -0.15496982788E+03  0.95988287648E+03  0.10341400064E+04  0.12699999809E+01 0.  1.
       -4    1    3    3    0  502 -0.35221180527E+03  0.15496982788E+03  0.51795487775E+02  0.38826947958E+03  0.12699999809E+01 0. -1.
</event>
<event>
 5   0  0.2503680E-04  0.9995152E+03  0.7818609E-02  0.9309077E-01
        2   -1    0    0  501    0  0.00000000000E+00  0.00000000000E+00  0.59978928231E+03  0.59978928232E+03  0.25500000920E-02 0. -1.
       -2   -1    0    0    0  501  0.00000000000E+00  0.00000000000E+00 -0.41640901727E+03  0.41640901727E+03  0.25500000920E-02 0.  1.
    10030    2    1    2    0    0  0.00000000000E+00  0.00000000000E+00  0.18338026504E+03  0.10161982996E+04  0.99951521373E+03 0.  0.
        2    1    3    3  502    0 -0.13311820972E+03 -0.14381665493E+02 -0.39783413279E+03  0.41976098828E+03  0.25500000920E-02 0.  1.
       -2    1    3    3    0  502  0.13311820972E+03  0.14381665493E+02  0.58121439784E+03  0.59643731131E+03  0.25500000920E-02 0. -1.
</event>
<event>
 5   0  0.2353916E-04  0.9993768E+03  0.7818609E-02  0.9309229E-01
       -2   -1    0    0    0  501  0.00000000000E+00  0.00000000000E+00  0.17225517509E+03  0.17225517511E+03  0.25500000920E-02 0. -1.
        2   -1    0    0  501    0  0.00000000000E+00  0.00000000000E+00 -0.14495267487E+04  0.14495267487E+04  0.25500000920E-02 0.  1.
    10030    2    1    2    0    0  0.00000000000E+00  0.00000000000E+00 -0.12772715737E+04  0.16217819239E+04  0.99937677364E+03 0.  0.
        4    1    3    3  502    0 -0.37820957088E+03  0.32639936574E+03 -0.65548828742E+03  0.82416353553E+03  0.12699999809E+01 0.  1.
       -4    1    3    3    0  502  0.37820957088E+03 -0.32639936574E+03 -0.62178328623E+03  0.79761838833E+03  0.12699999809E+01 0. -1.
</event>
<event>
 5   0  0.1461334E-04  0.1000498E+04  0.7818609E-02  0.9307998E-01
        1   -1    0    0  501    0  0.00000000000E+00  0.00000000000E+00  0.44671964599E+03  0.44671964602E+03  0.50400001928E-02 0.  1.
       -1   -1    0    0    0  501  0.00000000000E+00  0.00000000000E+00 -0.56019306350E+03  0.56019306352E+03  0.50400001928E-02 0. -1.
    10030    2    1    2    0    0  0.00000000000E+00  0.00000000000E+00 -0.11347341751E+03  0.10069127095E+04  0.10004983699E+04 0.  0.
        2    1    3    3  502    0 -0.20389591445E+03 -0.45282731557E+03 -0.11731501396E+03  0.51028319016E+03  0.25500000920E-02 0. -1.
       -2    1    3    3    0  502  0.20389591445E+03  0.45282731557E+03  0.38415964477E+01  0.49662951938E+03  0.25500000920E-02 0.  1.
</event>
<event>
 5   0  0.1453863E-04  0.9986799E+03  0.7818609E-02  0.9309994E-01
        1   -1    0    0  501    0  0.00000000000E+00  0.00000000000E+00  0.52013310789E+03  0.52013310791E+03  0.50400001928E-02 0.  1.
       -1   -1    0    0    0  501  0.00000000000E+00  0.00000000000E+00 -0.47937798692E+03  0.47937798695E+03  0.50400001928E-02 0. -1.
    10030    2    1    2    0    0  0.00000000000E+00  0.00000000000E+00  0.40755120970E+02  0.99951109486E+03  0.99867985304E+03 0.  0.
        1    1    3    3  502    0  0.42224466533E+03 -0.12421834439E+03  0.25641195451E+03  0.50937986309E+03  0.50400001928E-02 0.  1.
       -1    1    3    3    0  502 -0.42224466533E+03  0.12421834439E+03 -0.21565683354E+03  0.49013123177E+03  0.50400001928E-02 0. -1.
</event>
<event>
 5   0  0.1414165E-04  0.1002651E+04  0.7818609E-02  0.9305641E-01
        1   -1    0    0  501    0  0.00000000000E+00  0.00000000000E+00  0.13434359460E+04  0.13434359460E+04  0.50400001928E-02 0.  1.
       -1   -1    0    0    0  501  0.00000000000E+00  0.00000000000E+00 -0.18707814388E+03  0.18707814395E+03  0.50400001928E-02 0. -1.
    10030    2    1    2    0    0  0.00000000000E+00  0.00000000000E+00  0.11563578021E+04  0.15305140900E+04  0.10026514913E+04 0.  0.
        4    1    3    3  502    0  0.47262733006E+03  0.24041664727E+02  0.83072170932E+03  0.95606211409E+03  0.12699999809E+01 0.  1.
       -4    1    3    3    0  502 -0.47262733006E+03 -0.24041664727E+02  0.32563609281E+03  0.57445197589E+03  0.12699999809E+01 0. -1.
</event>
<event>
 5   0  0.2353916E-04  0.1000077E+04  0.7818609E-02  0.9308460E-01
        2   -1    0    0  501    0  0.00000000000E+00  0.00000000000E+00  0.21903946844E+03  0.21903946845E+03  0.25500000920E-02 0. -1.
       -2   -1    0    0    0  501  0.00000000000E+00  0.00000000000E+00 -0.11415233922E+04  0.11415233922E+04  0.25500000920E-02 0.  1.
    10030    2    1    2    0    0  0.00000000000E+00  0.00000000000E+00 -0.92248392374E+03  0.13605628606E+04  0.10000773511E+04 0.  0.
        4    1    3    3  502    0 -0.30842008771E+03  0.37767802476E+03 -0.61196091735E+03  0.78247135293E+03  0.12699999809E+01 0.  1.
       -4    1    3    3    0  502  0.30842008771E+03 -0.37767802476E+03 -0.31052300639E+03  0.57809150771E+03  0.12699999809E+01 0. -1.
</event>
<event>
 5   0  0.1506454E-04  0.9928289E+03  0.7818609E-02  0.9316445E-01
       -1   -1    0    0    0  501  0.00000000000E+00  0.00000000000E+00  0.80623936406E+03  0.80623936408E+03  0.50400001928E-02 0. -1.
        1   -1    0    0  501    0  0.00000000000E+00  0.00000000000E+00 -0.30565028909E+03  0.30565028913E+03  0.50400001928E-02 0.  1.
    10030    2    1    2    0    0  0.00000000000E+00  0.00000000000E+00  0.50058907498E+03  0.11118896532E+04  0.99282887696E+03 0.  0.
        3    1    3    3  502    0  0.20811414309E+03 -0.16872654028E+03  0.71831843700E+03  0.76665606962E+03  0.10100000352E+00 0. -1.
       -3    1    3    3    0  502 -0.20811414309E+03  0.16872654028E+03 -0.21772936202E+03  0.34523358359E+03  0.10100000352E+00 0.  1.
</event>
<event>
 5   0  0.1453863E-04  0.1000236E+04  0.7818609E-02  0.9308286E-01
       -1   -1    0    0    0  501  0.00000000000E+00  0.00000000000E+00  0.24322861162E+03  0.24322861167E+03  0.50400001928E-02 0. -1.
        1   -1    0    0  501    0  0.00000000000E+00  0.00000000000E+00 -0.10283255104E+04  0.10283255104E+04  0.50400001928E-02 0.  1.
    10030    2    1    2    0    0  0.00000000000E+00  0.00000000000E+00 -0.78509689875E+03  0.12715541221E+04  0.10002363445E+04 0.  0.
        1    1    3    3  502    0 -0.12554546509E+03  0.44514483037E+03 -0.63442964925E+03  0.78512200561E+03  0.50400001928E-02 0.  1.
       -1    1    3    3    0  502  0.12554546509E+03 -0.44514483037E+03 -0.15066724950E+03  0.48643211644E+03  0.50400001928E-02 0. -1.
</event>
<event>
 5   0  0.1453863E-04  0.1000814E+04  0.7818609E-02  0.9307652E-01
       -1   -1    0    0    0  501  0.00000000000E+00  0.00000000000E+00  0.54418807820E+03  0.54418807822E+03  0.50400001928E-02 0. -1.
        1   -1    0    0  501    0  0.00000000000E+00  0.00000000000E+00 -0.46014837476E+03  0.46014837479E+03  0.50400001928E-02 0.  1.
    10030    2    1    2    0    0  0.00000000000E+00  0.00000000000E+00  0.84039703437E+02  0.10043364530E+04  0.10008141881E+04 0.  0.
        1    1    3    3  502    0 -0.28444986226E+03 -0.33372097772E+03  0.28396137508E+03  0.52241312931E+03  0.50400001928E-02 0. -1.
       -1    1    3    3    0  502  0.28444986226E+03  0.33372097772E+03 -0.19992167164E+03  0.48192332370E+03  0.50400001928E-02 0.  1.
</event>
<event>
 5   0  0.2353916E-04  0.9994819E+03  0.7818609E-02  0.9309113E-01
       -2   -1    0    0    0  501  0.00000000000E+00  0.00000000000E+00  0.13693349424E+03  0.13693349426E+03  0.25500000920E-02 0. -1.
        2   -1    0    0  501    0  0.00000000000E+00  0.00000000000E+00 -0.18238126013E+04  0.18238126013E+04  0.25500000920E-02 0.  1.
    10030    2    1    2    0    0  0.00000000000E+00  0.00000000000E+00 -0.16868791070E+04  0.19607460955E+04  0.99948193050E+03 0.  0.
        4    1    3    3  502    0 -0.45612917653E+03  0.16567472098E+03 -0.10775188397E+04  0.11817573362E+04  0.12699999809E+01 0.  1.
       -4    1    3    3    0  502  0.45612917653E+03 -0.16567472098E+03 -0.60936026729E+03  0.77898875929E+03  0.12699999809E+01 0. -1.
</event>
<event>
 5   0  0.2484904E-04  0.9998709E+03  0.7818609E-02  0.9308686E-01
       -2   -1    0    0    0  501  0.00000000000E+00  0.00000000000E+00  0.52968508215E+03  0.52968508216E+03  0.25500000920E-02 0.  1.
        2   -1    0    0  501    0  0.00000000000E+00  0.00000000000E+00 -0.47185670280E+03  0.47185670280E+03  0.25500000920E-02 0. -1.
    10030    2    1    2    0    0  0.00000000000E+00  0.00000000000E+00  0.57828379356E+02  0.10015417850E+04  0.99987090445E+03 0.  0.
        3    1    3    3  502    0 -0.14885392602E+03  0.47041975506E+03  0.10956712010E+03  0.50542774088E+03  0.10100000352E+00 0.  1.
       -3    1    3    3    0  502  0.14885392602E+03 -0.47041975506E+03 -0.51738740749E+02  0.49611404408E+03  0.10100000352E+00 0. -1.
</event>
<event>
 5   0  0.9650500E-05  0.9995519E+03  0.7818609E-02  0.9309036E-01
       -3   -1    0    0    0  501  0.00000000000E+00  0.00000000000E+00  0.63892115253E+03  0.63892116051E+03  0.10100000352E+00 0. -1.
        3   -1    0    0  501    0  0.00000000000E+00  0.00000000000E+00 -0.39093399529E+03  0.39093400834E+03  0.10100000352E+00 0.  1.
    10030    2    1    2    0    0  0.00000000000E+00  0.00000000000E+00  0.24798715724E+03  0.10298551688E+04  0.99955191893E+03 0.  0.
        3    1    3    3  502    0 -0.31089890262E+03 -0.74632821248E+02  0.51975839740E+03  0.61022699672E+03  0.10100000352E+00 0. -1.
       -3    1    3    3    0  502  0.31089890262E+03  0.74632821248E+02 -0.27177124016E+03  0.41962817212E+03  0.10100000352E+00 0.  1.
</event>
<event>
 5   0  0.2473312E-04  0.1000997E+04  0.7818609E-02  0.9307452E-01
       -2   -1    0    0    0  501  0.00000000000E+00  0.00000000000E+00  0.13597728965E+03  0.13597728967E+03  0.25500000920E-02 0.  1.
        2   -1    0    0  501    0  0.00000000000E+00  0.00000000000E+00 -0.18422116433E+04  0.18422116433E+04  0.25500000920E-02 0. -1.
    10030    2    1    2    0    0  0.00000000000E+00  0.00000000000E+00 -0.17062343536E+04  0.19781889330E+04  0.10009973951E+04 0.  0.
        5    1    3    3  502    0 -0.22580756184E+02  0.47824379176E+03 -0.56503746999E+03  0.74061896236E+03  0.46999998093E+01 0.  1.
       -5    1    3    3    0  502  0.22580756184E+02 -0.47824379176E+03 -0.11411968836E+04  0.12375699706E+04  0.46999998093E+01 0. -1.
</event>
<event>
 5   0  0.2484904E-04  0.1001656E+04  0.7818609E-02  0.9306730E-01
        2   -1    0    0  501    0  0.00000000000E+00  0.00000000000E+00  0.11145144943E+04  0.11145144943E+04  0.25500000920E-02 0.  1.
       -2   -1    0    0    0  501  0.00000000000E+00  0.00000000000E+00 -0.22505643751E+03  0.22505643753E+03  0.25500000920E-02 0. -1.
    10030    2    1    2    0    0  0.00000000000E+00  0.00000000000E+00  0.88945805675E+03  0.13395709318E+04  0.10016559522E+04 0.  0.
        3    1    3    3  502    0 -0.32924319895E+03  0.37580769847E+03  0.49098186333E+03  0.70049675988E+03  0.10100000352E+00 0. -1.
       -3    1    3    3    0  502  0.32924319895E+03 -0.37580769847E+03  0.39847619343E+03  0.63907417192E+03  0.10100000352E+00 0.  1.
</event>
<event>
 5   0  0.1506454E-04  0.9995352E+03  0.7818609E-02  0.9309055E-01
        1   -1    0    0  501    0  0.00000000000E+00  0.00000000000E+00  0.18959148392E+04  0.18959148392E+04  0.50400001928E-02 0. -1.
       -1   -1    0    0    0  501  0.00000000000E+00  0.00000000000E+00 -0.13173991059E+03  0.13173991068E+03  0.50400001928E-02 0.  1.
    10030    2    1    2    0    0  0.00000000000E+00  0.00000000000E+00  0.17641749286E+04  0.20276547499E+04  0.99953519497E+03 0.  0.
        3    1    3    3  502    0 -0.28666135383E+03  0.40741667479E+03  0.80082794410E+03  0.94312697180E+03  0.10100000352E+00 0.  1.
       -3    1    3    3    0  502  0.28666135383E+03 -0.40741667479E+03  0.96334698451E+03  0.10845277781E+04  0.10100000352E+00 0. -1.
</event>
<event>
 5   0  0.2473312E-04  0.9940800E+03  0.7818609E-02  0.9315062E-01
       -2   -1    0    0    0  501  0.00000000000E+00  0.00000000000E+00  0.16297359949E+03  0.16297359951E+03  0.25500000920E-02 0. -1.
        2   -1    0    0  501    0  0.00000000000E+00  0.00000000000E+00 -0.15158821469E+04  0.15158821469E+04  0.25500000920E-02 0.  1.
    10030    2    1    2    0    0  0.00000000000E+00  0.00000000000E+00 -0.13529085474E+04  0.16788557464E+04  0.99408001671E+03 0.  0.
        5    1    3    3  502    0  0.29641678096E+03  0.31930324026E+03 -0.27250668198E+03  0.51390607021E+03  0.46999998093E+01 0. -1.
       -5    1    3    3    0  502 -0.29641678096E+03 -0.31930324026E+03 -0.10804018654E+04  0.11649496762E+04  0.46999998093E+01 0.  1.
</event>
<event>
 5   0  0.2503680E-04  0.9993865E+03  0.7818609E-02  0.9309218E-01
       -2   -1    0    0    0  501  0.00000000000E+00  0.00000000000E+00  0.24046010041E+03  0.24046010042E+03  0.25500000920E-02 0.  1.
        2   -1    0    0  501    0  0.00000000000E+00  0.00000000000E+00 -0.10383981730E+04  0.10383981730E+04  0.25500000920E-02 0. -1.
    10030    2    1    2    0    0  0.00000000000E+00  0.00000000000E+00 -0.79793807264E+03  0.12788582735E+04  0.99938646972E+03 0.  0.
        2    1    3    3  502    0 -0.66958872327E+02  0.48456593443E+03 -0.52950328327E+03  0.72087541392E+03  0.25500000920E-02 0. -1.
       -2    1    3    3    0  502  0.66958872327E+02 -0.48456593443E+03 -0.26843478937E+03  0.55798285955E+03  0.25500000920E-02 0.  1.
</event>
<event>
 5   0  0.2473312E-04  0.9997829E+03  0.7818609E-02  0.9308783E-01
       -2   -1    0    0    0  501  0.00000000000E+00  0.00000000000E+00  0.44844970432E+03  0.44844970433E+03  0.25500000920E-02 0. -1.
        2   -1    0    0  501    0  0.00000000000E+00  0.00000000000E+00 -0.55723405867E+03  0.55723405867E+03  0.25500000920E-02 0.  1.
    10030    2    1    2    0    0  0.00000000000E+00  0.00000000000E+00 -0.10878435434E+03  0.10056837630E+04  0.99978287414E+03 0.  0.
        5    1    3    3  502    0  0.44162377013E+03 -0.22696550443E+03  0.36062989364E+01  0.49656821277E+03  0.46999998093E+01 0. -1.
       -5    1    3    3    0  502 -0.44162377013E+03  0.22696550443E+03 -0.11239065328E+03  0.50911555023E+03  0.46999998093E+01 0.  1.
</event>
<event>
 5   0  0.1453863E-04  0.1000180E+04  0.7818609E-02  0.9308347E-01
        1   -1    0    0  501    0  0.00000000000E+00  0.00000000000E+00  0.13984797754E+04  0.13984797754E+04  0.50400001928E-02 0.  1.
       -1   -1    0    0    0  501  0.00000000000E+00  0.00000000000E+00 -0.17882994608E+03  0.17882994615E+03  0.50400001928E-02 0. -1.
    10030    2    1    2    0    0  0.00000000000E+00  0.00000000000E+00  0.12196498294E+04  0.15773097216E+04  0.10001801096E+04 0.  0.
        1    1    3    3  502    0  0.16681284662E+03 -0.73275274206E+00 -0.13366032788E+03  0.21375721274E+03  0.50400001928E-02 0. -1.
       -1    1    3    3    0  502 -0.16681284662E+03  0.73275274206E+00  0.13533101572E+04  0.13635525089E+04  0.50400001928E-02 0.  1.
</event>
<event>
 5   0  0.2503680E-04  0.1000313E+04  0.7818609E-02  0.9308202E-01
       -2   -1    0    0    0  501  0.00000000000E+00  0.00000000000E+00  0.45132932959E+03  0.45132932960E+03  0.25500000920E-02 0. -1.
        2   -1    0    0  501    0  0.00000000000E+00  0.00000000000E+00 -0.55426598338E+03  0.55426598338E+03  0.25500000920E-02 0.  1.
    10030    2    1    2    0    0  0.00000000000E+00  0.00000000000E+00 -0.10293665378E+03  0.10055953130E+04  0.10003129404E+04 0.  0.
        2    1    3    3  502    0  0.32436292786E+03  0.31936611676E+03 -0.25980767917E+03  0.52412408423E+03  0.25500000920E-02 0. -1.
       -2    1    3    3    0  502 -0.32436292786E+03 -0.31936611676E+03  0.15687102538E+03  0.48147122876E+03  0.25500000920E-02 0.  1.
</event>
<event>
 5   0  0.1430675E-04  0.9998849E+03  0.7818609E-02  0.9308671E-01
        1   -1    0    0  501    0  0.00000000000E+00  0.00000000000E+00  0.16717024845E+04  0.16717024845E+04  0.50400001928E-02 0.  1.
       -1   -1    0    0    0  501  0.00000000000E+00  0.00000000000E+00 -0.14951372359E+03  0.14951372368E+03  0.50400001928E-02 0. -1.
    10030    2    1    2    0    0  0.00000000000E+00  0.00000000000E+00  0.15221887609E+04  0.18212162082E+04  0.99988491993E+03 0.  0.
        5    1    3    3  502    0  0.17702551312E+03  0.23976815645E+03  0.30038467513E+02  0.29958504748E+03  0.46999998093E+01 0. -1.
       -5    1    3    3    0  502 -0.17702551312E+03 -0.23976815645E+03  0.14921502934E+04  0.15216311607E+04  0.46999998093E+01 0.  1.
</event>
<event>
 5   0  0.1506454E-04  0.9974651E+03  0.7818609E-02  0.9311329E-01
       -1   -1    0    0    0  501  0.00000000000E+00  0.00000000000E+00  0.51678069631E+03  0.51678069634E+03  0.50400001928E-02 0.  1.
        1   -1    0    0  501    0  0.00000000000E+00  0.00000000000E+00 -0.48131475527E+03  0.48131475530E+03  0.50400001928E-02 0. -1.
    10030    2    1    2    0    0  0.00000000000E+00  0.00000000000E+00  0.35465941042E+02  0.99809545164E+03  0.99746513603E+03 0.  0.
        3    1    3    3  502    0  0.16674224197E+03 -0.32314262767E+03  0.35928432403E+03  0.51118428064E+03  0.10100000352E+00 0.  1.
       -3    1    3    3    0  502 -0.16674224197E+03  0.32314262767E+03 -0.32381838299E+03  0.48691117100E+03  0.10100000352E+00 0. -1.
</event>
<event>
 5   0  0.2353916E-04  0.1000253E+04  0.7818609E-02  0.9308267E-01
        2   -1    0    0  501    0  0.00000000000E+00  0.00000000000E+00  0.22757412921E+04  0.22757412921E+04  0.25500000920E-02 0.  1.
       -2   -1    0    0    0  501  0.00000000000E+00  0.00000000000E+00 -0.10990992677E+03  0.10990992680E+03  0.25500000920E-02 0. -1.
    10030    2    1    2    0    0  0.00000000000E+00  0.00000000000E+00  0.21658313653E+04  0.23856512189E+04  0.10002530856E+04 0.  0.
        4    1    3    3  502    0  0.38595530649E+03 -0.16113976025E+03  0.42888437939E+03  0.59905838173E+03  0.12699999809E+01 0. -1.
       -4    1    3    3    0  502 -0.38595530649E+03  0.16113976025E+03  0.17369469859E+04  0.17865928372E+04  0.12699999809E+01 0.  1.
</event>
<event>
 5   0  0.1506454E-04  0.1000051E+04  0.7818609E-02  0.9308489E-01
        1   -1    0    0  501    0  0.00000000000E+00  0.00000000000E+00  0.92303089306E+03  0.92303089307E+03  0.50400001928E-02 0.  1.
       -1   -1    0    0    0  501  0.00000000000E+00  0.00000000000E+00 -0.27087429598E+03  0.27087429603E+03  0.50400001928E-02 0. -1.
    10030    2    1    2    0    0  0.00000000000E+00  0.00000000000E+00  0.65215659707E+03  0.11939051891E+04  0.10000506854E+04 0.  0.
        3    1    3    3  502    0  0.33232484300E+03 -0.12342234888E+03 -0.94914833519E+02  0.36699007248E+03  0.10100000352E+00 0. -1.
       -3    1    3    3    0  502 -0.33232484300E+03  0.12342234888E+03  0.74707143059E+03  0.82691511662E+03  0.10100000352E+00 0.  1.
</event>
<event>
 5   0  0.1414165E-04  0.9999771E+03  0.7818609E-02  0.9308570E-01
        1   -1    0    0  501    0  0.00000000000E+00  0.00000000000E+00  0.13321623739E+04  0.13321623739E+04  0.50400001928E-02 0. -1.
       -1   -1    0    0    0  501  0.00000000000E+00  0.00000000000E+00 -0.18765622030E+03  0.18765622037E+03  0.50400001928E-02 0.  1.
    10030    2    1    2    0    0  0.00000000000E+00  0.00000000000E+00  0.11445061535E+04  0.15198185942E+04  0.99997711167E+03 0.  0.
        4    1    3    3  502    0  0.37402568861E+03 -0.31147303162E+03  0.74605067274E+03  0.89078834993E+03  0.12699999809E+01 0.  1.
       -4    1    3    3    0  502 -0.37402568861E+03  0.31147303162E+03  0.39845548080E+03  0.62903024430E+03  0.12699999809E+01 0. -1.
</event>
<event>
 5   0  0.1506454E-04  0.1000078E+04  0.7818609E-02  0.9308459E-01
       -1   -1    0    0    0  501  0.00000000000E+00  0.00000000000E+00  0.95046034979E+03  0.95046034980E+03  0.50400001928E-02 0. -1.
        1   -1    0    0  501    0  0.00000000000E+00  0.00000000000E+00 -0.26307150880E+03  0.26307150885E+03  0.50400001928E-02 0.  1.
    10030    2    1    2    0    0  0.00000000000E+00  0.00000000000E+00  0.68738884099E+03  0.12135318587E+04  0.10000780736E+04 0.  0.
        3    1    3    3  502    0  0.35499137712E+03  0.16382761099E+03  0.72196904435E+03  0.82103451520E+03  0.10100000352E+00 0. -1.
       -3    1    3    3    0  502 -0.35499137712E+03 -0.16382761099E+03 -0.34580203359E+02  0.39249734345E+03  0.10100000352E+00 0.  1.
</event>
<event>
 5   0  0.2484904E-04  0.1000034E+04  0.7818609E-02  0.9308508E-01
       -2   -1    0    0    0  501  0.00000000000E+00  0.00000000000E+00  0.21315689930E+03  0.21315689931E+03  0.25500000920E-02 0. -1.
        2   -1    0    0  501    0  0.00000000000E+00  0.00000000000E+00 -0.11729246375E+04  0.11729246375E+04  0.25500000920E-02 0.  1.
    10030    2    1    2    0    0  0.00000000000E+00  0.00000000000E+00 -0.95976773818E+03  0.13860815368E+04  0.10000339571E+04 0.  0.
        3    1    3    3  502    0 -0.10399439282E+03  0.33404261704E+03 -0.97502548351E+03  0.10358928552E+04  0.10100000352E+00 0.  1.
       -3    1    3    3    0  502  0.10399439282E+03 -0.33404261704E+03  0.15257745326E+02  0.35018868161E+03  0.10100000352E+00 0. -1.
</event>
<event>
 5   0  0.1414165E-04  0.1000357E+04  0.7818609E-02  0.9308154E-01
       -1   -1    0    0    0  501  0.00000000000E+00  0.00000000000E+00  0.44848108292E+03  0.44848108294E+03  0.50400001928E-02 0. -1.
        1   -1    0    0  501    0  0.00000000000E+00  0.00000000000E+00 -0.55783498230E+03  0.55783498232E+03  0.50400001928E-02 0.  1.
    10030    2    1    2    0    0  0.00000000000E+00  0.00000000000E+00 -0.10935389939E+03  0.10063160653E+04  0.10003568103E+04 0.  0.
        4    1    3    3  502    0 -0.42401489504E+03  0.23488706579E+02 -0.32051713036E+03  0.53204623324E+03  0.12699999809E+01 0.  1.
       -4    1    3    3    0  502  0.42401489504E+03 -0.23488706579E+02  0.21116323097E+03  0.47426983203E+03  0.12699999809E+01 0. -1.
</event>
<event>
 5   0  0.1430675E-04  0.1000291E+04  0.7818609E-02  0.9308226E-01
        1   -1    0    0  501    0  0.00000000000E+00  0.00000000000E+00  0.94852012134E+03  0.94852012135E+03  0.50400001928E-02 0.  1.
       -1   -1    0    0    0  501  0.00000000000E+00  0.00000000000E+00 -0.26372190446E+03  0.26372190451E+03  0.50400001928E-02 0. -1.
    10030    2    1    2    0    0  0.00000000000E+00  0.00000000000E+00  0.68479821688E+03  0.12122420259E+04  0.10002910234E+04 0.  0.
        5    1    3    3  502    0 -0.32290582751E+03 -0.31634926571E+03  0.83104597070E+02  0.45964496669E+03  0.46999998093E+01 0. -1.
       -5    1    3    3    0  502  0.32290582751E+03  0.31634926571E+03  0.60169361981E+03  0.75259705917E+03  0.46999998093E+01 0.  1.
</event>
<event>
 5   0  0.2473312E-04  0.9999258E+03  0.7818609E-02  0.9308626E-01
       -2   -1    0    0    0  501  0.00000000000E+00  0.00000000000E+00  0.79100022919E+03  0.79100022920E+03  0.25500000920E-02 0.  1.
        2   -1    0    0  501    0  0.00000000000E+00  0.00000000000E+00 -0.31600862763E+03  0.31600862764E+03  0.25500000920E-02 0. -1.
    10030    2    1    2    0    0  0.00000000000E+00  0.00000000000E+00  0.47499160156E+03  0.11070088568E+04  0.99992579103E+03 0.  0.
        5    1    3    3  502    0 -0.57109301361E+02  0.43836159724E+03  0.49599253102E+03  0.66441932774E+03  0.46999998093E+01 0.  1.
       -5    1    3    3    0  502  0.57109301361E+02 -0.43836159724E+03 -0.21000929462E+02  0.44258952911E+03  0.46999998093E+01 0. -1.
</event>
<event>
 5   0  0.1430675E-04  0.1000005E+04  0.7818609E-02  0.9308540E-01
        1   -1    0    0  501    0  0.00000000000E+00  0.00000000000E+00  0.15402208226E+04  0.15402208226E+04  0.50400001928E-02 0. -1.
       -1   -1    0    0    0  501  0.00000000000E+00  0.00000000000E+00 -0.16231589592E+03  0.16231589600E+03  0.50400001928E-02 0.  1.
    10030    2    1    2    0    0  0.00000000000E+00  0.00000000000E+00  0.13779049267E+04  0.17025367186E+04  0.10000046456E+04 0.  0.
        5    1    3    3  502    0 -0.30482736279E+03 -0.39608361592E+03  0.66621998012E+03  0.83287040037E+03  0.46999998093E+01 0. -1.
       -5    1    3    3    0  502  0.30482736279E+03  0.39608361592E+03  0.71168494655E+03  0.86966631823E+03  0.46999998093E+01 0.  1.
</event>
<event>
 5   0  0.2353916E-04  0.9999350E+03  0.7818609E-02  0.9308616E-01
       -2   -1    0    0    0  501  0.00000000000E+00  0.00000000000E+00  0.13746265715E+03  0.13746265717E+03  0.25500000920E-02 0. -1.
        2   -1    0    0  501    0  0.00000000000E+00  0.00000000000E+00 -0.18184391486E+04  0.18184391486E+04  0.25500000920E-02 0.  1.
    10030    2    1    2    0    0  0.00000000000E+00  0.00000000000E+00 -0.16809764915E+04  0.19559018058E+04  0.99993495239E+03 0.  0.
        4    1    3    3  502    0  0.10069491346E+03  0.43611034766E+03 -0.40470989436E+03  0.60342639354E+03  0.12699999809E+01 0. -1.
       -4    1    3    3    0  502 -0.10069491346E+03 -0.43611034766E+03 -0.12762665971E+04  0.13524754122E+04  0.12699999809E+01 0.  1.
</event>
<event>
 5   0  0.1461334E-04  0.1000058E+04  0.7818609E-02  0.9308481E-01
        1   -1    0    0  501    0  0.00000000000E+00  0.00000000000E+00  0.10033311565E+04  0.10033311565E+04  0.50400001928E-02 0.  1.
       -1   -1    0    0    0  501  0.00000000000E+00  0.00000000000E+00 -0.24919887166E+03  0.24919887171E+03  0.50400001928E-02 0. -1.
    10030    2    1    2    0    0  0.00000000000E+00  0.00000000000E+00  0.75413228487E+03  0.12525300283E+04  0.10000579826E+04 0.  0.
        2    1    3    3  502    0  0.73665666434E+02 -0.19730768661E+03 -0.19093680849E+03  0.28427771360E+03  0.25500000920E-02 0. -1.
       -2    1    3    3    0  502 -0.73665666434E+02  0.19730768661E+03  0.94506909336E+03  0.96825231465E+03  0.25500000920E-02 0.  1.
</event>
<event>
 5   0  0.1461334E-04  0.1000143E+04  0.7818609E-02  0.9308388E-01
       -1   -1    0    0    0  501  0.00000000000E+00  0.00000000000E+00  0.78752644959E+03  0.78752644961E+03  0.50400001928E-02 0. -1.
        1   -1    0    0  501    0  0.00000000000E+00  0.00000000000E+00 -0.31754024131E+03  0.31754024135E+03  0.50400001928E-02 0.  1.
    10030    2    1    2    0    0  0.00000000000E+00  0.00000000000E+00  0.46998620828E+03  0.11050666910E+04  0.10001426676E+04 0.  0.
        2    1    3    3  502    0 -0.79582923531E+02  0.26604341818E+03  0.69450616603E+03  0.74796480982E+03  0.25500000920E-02 0. -1.
       -2    1    3    3    0  502  0.79582923531E+02 -0.26604341818E+03 -0.22451995775E+03  0.35710188114E+03  0.25500000920E-02 0.  1.
</event>
<event>
 5   0  0.1453863E-04  0.1000063E+04  0.7818609E-02  0.9308476E-01
        1   -1    0    0  501    0  0.00000000000E+00  0.00000000000E+00  0.21258438660E+04  0.21258438660E+04  0.50400001928E-02 0.  1.
       -1   -1    0    0    0  501  0.00000000000E+00  0.00000000000E+00 -0.11761514926E+03  0.11761514937E+03  0.50400001928E-02 0. -1.
    10030    2    1    2    0    0  0.00000000000E+00  0.00000000000E+00  0.20082287168E+04  0.22434590154E+04  0.10000628855E+04 0.  0.
        1    1    3    3  502    0  0.48967834989E+03 -0.33218289795E+02  0.12186194604E+04  0.13137434036E+04  0.50400001928E-02 0. -1.
       -1    1    3    3    0  502 -0.48967834989E+03  0.33218289795E+02  0.78960925634E+03  0.92971561182E+03  0.50400001928E-02 0.  1.
</event>
<event>
 5   0  0.2484904E-04  0.9994601E+03  0.7818609E-02  0.9309137E-01
        2   -1    0    0  501    0  0.00000000000E+00  0.00000000000E+00  0.58694624237E+03  0.58694624238E+03  0.25500000920E-02 0.  1.
       -2   -1    0    0    0  501  0.00000000000E+00  0.00000000000E+00 -0.42547354605E+03  0.42547354606E+03  0.25500000920E-02 0. -1.
    10030    2    1    2    0    0  0.00000000000E+00  0.00000000000E+00  0.16147269632E+03  0.10124197884E+04  0.99946005241E+03 0.  0.
        3    1    3    3  502    0 -0.20826507485E+03  0.18413338489E+03  0.50139283949E+03  0.57330117261E+03  0.10100000352E+00 0.  1.
       -3    1    3    3    0  502  0.20826507485E+03 -0.18413338489E+03 -0.33992014316E+03  0.43911861582E+03  0.10100000352E+00 0. -1.
</event>
<event>
 5   0  0.1461334E-04  0.9995135E+03  0.7818609E-02  0.9309079E-01
        1   -1    0    0  501    0  0.00000000000E+00  0.00000000000E+00  0.42419003054E+03  0.42419003057E+03  0.50400001928E-02 0.  1.
       -1   -1    0    0    0  501  0.00000000000E+00  0.00000000000E+00 -0.58878519717E+03  0.58878519720E+03  0.50400001928E-02 0. -1.
    10030    2    1    2    0    0  0.00000000000E+00  0.00000000000E+00 -0.16459516664E+03  0.10129752278E+04  0.99951350325E+03 0.  0.
        2    1    3    3  502    0 -0.30521628980E+03 -0.39534696404E+03 -0.99869067388E+02  0.50934274920E+03  0.25500000920E-02 0.  1.
       -2    1    3    3    0  502  0.30521628980E+03  0.39534696404E+03 -0.64726099250E+02  0.50363247856E+03  0.25500000920E-02 0. -1.
</event>
<event>
 5   0  0.9650500E-05  0.9999364E+03  0.7818609E-02  0.9308615E-01
       -3   -1    0    0    0  501  0.00000000000E+00  0.00000000000E+00  0.11559192381E+04  0.11559192425E+04  0.10100000352E+00 0. -1.
        3   -1    0    0  501    0  0.00000000000E+00  0.00000000000E+00 -0.21625055521E+03  0.21625057880E+03  0.10100000352E+00 0.  1.
    10030    2    1    2    0    0  0.00000000000E+00  0.00000000000E+00  0.93966868290E+03  0.13721698213E+04  0.99993639043E+03 0.  0.
        1    1    3    3  502    0  0.42465801509E+03 -0.13328356942E+02  0.10818243969E+03  0.43842389894E+03  0.50400001928E-02 0.  1.
       -1    1    3    3    0  502 -0.42465801509E+03  0.13328356942E+02  0.83148624320E+03  0.93374592237E+03  0.50400001928E-02 0. -1.
</event>
<event>
 5   0  0.1461334E-04  0.1000277E+04  0.7818609E-02  0.9308241E-01
        1   -1    0    0  501    0  0.00000000000E+00  0.00000000000E+00  0.11486835083E+04  0.11486835083E+04  0.50400001928E-02 0. -1.
       -1   -1    0    0    0  501  0.00000000000E+00  0.00000000000E+00 -0.21776108067E+03  0.21776108073E+03  0.50400001928E-02 0.  1.
    10030    2    1    2    0    0  0.00000000000E+00  0.00000000000E+00  0.93092242760E+03  0.13664445890E+04  0.10002770859E+04 0.  0.
        2    1    3    3  502    0 -0.47876173627E+03 -0.11613025602E+03  0.58328808035E+03  0.76349461109E+03  0.25500000920E-02 0. -1.
       -2    1    3    3    0  502  0.47876173627E+03  0.11613025602E+03  0.34763434725E+03  0.60294997792E+03  0.25500000920E-02 0.  1.
</event>
<event>
 5   0  0.2473312E-04  0.9999413E+03  0.7818609E-02  0.9308609E-01
        2   -1    0    0  501    0  0.00000000000E+00  0.00000000000E+00  0.18355443435E+04  0.18355443435E+04  0.25500000920E-02 0. -1.
       -2   -1    0    0    0  501  0.00000000000E+00  0.00000000000E+00 -0.13618337938E+03  0.13618337941E+03  0.25500000920E-02 0.  1.
    10030    2    1    2    0    0  0.00000000000E+00  0.00000000000E+00  0.16993609641E+04  0.19717277229E+04  0.99994126174E+03 0.  0.
        5    1    3    3  502    0 -0.37561479567E+03 -0.31763281970E+03  0.10257326420E+04  0.11375968644E+04  0.46999998093E+01 0.  1.
       -5    1    3    3    0  502  0.37561479567E+03  0.31763281970E+03  0.67362832210E+03  0.83413085857E+03  0.46999998093E+01 0. -1.
</event>
<event>
 5   0  0.2353916E-04  0.1000138E+04  0.7818609E-02  0.9308393E-01
        2   -1    0    0  501    0  0.00000000000E+00  0.00000000000E+00  0.48567258418E+03  0.48567258419E+03  0.25500000920E-02 0.  1.
       -2   -1    0    0    0  501  0.00000000000E+00  0.00000000000E+00 -0.51489261334E+03  0.51489261334E+03  0.25500000920E-02 0. -1.
    10030    2    1    2    0    0  0.00000000000E+00  0.00000000000E+00 -0.29220029153E+02  0.10005651975E+04  0.10001384426E+04 0.  0.
        4    1    3    3  502    0 -0.88555816623E+02 -0.16341243479E+03  0.44983139239E+03  0.48671927327E+03  0.12699999809E+01 0.  1.
       -4    1    3    3    0  502  0.88555816623E+02  0.16341243479E+03 -0.47905142154E+03  0.51384592426E+03  0.12699999809E+01 0. -1.
</event>
<event>
 5   0  0.1461334E-04  0.9999561E+03  0.7818609E-02  0.9308593E-01
        1   -1    0    0  501    0  0.00000000000E+00  0.00000000000E+00  0.97008489817E+03  0.97008489818E+03  0.50400001928E-02 0.  1.
       -1   -1    0    0    0  501  0.00000000000E+00  0.00000000000E+00 -0.25768678307E+03  0.25768678312E+03  0.50400001928E-02 0. -1.
    10030    2    1    2    0    0  0.00000000000E+00  0.00000000000E+00  0.71239811510E+03  0.12277716813E+04  0.99995611254E+03 0.  0.
        2    1    3    3  502    0  0.12656427769E+03 -0.12784388657E+03  0.92897077675E+03  0.94622897851E+03  0.25500000920E-02 0.  1.
       -2    1    3    3    0  502 -0.12656427769E+03  0.12784388657E+03 -0.21657266164E+03  0.28154270279E+03  0.25500000920E-02 0. -1.
</event>
<event>
 5   0  0.1453863E-04  0.9965957E+03  0.7818609E-02  0.9312287E-01
       -1   -1    0    0    0  501  0.00000000000E+00  0.00000000000E+00  0.15007620027E+03  0.15007620035E+03  0.50400001928E-02 0.  1.
        1   -1    0    0  501    0  0.00000000000E+00  0.00000000000E+00 -0.16544977150E+04  0.16544977150E+04  0.50400001928E-02 0. -1.
    10030    2    1    2    0    0  0.00000000000E+00  0.00000000000E+00 -0.15044215148E+04  0.18045739154E+04  0.99659566626E+03 0.  0.
        1    1    3    3  502    0 -0.19158317549E+03 -0.27774878985E+03 -0.14161673406E+04  0.14558085176E+04  0.50400001928E-02 0. -1.
       -1    1    3    3    0  502  0.19158317549E+03  0.27774878985E+03 -0.88254174177E+02  0.34876539777E+03  0.50400001928E-02 0.  1.
</event>
<event>
 5   0  0.1506454E-04  0.1000049E+04  0.7818609E-02  0.9308491E-01
        1   -1    0    0  501    0  0.00000000000E+00  0.00000000000E+00  0.12880463582E+04  0.12880463582E+04  0.50400001928E-02 0.  1.
       -1   -1    0    0    0  501  0.00000000000E+00  0.00000000000E+00 -0.19411141673E+03  0.19411141680E+03  0.50400001928E-02 0. -1.
    10030    2    1    2    0    0  0.00000000000E+00  0.00000000000E+00  0.10939349414E+04  0.14821577750E+04  0.10000490057E+04 0.  0.
        3    1    3    3  502    0  0.30971727704E+03  0.12670466072E+03  0.10976286830E+04  0.11475049449E+04  0.10100000352E+00 0.  1.
       -3    1    3    3    0  502 -0.30971727704E+03 -0.12670466072E+03 -0.36937415266E+01  0.33465283006E+03  0.10100000352E+00 0. -1.
</event>
<event>
 5   0  0.2503680E-04  0.9998641E+03  0.7818609E-02  0.9308694E-01
        2   -1    0    0  501    0  0.00000000000E+00  0.00000000000E+00  0.72547514727E+03  0.72547514727E+03  0.25500000920E-02 0. -1.
       -2   -1    0    0    0  501  0.00000000000E+00  0.00000000000E+00 -0.34450809094E+03  0.34450809095E+03  0.25500000920E-02 0.  1.
    10030    2    1    2    0    0  0.00000000000E+00  0.00000000000E+00  0.38096705632E+03  0.10699832382E+04  0.99986410681E+03 0.  0.
        2    1    3    3  502    0  0.47704359260E+03  0.12432520626E+03  0.10156161952E+03  0.50333101307E+03  0.25500000920E-02 0.  1.
       -2    1    3    3    0  502 -0.47704359260E+03 -0.12432520626E+03  0.27940543681E+03  0.56665222516E+03  0.25500000920E-02 0. -1.
</event>
<event>
 5   0  0.1453863E-04  0.1000085E+04  0.7818609E-02  0.9308452E-01
       -1   -1    0    0    0  501  0.00000000000E+00  0.00000000000E+00  0.21688919964E+03  0.21688919969E+03  0.50400001928E-02 0.  1.
        1   -1    0    0  501    0  0.00000000000E+00  0.00000000000E+00 -0.11528580098E+04  0.11528580098E+04  0.50400001928E-02 0. -1.
    10030    2    1    2    0    0  0.00000000000E+00  0.00000000000E+00 -0.93596881019E+03  0.13697472095E+04  0.10000848986E+04 0.  0.
        1    1    3    3  502    0 -0.48240797606E+02 -0.48624587922E+03 -0.61345069686E+03  0.78427290347E+03  0.50400001928E-02 0. -1.
       -1    1    3    3    0  502  0.48240797606E+02  0.48624587922E+03 -0.32251811334E+03  0.58547430607E+03  0.50400001928E-02 0.  1.
</event>
<event>
 5   0  0.2473312E-04  0.1000882E+04  0.7818609E-02  0.9307578E-01
        2   -1    0    0  501    0  0.00000000000E+00  0.00000000000E+00  0.16289350118E+04  0.16289350118E+04  0.25500000920E-02 0. -1.
       -2   -1    0    0    0  501  0.00000000000E+00  0.00000000000E+00 -0.15374528423E+03  0.15374528425E+03  0.25500000920E-02 0.  1.
    10030    2    1    2    0    0  0.00000000000E+00  0.00000000000E+00  0.14751897276E+04  0.17826802961E+04  0.10008817641E+04 0.  0.
        5    1    3    3  502    0  0.30295533793E+03 -0.36563758616E+03  0.10189098919E+04  0.11241317712E+04  0.46999998093E+01 0. -1.
       -5    1    3    3    0  502 -0.30295533793E+03  0.36563758616E+03  0.45627983574E+03  0.65854852493E+03  0.46999998093E+01 0.  1.
</event>
<event>
 5   0  0.1453863E-04  0.9999662E+03  0.7818609E-02  0.9308582E-01
       -1   -1    0    0    0  501  0.00000000000E+00  0.00000000000E+00  0.59002904030E+03  0.59002904032E+03  0.50400001928E-02 0. -1.
        1   -1    0    0  501    0  0.00000000000E+00  0.00000000000E+00 -0.42367927865E+03  0.42367927868E+03  0.50400001928E-02 0.  1.
    10030    2    1    2    0    0  0.00000000000E+00  0.00000000000E+00  0.16634976164E+03  0.10137083190E+04  0.99996615583E+03 0.  0.
        1    1    3    3  502    0 -0.38940143928E+03 -0.74935878892E+02  0.39188275030E+03  0.55751318986E+03  0.50400001928E-02 0. -1.
       -1    1    3    3    0  502  0.38940143928E+03  0.74935878892E+02 -0.22553298866E+03  0.45619512914E+03  0.50400001928E-02 0.  1.
</event>
<event>
 5   0  0.2503680E-04  0.1000975E+04  0.7818609E-02  0.9307476E-01
       -2   -1    0    0    0  501  0.00000000000E+00  0.00000000000E+00  0.17287933694E+03  0.17287933696E+03  0.25500000920E-02 0. -1.
        2   -1    0    0  501    0  0.00000000000E+00  0.00000000000E+00 -0.14489172897E+04  0.14489172897E+04  0.25500000920E-02 0.  1.
    10030    2    1    2    0    0  0.00000000000E+00  0.00000000000E+00 -0.12760379528E+04  0.16217966267E+04  0.10009752451E+04 0.  0.
        2    1    3    3  502    0 -0.40160442645E+03 -0.15792167843E+03 -0.22729332688E+03  0.48773725336E+03  0.25500000920E-02 0.  1.
       -2    1    3    3    0  502  0.40160442645E+03  0.15792167843E+03 -0.10487446259E+04  0.11340593733E+04  0.25500000920E-02 0. -1.
</event>
<event>
 5   0  0.1430675E-04  0.1000073E+04  0.7818609E-02  0.9308465E-01
        1   -1    0    0  501    0  0.00000000000E+00  0.00000000000E+00  0.45249806625E+03  0.45249806628E+03  0.50400001928E-02 0. -1.
       -1   -1    0    0    0  501  0.00000000000E+00  0.00000000000E+00 -0.55256881493E+03  0.55256881495E+03  0.50400001928E-02 0.  1.
    10030    2    1    2    0    0  0.00000000000E+00  0.00000000000E+00 -0.10007074867E+03  0.10050668812E+04  0.10000726379E+04 0.  0.
        5    1    3    3  502    0 -0.52638106741E+02 -0.40998878993E+03  0.23271041939E+03  0.47438149989E+03  0.46999998093E+01 0. -1.
       -5    1    3    3    0  502  0.52638106741E+02  0.40998878993E+03 -0.33278116806E+03  0.53068538134E+03  0.46999998093E+01 0.  1.
</event>
<event>
 5   0  0.2473312E-04  0.9996422E+03  0.7818609E-02  0.9308937E-01
        2   -1    0    0  501    0  0.00000000000E+00  0.00000000000E+00  0.86910957181E+03  0.86910957181E+03  0.25500000920E-02 0.  1.
       -2   -1    0    0    0  501  0.00000000000E+00  0.00000000000E+00 -0.28744494518E+03  0.28744494519E+03  0.25500000920E-02 0. -1.
    10030    2    1    2    0    0  0.00000000000E+00  0.00000000000E+00  0.58166462663E+03  0.11565545170E+04  0.99964224247E+03 0.  0.
        5    1    3    3  502    0  0.23442091569E+02  0.46266982618E+03  0.73808461441E+02  0.46912970349E+03  0.46999998093E+01 0. -1.
       -5    1    3    3    0  502 -0.23442091569E+02 -0.46266982618E+03  0.50785616519E+03  0.68742481351E+03  0.46999998093E+01 0.  1.
</event>
<event>
 5   0  0.1453863E-04  0.1000673E+04  0.7818609E-02  0.9307807E-01
        1   -1    0    0  501    0  0.00000000000E+00  0.00000000000E+00  0.75797337832E+03  0.75797337833E+03  0.50400001928E-02 0. -1.
       -1   -1    0    0    0  501  0.00000000000E+00  0.00000000000E+00 -0.33027112560E+03  0.33027112564E+03  0.50400001928E-02 0.  1.
    10030    2    1    2    0    0  0.00000000000E+00  0.00000000000E+00  0.42770225272E+03  0.10882445040E+04  0.10006732151E+04 0.  0.
        1    1    3    3  502    0  0.17661983286E+03 -0.31543087793E+02  0.72178715365E+03  0.74375145509E+03  0.50400001928E-02 0. -1.
       -1    1    3    3    0  502 -0.17661983286E+03  0.31543087793E+02 -0.29408490093E+03  0.34449304888E+03  0.50400001928E-02 0.  1.
</event>
<event>
 5   0  0.1461334E-04  0.1000393E+04  0.7818609E-02  0.9308114E-01
       -1   -1    0    0    0  501  0.00000000000E+00  0.00000000000E+00  0.97752118804E+02  0.97752118934E+02  0.50400001928E-02 0. -1.
        1   -1    0    0  501    0  0.00000000000E+00  0.00000000000E+00 -0.25594984472E+04  0.25594984472E+04  0.50400001928E-02 0.  1.
    10030    2    1    2    0    0  0.00000000000E+00  0.00000000000E+00 -0.24617463284E+04  0.26572505662E+04  0.10003927158E+04 0.  0.
        2    1    3    3  502    0 -0.73072703557E+02  0.28431666786E+03 -0.15512289850E+03  0.33202213973E+03  0.25500000920E-02 0. -1.
       -2    1    3    3    0  502  0.73072703557E+02 -0.28431666786E+03 -0.23066234299E+04  0.23252284264E+04  0.25500000920E-02 0.  1.
</event>
<event>
 5   0  0.2484904E-04  0.9982926E+03  0.7818609E-02  0.9310419E-01
        2   -1    0    0  501    0  0.00000000000E+00  0.00000000000E+00  0.27250575506E+03  0.27250575507E+03  0.25500000920E-02 0.  1.
       -2   -1    0    0    0  501  0.00000000000E+00  0.00000000000E+00 -0.91428177413E+03  0.91428177413E+03  0.25500000920E-02 0. -1.
    10030    2    1    2    0    0  0.00000000000E+00  0.00000000000E+00 -0.64177601906E+03  0.11867875292E+04  0.99829263286E+03 0.  0.
        3    1    3    3  502    0 -0.26558779868E+03 -0.30657482335E+03 -0.66671336947E+03  0.78040484901E+03  0.10100000352E+00 0. -1.
       -3    1    3    3    0  502  0.26558779868E+03  0.30657482335E+03  0.24937350408E+02  0.40638268020E+03  0.10100000352E+00 0.  1.
</event>
<event>
 5   0  0.1506454E-04  0.9999007E+03  0.7818609E-02  0.9308654E-01
        1   -1    0    0  501    0  0.00000000000E+00  0.00000000000E+00  0.76172258273E+03  0.76172258275E+03  0.50400001928E-02 0.  1.
       -1   -1    0    0    0  501  0.00000000000E+00  0.00000000000E+00 -0.32813833031E+03  0.32813833035E+03  0.50400001928E-02 0. -1.
    10030    2    1    2    0    0  0.00000000000E+00  0.00000000000E+00  0.43358425242E+03  0.10898609131E+04  0.99990074805E+03 0.  0.
        3    1    3    3  502    0 -0.23658380576E+03 -0.17551975773E+03  0.65707931542E+03  0.72009188264E+03  0.10100000352E+00 0.  1.
       -3    1    3    3    0  502  0.23658380576E+03  0.17551975773E+03 -0.22349506300E+03  0.36976903045E+03  0.10100000352E+00 0. -1.
</event>
<event>
 5   0  0.2403037E-04  0.1000233E+04  0.7818609E-02  0.9308289E-01
       -2   -1    0    0    0  501  0.00000000000E+00  0.00000000000E+00  0.98170860039E+03  0.98170860040E+03  0.25500000920E-02 0.  1.
        2   -1    0    0  501    0  0.00000000000E+00  0.00000000000E+00 -0.25477696885E+03  0.25477696886E+03  0.25500000920E-02 0. -1.
    10030    2    1    2    0    0  0.00000000000E+00  0.00000000000E+00  0.72693163154E+03  0.12364855693E+04  0.10002334558E+04 0.  0.
        1    1    3    3  502    0  0.34735274230E+03 -0.64522023302E+02 -0.74119490043E+02  0.36098575859E+03  0.50400001928E-02 0. -1.
       -1    1    3    3    0  502 -0.34735274230E+03  0.64522023302E+02  0.80105112159E+03  0.87549981067E+03  0.50400001928E-02 0.  1.
</event>
<event>
 5   0  0.1453863E-04  0.9991708E+03  0.7818609E-02  0.9309455E-01
       -1   -1    0    0    0  501  0.00000000000E+00  0.00000000000E+00  0.43485703377E+03  0.43485703380E+03  0.50400001928E-02 0.  1.
        1   -1    0    0  501    0  0.00000000000E+00  0.00000000000E+00 -0.57394854124E+03  0.57394854127E+03  0.50400001928E-02 0. -1.
    10030    2    1    2    0    0  0.00000000000E+00  0.00000000000E+00 -0.13909150747E+03  0.10088055751E+04  0.99917077661E+03 0.  0.
        1    1    3    3  502    0  0.16229923472E+02 -0.13746172805E+03  0.41511057628E+03  0.43757962437E+03  0.50400001928E-02 0.  1.
       -1    1    3    3    0  502 -0.16229923472E+02  0.13746172805E+03 -0.55420208375E+03  0.57122595070E+03  0.50400001928E-02 0. -1.
</event>
<event>
 5   0  0.2503680E-04  0.1000809E+04  0.7818609E-02  0.9307658E-01
       -2   -1    0    0    0  501  0.00000000000E+00  0.00000000000E+00  0.14056443561E+04  0.14056443561E+04  0.25500000920E-02 0.  1.
        2   -1    0    0  501    0  0.00000000000E+00  0.00000000000E+00 -0.17814225350E+03  0.17814225351E+03  0.25500000920E-02 0. -1.
    10030    2    1    2    0    0  0.00000000000E+00  0.00000000000E+00  0.12275021026E+04  0.15837866096E+04  0.10008089792E+04 0.  0.
        2    1    3    3  502    0 -0.62181470616E+02  0.44996820030E+03  0.94595203848E+03  0.10493632239E+04  0.25500000920E-02 0. -1.
       -2    1    3    3    0  502  0.62181470616E+02 -0.44996820030E+03  0.28155006410E+03  0.53442338569E+03  0.25500000920E-02 0.  1.
</event>
<event>
 5   0  0.1506454E-04  0.1000193E+04  0.7818609E-02  0.9308333E-01
       -1   -1    0    0    0  501  0.00000000000E+00  0.00000000000E+00  0.20817073748E+03  0.20817073754E+03  0.50400001928E-02 0.  1.
        1   -1    0    0  501    0  0.00000000000E+00  0.00000000000E+00 -0.12014009869E+04  0.12014009869E+04  0.50400001928E-02 0. -1.
    10030    2    1    2    0    0  0.00000000000E+00  0.00000000000E+00 -0.99323024944E+03  0.14095717245E+04  0.10001930404E+04 0.  0.
        3    1    3    3  502    0 -0.89497595677E+02  0.40715740512E+03 -0.10730760797E+03  0.43046707784E+03  0.10100000352E+00 0.  1.
       -3    1    3    3    0  502  0.89497595677E+02 -0.40715740512E+03 -0.88592264147E+03  0.97910464663E+03  0.10100000352E+00 0. -1.
</event>
<event>
 5   0  0.2353916E-04  0.1000954E+04  0.7818609E-02  0.9307500E-01
        2   -1    0    0  501    0  0.00000000000E+00  0.00000000000E+00  0.81830705592E+03  0.81830705592E+03  0.25500000920E-02 0. -1.
       -2   -1    0    0    0  501  0.00000000000E+00  0.00000000000E+00 -0.30609173700E+03  0.30609173701E+03  0.25500000920E-02 0.  1.
    10030    2    1    2    0    0  0.00000000000E+00  0.00000000000E+00  0.51221531892E+03  0.11243987929E+04  0.10009536016E+04 0.  0.
        4    1    3    3  502    0  0.16608643894E+03  0.12975540454E+03  0.76602197791E+03  0.79448880027E+03  0.12699999809E+01 0. -1.
       -4    1    3    3    0  502 -0.16608643894E+03 -0.12975540454E+03 -0.25380665900E+03  0.32990999266E+03  0.12699999809E+01 0.  1.
</event>
<event>
 5   0  0.2403037E-04  0.9999871E+03  0.7818609E-02  0.9308559E-01
       -2   -1    0    0    0  501  0.00000000000E+00  0.00000000000E+00  0.49544997480E+03  0.49544997481E+03  0.25500000920E-02 0.  1.
        2   -1    0    0  501    0  0.00000000000E+00  0.00000000000E+00 -0.50457877356E+03  0.50457877356E+03  0.25500000920E-02 0. -1.
    10030    2    1    2    0    0  0.00000000000E+00  0.00000000000E+00 -0.91287987574E+01  0.10000287484E+04  0.99998708122E+03 0.  0.
        1    1    3    3  502    0  0.37285431468E+03  0.12507344969E+03  0.30420376177E+03  0.49719577281E+03  0.50400001928E-02 0.  1.
       -1    1    3    3    0  502 -0.37285431468E+03 -0.12507344969E+03 -0.31333256053E+03  0.50283297556E+03  0.50400001928E-02 0. -1.
</event>
<event>
 5   0  0.1506454E-04  0.1000182E+04  0.7818609E-02  0.9308346E-01
       -1   -1    0    0    0  501  0.00000000000E+00  0.00000000000E+00  0.26570909739E+03  0.26570909744E+03  0.50400001928E-02 0. -1.
        1   -1    0    0  501    0  0.00000000000E+00  0.00000000000E+00 -0.94122031554E+03  0.94122031555E+03  0.50400001928E-02 0.  1.
    10030    2    1    2    0    0  0.00000000000E+00  0.00000000000E+00 -0.67551121814E+03  0.12069294130E+04  0.10001815846E+04 0.  0.
        3    1    3    3  502    0 -0.37258474062E+03  0.11217535469E+03  0.41328336061E+02  0.39129367578E+03  0.10100000352E+00 0. -1.
       -3    1    3    3    0  502  0.37258474062E+03 -0.11217535469E+03 -0.71683955420E+03  0.81563573721E+03  0.10100000352E+00 0.  1.
</event>
<event>
 5   0  0.1430675E-04  0.1000038E+04  0.7818609E-02  0.9308503E-01
       -1   -1    0    0    0  501  0.00000000000E+00  0.00000000000E+00  0.33266483419E+03  0.33266483423E+03  0.50400001928E-02 0. -1.
        1   -1    0    0  501    0  0.00000000000E+00  0.00000000000E+00 -0.75156413613E+03  0.75156413615E+03  0.50400001928E-02 0.  1.
    10030    2    1    2    0    0  0.00000000000E+00  0.00000000000E+00 -0.41889930194E+03  0.10842289704E+04  0.10000379168E+04 0.  0.
        5    1    3    3  502    0  0.30931754466E+03  0.30156442325E+03  0.63495421469E+02  0.43666028369E+03  0.46999998093E+01 0. -1.
       -5    1    3    3    0  502 -0.30931754466E+03 -0.30156442325E+03 -0.48239472341E+03  0.64756868668E+03  0.46999998093E+01 0.  1.
</event>
<event>
 5   0  0.1506454E-04  0.9998938E+03  0.7818609E-02  0.9308661E-01
        1   -1    0    0  501    0  0.00000000000E+00  0.00000000000E+00  0.60691100218E+03  0.60691100220E+03  0.50400001928E-02 0. -1.
       -1   -1    0    0    0  501  0.00000000000E+00  0.00000000000E+00 -0.41183452287E+03  0.41183452290E+03  0.50400001928E-02 0.  1.
    10030    2    1    2    0    0  0.00000000000E+00  0.00000000000E+00  0.19507647931E+03  0.10187455251E+04  0.99989380043E+03 0.  0.
        3    1    3    3  502    0 -0.58301519271E+02  0.33273727636E+02  0.60229845314E+03  0.60602775923E+03  0.10100000352E+00 0. -1.
       -3    1    3    3    0  502  0.58301519271E+02 -0.33273727636E+02 -0.40722197383E+03  0.41271776588E+03  0.10100000352E+00 0.  1.
</event>
<event>
 5   0  0.1430675E-04  0.1000189E+04  0.7818609E-02  0.9308338E-01
        1   -1    0    0  501    0  0.00000000000E+00  0.00000000000E+00  0.82702507495E+03  0.82702507497E+03  0.50400001928E-02 0. -1.
       -1   -1    0    0    0  501  0.00000000000E+00  0.00000000000E+00 -0.30240235648E+03  0.30240235652E+03  0.50400001928E-02 0.  1.
    10030    2    1    2    0    0  0.00000000000E+00  0.00000000000E+00  0.52462271847E+03  0.11294274315E+04  0.10001886453E+04 0.  0.
        5    1    3    3  502    0  0.39893608942E+03  0.93783926682E+01  0.60264220270E+03  0.72279850039E+03  0.46999998093E+01 0. -1.
       -5    1    3    3    0  502 -0.39893608942E+03 -0.93783926682E+01 -0.78019484230E+02  0.40662893110E+03  0.46999998093E+01 0.  1.
</event>
<event>
 5   0  0.2503680E-04  0.1000016E+04  0.7818609E-02  0.9308527E-01
        2   -1    0    0  501    0  0.00000000000E+00  0.00000000000E+00  0.19252536497E+04  0.19252536497E+04  0.25500000920E-02 0. -1.
       -2   -1    0    0    0  501  0.00000000000E+00  0.00000000000E+00 -0.12985715810E+03  0.12985715813E+03  0.25500000920E-02 0.  1.
    10030    2    1    2    0    0  0.00000000000E+00  0.00000000000E+00  0.17953964916E+04  0.20551108078E+04  0.10000159351E+04 0.  0.
        2    1    3    3  502    0  0.13034545280E+03 -0.11943636612E+03  0.18588795541E+04  0.18672675704E+04  0.25500000920E-02 0. -1.
       -2    1    3    3    0  502 -0.13034545280E+03  0.11943636612E+03 -0.63483062540E+02  0.18784323744E+03  0.25500000920E-02 0.  1.
</event>
<event>
 5   0  0.1453863E-04  0.1000043E+04  0.7818609E-02  0.9308497E-01
        1   -1    0    0  501    0  0.00000000000E+00  0.00000000000E+00  0.38564964313E+03  0.38564964316E+03  0.50400001928E-02 0.  1.
       -1   -1    0    0    0  501  0.00000000000E+00  0.00000000000E+00 -0.64831272561E+03  0.64831272563E+03  0.50400001928E-02 0. -1.
    10030    2    1    2    0    0  0.00000000000E+00  0.00000000000E+00 -0.26266308248E+03  0.10339623688E+04  0.10000431417E+04 0.  0.
        1    1    3    3  502    0 -0.22909606342E+03 -0.26516125581E+03  0.23745414719E+03  0.42329655078E+03  0.50400001928E-02 0.  1.
       -1    1    3    3    0  502  0.22909606342E+03  0.26516125581E+03 -0.50011722967E+03  0.61066581802E+03  0.50400001928E-02 0. -1.
</event>
<event>
 5   0  0.2403037E-04  0.9995301E+03  0.7818609E-02  0.9309060E-01
        2   -1    0    0  501    0  0.00000000000E+00  0.00000000000E+00  0.73533149910E+03  0.73533149910E+03  0.25500000920E-02 0.  1.
       -2   -1    0    0    0  501  0.00000000000E+00  0.00000000000E+00 -0.33966327600E+03  0.33966327601E+03  0.25500000920E-02 0. -1.
    10030    2    1    2    0    0  0.00000000000E+00  0.00000000000E+00  0.39566822310E+03  0.10749947751E+04  0.99953010147E+03 0.  0.
        1    1    3    3  502    0 -0.30251712646E+03  0.38840392531E+03  0.10537308827E+03  0.50346569769E+03  0.50400001928E-02 0. -1.
       -1    1    3    3    0  502  0.30251712646E+03 -0.38840392531E+03  0.29029513483E+03  0.57152907741E+03  0.50400001928E-02 0.  1.
</event>
<event>
 5   0  0.2353916E-04  0.1000081E+04  0.7818609E-02  0.9308455E-01
        2   -1    0    0  501    0  0.00000000000E+00  0.00000000000E+00  0.12833810173E+04  0.12833810173E+04  0.25500000920E-02 0. -1.
       -2   -1    0    0    0  501  0.00000000000E+00  0.00000000000E+00 -0.19482970231E+03  0.19482970232E+03  0.25500000920E-02 0.  1.
    10030    2    1    2    0    0  0.00000000000E+00  0.00000000000E+00  0.10885513150E+04  0.14782107196E+04  0.10000814798E+04 0.  0.
        4    1    3    3  502    0 -0.43377838922E+03 -0.24765586504E+03  0.50986407092E+03  0.71376473866E+03  0.12699999809E+01 0.  1.
       -4    1    3    3    0  502  0.43377838922E+03  0.24765586504E+03  0.57868724407E+03  0.76444598095E+03  0.12699999809E+01 0. -1.
</event>
<event>
 5   0  0.1506454E-04  0.1000179E+04  0.7818609E-02  0.9308349E-01
       -1   -1    0    0    0  501  0.00000000000E+00  0.00000000000E+00  0.96405385240E+03  0.96405385241E+03  0.50400001928E-02 0.  1.
        1   -1    0    0  501    0  0.00000000000E+00  0.00000000000E+00 -0.25941424605E+03  0.25941424610E+03  0.50400001928E-02 0. -1.
    10030    2    1    2    0    0  0.00000000000E+00  0.00000000000E+00  0.70463960635E+03  0.12234680985E+04  0.10001785907E+04 0.  0.
        3    1    3    3  502    0  0.33529092194E+03 -0.18022627634E+03 -0.44412661796E+02  0.38324144836E+03  0.10100000352E+00 0. -1.
       -3    1    3    3    0  502 -0.33529092194E+03  0.18022627634E+03  0.74905226814E+03  0.84022665015E+03  0.10100000352E+00 0.  1.
</event>
<event>
 5   0  0.2484904E-04  0.9997028E+03  0.7818609E-02  0.9308871E-01
       -2   -1    0    0    0  501  0.00000000000E+00  0.00000000000E+00  0.27261035751E+03  0.27261035752E+03  0.25500000920E-02 0. -1.
        2   -1    0    0  501    0  0.00000000000E+00  0.00000000000E+00 -0.91651472248E+03  0.91651472248E+03  0.25500000920E-02 0.  1.
    10030    2    1    2    0    0  0.00000000000E+00  0.00000000000E+00 -0.64390436497E+03  0.11891250800E+04  0.99970276815E+03 0.  0.
        3    1    3    3  502    0  0.39541044126E+02 -0.18811875836E+03 -0.87078957745E+03  0.89175482046E+03  0.10100000352E+00 0.  1.
       -3    1    3    3    0  502 -0.39541044126E+02  0.18811875836E+03  0.22688521248E+03  0.29737025954E+03  0.10100000352E+00 0. -1.
</event>
<event>
 5   0  0.2403037E-04  0.1000427E+04  0.7818609E-02  0.9308077E-01
       -2   -1    0    0    0  501  0.00000000000E+00  0.00000000000E+00  0.30181225385E+03  0.30181225386E+03  0.25500000920E-02 0.  1.
        2   -1    0    0  501    0  0.00000000000E+00  0.00000000000E+00 -0.82903663581E+03  0.82903663581E+03  0.25500000920E-02 0. -1.
    10030    2    1    2    0    0  0.00000000000E+00  0.00000000000E+00 -0.52722438196E+03  0.11308488897E+04  0.10004267401E+04 0.  0.
        1    1    3    3  502    0  0.19036031152E+03 -0.44211208686E+03 -0.10981059140E+03  0.49371906137E+03  0.50400001928E-02 0.  1.
       -1    1    3    3    0  502 -0.19036031152E+03  0.44211208686E+03 -0.41741379055E+03  0.63712982831E+03  0.50400001928E-02 0. -1.
</event>
<event>
 5   0  0.1461334E-04  0.9931680E+03  0.7818609E-02  0.9316070E-01
        1   -1    0    0  501    0  0.00000000000E+00  0.00000000000E+00  0.20691240001E+04  0.20691240001E+04  0.50400001928E-02 0. -1.
       -1   -1    0    0    0  501  0.00000000000E+00  0.00000000000E+00 -0.11917878485E+03  0.11917878495E+03  0.50400001928E-02 0.  1.
    10030    2    1    2    0    0  0.00000000000E+00  0.00000000000E+00  0.19499452152E+04  0.21883027850E+04  0.99316803040E+03 0.  0.
        2    1    3    3  502    0  0.11258501291E+03  0.27056803557E+03  0.91667979098E+02  0.30705938416E+03  0.25500000920E-02 0.  1.
       -2    1    3    3    0  502 -0.11258501291E+03 -0.27056803557E+03  0.18582772361E+04  0.18812434009E+04  0.25500000920E-02 0. -1.
</event>
<event>
 5   0  0.1430675E-04  0.9957839E+03  0.7818609E-02  0.9313181E-01
        1   -1    0    0  501    0  0.00000000000E+00  0.00000000000E+00  0.67461743730E+03  0.67461743732E+03  0.50400001928E-02 0.  1.
       -1   -1    0    0    0  501  0.00000000000E+00  0.00000000000E+00 -0.36746220143E+03  0.36746220147E+03  0.50400001928E-02 0. -1.
    10030    2    1    2    0    0  0.00000000000E+00  0.00000000000E+00  0.30715523587E+03  0.10420796388E+04  0.99578392970E+03 0.  0.
        5    1    3    3  502    0  0.18977368065E+03 -0.28307306198E+03 -0.22624252709E+03  0.40908700706E+03  0.46999998093E+01 0. -1.
       -5    1    3    3    0  502 -0.18977368065E+03  0.28307306198E+03  0.53339776296E+03  0.63299263172E+03  0.46999998093E+01 0.  1.
</event>
<event>
 5   0  0.1453863E-04  0.1001284E+04  0.7818609E-02  0.9307138E-01
        1   -1    0    0  501    0  0.00000000000E+00  0.00000000000E+00  0.32783648490E+03  0.32783648494E+03  0.50400001928E-02 0.  1.
       -1   -1    0    0    0  501  0.00000000000E+00  0.00000000000E+00 -0.76453431057E+03  0.76453431059E+03  0.50400001928E-02 0. -1.
    10030    2    1    2    0    0  0.00000000000E+00  0.00000000000E+00 -0.43669782566E+03  0.10923707955E+04  0.10012836581E+04 0.  0.
        1    1    3    3  502    0  0.33695046500E+03 -0.16559773107E+03 -0.57966277624E+03  0.69062808991E+03  0.50400001928E-02 0. -1.
       -1    1    3    3    0  502 -0.33695046500E+03  0.16559773107E+03  0.14296495057E+03  0.40174270561E+03  0.50400001928E-02 0.  1.
</event>
<event>
 5   0  0.2473312E-04  0.9990392E+03  0.7818609E-02  0.9309599E-01
        2   -1    0    0  501    0  0.00000000000E+00  0.00000000000E+00  0.36546059432E+03  0.36546059433E+03  0.25500000920E-02 0.  1.
       -2   -1    0    0    0  501  0.00000000000E+00  0.00000000000E+00 -0.68275442531E+03  0.68275442531E+03  0.25500000920E-02 0. -1.
    10030    2    1    2    0    0  0.00000000000E+00  0.00000000000E+00 -0.31729383098E+03  0.10482150196E+04  0.99903921456E+03 0.  0.
        5    1    3    3  502    0 -0.30741043735E+03 -0.22363882879E+03  0.18131148034E+03  0.42120238085E+03  0.46999998093E+01 0.  1.
       -5    1    3    3    0  502  0.30741043735E+03  0.22363882879E+03 -0.49860531133E+03  0.62701263880E+03  0.46999998093E+01 0. -1.
</event>
<event>
 5   0  0.2484904E-04  0.1000140E+04  0.7818609E-02  0.9308392E-01
        2   -1    0    0  501    0  0.00000000000E+00  0.00000000000E+00  0.22817517404E+03  0.22817517406E+03  0.25500000920E-02 0. -1.
       -2   -1    0    0    0  501  0.00000000000E+00  0.00000000000E+00 -0.10959551958E+04  0.10959551958E+04  0.25500000920E-02 0.  1.
    10030    2    1    2    0    0  0.00000000000E+00  0.00000000000E+00 -0.86778002171E+03  0.13241303698E+04  0.10001395254E+04 0.  0.
        3    1    3    3  502    0  0.15871668480E+03  0.44861468159E+03 -0.63738023600E+03  0.79542422267E+03  0.10100000352E+00 0. -1.
       -3    1    3    3    0  502 -0.15871668480E+03 -0.44861468159E+03 -0.23039978571E+03  0.52870614714E+03  0.10100000352E+00 0.  1.
</event>
<event>
 5   0  0.2353916E-04  0.9999386E+03  0.7818609E-02  0.9308612E-01
       -2   -1    0    0    0  501  0.00000000000E+00  0.00000000000E+00  0.23506189072E+03  0.23506189073E+03  0.25500000920E-02 0. -1.
        2   -1    0    0  501    0  0.00000000000E+00  0.00000000000E+00 -0.10634191397E+04  0.10634191397E+04  0.25500000920E-02 0.  1.
    10030    2    1    2    0    0  0.00000000000E+00  0.00000000000E+00 -0.82835724900E+03  0.12984810305E+04  0.99993862536E+03 0.  0.
        4    1    3    3  502    0  0.19443488162E+03  0.27976967110E+03 -0.88933778550E+03  0.95236510943E+03  0.12699999809E+01 0.  1.
       -4    1    3    3    0  502 -0.19443488162E+03 -0.27976967110E+03  0.60980536491E+02  0.34611592103E+03  0.12699999809E+01 0. -1.
</event>
<event>
 5   0  0.2484904E-04  0.9998896E+03  0.7818609E-02  0.9308666E-01
       -2   -1    0    0    0  501  0.00000000000E+00  0.00000000000E+00  0.12489673274E+03  0.12489673277E+03  0.25500000920E-02 0. -1.
        2   -1    0    0  501    0  0.00000000000E+00  0.00000000000E+00 -0.20012117752E+04  0.20012117752E+04  0.25500000920E-02 0.  1.
    10030    2    1    2    0    0  0.00000000000E+00  0.00000000000E+00 -0.18763150425E+04  0.21261085080E+04  0.99988961848E+03 0.  0.
        3    1    3    3  502    0  0.39819888268E+02 -0.49714110485E+02  0.11623363817E+03  0.13254201268E+03  0.10100000352E+00 0. -1.
       -3    1    3    3    0  502 -0.39819888268E+02  0.49714110485E+02 -0.19925486807E+04  0.19935664953E+04  0.10100000352E+00 0.  1.
</event>
<event>
 5   0  0.1430675E-04  0.1000094E+04  0.7818609E-02  0.9308441E-01
        1   -1    0    0  501    0  0.00000000000E+00  0.00000000000E+00  0.14679498200E+04  0.14679498200E+04  0.50400001928E-02 0.  1.
       -1   -1    0    0    0  501  0.00000000000E+00  0.00000000000E+00 -0.17033769621E+03  0.17033769629E+03  0.50400001928E-02 0. -1.
    10030    2    1    2    0    0  0.00000000000E+00  0.00000000000E+00  0.12976121238E+04  0.16382875163E+04  0.10000943767E+04 0.  0.
        5    1    3    3  502    0  0.11232038227E+03  0.39269931500E+03  0.17630627894E+03  0.44489843140E+03  0.46999998093E+01 0. -1.
       -5    1    3    3    0  502 -0.11232038227E+03 -0.39269931500E+03  0.11213058448E+04  0.11933890849E+04  0.46999998093E+01 0.  1.
</event>
<event>
 5   0  0.1414165E-04  0.9998555E+03  0.7818609E-02  0.9308703E-01
        1   -1    0    0  501    0  0.00000000000E+00  0.00000000000E+00  0.41777904313E+03  0.41777904316E+03  0.50400001928E-02 0.  1.
       -1   -1    0    0    0  501  0.00000000000E+00  0.00000000000E+00 -0.59822952983E+03  0.59822952985E+03  0.50400001928E-02 0. -1.
    10030    2    1    2    0    0  0.00000000000E+00  0.00000000000E+00 -0.18045048670E+03  0.10160085730E+04  0.99985551071E+03 0.  0.
        4    1    3    3  502    0  0.83260652978E+02 -0.49141594554E+03 -0.50814919395E+02  0.50100472732E+03  0.12699999809E+01 0. -1.
       -4    1    3    3    0  502 -0.83260652978E+02  0.49141594554E+03 -0.12963556730E+03  0.51500384569E+03  0.12699999809E+01 0.  1.
</event>
<event>
 5   0  0.1430675E-04  0.1000025E+04  0.7818609E-02  0.9308517E-01
       -1   -1    0    0    0  501  0.00000000000E+00  0.00000000000E+00  0.26077861301E+03  0.26077861306E+03  0.50400001928E-02 0.  1.
        1   -1    0    0  501    0  0.00000000000E+00  0.00000000000E+00 -0.95871646067E+03  0.95871646069E+03  0.50400001928E-02 0. -1.
    10030    2    1    2    0    0  0.00000000000E+00  0.00000000000E+00 -0.69793784767E+03  0.12194950737E+04  0.10000254975E+04 0.  0.
        5    1    3    3  502    0 -0.25555530821E+03  0.13529525050E+03  0.14844285291E+03  0.32507028615E+03  0.46999998093E+01 0.  1.
       -5    1    3    3    0  502  0.25555530821E+03 -0.13529525050E+03 -0.84638070057E+03  0.89442478759E+03  0.46999998093E+01 0. -1.
</event>
<event>
 5   0  0.1414165E-04  0.1000019E+04  0.7818609E-02  0.9308524E-01
        1   -1    0    0  501    0  0.00000000000E+00  0.00000000000E+00  0.28753217167E+03  0.28753217171E+03  0.50400001928E-02 0. -1.
       -1   -1    0    0    0  501  0.00000000000E+00  0.00000000000E+00 -0.86950122442E+03  0.86950122443E+03  0.50400001928E-02 0.  1.
    10030    2    1    2    0    0  0.00000000000E+00  0.00000000000E+00 -0.58196905275E+03  0.11570333961E+04  0.10000191505E+04 0.  0.
        4    1    3    3  502    0 -0.33352636835E+03  0.10571454059E+03 -0.70427010691E+03  0.78639264929E+03  0.12699999809E+01 0.  1.
       -4    1    3    3    0  502  0.33352636835E+03 -0.10571454059E+03  0.12230105416E+03  0.37064074685E+03  0.12699999809E+01 0. -1.
</event>
<event>
 5   0  0.2484904E-04  0.9998302E+03  0.7818609E-02  0.9308731E-01
       -2   -1    0    0    0  501  0.00000000000E+00  0.00000000000E+00  0.45610537836E+03  0.45610537836E+03  0.25500000920E-02 0. -1.
        2   -1    0    0  501    0  0.00000000000E+00  0.00000000000E+00 -0.54793286293E+03  0.54793286294E+03  0.25500000920E-02 0.  1.
    10030    2    1    2    0    0  0.00000000000E+00  0.00000000000E+00 -0.91827484574E+02  0.10040382413E+04  0.99983023713E+03 0.  0.
        3    1    3    3  502    0  0.13743506687E+03  0.40943438505E+03 -0.29874749835E+03  0.52514282937E+03  0.10100000352E+00 0.  1.
       -3    1    3    3    0  502 -0.13743506687E+03 -0.40943438505E+03  0.20692001378E+03  0.47889541193E+03  0.10100000352E+00 0. -1.
</event>
<event>
 5   0  0.1506454E-04  0.9999459E+03  0.7818609E-02  0.9308604E-01
        1   -1    0    0  501    0  0.00000000000E+00  0.00000000000E+00  0.20276695410E+04  0.20276695410E+04  0.50400001928E-02 0. -1.
       -1   -1    0    0    0  501  0.00000000000E+00  0.00000000000E+00 -0.12328092214E+03  0.12328092224E+03  0.50400001928E-02 0.  1.
    10030    2    1    2    0    0  0.00000000000E+00  0.00000000000E+00  0.19043886188E+04  0.21509504632E+04  0.99994594038E+03 0.  0.
        3    1    3    3  502    0 -0.31057120180E+03 -0.14840599064E+02  0.17944083550E+04  0.18211469105E+04  0.10100000352E+00 0. -1.
       -3    1    3    3    0  502  0.31057120180E+03  0.14840599064E+02  0.10998026380E+03  0.32980355273E+03  0.10100000352E+00 0.  1.
</event>
<event>
 5   0  0.2473312E-04  0.9972892E+03  0.7818609E-02  0.9311523E-01
       -2   -1    0    0    0  501  0.00000000000E+00  0.00000000000E+00  0.15903993704E+03  0.15903993706E+03  0.25500000920E-02 0.  1.
        2   -1    0    0  501    0  0.00000000000E+00  0.00000000000E+00 -0.15634212585E+04  0.15634212585E+04  0.25500000920E-02 0. -1.
    10030    2    1    2    0    0  0.00000000000E+00  0.00000000000E+00 -0.14043813214E+04  0.17224611955E+04  0.99728916275E+03 0.  0.
        5    1    3    3  502    0  0.33811466991E+03  0.35712938533E+03 -0.84420973675E+03  0.97702359107E+03  0.46999998093E+01 0.  1.
       -5    1    3    3    0  502 -0.33811466991E+03 -0.35712938533E+03 -0.56017158466E+03  0.74543760445E+03  0.46999998093E+01 0. -1.
</event>
<event>
 5   0  0.2484904E-04  0.9978873E+03  0.7818609E-02  0.9310865E-01
        2   -1    0    0  501    0  0.00000000000E+00  0.00000000000E+00  0.44750297352E+03  0.44750297353E+03  0.25500000920E-02 0.  1.
       -2   -1    0    0    0  501  0.00000000000E+00  0.00000000000E+00 -0.55629750677E+03  0.55629750678E+03  0.25500000920E-02 0. -1.
    10030    2    1    2    0    0  0.00000000000E+00  0.00000000000E+00 -0.10879453325E+03  0.10038004803E+04  0.99788734525E+03 0.  0.
        3    1    3    3  502    0 -0.23043972276E+03 -0.31275024488E+03 -0.36934935477E+03  0.53603557491E+03  0.10100000352E+00 0. -1.
       -3    1    3    3    0  502  0.23043972276E+03  0.31275024488E+03  0.26055482153E+03  0.46776490540E+03  0.10100000352E+00 0.  1.
</event>
<event>
 5   0  0.1506454E-04  0.1000418E+04  0.7818609E-02  0.9308086E-01
       -1   -1    0    0    0  501  0.00000000000E+00  0.00000000000E+00  0.32116583070E+03  0.32116583074E+03  0.50400001928E-02 0. -1.
        1   -1    0    0  501    0  0.00000000000E+00  0.00000000000E+00 -0.77906495920E+03  0.77906495921E+03  0.50400001928E-02 0.  1.
    10030    2    1    2    0    0  0.00000000000E+00  0.00000000000E+00 -0.45789912849E+03  0.11002307900E+04  0.10004180023E+04 0.  0.
        3    1    3    3  502    0 -0.31879777150E+03 -0.36088941873E+03 -0.37786946452E+03  0.61209356644E+03  0.10100000352E+00 0.  1.
       -3    1    3    3    0  502  0.31879777150E+03  0.36088941873E+03 -0.80029663976E+02  0.48813722352E+03  0.10100000352E+00 0. -1.
</event>
<event>
 5   0  0.2353916E-04  0.9998385E+03  0.7818609E-02  0.9308722E-01
        2   -1    0    0  501    0  0.00000000000E+00  0.00000000000E+00  0.17390832879E+04  0.17390832879E+04  0.25500000920E-02 0. -1.
       -2   -1    0    0    0  501  0.00000000000E+00  0.00000000000E+00 -0.14370746662E+03  0.14370746664E+03  0.25500000920E-02 0.  1.
    10030    2    1    2    0    0  0.00000000000E+00  0.00000000000E+00  0.15953758212E+04  0.18827907545E+04  0.99983849407E+03 0.  0.
        4    1    3    3  502    0 -0.28444238669E+03 -0.34555309460E+02  0.26271247492E+02  0.28773830489E+03  0.12699999809E+01 0.  1.
       -4    1    3    3    0  502  0.28444238669E+03  0.34555309460E+02  0.15691045737E+04  0.15950524496E+04  0.12699999809E+01 0. -1.
</event>
<event>
 5   0  0.2473312E-04  0.1000059E+04  0.7818609E-02  0.9308480E-01
        2   -1    0    0  501    0  0.00000000000E+00  0.00000000000E+00  0.10188750620E+04  0.10188750620E+04  0.25500000920E-02 0.  1.
       -2   -1    0    0    0  501  0.00000000000E+00  0.00000000000E+00 -0.24539750843E+03  0.24539750845E+03  0.25500000920E-02 0. -1.
    10030    2    1    2    0    0  0.00000000000E+00  0.00000000000E+00  0.77347755356E+03  0.12642725704E+04  0.10000588015E+04 0.  0.
        5    1    3    3  502    0 -0.36543863500E+03  0.17149339169E+03  0.75973495930E+03  0.86033405008E+03  0.46999998093E+01 0.  1.
       -5    1    3    3    0  502  0.36543863500E+03 -0.17149339169E+03  0.13742594268E+02  0.40393852037E+03  0.46999998093E+01 0. -1.
</event>
<event>
 5   0  0.1461334E-04  0.9989732E+03  0.7818609E-02  0.9309672E-01
        1   -1    0    0  501    0  0.00000000000E+00  0.00000000000E+00  0.87314543187E+03  0.87314543189E+03  0.50400001928E-02 0. -1.
       -1   -1    0    0    0  501  0.00000000000E+00  0.00000000000E+00 -0.28573343726E+03  0.28573343730E+03  0.50400001928E-02 0.  1.
    10030    2    1    2    0    0  0.00000000000E+00  0.00000000000E+00  0.58741199461E+03  0.11588788692E+04  0.99897316383E+03 0.  0.
        2    1    3    3  502    0 -0.99539306103E+02 -0.48793770194E+02  0.85869458954E+03  0.86582059549E+03  0.25500000920E-02 0. -1.
       -2    1    3    3    0  502  0.99539306103E+02  0.48793770194E+02 -0.27128259492E+03  0.29305827370E+03  0.25500000920E-02 0.  1.
</event>
<event>
 5   0  0.1414165E-04  0.1000051E+04  0.7818609E-02  0.9308489E-01
        1   -1    0    0  501    0  0.00000000000E+00  0.00000000000E+00  0.13233002192E+04  0.13233002192E+04  0.50400001928E-02 0. -1.
       -1   -1    0    0    0  501  0.00000000000E+00  0.00000000000E+00 -0.18894083916E+03  0.18894083923E+03  0.50400001928E-02 0.  1.
    10030    2    1    2    0    0  0.00000000000E+00  0.00000000000E+00  0.11343593801E+04  0.15122410585E+04  0.10000509066E+04 0.  0.
        4    1    3    3  502    0 -0.10757046431E+03  0.42055685103E+03  0.19191804892E+03  0.47462998235E+03  0.12699999809E+01 0. -1.
       -4    1    3    3    0  502  0.10757046431E+03 -0.42055685103E+03  0.94244133113E+03  0.10376110761E+04  0.12699999809E+01 0.  1.
</event>
<event>
 5   0  0.1506454E-04  0.9993231E+03  0.7818609E-02  0.9309288E-01
        1   -1    0    0  501    0  0.00000000000E+00  0.00000000000E+00  0.48720388392E+03  0.48720388394E+03  0.50400001928E-02 0.  1.
       -1   -1    0    0    0  501  0.00000000000E+00  0.00000000000E+00 -0.51243771425E+03  0.51243771428E+03  0.50400001928E-02 0. -1.
    10030    2    1    2    0    0  0.00000000000E+00  0.00000000000E+00 -0.25233830335E+02  0.99964159822E+03  0.99932306023E+03 0.  0.
        3    1    3    3  502    0 -0.57661760349E+02 -0.49512419049E+03  0.21872936149E+02  0.49895017602E+03  0.10100000352E+00 0. -1.
       -3    1    3    3    0  502  0.57661760349E+02  0.49512419049E+03 -0.47106766484E+02  0.50069142220E+03  0.10100000352E+00 0.  1.
</event>
<event>
 5   0  0.1430675E-04  0.9996359E+03  0.7818609E-02  0.9308944E-01
        1   -1    0    0  501    0  0.00000000000E+00  0.00000000000E+00  0.94802667391E+03  0.94802667392E+03  0.50400001928E-02 0. -1.
       -1   -1    0    0    0  501  0.00000000000E+00  0.00000000000E+00 -0.26351367385E+03  0.26351367389E+03  0.50400001928E-02 0.  1.
    10030    2    1    2    0    0  0.00000000000E+00  0.00000000000E+00  0.68451300006E+03  0.12115403478E+04  0.99963591729E+03 0.  0.
        5    1    3    3  502    0 -0.28530956926E+03  0.34753715902E+03  0.60671376042E+03  0.75518693334E+03  0.46999998093E+01 0. -1.
       -5    1    3    3    0  502  0.28530956926E+03 -0.34753715902E+03  0.77799239641E+02  0.45635341447E+03  0.46999998093E+01 0.  1.
</event>
<event>
 5   0  0.2403037E-04  0.1000018E+04  0.7818609E-02  0.9308525E-01
       -2   -1    0    0    0  501  0.00000000000E+00  0.00000000000E+00  0.62231531911E+03  0.62231531911E+03  0.25500000920E-02 0. -1.
        2   -1    0    0  501    0  0.00000000000E+00  0.00000000000E+00 -0.40173977620E+03  0.40173977620E+03  0.25500000920E-02 0.  1.
    10030    2    1    2    0    0  0.00000000000E+00  0.00000000000E+00  0.22057554291E+03  0.10240550953E+04  0.10000176339E+04 0.  0.
        1    1    3    3  502    0  0.26099575789E+03 -0.34985794902E+03 -0.13947955782E+03  0.45822910995E+03  0.50400001928E-02 0.  1.
       -1    1    3    3    0  502 -0.26099575789E+03  0.34985794902E+03  0.36005510074E+03  0.56582598537E+03  0.50400001928E-02 0. -1.
</event>
<event>
 5   0  0.1453863E-04  0.9984672E+03  0.7818609E-02  0.9310228E-01
       -1   -1    0    0    0  501  0.00000000000E+00  0.00000000000E+00  0.39577700570E+03  0.39577700574E+03  0.50400001928E-02 0. -1.
        1   -1    0    0  501    0  0.00000000000E+00  0.00000000000E+00 -0.62973384478E+03  0.62973384480E+03  0.50400001928E-02 0.  1.
    10030    2    1    2    0    0  0.00000000000E+00  0.00000000000E+00 -0.23395683908E+03  0.10255108505E+04  0.99846717624E+03 0.  0.
        1    1    3    3  502    0 -0.21832867587E+03  0.36780743940E+03 -0.38140938064E+03  0.57308187796E+03  0.50400001928E-02 0.  1.
       -1    1    3    3    0  502  0.21832867587E+03 -0.36780743940E+03  0.14745254156E+03  0.45242897257E+03  0.50400001928E-02 0. -1.
</event>
<event>
 5   0  0.2403037E-04  0.9994781E+03  0.7818609E-02  0.9309117E-01
        2   -1    0    0  501    0  0.00000000000E+00  0.00000000000E+00  0.17439573554E+04  0.17439573554E+04  0.25500000920E-02 0.  1.
       -2   -1    0    0    0  501  0.00000000000E+00  0.00000000000E+00 -0.14320255116E+03  0.14320255118E+03  0.25500000920E-02 0. -1.
    10030    2    1    2    0    0  0.00000000000E+00  0.00000000000E+00  0.16007548042E+04  0.18871599065E+04  0.99947814868E+03 0.  0.
        1    1    3    3  502    0 -0.43074746150E+03 -0.25336363310E+03  0.79731172160E+03  0.94097953623E+03  0.50400001928E-02 0. -1.
       -1    1    3    3    0  502  0.43074746150E+03  0.25336363310E+03  0.80344308259E+03  0.94618037031E+03  0.50400001928E-02 0.  1.
</event>
<event>
 5   0  0.1506454E-04  0.1000623E+04  0.7818609E-02  0.9307862E-01
        1   -1    0    0  501    0  0.00000000000E+00  0.00000000000E+00  0.10192178170E+04  0.10192178170E+04  0.50400001928E-02 0.  1.
       -1   -1    0    0    0  501  0.00000000000E+00  0.00000000000E+00 -0.24559172161E+03  0.24559172166E+03  0.50400001928E-02 0. -1.
    10030    2    1    2    0    0  0.00000000000E+00  0.00000000000E+00  0.77362609541E+03  0.12648095387E+04  0.10006227230E+04 0.  0.
        3    1    3    3  502    0 -0.33291915015E+03  0.20452665524E+03 -0.81714731633E+01  0.39081081921E+03  0.10100000352E+00 0. -1.
       -3    1    3    3    0  502  0.33291915015E+03 -0.20452665524E+03  0.78179756858E+03  0.87399871949E+03  0.10100000352E+00 0.  1.
</event>
<event>
 5   0  0.1461334E-04  0.1000133E+04  0.7818609E-02  0.9308399E-01
       -1   -1    0    0    0  501  0.00000000000E+00  0.00000000000E+00  0.18888025083E+03  0.18888025090E+03  0.50400001928E-02 0.  1.
        1   -1    0    0  501    0  0.00000000000E+00  0.00000000000E+00 -0.13239423715E+04  0.13239423715E+04  0.50400001928E-02 0. -1.
    10030    2    1    2    0    0  0.00000000000E+00  0.00000000000E+00 -0.11350621206E+04  0.15128226224E+04  0.10001331257E+04 0.  0.
        2    1    3    3  502    0 -0.11514675756E+03  0.41518846578E+03 -0.18359235811E+03  0.46834430909E+03  0.25500000920E-02 0.  1.
       -2    1    3    3    0  502  0.11514675756E+03 -0.41518846578E+03 -0.95146976252E+03  0.10444783133E+04  0.25500000920E-02 0. -1.
</event>
<event>
 5   0  0.1430675E-04  0.9987038E+03  0.7818609E-02  0.9309968E-01
        1   -1    0    0  501    0  0.00000000000E+00  0.00000000000E+00  0.83384584966E+03  0.83384584968E+03  0.50400001928E-02 0.  1.
       -1   -1    0    0    0  501  0.00000000000E+00  0.00000000000E+00 -0.29903885629E+03  0.29903885634E+03  0.50400001928E-02 0. -1.
    10030    2    1    2    0    0  0.00000000000E+00  0.00000000000E+00  0.53480699337E+03  0.11328847060E+04  0.99870377839E+03 0.  0.
        5    1    3    3  502    0 -0.49437632726E+03 -0.68762353787E+02  0.25160355547E+03  0.55898358954E+03  0.46999998093E+01 0.  1.
       -5    1    3    3    0  502  0.49437632726E+03  0.68762353787E+02  0.28320343790E+03  0.57390111647E+03  0.46999998093E+01 0. -1.
</event>
<event>
 5   0  0.2473312E-04  0.9998475E+03  0.7818609E-02  0.9308712E-01
        2   -1    0    0  501    0  0.00000000000E+00  0.00000000000E+00  0.91527744855E+03  0.91527744856E+03  0.25500000920E-02 0. -1.
       -2   -1    0    0    0  501  0.00000000000E+00  0.00000000000E+00 -0.27305791059E+03  0.27305791060E+03  0.25500000920E-02 0.  1.
    10030    2    1    2    0    0  0.00000000000E+00  0.00000000000E+00  0.64221953797E+03  0.11883353592E+04  0.99984748380E+03 0.  0.
        5    1    3    3  502    0 -0.19906068586E+03  0.45619570811E+03  0.26584723521E+03  0.56430180154E+03  0.46999998093E+01 0. -1.
       -5    1    3    3    0  502  0.19906068586E+03 -0.45619570811E+03  0.37637230275E+03  0.62403355761E+03  0.46999998093E+01 0.  1.
</event>
<event>
 5   0  0.2473312E-04  0.9995473E+03  0.7818609E-02  0.9309041E-01
       -2   -1    0    0    0  501  0.00000000000E+00  0.00000000000E+00  0.83821265129E+03  0.83821265129E+03  0.25500000920E-02 0.  1.
        2   -1    0    0  501    0  0.00000000000E+00  0.00000000000E+00 -0.29798367992E+03  0.29798367993E+03  0.25500000920E-02 0. -1.
    10030    2    1    2    0    0  0.00000000000E+00  0.00000000000E+00  0.54022897137E+03  0.11361963312E+04  0.99954727832E+03 0.  0.
        5    1    3    3  502    0 -0.42599047604E+03  0.11290214847E+03  0.53799464247E+03  0.69546754498E+03  0.46999998093E+01 0.  1.
       -5    1    3    3    0  502  0.42599047604E+03 -0.11290214847E+03  0.22343288994E+01  0.44072878625E+03  0.46999998093E+01 0. -1.
</event>
<event>
 5   0  0.2473312E-04  0.1000204E+04  0.7818609E-02  0.9308321E-01
        2   -1    0    0  501    0  0.00000000000E+00  0.00000000000E+00  0.16844883208E+04  0.16844883208E+04  0.25500000920E-02 0.  1.
       -2   -1    0    0    0  501  0.00000000000E+00  0.00000000000E+00 -0.14847372366E+03  0.14847372368E+03  0.25500000920E-02 0. -1.
    10030    2    1    2    0    0  0.00000000000E+00  0.00000000000E+00  0.15360145971E+04  0.18329620445E+04  0.10002044860E+04 0.  0.
        5    1    3    3  502    0 -0.45974631214E+03 -0.43971419292E+02  0.41655161314E+03  0.62196261435E+03  0.46999998093E+01 0. -1.
       -5    1    3    3    0  502  0.45974631214E+03  0.43971419292E+02  0.11194629840E+04  0.12109994301E+04  0.46999998093E+01 0.  1.
</event>
<event>
 5   0  0.1414165E-04  0.1000498E+04  0.7818609E-02  0.9307999E-01
        1   -1    0    0  501    0  0.00000000000E+00  0.00000000000E+00  0.20695468360E+03  0.20695468366E+03  0.50400001928E-02 0.  1.
       -1   -1    0    0    0  501  0.00000000000E+00  0.00000000000E+00 -0.12091966116E+04  0.12091966116E+04  0.50400001928E-02 0. -1.
    10030    2    1    2    0    0  0.00000000000E+00  0.00000000000E+00 -0.10022419280E+04  0.14161512953E+04  0.10004976806E+04 0.  0.
        4    1    3    3  502    0  0.16234615941E+03  0.16996008034E+03 -0.11261727192E+04  0.11504387471E+04  0.12699999809E+01 0. -1.
       -4    1    3    3    0  502 -0.16234615941E+03 -0.16996008034E+03  0.12393079118E+03  0.26571254823E+03  0.12699999809E+01 0.  1.
</event>
<event>
 5   0  0.2503680E-04  0.9992349E+03  0.7818609E-02  0.9309384E-01
        2   -1    0    0  501    0  0.00000000000E+00  0.00000000000E+00  0.10282314773E+04  0.10282314774E+04  0.25500000920E-02 0.  1.
       -2   -1    0    0    0  501  0.00000000000E+00  0.00000000000E+00 -0.24276402898E+03  0.24276402899E+03  0.25500000920E-02 0. -1.
    10030    2    1    2    0    0  0.00000000000E+00  0.00000000000E+00  0.78546744837E+03  0.12709955063E+04  0.99923493969E+03 0.  0.
        2    1    3    3  502    0 -0.19458389163E+00 -0.49520214531E+03  0.30843363833E+03  0.58340081577E+03  0.25500000920E-02 0. -1.
       -2    1    3    3    0  502  0.19458389163E+00  0.49520214531E+03  0.47703381003E+03  0.68759469057E+03  0.25500000920E-02 0.  1.
</event>
<event>
 5   0  0.2484904E-04  0.1000708E+04  0.7818609E-02  0.9307769E-01
       -2   -1    0    0    0  501  0.00000000000E+00  0.00000000000E+00  0.23475838029E+03  0.23475838030E+03  0.25500000920E-02 0.  1.
        2   -1    0    0  501    0  0.00000000000E+00  0.00000000000E+00 -0.10664322374E+04  0.10664322374E+04  0.25500000920E-02 0. -1.
    10030    2    1    2    0    0  0.00000000000E+00  0.00000000000E+00 -0.83167385715E+03  0.13011906177E+04  0.10007075592E+04 0.  0.
        3    1    3    3  502    0  0.26208386665E+02 -0.44991842263E+03 -0.13322489208E+03  0.46995994364E+03  0.10100000352E+00 0. -1.
       -3    1    3    3    0  502 -0.26208386665E+02  0.44991842263E+03 -0.69844896507E+03  0.83123067410E+03  0.10100000352E+00 0.  1.
</event>
<event>
 5   0  0.1453863E-04  0.9994609E+03  0.7818609E-02  0.9309136E-01
       -1   -1    0    0    0  501  0.00000000000E+00  0.00000000000E+00  0.31078931414E+03  0.31078931418E+03  0.50400001928E-02 0. -1.
        1   -1    0    0  501    0  0.00000000000E+00  0.00000000000E+00 -0.80353645783E+03  0.80353645784E+03  0.50400001928E-02 0.  1.
    10030    2    1    2    0    0  0.00000000000E+00  0.00000000000E+00 -0.49274714368E+03  0.11143257720E+04  0.99946094401E+03 0.  0.
        1    1    3    3  502    0 -0.11573944009E+03  0.36884866911E+03 -0.59944746412E+03  0.71328971741E+03  0.50400001928E-02 0.  1.
       -1    1    3    3    0  502  0.11573944009E+03 -0.36884866911E+03  0.10670032044E+03  0.40103605462E+03  0.50400001928E-02 0. -1.
</event>
<event>
 5   0  0.2484904E-04  0.1000187E+04  0.7818609E-02  0.9308339E-01
        2   -1    0    0  501    0  0.00000000000E+00  0.00000000000E+00  0.15926600673E+04  0.15926600673E+04  0.25500000920E-02 0. -1.
       -2   -1    0    0    0  501  0.00000000000E+00  0.00000000000E+00 -0.15702893161E+03  0.15702893163E+03  0.25500000920E-02 0.  1.
    10030    2    1    2    0    0  0.00000000000E+00  0.00000000000E+00  0.14356311356E+04  0.17496889989E+04  0.10001874000E+04 0.  0.
        3    1    3    3  502    0  0.19352815339E+03 -0.36128074133E+03  0.21651818940E+03  0.46352675948E+03  0.10100000352E+00 0.  1.
       -3    1    3    3    0  502 -0.19352815339E+03  0.36128074133E+03  0.12191129462E+04  0.12861622394E+04  0.10100000352E+00 0. -1.
</event>
<event>
 5   0  0.1414165E-04  0.9997904E+03  0.7818609E-02  0.9308775E-01
       -1   -1    0    0    0  501  0.00000000000E+00  0.00000000000E+00  0.96281642026E+03  0.96281642028E+03  0.50400001928E-02 0.  1.
        1   -1    0    0  501    0  0.00000000000E+00  0.00000000000E+00 -0.25954605420E+03  0.25954605425E+03  0.50400001928E-02 0. -1.
    10030    2    1    2    0    0  0.00000000000E+00  0.00000000000E+00  0.70327036606E+03  0.12223624745E+04  0.99979038370E+03 0.  0.
        4    1    3    3  502    0  0.22944450571E+03 -0.23481030809E+02  0.89387376843E+03  0.92315116140E+03  0.12699999809E+01 0.  1.
       -4    1    3    3    0  502 -0.22944450571E+03  0.23481030809E+02 -0.19060340237E+03  0.29921131313E+03  0.12699999809E+01 0. -1.
</event>
<event>
 5   0  0.2473312E-04  0.1000581E+04  0.7818609E-02  0.9307908E-01
        2   -1    0    0  501    0  0.00000000000E+00  0.00000000000E+00  0.48155345587E+03  0.48155345588E+03  0.25500000920E-02 0. -1.
       -2   -1    0    0    0  501  0.00000000000E+00  0.00000000000E+00 -0.51975659038E+03  0.51975659039E+03  0.25500000920E-02 0.  1.
    10030    2    1    2    0    0  0.00000000000E+00  0.00000000000E+00 -0.38203134508E+02  0.10013100463E+04  0.10005809959E+04 0.  0.
        5    1    3    3  502    0  0.11654255124E+03  0.46433226825E+03  0.12620020000E+03  0.49511130270E+03  0.46999998093E+01 0. -1.
       -5    1    3    3    0  502 -0.11654255124E+03 -0.46433226825E+03 -0.16440333450E+03  0.50619874356E+03  0.46999998093E+01 0.  1.
</event>
<event>
 5   0  0.1506454E-04  0.9998065E+03  0.7818609E-02  0.9308757E-01
       -1   -1    0    0    0  501  0.00000000000E+00  0.00000000000E+00  0.65030272058E+03  0.65030272060E+03  0.50400001928E-02 0. -1.
        1   -1    0    0  501    0  0.00000000000E+00  0.00000000000E+00 -0.38428755650E+03  0.38428755653E+03  0.50400001928E-02 0.  1.
    10030    2    1    2    0    0  0.00000000000E+00  0.00000000000E+00  0.26601516408E+03  0.10345902771E+04  0.99980646827E+03 0.  0.
        3    1    3    3  502    0  0.22345670990E+02  0.61941660483E+02 -0.37978008589E+03  0.38544652309E+03  0.10100000352E+00 0.  1.
       -3    1    3    3    0  502 -0.22345670990E+02 -0.61941660483E+02  0.64579524998E+03  0.64914375404E+03  0.10100000352E+00 0. -1.
</event>
<event>
 5   0  0.2503680E-04  0.1000145E+04  0.7818609E-02  0.9308386E-01
        2   -1    0    0  501    0  0.00000000000E+00  0.00000000000E+00  0.74010122485E+03  0.74010122486E+03  0.25500000920E-02 0. -1.
       -2   -1    0    0    0  501  0.00000000000E+00  0.00000000000E+00 -0.33788938898E+03  0.33788938899E+03  0.25500000920E-02 0.  1.
    10030    2    1    2    0    0  0.00000000000E+00  0.00000000000E+00  0.40221183588E+03  0.10779906138E+04  0.10001446908E+04 0.  0.
        2    1    3    3  502    0 -0.45352705496E+03 -0.18414736480E+03  0.31142117187E+03  0.58015531355E+03  0.25500000920E-02 0. -1.
       -2    1    3    3    0  502  0.45352705496E+03  0.18414736480E+03  0.90790664010E+02  0.49783530030E+03  0.25500000920E-02 0.  1.
</event>
<event>
 5   0  0.1430675E-04  0.9999966E+03  0.7818609E-02  0.9308549E-01
        1   -1    0    0  501    0  0.00000000000E+00  0.00000000000E+00  0.16553334673E+04  0.16553334673E+04  0.50400001928E-02 0.  1.
       -1   -1    0    0    0  501  0.00000000000E+00  0.00000000000E+00 -0.15102594573E+03  0.15102594581E+03  0.50400001928E-02 0. -1.
    10030    2    1    2    0    0  0.00000000000E+00  0.00000000000E+00  0.15043075216E+04  0.18063594131E+04  0.99999660495E+03 0.  0.
        5    1    3    3  502    0  0.38297184042E+03  0.20847199424E+01  0.17156967646E+03  0.41967847275E+03  0.46999998093E+01 0. -1.
       -5    1    3    3    0  502 -0.38297184042E+03 -0.20847199424E+01  0.13327378451E+04  0.13866809404E+04  0.46999998093E+01 0.  1.
</event>
<event>
 5   0  0.1461334E-04  0.1000343E+04  0.7818609E-02  0.9308169E-01
       -1   -1    0    0    0  501  0.00000000000E+00  0.00000000000E+00  0.52653975288E+03  0.52653975290E+03  0.50400001928E-02 0. -1.
        1   -1    0    0  501    0  0.00000000000E+00  0.00000000000E+00 -0.47512387106E+03  0.47512387109E+03  0.50400001928E-02 0.  1.
    10030    2    1    2    0    0  0.00000000000E+00  0.00000000000E+00  0.51415881814E+02  0.10016636240E+04  0.10003431525E+04 0.  0.
        2    1    3    3  502    0  0.27111619929E+03  0.19949519814E+03 -0.34473889271E+03  0.48181659555E+03  0.25500000920E-02 0.  1.
       -2    1    3    3    0  502 -0.27111619929E+03 -0.19949519814E+03  0.39615477452E+03  0.51984702844E+03  0.25500000920E-02 0. -1.
</event>
<event>
 5   0  0.1430675E-04  0.9991245E+03  0.7818609E-02  0.9309506E-01
        1   -1    0    0  501    0  0.00000000000E+00  0.00000000000E+00  0.48728070805E+03  0.48728070808E+03  0.50400001928E-02 0.  1.
       -1   -1    0    0    0  501  0.00000000000E+00  0.00000000000E+00 -0.51215334422E+03  0.51215334424E+03  0.50400001928E-02 0. -1.
    10030    2    1    2    0    0  0.00000000000E+00  0.00000000000E+00 -0.24872636166E+02  0.99943405232E+03  0.99912450521E+03 0.  0.
        5    1    3    3  502    0 -0.39580209579E+03  0.75854892809E+01 -0.31720022886E+03  0.50730160050E+03  0.46999998093E+01 0. -1.
       -5    1    3    3    0  502  0.39580209579E+03 -0.75854892809E+01  0.29232759270E+03  0.49213245182E+03  0.46999998093E+01 0.  1.
</event>
<event>
 5   0  0.2484904E-04  0.1000078E+04  0.7818609E-02  0.9308459E-01
        2   -1    0    0  501    0  0.00000000000E+00  0.00000000000E+00  0.16489566263E+04  0.16489566263E+04  0.25500000920E-02 0.  1.
       -2   -1    0    0    0  501  0.00000000000E+00  0.00000000000E+00 -0.15163476192E+03  0.15163476194E+03  0.25500000920E-02 0. -1.
    10030    2    1    2    0    0  0.00000000000E+00  0.00000000000E+00  0.14973218643E+04  0.18005913882E+04  0.10000782879E+04 0.  0.
        3    1    3    3  502    0 -0.18098836317E+02 -0.32832917461E+03  0.70410628843E+02  0.33628155113E+03  0.10100000352E+00 0. -1.
       -3    1    3    3    0  502  0.18098836317E+02  0.32832917461E+03  0.14269112355E+04  0.14643098371E+04  0.10100000352E+00 0.  1.
</event>
<event>
 5   0  0.1430675E-04  0.1000432E+04  0.7818609E-02  0.9308071E-01
        1   -1    0    0  501    0  0.00000000000E+00  0.00000000000E+00  0.20644840001E+04  0.20644840001E+04  0.50400001928E-02 0. -1.
       -1   -1    0    0    0  501  0.00000000000E+00  0.00000000000E+00 -0.12120032233E+03  0.12120032244E+03  0.50400001928E-02 0.  1.
    10030    2    1    2    0    0  0.00000000000E+00  0.00000000000E+00  0.19432836777E+04  0.21856843225E+04  0.10004321594E+04 0.  0.
        5    1    3    3  502    0 -0.21617925937E+03 -0.74140440040E+01  0.19569707863E+04  0.19688944077E+04  0.46999998093E+01 0. -1.
       -5    1    3    3    0  502  0.21617925937E+03  0.74140440040E+01 -0.13687108553E+02  0.21678991483E+03  0.46999998093E+01 0.  1.
</event>
<event>
 5   0  0.2403037E-04  0.1004085E+04  0.7818609E-02  0.9304076E-01
       -2   -1    0    0    0  501  0.00000000000E+00  0.00000000000E+00  0.73835144506E+03  0.73835144506E+03  0.25500000920E-02 0.  1.
        2   -1    0    0  501    0  0.00000000000E+00  0.00000000000E+00 -0.34136399837E+03  0.34136399838E+03  0.25500000920E-02 0. -1.
    10030    2    1    2    0    0  0.00000000000E+00  0.00000000000E+00  0.39698744668E+03  0.10797154434E+04  0.10040848600E+04 0.  0.
        1    1    3    3  502    0  0.19159831908E+03 -0.19920232309E+02 -0.30004326464E+03  0.35655671669E+03  0.50400001928E-02 0. -1.
       -1    1    3    3    0  502 -0.19159831908E+03  0.19920232309E+02  0.69703071133E+03  0.72315872676E+03  0.50400001928E-02 0.  1.
</event>
<event>
 5   0  0.2473312E-04  0.9998856E+03  0.7818609E-02  0.9308670E-01
       -2   -1    0    0    0  501  0.00000000000E+00  0.00000000000E+00  0.63174198564E+03  0.63174198564E+03  0.25500000920E-02 0.  1.
        2   -1    0    0  501    0  0.00000000000E+00  0.00000000000E+00 -0.39564066538E+03  0.39564066539E+03  0.25500000920E-02 0. -1.
    10030    2    1    2    0    0  0.00000000000E+00  0.00000000000E+00  0.23610132026E+03  0.10273826510E+04  0.99988563257E+03 0.  0.
        5    1    3    3  502    0 -0.33825101955E+02 -0.27889119067E+03  0.54293942852E+03  0.61133439850E+03  0.46999998093E+01 0.  1.
       -5    1    3    3    0  502  0.33825101955E+02  0.27889119067E+03 -0.30683810826E+03  0.41604825253E+03  0.46999998093E+01 0. -1.
</event>
<event>
 5   0  0.2473312E-04  0.1000002E+04  0.7818609E-02  0.9308542E-01
        2   -1    0    0  501    0  0.00000000000E+00  0.00000000000E+00  0.20648731349E+04  0.20648731349E+04  0.25500000920E-02 0.  1.
       -2   -1    0    0    0  501  0.00000000000E+00  0.00000000000E+00 -0.12107338476E+03  0.12107338478E+03  0.25500000920E-02 0. -1.
    10030    2    1    2    0    0  0.00000000000E+00  0.00000000000E+00  0.19437997501E+04  0.21859465197E+04  0.10000023591E+04 0.  0.
        5    1    3    3  502    0 -0.53943652578E+01  0.24891408759E+03  0.19196807117E+04  0.19357643057E+04  0.46999998093E+01 0.  1.
       -5    1    3    3    0  502  0.53943652578E+01 -0.24891408759E+03  0.24119038377E+02  0.25018221397E+03  0.46999998093E+01 0. -1.
</event>
<event>
 5   0  0.1506454E-04  0.9994982E+03  0.7818609E-02  0.9309095E-01
       -1   -1    0    0    0  501  0.00000000000E+00  0.00000000000E+00  0.37311556619E+03  0.37311556623E+03  0.50400001928E-02 0.  1.
        1   -1    0    0  501    0  0.00000000000E+00  0.00000000000E+00 -0.66936135799E+03  0.66936135801E+03  0.50400001928E-02 0. -1.
    10030    2    1    2    0    0  0.00000000000E+00  0.00000000000E+00 -0.29624579179E+03  0.10424769242E+04  0.99949815828E+03 0.  0.
        3    1    3    3  502    0  0.51759001652E+02 -0.12767011247E+03 -0.64916541122E+03  0.66362217654E+03  0.10100000352E+00 0. -1.
       -3    1    3    3    0  502 -0.51759001652E+02  0.12767011247E+03  0.35291961943E+03  0.37885474769E+03  0.10100000352E+00 0.  1.
</event>
<event>
 5   0  0.1430675E-04  0.9998586E+03  0.7818609E-02  0.9308700E-01
        1   -1    0    0  501    0  0.00000000000E+00  0.00000000000E+00  0.34007835452E+03  0.34007835456E+03  0.50400001928E-02 0.  1.
       -1   -1    0    0    0  501  0.00000000000E+00  0.00000000000E+00 -0.73491676873E+03  0.73491676875E+03  0.50400001928E-02 0. -1.
    10030    2    1    2    0    0  0.00000000000E+00  0.00000000000E+00 -0.39483841421E+03  0.10749951233E+04  0.99985856090E+03 0.  0.
        5    1    3    3  502    0  0.28084490614E+03  0.33212144785E+03 -0.46236976497E+03  0.63481210369E+03  0.46999998093E+01 0. -1.
       -5    1    3    3    0  502 -0.28084490614E+03 -0.33212144785E+03  0.67531350768E+02  0.44018301962E+03  0.46999998093E+01 0.  1.
</event>
<event>
 5   0  0.2473312E-04  0.9997989E+03  0.7818609E-02  0.9308765E-01
       -2   -1    0    0    0  501  0.00000000000E+00  0.00000000000E+00  0.20701722373E+03  0.20701722374E+03  0.25500000920E-02 0.  1.
        2   -1    0    0  501    0  0.00000000000E+00  0.00000000000E+00 -0.12071433861E+04  0.12071433861E+04  0.25500000920E-02 0. -1.
    10030    2    1    2    0    0  0.00000000000E+00  0.00000000000E+00 -0.10001261624E+04  0.14141606098E+04  0.99979892467E+03 0.  0.
        5    1    3    3  502    0 -0.14151822785E+03 -0.18205075754E+02 -0.11776967335E+04  0.11863180517E+04  0.46999998093E+01 0. -1.
       -5    1    3    3    0  502  0.14151822785E+03  0.18205075754E+02  0.17757057112E+03  0.22784255819E+03  0.46999998093E+01 0.  1.
</event>
<event>
 5   0  0.1461334E-04  0.9997645E+03  0.7818609E-02  0.9308803E-01
       -1   -1    0    0    0  501  0.00000000000E+00  0.00000000000E+00  0.13298054751E+03  0.13298054761E+03  0.50400001928E-02 0. -1.
        1   -1    0    0  501    0  0.00000000000E+00  0.00000000000E+00 -0.18790887350E+04  0.18790887350E+04  0.50400001928E-02 0.  1.
    10030    2    1    2    0    0  0.00000000000E+00  0.00000000000E+00 -0.17461081875E+04  0.20120692826E+04  0.99976447007E+03 0.  0.
        2    1    3    3  502    0 -0.83989181623E+02  0.34592621214E+03 -0.16675999617E+03  0.39310052557E+03  0.25500000920E-02 0. -1.
       -2    1    3    3    0  502  0.83989181623E+02 -0.34592621214E+03 -0.15793481913E+04  0.16189687570E+04  0.25500000920E-02 0.  1.
</event>
<event>
 5   0  0.2403037E-04  0.1000325E+04  0.7818609E-02  0.9308189E-01
       -2   -1    0    0    0  501  0.00000000000E+00  0.00000000000E+00  0.61779018025E+03  0.61779018026E+03  0.25500000920E-02 0. -1.
        2   -1    0    0  501    0  0.00000000000E+00  0.00000000000E+00 -0.40493109285E+03  0.40493109286E+03  0.25500000920E-02 0.  1.
    10030    2    1    2    0    0  0.00000000000E+00  0.00000000000E+00  0.21285908740E+03  0.10227212731E+04  0.10003248529E+04 0.  0.
        1    1    3    3  502    0 -0.96518144141E+02  0.18398305839E+03  0.57158507325E+03  0.60817350642E+03  0.50400001928E-02 0. -1.
       -1    1    3    3    0  502  0.96518144141E+02 -0.18398305839E+03 -0.35872598584E+03  0.41454776669E+03  0.50400001928E-02 0.  1.
</event>
<event>
 5   0  0.1430675E-04  0.1000154E+04  0.7818609E-02  0.9308376E-01
       -1   -1    0    0    0  501  0.00000000000E+00  0.00000000000E+00  0.22381539431E+03  0.22381539436E+03  0.50400001928E-02 0.  1.
        1   -1    0    0  501    0  0.00000000000E+00  0.00000000000E+00 -0.11173358909E+04  0.11173358909E+04  0.50400001928E-02 0. -1.
    10030    2    1    2    0    0  0.00000000000E+00  0.00000000000E+00 -0.89352049659E+03  0.13411512853E+04  0.10001539342E+04 0.  0.
        5    1    3    3  502    0 -0.35740085490E+03  0.52878389705E+02  0.16833285511E+02  0.36171389893E+03  0.46999998093E+01 0.  1.
       -5    1    3    3    0  502  0.35740085490E+03 -0.52878389705E+02 -0.91035378210E+03  0.97943738634E+03  0.46999998093E+01 0. -1.
</event>
<event>
 5   0  0.1453863E-04  0.9997828E+03  0.7818609E-02  0.9308783E-01
        1   -1    0    0  501    0  0.00000000000E+00  0.00000000000E+00  0.10847127844E+04  0.10847127844E+04  0.50400001928E-02 0. -1.
       -1   -1    0    0    0  501  0.00000000000E+00  0.00000000000E+00 -0.23037566541E+03  0.23037566546E+03  0.50400001928E-02 0.  1.
    10030    2    1    2    0    0  0.00000000000E+00  0.00000000000E+00  0.85433711902E+03  0.13150884499E+04  0.99978283549E+03 0.  0.
        1    1    3    3  502    0  0.16786345854E+03 -0.45080278197E+03  0.60603109933E+03  0.77374090129E+03  0.50400001928E-02 0.  1.
       -1    1    3    3    0  502 -0.16786345854E+03  0.45080278197E+03  0.24830601969E+03  0.54134754861E+03  0.50400001928E-02 0. -1.
</event>
<event>
 5   0  0.1453863E-04  0.9997593E+03  0.7818609E-02  0.9308809E-01
       -1   -1    0    0    0  501  0.00000000000E+00  0.00000000000E+00  0.33208922450E+03  0.33208922453E+03  0.50400001928E-02 0. -1.
        1   -1    0    0  501    0  0.00000000000E+00  0.00000000000E+00 -0.75244741279E+03  0.75244741281E+03  0.50400001928E-02 0.  1.
    10030    2    1    2    0    0  0.00000000000E+00  0.00000000000E+00 -0.42035818829E+03  0.10845366373E+04  0.99975932667E+03 0.  0.
        1    1    3    3  502    0  0.26919744415E+03 -0.39303101524E+03 -0.45879559002E+02  0.47858706296E+03  0.50400001928E-02 0. -1.
       -1    1    3    3    0  502 -0.26919744415E+03  0.39303101524E+03 -0.37447862929E+03  0.60594957438E+03  0.50400001928E-02 0.  1.
</event>
<event>
 5   0  0.1414165E-04  0.9999067E+03  0.7818609E-02  0.9308647E-01
        1   -1    0    0  501    0  0.00000000000E+00  0.00000000000E+00  0.12600167391E+04  0.12600167391E+04  0.50400001928E-02 0.  1.
       -1   -1    0    0    0  501  0.00000000000E+00  0.00000000000E+00 -0.19837303280E+03  0.19837303287E+03  0.50400001928E-02 0. -1.
    10030    2    1    2    0    0  0.00000000000E+00  0.00000000000E+00  0.10616437063E+04  0.14583897719E+04  0.99990667958E+03 0.  0.
        4    1    3    3  502    0 -0.43391760737E+03 -0.24463284136E+03  0.46856462836E+03  0.68387436047E+03  0.12699999809E+01 0. -1.
       -4    1    3    3    0  502  0.43391760737E+03  0.24463284136E+03  0.59307907790E+03  0.77451541147E+03  0.12699999809E+01 0.  1.
</event>
<event>
 5   0  0.2353916E-04  0.1001421E+04  0.7818609E-02  0.9306987E-01
       -2   -1    0    0    0  501  0.00000000000E+00  0.00000000000E+00  0.30450947296E+03  0.30450947297E+03  0.25500000920E-02 0. -1.
        2   -1    0    0  501    0  0.00000000000E+00  0.00000000000E+00 -0.82332810540E+03  0.82332810540E+03  0.25500000920E-02 0.  1.
    10030    2    1    2    0    0  0.00000000000E+00  0.00000000000E+00 -0.51881863244E+03  0.11278375784E+04  0.10014214047E+04 0.  0.
        4    1    3    3  502    0 -0.46111941562E+03 -0.92351724792E+02 -0.65809128775E+02  0.47486041197E+03  0.12699999809E+01 0. -1.
       -4    1    3    3    0  502  0.46111941562E+03  0.92351724792E+02 -0.45300950366E+03  0.65297716640E+03  0.12699999809E+01 0.  1.
</event>
<event>
 5   0  0.2403037E-04  0.1000426E+04  0.7818609E-02  0.9308077E-01
        2   -1    0    0  501    0  0.00000000000E+00  0.00000000000E+00  0.66344406958E+03  0.66344406958E+03  0.25500000920E-02 0.  1.
       -2   -1    0    0    0  501  0.00000000000E+00  0.00000000000E+00 -0.37714283649E+03  0.37714283650E+03  0.25500000920E-02 0. -1.
    10030    2    1    2    0    0  0.00000000000E+00  0.00000000000E+00  0.28630123309E+03  0.10405869061E+04  0.10004262657E+04 0.  0.
        1    1    3    3  502    0 -0.30167057215E+03  0.13721577326E+03  0.53286433889E+03  0.62751709636E+03  0.50400001928E-02 0.  1.
       -1    1    3    3    0  502  0.30167057215E+03 -0.13721577326E+03 -0.24656310581E+03  0.41306980972E+03  0.50400001928E-02 0. -1.
</event>
<event>
 5   0  0.1414165E-04  0.9996880E+03  0.7818609E-02  0.9308887E-01
       -1   -1    0    0    0  501  0.00000000000E+00  0.00000000000E+00  0.17013961026E+03  0.17013961033E+03  0.50400001928E-02 0.  1.
        1   -1    0    0  501    0  0.00000000000E+00  0.00000000000E+00 -0.14684648137E+04  0.14684648137E+04  0.50400001928E-02 0. -1.
    10030    2    1    2    0    0  0.00000000000E+00  0.00000000000E+00 -0.12983252034E+04  0.16386044240E+04  0.99968801363E+03 0.  0.
        4    1    3    3  502    0  0.20423305204E+03  0.35494081614E+03 -0.11189581716E+04  0.11915381342E+04  0.12699999809E+01 0. -1.
       -4    1    3    3    0  502 -0.20423305204E+03 -0.35494081614E+03 -0.17936703182E+03  0.44706628984E+03  0.12699999809E+01 0.  1.
</event>
<event>
 5   0  0.2473312E-04  0.9996649E+03  0.7818609E-02  0.9308912E-01
       -2   -1    0    0    0  501  0.00000000000E+00  0.00000000000E+00  0.15729175070E+03  0.15729175072E+03  0.25500000920E-02 0. -1.
        2   -1    0    0  501    0  0.00000000000E+00  0.00000000000E+00 -0.15883379669E+04  0.15883379669E+04  0.25500000920E-02 0.  1.
    10030    2    1    2    0    0  0.00000000000E+00  0.00000000000E+00 -0.14310462162E+04  0.17456297176E+04  0.99966486291E+03 0.  0.
        5    1    3    3  502    0 -0.14351149635E+03  0.32075863600E+03 -0.94870274208E+02  0.36401114142E+03  0.46999998093E+01 0. -1.
       -5    1    3    3    0  502  0.14351149635E+03 -0.32075863600E+03 -0.13361759420E+04  0.13816185762E+04  0.46999998093E+01 0.  1.
</event>
<event>
 5   0  0.2484904E-04  0.1002999E+04  0.7818609E-02  0.9305261E-01
        2   -1    0    0  501    0  0.00000000000E+00  0.00000000000E+00  0.52435930988E+03  0.52435930988E+03  0.25500000920E-02 0.  1.
       -2   -1    0    0    0  501  0.00000000000E+00  0.00000000000E+00 -0.47963651903E+03  0.47963651904E+03  0.25500000920E-02 0. -1.
    10030    2    1    2    0    0  0.00000000000E+00  0.00000000000E+00  0.44722790845E+02  0.10039958289E+04  0.10029992505E+04 0.  0.
        3    1    3    3  502    0  0.35443247681E+03  0.37079172058E+02 -0.33084131747E+03  0.48626457116E+03  0.10100000352E+00 0. -1.
       -3    1    3    3    0  502 -0.35443247681E+03 -0.37079172058E+02  0.37556410831E+03  0.51773125777E+03  0.10100000352E+00 0.  1.
</event>
<event>
 5   0  0.2353916E-04  0.9998642E+03  0.7818609E-02  0.9308694E-01
        2   -1    0    0  501    0  0.00000000000E+00  0.00000000000E+00  0.27876854022E+03  0.27876854023E+03  0.25500000920E-02 0.  1.
       -2   -1    0    0    0  501  0.00000000000E+00  0.00000000000E+00 -0.89655778090E+03  0.89655778090E+03  0.25500000920E-02 0. -1.
    10030    2    1    2    0    0  0.00000000000E+00  0.00000000000E+00 -0.61778924068E+03  0.11753263211E+04  0.99986419840E+03 0.  0.
        4    1    3    3  502    0 -0.41860821787E+02  0.83885716411E+02  0.26834121839E+03  0.28424947529E+03  0.12699999809E+01 0.  1.
       -4    1    3    3    0  502  0.41860821787E+02 -0.83885716411E+02 -0.88613045906E+03  0.89107684584E+03  0.12699999809E+01 0. -1.
</event>
<event>
 5   0  0.2503680E-04  0.1000173E+04  0.7818609E-02  0.9308355E-01
       -2   -1    0    0    0  501  0.00000000000E+00  0.00000000000E+00  0.18056251958E+03  0.18056251959E+03  0.25500000920E-02 0. -1.
        2   -1    0    0  501    0  0.00000000000E+00  0.00000000000E+00 -0.13850407093E+04  0.13850407093E+04  0.25500000920E-02 0.  1.
    10030    2    1    2    0    0  0.00000000000E+00  0.00000000000E+00 -0.12044781897E+04  0.15656032288E+04  0.10001728654E+04 0.  0.
        2    1    3    3  502    0 -0.16275692716E+03  0.44489105603E+03 -0.85302751933E+03  0.97574270062E+03  0.25500000920E-02 0.  1.
       -2    1    3    3    0  502  0.16275692716E+03 -0.44489105603E+03 -0.35145067034E+03  0.58986052823E+03  0.25500000920E-02 0. -1.
</event>
<event>
 5   0  0.2503680E-04  0.9999621E+03  0.7818609E-02  0.9308586E-01
        2   -1    0    0  501    0  0.00000000000E+00  0.00000000000E+00  0.44933050752E+03  0.44933050752E+03  0.25500000920E-02 0. -1.
       -2   -1    0    0    0  501  0.00000000000E+00  0.00000000000E+00 -0.55634112111E+03  0.55634112112E+03  0.25500000920E-02 0.  1.
    10030    2    1    2    0    0  0.00000000000E+00  0.00000000000E+00 -0.10701061359E+03  0.10056716286E+04  0.99996207590E+03 0.  0.
        2    1    3    3  502    0  0.20262913444E+03  0.37577158569E+03  0.20820771491E+03  0.47498768752E+03  0.25500000920E-02 0. -1.
       -2    1    3    3    0  502 -0.20262913444E+03 -0.37577158569E+03 -0.31521832851E+03  0.53068394113E+03  0.25500000920E-02 0.  1.
</event>
<event>
 5   0  0.2503680E-04  0.1001791E+04  0.7818609E-02  0.9306583E-01
       -2   -1    0    0    0  501  0.00000000000E+00  0.00000000000E+00  0.47250778962E+03  0.47250778963E+03  0.25500000920E-02 0. -1.
        2   -1    0    0  501    0  0.00000000000E+00  0.00000000000E+00 -0.53098819746E+03  0.53098819746E+03  0.25500000920E-02 0.  1.
    10030    2    1    2    0    0  0.00000000000E+00  0.00000000000E+00 -0.58480407838E+02  0.10034959871E+04  0.10017905160E+04 0.  0.
        2    1    3    3  502    0  0.21663483887E+03 -0.25845132643E+03 -0.40023313168E+03  0.52336822721E+03  0.25500000920E-02 0.  1.
       -2    1    3    3    0  502 -0.21663483887E+03  0.25845132643E+03  0.34175272385E+03  0.48012775988E+03  0.25500000920E-02 0. -1.
</event>
<event>
 5   0  0.2484904E-04  0.1000213E+04  0.7818609E-02  0.9308312E-01
        2   -1    0    0  501    0  0.00000000000E+00  0.00000000000E+00  0.14651311730E+04  0.14651311730E+04  0.25500000920E-02 0. -1.
       -2   -1    0    0    0  501  0.00000000000E+00  0.00000000000E+00 -0.17070572323E+03  0.17070572325E+03  0.25500000920E-02 0.  1.
    10030    2    1    2    0    0  0.00000000000E+00  0.00000000000E+00  0.12944254498E+04  0.16358368963E+04  0.10002125305E+04 0.  0.
        3    1    3    3  502    0  0.30200052769E+03  0.33372720134E+03  0.10037647827E+04  0.11000554136E+04  0.10100000352E+00 0. -1.
       -3    1    3    3    0  502 -0.30200052769E+03 -0.33372720134E+03  0.29066066704E+03  0.53578148270E+03  0.10100000352E+00 0.  1.
</event>
<event>
 5   0  0.2353916E-04  0.9994683E+03  0.7818609E-02  0.9309128E-01
       -2   -1    0    0    0  501  0.00000000000E+00  0.00000000000E+00  0.11071047124E+03  0.11071047127E+03  0.25500000920E-02 0.  1.
        2   -1    0    0  501    0  0.00000000000E+00  0.00000000000E+00 -0.22557414782E+04  0.22557414782E+04  0.25500000920E-02 0. -1.
    10030    2    1    2    0    0  0.00000000000E+00  0.00000000000E+00 -0.21450310069E+04  0.23664519495E+04  0.99946826281E+03 0.  0.
        4    1    3    3  502    0 -0.45940292266E+02  0.74721243865E+02 -0.22373686873E+04  0.22390877675E+04  0.12699999809E+01 0. -1.
       -4    1    3    3    0  502  0.45940292266E+02 -0.74721243865E+02  0.92337680347E+02  0.12736418198E+03  0.12699999809E+01 0.  1.
</event>
<event>
 5   0  0.2403037E-04  0.9992314E+03  0.7818609E-02  0.9309388E-01
       -2   -1    0    0    0  501  0.00000000000E+00  0.00000000000E+00  0.21934977058E+03  0.21934977060E+03  0.25500000920E-02 0. -1.
        2   -1    0    0  501    0  0.00000000000E+00  0.00000000000E+00 -0.11379809644E+04  0.11379809644E+04  0.25500000920E-02 0.  1.
    10030    2    1    2    0    0  0.00000000000E+00  0.00000000000E+00 -0.91863119383E+03  0.13573307350E+04  0.99923143161E+03 0.  0.
        1    1    3    3  502    0  0.64921228858E+02  0.46761490477E+03 -0.23719994168E+03  0.52833916898E+03  0.50400001928E-02 0. -1.
       -1    1    3    3    0  502 -0.64921228858E+02 -0.46761490477E+03 -0.68143125214E+03  0.82899156603E+03  0.50400001928E-02 0.  1.
</event>
<event>
 5   0  0.1453863E-04  0.1001309E+04  0.7818609E-02  0.9307110E-01
       -1   -1    0    0    0  501  0.00000000000E+00  0.00000000000E+00  0.23573394141E+03  0.23573394146E+03  0.50400001928E-02 0.  1.
        1   -1    0    0  501    0  0.00000000000E+00  0.00000000000E+00 -0.10632965434E+04  0.10632965434E+04  0.50400001928E-02 0. -1.
    10030    2    1    2    0    0  0.00000000000E+00  0.00000000000E+00 -0.82756260195E+03  0.12990304848E+04  0.10013093130E+04 0.  0.
        1    1    3    3  502    0  0.37545151381E+03 -0.74078354188E+02  0.50050697148E+01  0.38272247455E+03  0.50400001928E-02 0.  1.
       -1    1    3    3    0  502 -0.37545151381E+03  0.74078354188E+02 -0.83256767166E+03  0.91630801028E+03  0.50400001928E-02 0. -1.
</event>
<event>
 5   0  0.1506454E-04  0.9999468E+03  0.7818609E-02  0.9308603E-01
       -1   -1    0    0    0  501  0.00000000000E+00  0.00000000000E+00  0.32463012281E+03  0.32463012285E+03  0.50400001928E-02 0.  1.
        1   -1    0    0  501    0  0.00000000000E+00  0.00000000000E+00 -0.77002533099E+03  0.77002533100E+03  0.50400001928E-02 0. -1.
    10030    2    1    2    0    0  0.00000000000E+00  0.00000000000E+00 -0.44539520818E+03  0.10946554538E+04  0.99994683417E+03 0.  0.
        3    1    3    3  502    0  0.14469807336E+03  0.10431228747E+03  0.28861081489E+03  0.33928571798E+03  0.10100000352E+00 0.  1.
       -3    1    3    3    0  502 -0.14469807336E+03 -0.10431228747E+03 -0.73400602307E+03  0.75536973586E+03  0.10100000352E+00 0. -1.
</event>
<event>
 5   0  0.1414165E-04  0.1000336E+04  0.7818609E-02  0.9308177E-01
        1   -1    0    0  501    0  0.00000000000E+00  0.00000000000E+00  0.49162475436E+03  0.49162475438E+03  0.50400001928E-02 0.  1.
       -1   -1    0    0    0  501  0.00000000000E+00  0.00000000000E+00 -0.50885944436E+03  0.50885944438E+03  0.50400001928E-02 0. -1.
    10030    2    1    2    0    0  0.00000000000E+00  0.00000000000E+00 -0.17234690003E+02  0.10004841988E+04  0.10003357424E+04 0.  0.
        4    1    3    3  502    0 -0.47622452540E+03 -0.28095473995E+02 -0.15892980909E+03  0.50283143435E+03  0.12699999809E+01 0.  1.
       -4    1    3    3    0  502  0.47622452540E+03  0.28095473995E+02  0.14169511908E+03  0.49765276441E+03  0.12699999809E+01 0. -1.
</event>
<event>
 5   0  0.2353916E-04  0.9993561E+03  0.7818609E-02  0.9309251E-01
        2   -1    0    0  501    0  0.00000000000E+00  0.00000000000E+00  0.93100723806E+03  0.93100723806E+03  0.25500000920E-02 0. -1.
       -2   -1    0    0    0  501  0.00000000000E+00  0.00000000000E+00 -0.26818067406E+03  0.26818067407E+03  0.25500000920E-02 0.  1.
    10030    2    1    2    0    0  0.00000000000E+00  0.00000000000E+00  0.66282656400E+03  0.11991879121E+04  0.99935609002E+03 0.  0.
        4    1    3    3  502    0  0.92793228476E+01  0.28468666799E+03  0.82404632472E+03  0.87188678333E+03  0.12699999809E+01 0. -1.
       -4    1    3    3    0  502 -0.92793228476E+01 -0.28468666799E+03 -0.16121976072E+03  0.32730112880E+03  0.12699999809E+01 0.  1.
</event>
<event>
 5   0  0.2503680E-04  0.9998814E+03  0.7818609E-02  0.9308675E-01
       -2   -1    0    0    0  501  0.00000000000E+00  0.00000000000E+00  0.39952438488E+03  0.39952438489E+03  0.25500000920E-02 0. -1.
        2   -1    0    0  501    0  0.00000000000E+00  0.00000000000E+00 -0.62559555475E+03  0.62559555475E+03  0.25500000920E-02 0.  1.
    10030    2    1    2    0    0  0.00000000000E+00  0.00000000000E+00 -0.22607116986E+03  0.10251199396E+04  0.99988135137E+03 0.  0.
        2    1    3    3  502    0  0.41056125477E+03  0.26267367040E+03  0.10507175945E+01  0.48740035398E+03  0.25500000920E-02 0. -1.
       -2    1    3    3    0  502 -0.41056125477E+03 -0.26267367040E+03 -0.22712188746E+03  0.53771958567E+03  0.25500000920E-02 0.  1.
</event>
<event>
 5   0  0.2503680E-04  0.1000112E+04  0.7818609E-02  0.9308422E-01
       -2   -1    0    0    0  501  0.00000000000E+00  0.00000000000E+00  0.96190756377E+03  0.96190756378E+03  0.25500000920E-02 0.  1.
        2   -1    0    0  501    0  0.00000000000E+00  0.00000000000E+00 -0.25995865534E+03  0.25995865536E+03  0.25500000920E-02 0. -1.
    10030    2    1    2    0    0  0.00000000000E+00  0.00000000000E+00  0.70194890843E+03  0.12218662191E+04  0.10001123874E+04 0.  0.
        2    1    3    3  502    0  0.33460222594E+03 -0.16349241474E+03  0.75868751887E+03  0.84515984913E+03  0.25500000920E-02 0.  1.
       -2    1    3    3    0  502 -0.33460222594E+03  0.16349241474E+03 -0.56738610435E+02  0.37670637001E+03  0.25500000920E-02 0. -1.
</event>
<event>
 5   0  0.2403037E-04  0.9999624E+03  0.7818609E-02  0.9308586E-01
       -2   -1    0    0    0  501  0.00000000000E+00  0.00000000000E+00  0.39170964226E+03  0.39170964227E+03  0.25500000920E-02 0.  1.
        2   -1    0    0  501    0  0.00000000000E+00  0.00000000000E+00 -0.63817988161E+03  0.63817988162E+03  0.25500000920E-02 0. -1.
    10030    2    1    2    0    0  0.00000000000E+00  0.00000000000E+00 -0.24647023935E+03  0.10298895239E+04  0.99996242555E+03 0.  0.
        1    1    3    3  502    0 -0.18987754481E+03  0.15535944357E+03  0.32545340835E+03  0.40756589622E+03  0.50400001928E-02 0.  1.
       -1    1    3    3    0  502  0.18987754481E+03 -0.15535944357E+03 -0.57192364770E+03  0.62232362767E+03  0.50400001928E-02 0. -1.
</event>
<event>
 5   0  0.2473312E-04  0.9997369E+03  0.7818609E-02  0.9308833E-01
        2   -1    0    0  501    0  0.00000000000E+00  0.00000000000E+00  0.20064276451E+04  0.20064276451E+04  0.25500000920E-02 0.  1.
       -2   -1    0    0    0  501  0.00000000000E+00  0.00000000000E+00 -0.12453399948E+03  0.12453399950E+03  0.25500000920E-02 0. -1.
    10030    2    1    2    0    0  0.00000000000E+00  0.00000000000E+00  0.18818936457E+04  0.21309616447E+04  0.99973688407E+03 0.  0.
        5    1    3    3  502    0 -0.25948251302E+03 -0.25026143376E+03  0.20292148532E+03  0.41371630254E+03  0.46999998093E+01 0. -1.
       -5    1    3    3    0  502  0.25948251302E+03  0.25026143376E+03  0.16789721603E+04  0.17172453421E+04  0.46999998093E+01 0.  1.
</event>
<event>
 5   0  0.1461334E-04  0.1000547E+04  0.7818609E-02  0.9307945E-01
       -1   -1    0    0    0  501  0.00000000000E+00  0.00000000000E+00  0.17097585055E+03  0.17097585062E+03  0.50400001928E-02 0.  1.
        1   -1    0    0  501    0  0.00000000000E+00  0.00000000000E+00 -0.14637948358E+04  0.14637948358E+04  0.50400001928E-02 0. -1.
    10030    2    1    2    0    0  0.00000000000E+00  0.00000000000E+00 -0.12928189852E+04  0.16347706864E+04  0.10005469847E+04 0.  0.
        2    1    3    3  502    0 -0.34312952595E+03  0.15400482662E+03 -0.10743260662E+03  0.39114846692E+03  0.25500000920E-02 0.  1.
       -2    1    3    3    0  502  0.34312952595E+03 -0.15400482662E+03 -0.11853863786E+04  0.12436222195E+04  0.25500000920E-02 0. -1.
</event>
<event>
 5   0  0.1506454E-04  0.1000141E+04  0.7818609E-02  0.9308390E-01
        1   -1    0    0  501    0  0.00000000000E+00  0.00000000000E+00  0.23170245175E+04  0.23170245176E+04  0.50400001928E-02 0. -1.
       -1   -1    0    0    0  501  0.00000000000E+00  0.00000000000E+00 -0.10792738993E+03  0.10792739005E+03  0.50400001928E-02 0.  1.
    10030    2    1    2    0    0  0.00000000000E+00  0.00000000000E+00  0.22090971276E+04  0.24249519076E+04  0.10001408076E+04 0.  0.
        3    1    3    3  502    0 -0.17701909434E+03 -0.11994553006E+03  0.22005897358E+04  0.22109540668E+04  0.10100000352E+00 0. -1.
       -3    1    3    3    0  502  0.17701909434E+03  0.11994553006E+03  0.85073917795E+01  0.21399784078E+03  0.10100000352E+00 0.  1.
</event>
<event>
 5   0  0.1453863E-04  0.1001033E+04  0.7818609E-02  0.9307412E-01
        1   -1    0    0  501    0  0.00000000000E+00  0.00000000000E+00  0.11167483677E+04  0.11167483677E+04  0.50400001928E-02 0.  1.
       -1   -1    0    0    0  501  0.00000000000E+00  0.00000000000E+00 -0.22432707202E+03  0.22432707208E+03  0.50400001928E-02 0. -1.
    10030    2    1    2    0    0  0.00000000000E+00  0.00000000000E+00  0.89242129567E+03  0.13410754398E+04  0.10010332493E+04 0.  0.
        1    1    3    3  502    0 -0.26371396288E+03 -0.16924765904E+03  0.96908007220E+03  0.10184822093E+04  0.50400001928E-02 0.  1.
       -1    1    3    3    0  502  0.26371396288E+03  0.16924765904E+03 -0.76658776535E+02  0.32259323048E+03  0.50400001928E-02 0. -1.
</event>
<event>
 5   0  0.1461334E-04  0.9996418E+03  0.7818609E-02  0.9308938E-01
        1   -1    0    0  501    0  0.00000000000E+00  0.00000000000E+00  0.25436907117E+03  0.25436907122E+03  0.50400001928E-02 0.  1.
       -1   -1    0    0    0  501  0.00000000000E+00  0.00000000000E+00 -0.98211988290E+03  0.98211988291E+03  0.50400001928E-02 0. -1.
    10030    2    1    2    0    0  0.00000000000E+00  0.00000000000E+00 -0.72775081174E+03  0.12364889541E+04  0.99964178069E+03 0.  0.
        2    1    3    3  502    0  0.16201826056E+03  0.11178173119E+03  0.20440818401E+03  0.28377416704E+03  0.25500000920E-02 0.  1.
       -2    1    3    3    0  502 -0.16201826056E+03 -0.11178173119E+03 -0.93215899575E+03  0.95271478709E+03  0.25500000920E-02 0. -1.
</event>
<event>
 5   0  0.2484904E-04  0.9998917E+03  0.7818609E-02  0.9308664E-01
       -2   -1    0    0    0  501  0.00000000000E+00  0.00000000000E+00  0.42445287299E+03  0.42445287300E+03  0.25500000920E-02 0. -1.
        2   -1    0    0  501    0  0.00000000000E+00  0.00000000000E+00 -0.58886596251E+03  0.58886596251E+03  0.25500000920E-02 0.  1.
    10030    2    1    2    0    0  0.00000000000E+00  0.00000000000E+00 -0.16441308951E+03  0.10133188355E+04  0.99989169333E+03 0.  0.
        3    1    3    3  502    0 -0.19327562997E+03  0.32836702380E+03 -0.41022798676E+03  0.55988157925E+03  0.10100000352E+00 0.  1.
       -3    1    3    3    0  502  0.19327562997E+03 -0.32836702380E+03  0.24581489725E+03  0.45343725626E+03  0.10100000352E+00 0. -1.
</event>
<event>
 5   0  0.1461334E-04  0.9998566E+03  0.7818609E-02  0.9308702E-01
       -1   -1    0    0    0  501  0.00000000000E+00  0.00000000000E+00  0.49022772196E+03  0.49022772199E+03  0.50400001928E-02 0. -1.
        1   -1    0    0  501    0  0.00000000000E+00  0.00000000000E+00 -0.50982086200E+03  0.50982086203E+03  0.50400001928E-02 0.  1.
    10030    2    1    2    0    0  0.00000000000E+00  0.00000000000E+00 -0.19593140039E+02  0.10000485840E+04  0.99985662935E+03 0.  0.
        2    1    3    3  502    0  0.28017588885E+03 -0.38439786171E+03  0.14407728610E+03  0.49700956647E+03  0.25500000920E-02 0. -1.
       -2    1    3    3    0  502 -0.28017588885E+03  0.38439786171E+03 -0.16367042614E+03  0.50303901755E+03  0.25500000920E-02 0.  1.
</event>
<event>
 5   0  0.2473312E-04  0.1001597E+04  0.7818609E-02  0.9306796E-01
       -2   -1    0    0    0  501  0.00000000000E+00  0.00000000000E+00  0.16184907446E+03  0.16184907448E+03  0.25500000920E-02 0.  1.
        2   -1    0    0  501    0  0.00000000000E+00  0.00000000000E+00 -0.15495849870E+04  0.15495849870E+04  0.25500000920E-02 0. -1.
    10030    2    1    2    0    0  0.00000000000E+00  0.00000000000E+00 -0.13877359125E+04  0.17114340615E+04  0.10015965175E+04 0.  0.
        5    1    3    3  502    0 -0.38910168684E+03 -0.77845436671E+02 -0.17189594379E+03  0.43247004544E+03  0.46999998093E+01 0.  1.
       -5    1    3    3    0  502  0.38910168684E+03  0.77845436671E+02 -0.12158399688E+04  0.12789640160E+04  0.46999998093E+01 0. -1.
</event>
<event>
 5   0  0.2353916E-04  0.9998921E+03  0.7818609E-02  0.9308663E-01
       -2   -1    0    0    0  501  0.00000000000E+00  0.00000000000E+00  0.15848414168E+03  0.15848414170E+03  0.25500000920E-02 0.  1.
        2   -1    0    0  501    0  0.00000000000E+00  0.00000000000E+00 -0.15771045084E+04  0.15771045084E+04  0.25500000920E-02 0. -1.
    10030    2    1    2    0    0  0.00000000000E+00  0.00000000000E+00 -0.14186203667E+04  0.17355886501E+04  0.99989210292E+03 0.  0.
        4    1    3    3  502    0 -0.51602813635E+02  0.48406962647E+03 -0.90690056417E+03  0.10292990332E+04  0.12699999809E+01 0. -1.
       -4    1    3    3    0  502  0.51602813635E+02 -0.48406962647E+03 -0.51171980251E+03  0.70628961682E+03  0.12699999809E+01 0.  1.
</event>
<event>
 5   0  0.1430675E-04  0.1000282E+04  0.7818609E-02  0.9308235E-01
        1   -1    0    0  501    0  0.00000000000E+00  0.00000000000E+00  0.50063493280E+03  0.50063493283E+03  0.50400001928E-02 0.  1.
       -1   -1    0    0    0  501  0.00000000000E+00  0.00000000000E+00 -0.49964785283E+03  0.49964785286E+03  0.50400001928E-02 0. -1.
    10030    2    1    2    0    0  0.00000000000E+00  0.00000000000E+00  0.98707996888E+00  0.10002827857E+04  0.10002822987E+04 0.  0.
        5    1    3    3  502    0  0.47167283073E+03 -0.13480886875E+03  0.97809510604E+02  0.50023742433E+03  0.46999998093E+01 0.  1.
       -5    1    3    3    0  502 -0.47167283073E+03  0.13480886875E+03 -0.96822430635E+02  0.50004536135E+03  0.46999998093E+01 0. -1.
</event>
<event>
 5   0  0.1506454E-04  0.1000077E+04  0.7818609E-02  0.9308460E-01
        1   -1    0    0  501    0  0.00000000000E+00  0.00000000000E+00  0.15483843124E+04  0.15483843124E+04  0.50400001928E-02 0. -1.
       -1   -1    0    0    0  501  0.00000000000E+00  0.00000000000E+00 -0.16148352019E+03  0.16148352027E+03  0.50400001928E-02 0.  1.
    10030    2    1    2    0    0  0.00000000000E+00  0.00000000000E+00  0.13869007922E+04  0.17098678327E+04  0.10000770959E+04 0.  0.
        3    1    3    3  502    0 -0.35019773921E+03 -0.33704878863E+03  0.49261501335E+03  0.69203316687E+03  0.10100000352E+00 0.  1.
       -3    1    3    3    0  502  0.35019773921E+03  0.33704878863E+03  0.89428577888E+03  0.10178346658E+04  0.10100000352E+00 0. -1.
</event>
<event>
 5   0  0.1414165E-04  0.9996290E+03  0.7818609E-02  0.9308952E-01
        1   -1    0    0  501    0  0.00000000000E+00  0.00000000000E+00  0.21785257548E+04  0.21785257548E+04  0.50400001928E-02 0.  1.
       -1   -1    0    0    0  501  0.00000000000E+00  0.00000000000E+00 -0.11467136196E+03  0.11467136207E+03  0.50400001928E-02 0. -1.
    10030    2    1    2    0    0  0.00000000000E+00  0.00000000000E+00  0.20638543928E+04  0.22931971168E+04  0.99962896215E+03 0.  0.
        4    1    3    3  502    0 -0.10753160180E+03  0.43320988176E+03  0.15478537902E+04  0.16109273155E+04  0.12699999809E+01 0.  1.
       -4    1    3    3    0  502  0.10753160180E+03 -0.43320988176E+03  0.51600060256E+03  0.68226980131E+03  0.12699999809E+01 0. -1.
</event>
<event>
 5   0  0.1430675E-04  0.9992409E+03  0.7818609E-02  0.9309378E-01
       -1   -1    0    0    0  501  0.00000000000E+00  0.00000000000E+00  0.16734888691E+03  0.16734888699E+03  0.50400001928E-02 0.  1.
        1   -1    0    0  501    0  0.00000000000E+00  0.00000000000E+00 -0.14916179786E+04  0.14916179786E+04  0.50400001928E-02 0. -1.
    10030    2    1    2    0    0  0.00000000000E+00  0.00000000000E+00 -0.13242690916E+04  0.16589668656E+04  0.99924092886E+03 0.  0.
        5    1    3    3  502    0  0.42854222284E+03  0.19927952680E+03 -0.39320977430E+03  0.61481442986E+03  0.46999998093E+01 0. -1.
       -5    1    3    3    0  502 -0.42854222284E+03 -0.19927952680E+03 -0.93105931735E+03  0.10441524357E+04  0.46999998093E+01 0.  1.
</event>
<event>
 5   0  0.2503680E-04  0.9995040E+03  0.7818609E-02  0.9309089E-01
       -2   -1    0    0    0  501  0.00000000000E+00  0.00000000000E+00  0.16822225145E+03  0.16822225147E+03  0.25500000920E-02 0.  1.
        2   -1    0    0  501    0  0.00000000000E+00  0.00000000000E+00 -0.14846554302E+04  0.14846554302E+04  0.25500000920E-02 0. -1.
    10030    2    1    2    0    0  0.00000000000E+00  0.00000000000E+00 -0.13164331788E+04  0.16528776817E+04  0.99950403523E+03 0.  0.
        2    1    3    3  502    0 -0.89117502120E+02  0.13655772641E+02  0.15466240636E+03  0.17902197982E+03  0.25500000920E-02 0.  1.
       -2    1    3    3    0  502  0.89117502120E+02 -0.13655772641E+02 -0.14710955851E+04  0.14738557019E+04  0.25500000920E-02 0. -1.
</event>
<event>
 5   0  0.1461334E-04  0.1000001E+04  0.7818609E-02  0.9308544E-01
       -1   -1    0    0    0  501  0.00000000000E+00  0.00000000000E+00  0.59817766005E+03  0.59817766007E+03  0.50400001928E-02 0.  1.
        1   -1    0    0  501    0  0.00000000000E+00  0.00000000000E+00 -0.41793694089E+03  0.41793694092E+03  0.50400001928E-02 0. -1.
    10030    2    1    2    0    0  0.00000000000E+00  0.00000000000E+00  0.18024071917E+03  0.10161146010E+04  0.10000010828E+04 0.  0.
        2    1    3    3  502    0 -0.16003031957E+03 -0.37006125950E+03 -0.21035645073E+03  0.45475804042E+03  0.25500000920E-02 0.  1.
       -2    1    3    3    0  502  0.16003031957E+03  0.37006125950E+03  0.39059716989E+03  0.56135656057E+03  0.25500000920E-02 0. -1.
</event>
<event>
 5   0  0.2473312E-04  0.1000037E+04  0.7818609E-02  0.9308504E-01
        2   -1    0    0  501    0  0.00000000000E+00  0.00000000000E+00  0.96544692351E+03  0.96544692351E+03  0.25500000920E-02 0. -1.
       -2   -1    0    0    0  501  0.00000000000E+00  0.00000000000E+00 -0.25896668402E+03  0.25896668403E+03  0.25500000920E-02 0.  1.
    10030    2    1    2    0    0  0.00000000000E+00  0.00000000000E+00  0.70648023949E+03  0.12244136075E+04  0.10000371761E+04 0.  0.
        5    1    3    3  502    0  0.24190535069E+03 -0.85385552854E+02 -0.17222295800E+03  0.30901735969E+03  0.46999998093E+01 0.  1.
       -5    1    3    3    0  502 -0.24190535069E+03  0.85385552854E+02  0.87870319749E+03  0.91539624786E+03  0.46999998093E+01 0. -1.
</event>
<event>
 5   0  0.1453863E-04  0.1000422E+04  0.7818609E-02  0.9308083E-01
        1   -1    0    0  501    0  0.00000000000E+00  0.00000000000E+00  0.60618667933E+03  0.60618667935E+03  0.50400001928E-02 0. -1.
       -1   -1    0    0    0  501  0.00000000000E+00  0.00000000000E+00 -0.41276196888E+03  0.41276196891E+03  0.50400001928E-02 0.  1.
    10030    2    1    2    0    0  0.00000000000E+00  0.00000000000E+00  0.19342471045E+03  0.10189486483E+04  0.10004215257E+04 0.  0.
        1    1    3    3  502    0 -0.24644459504E+03  0.35903863193E+03  0.34737393123E+03  0.55705684249E+03  0.50400001928E-02 0. -1.
       -1    1    3    3    0  502  0.24644459504E+03 -0.35903863193E+03 -0.15394922077E+03  0.46189180577E+03  0.50400001928E-02 0.  1.
</event>
<event>
 5   0  0.2484904E-04  0.9996203E+03  0.7818609E-02  0.9308961E-01
       -2   -1    0    0    0  501  0.00000000000E+00  0.00000000000E+00  0.23671395165E+03  0.23671395167E+03  0.25500000920E-02 0. -1.
        2   -1    0    0  501    0  0.00000000000E+00  0.00000000000E+00 -0.10553252306E+04  0.10553252306E+04  0.25500000920E-02 0.  1.
    10030    2    1    2    0    0  0.00000000000E+00  0.00000000000E+00 -0.81861127895E+03  0.12920391823E+04  0.99962033918E+03 0.  0.
        3    1    3    3  502    0  0.49044185690E+03 -0.48812628959E+02 -0.30198433797E+03  0.57802287007E+03  0.10100000352E+00 0. -1.
       -3    1    3    3    0  502 -0.49044185690E+03  0.48812628959E+02 -0.51662694098E+03  0.71401631220E+03  0.10100000352E+00 0.  1.
</event>
<event>
 5   0  0.2473312E-04  0.9999597E+03  0.7818609E-02  0.9308589E-01
        2   -1    0    0  501    0  0.00000000000E+00  0.00000000000E+00  0.85687745662E+03  0.85687745662E+03  0.25500000920E-02 0.  1.
       -2   -1    0    0    0  501  0.00000000000E+00  0.00000000000E+00 -0.29173350659E+03  0.29173350660E+03  0.25500000920E-02 0. -1.
    10030    2    1    2    0    0  0.00000000000E+00  0.00000000000E+00  0.56514395003E+03  0.11486109632E+04  0.99995972948E+03 0.  0.
        5    1    3    3  502    0 -0.46074894051E+03  0.18084823928E+03  0.20165803519E+03  0.53449389612E+03  0.46999998093E+01 0. -1.
       -5    1    3    3    0  502  0.46074894051E+03 -0.18084823928E+03  0.36348591484E+03  0.61411706711E+03  0.46999998093E+01 0.  1.
</event>
<event>
 5   0  0.2473312E-04  0.9999042E+03  0.7818609E-02  0.9308650E-01
        2   -1    0    0  501    0  0.00000000000E+00  0.00000000000E+00  0.60505499293E+03  0.60505499293E+03  0.25500000920E-02 0. -1.
       -2   -1    0    0    0  501  0.00000000000E+00  0.00000000000E+00 -0.41310645784E+03  0.41310645784E+03  0.25500000920E-02 0.  1.
    10030    2    1    2    0    0  0.00000000000E+00  0.00000000000E+00  0.19194853509E+03  0.10181614508E+04  0.99990424528E+03 0.  0.
        5    1    3    3  502    0  0.27659428525E+03 -0.38302207999E+03  0.26242059216E+03  0.54045996112E+03  0.46999998093E+01 0. -1.
       -5    1    3    3    0  502 -0.27659428525E+03  0.38302207999E+03 -0.70472057065E+02  0.47770148965E+03  0.46999998093E+01 0.  1.
</event>
<event>
 5   0  0.2484904E-04  0.9953791E+03  0.7818609E-02  0.9313627E-01
       -2   -1    0    0    0  501  0.00000000000E+00  0.00000000000E+00  0.36140116136E+03  0.36140116137E+03  0.25500000920E-02 0.  1.
        2   -1    0    0  501    0  0.00000000000E+00  0.00000000000E+00 -0.68537386060E+03  0.68537386061E+03  0.25500000920E-02 0. -1.
    10030    2    1    2    0    0  0.00000000000E+00  0.00000000000E+00 -0.32397269924E+03  0.10467750220E+04  0.99537914223E+03 0.  0.
        3    1    3    3  502    0  0.42621840309E+03 -0.22291529941E+03 -0.29642103063E+03  0.56499450921E+03  0.10100000352E+00 0.  1.
       -3    1    3    3    0  502 -0.42621840309E+03  0.22291529941E+03 -0.27551668618E+02  0.48178051277E+03  0.10100000352E+00 0. -1.
</event>
<event>
 5   0  0.1453863E-04  0.9997727E+03  0.7818609E-02  0.9308794E-01
       -1   -1    0    0    0  501  0.00000000000E+00  0.00000000000E+00  0.51833996029E+03  0.51833996031E+03  0.50400001928E-02 0.  1.
        1   -1    0    0  501    0  0.00000000000E+00  0.00000000000E+00 -0.48208968501E+03  0.48208968504E+03  0.50400001928E-02 0. -1.
    10030    2    1    2    0    0  0.00000000000E+00  0.00000000000E+00  0.36250275272E+02  0.10004296454E+04  0.99977267058E+03 0.  0.
        1    1    3    3  502    0  0.23612718197E+03  0.90882609459E+02  0.44953563110E+03  0.51584685559E+03  0.50400001928E-02 0.  1.
       -1    1    3    3    0  502 -0.23612718197E+03 -0.90882609459E+02 -0.41328535583E+03  0.48458278976E+03  0.50400001928E-02 0. -1.
</event>
<event>
 5   0  0.1461334E-04  0.1000384E+04  0.7818609E-02  0.9308123E-01
        1   -1    0    0  501    0  0.00000000000E+00  0.00000000000E+00  0.86680154563E+03  0.86680154564E+03  0.50400001928E-02 0. -1.
       -1   -1    0    0    0  501  0.00000000000E+00  0.00000000000E+00 -0.28863838551E+03  0.28863838556E+03  0.50400001928E-02 0.  1.
    10030    2    1    2    0    0  0.00000000000E+00  0.00000000000E+00  0.57816316011E+03  0.11554399312E+04  0.10003843236E+04 0.  0.
        2    1    3    3  502    0  0.31557470135E+00  0.47900276660E+03  0.45545092655E+03  0.66096845348E+03  0.25500000920E-02 0.  1.
       -2    1    3    3    0  502 -0.31557470135E+00 -0.47900276660E+03  0.12271223356E+03  0.49447147771E+03  0.25500000920E-02 0. -1.
</event>
<event>
 5   0  0.1430675E-04  0.9996631E+03  0.7818609E-02  0.9308914E-01
        1   -1    0    0  501    0  0.00000000000E+00  0.00000000000E+00  0.46895203183E+03  0.46895203186E+03  0.50400001928E-02 0. -1.
       -1   -1    0    0    0  501  0.00000000000E+00  0.00000000000E+00 -0.53274438752E+03  0.53274438754E+03  0.50400001928E-02 0.  1.
    10030    2    1    2    0    0  0.00000000000E+00  0.00000000000E+00 -0.63792355683E+02  0.10016964194E+04  0.99966306923E+03 0.  0.
        5    1    3    3  502    0  0.21640617894E+02  0.43228904119E+03  0.21854687268E+03  0.48489891424E+03  0.46999998093E+01 0. -1.
       -5    1    3    3    0  502 -0.21640617894E+02 -0.43228904119E+03 -0.28233922836E+03  0.51679750516E+03  0.46999998093E+01 0.  1.
</event>
<event>
 5   0  0.2503680E-04  0.9999784E+03  0.7818609E-02  0.9308569E-01
        2   -1    0    0  501    0  0.00000000000E+00  0.00000000000E+00  0.58155719034E+03  0.58155719035E+03  0.25500000920E-02 0. -1.
       -2   -1    0    0    0  501  0.00000000000E+00  0.00000000000E+00 -0.42986174678E+03  0.42986174678E+03  0.25500000920E-02 0.  1.
    10030    2    1    2    0    0  0.00000000000E+00  0.00000000000E+00  0.15169544357E+03  0.10114189371E+04  0.99997837916E+03 0.  0.
        2    1    3    3  502    0 -0.29318032081E+03  0.22429374053E+03  0.41694000489E+03  0.55686744404E+03  0.25500000920E-02 0. -1.
       -2    1    3    3    0  502  0.29318032081E+03 -0.22429374053E+03 -0.26524456132E+03  0.45455149309E+03  0.25500000920E-02 0.  1.
</event>
<event>
 5   0  0.1506454E-04  0.1003557E+04  0.7818609E-02  0.9304652E-01
        1   -1    0    0  501    0  0.00000000000E+00  0.00000000000E+00  0.12205808707E+04  0.12205808707E+04  0.50400001928E-02 0. -1.
       -1   -1    0    0    0  501  0.00000000000E+00  0.00000000000E+00 -0.20628031154E+03  0.20628031160E+03  0.50400001928E-02 0.  1.
    10030    2    1    2    0    0  0.00000000000E+00  0.00000000000E+00  0.10143005592E+04  0.14268611823E+04  0.10035572775E+04 0.  0.
        3    1    3    3  502    0 -0.39673428932E+03  0.14645290887E+00  0.70344879580E+02  0.40292248641E+03  0.10100000352E+00 0.  1.
       -3    1    3    3    0  502  0.39673428932E+03 -0.14645290887E+00  0.94395567960E+03  0.10239386959E+04  0.10100000352E+00 0. -1.
</event>
<event>
 5   0  0.1414165E-04  0.9997878E+03  0.7818609E-02  0.9308778E-01
       -1   -1    0    0    0  501  0.00000000000E+00  0.00000000000E+00  0.36226503049E+03  0.36226503052E+03  0.50400001928E-02 0. -1.
        1   -1    0    0  501    0  0.00000000000E+00  0.00000000000E+00 -0.68980964041E+03  0.68980964042E+03  0.50400001928E-02 0.  1.
    10030    2    1    2    0    0  0.00000000000E+00  0.00000000000E+00 -0.32754460992E+03  0.10520746709E+04  0.99978779837E+03 0.  0.
        4    1    3    3  502    0  0.42355232816E+03 -0.10039279019E+02  0.11542385523E+03  0.43911461040E+03  0.12699999809E+01 0. -1.
       -4    1    3    3    0  502 -0.42355232816E+03  0.10039279019E+02 -0.44296846514E+03  0.61296006055E+03  0.12699999809E+01 0.  1.
</event>
<event>
 5   0  0.2353916E-04  0.9994642E+03  0.7818609E-02  0.9309133E-01
        2   -1    0    0  501    0  0.00000000000E+00  0.00000000000E+00  0.57858423456E+03  0.57858423457E+03  0.25500000920E-02 0.  1.
       -2   -1    0    0    0  501  0.00000000000E+00  0.00000000000E+00 -0.43162626998E+03  0.43162626999E+03  0.25500000920E-02 0. -1.
    10030    2    1    2    0    0  0.00000000000E+00  0.00000000000E+00  0.14695796458E+03  0.10102105046E+04  0.99946416652E+03 0.  0.
        4    1    3    3  502    0  0.77015432358E+02 -0.21943956754E+02  0.57205506283E+03  0.57763441888E+03  0.12699999809E+01 0.  1.
       -4    1    3    3    0  502 -0.77015432358E+02  0.21943956754E+02 -0.42509709825E+03  0.43257608568E+03  0.12699999809E+01 0. -1.
</event>
<event>
 5   0  0.9650500E-05  0.1000017E+04  0.7818609E-02  0.9308527E-01
       -3   -1    0    0    0  501  0.00000000000E+00  0.00000000000E+00  0.27574330391E+03  0.27574332241E+03  0.10100000352E+00 0.  1.
        3   -1    0    0  501    0  0.00000000000E+00  0.00000000000E+00 -0.90667042510E+03  0.90667043073E+03  0.10100000352E+00 0. -1.
    10030    2    1    2    0    0  0.00000000000E+00  0.00000000000E+00 -0.63092712119E+03  0.11824137531E+04  0.10000166255E+04 0.  0.
        1    1    3    3  502    0  0.11407692264E+03  0.30106741303E+03 -0.76780183390E+03  0.83257119073E+03  0.50400001928E-02 0. -1.
       -1    1    3    3    0  502 -0.11407692264E+03 -0.30106741303E+03  0.13687471271E+03  0.34984256241E+03  0.50400001928E-02 0.  1.
</event>
<event>
 5   0  0.1414165E-04  0.1001142E+04  0.7818609E-02  0.9307293E-01
        1   -1    0    0  501    0  0.00000000000E+00  0.00000000000E+00  0.18190620915E+04  0.18190620915E+04  0.50400001928E-02 0.  1.
       -1   -1    0    0    0  501  0.00000000000E+00  0.00000000000E+00 -0.13774765131E+03  0.13774765141E+03  0.50400001928E-02 0. -1.
    10030    2    1    2    0    0  0.00000000000E+00  0.00000000000E+00  0.16813144402E+04  0.19568097429E+04  0.10011424090E+04 0.  0.
        4    1    3    3  502    0  0.20918653167E+03 -0.33249454265E+03  0.23423958995E+03  0.45736355815E+03  0.12699999809E+01 0. -1.
       -4    1    3    3    0  502 -0.20918653167E+03  0.33249454265E+03  0.14470748502E+04  0.14994461848E+04  0.12699999809E+01 0.  1.
</event>
<event>
 5   0  0.1414165E-04  0.9989754E+03  0.7818609E-02  0.9309669E-01
        1   -1    0    0  501    0  0.00000000000E+00  0.00000000000E+00  0.93386256310E+03  0.93386256312E+03  0.50400001928E-02 0. -1.
       -1   -1    0    0    0  501  0.00000000000E+00  0.00000000000E+00 -0.26715704260E+03  0.26715704265E+03  0.50400001928E-02 0.  1.
    10030    2    1    2    0    0  0.00000000000E+00  0.00000000000E+00  0.66670552050E+03  0.12010196058E+04  0.99897539628E+03 0.  0.
        4    1    3    3  502    0 -0.24858170220E+03 -0.33369233553E+03  0.11680334324E+01  0.41610865728E+03  0.12699999809E+01 0.  1.
       -4    1    3    3    0  502  0.24858170220E+03  0.33369233553E+03  0.66553748706E+03  0.78491094849E+03  0.12699999809E+01 0. -1.
</event>
<event>
 5   0  0.1453863E-04  0.9988879E+03  0.7818609E-02  0.9309765E-01
        1   -1    0    0  501    0  0.00000000000E+00  0.00000000000E+00  0.76577618097E+03  0.76577618098E+03  0.50400001928E-02 0.  1.
       -1   -1    0    0    0  501  0.00000000000E+00  0.00000000000E+00 -0.32574045065E+03  0.32574045069E+03  0.50400001928E-02 0. -1.
    10030    2    1    2    0    0  0.00000000000E+00  0.00000000000E+00  0.44003573031E+03  0.10915166317E+04  0.99888793829E+03 0.  0.
        1    1    3    3  502    0  0.47030339423E+03  0.14593483394E+03  0.12884172163E+03  0.50900142204E+03  0.50400001928E-02 0. -1.
       -1    1    3    3    0  502 -0.47030339423E+03 -0.14593483394E+03  0.31119400868E+03  0.58251520963E+03  0.50400001928E-02 0.  1.
</event>
<event>
 5   0  0.2403037E-04  0.9999194E+03  0.7818609E-02  0.9308633E-01
       -2   -1    0    0    0  501  0.00000000000E+00  0.00000000000E+00  0.10290251188E+04  0.10290251188E+04  0.25500000920E-02 0. -1.
        2   -1    0    0  501    0  0.00000000000E+00  0.00000000000E+00 -0.24290921701E+03  0.24290921702E+03  0.25500000920E-02 0.  1.
    10030    2    1    2    0    0  0.00000000000E+00  0.00000000000E+00  0.78611590176E+03  0.12719343358E+04  0.99991936853E+03 0.  0.
        1    1    3    3  502    0  0.11362672363E+03  0.29252709891E+03 -0.10201866421E+03  0.32998627819E+03  0.50400001928E-02 0.  1.
       -1    1    3    3    0  502 -0.11362672363E+03 -0.29252709891E+03  0.88813456597E+03  0.94194805760E+03  0.50400001928E-02 0. -1.
</event>
<event>
 5   0  0.1506454E-04  0.9999261E+03  0.7818609E-02  0.9308626E-01
       -1   -1    0    0    0  501  0.00000000000E+00  0.00000000000E+00  0.38789953260E+03  0.38789953263E+03  0.50400001928E-02 0. -1.
        1   -1    0    0  501    0  0.00000000000E+00  0.00000000000E+00 -0.64440151354E+03  0.64440151356E+03  0.50400001928E-02 0.  1.
    10030    2    1    2    0    0  0.00000000000E+00  0.00000000000E+00 -0.25650198094E+03  0.10323010462E+04  0.99992608914E+03 0.  0.
        3    1    3    3  502    0  0.49950199289E+03 -0.26429749871E+01 -0.10625845673E+03  0.51068590743E+03  0.10100000352E+00 0. -1.
       -3    1    3    3    0  502 -0.49950199289E+03  0.26429749871E+01 -0.15024352422E+03  0.52161513877E+03  0.10100000352E+00 0.  1.
</event>
<event>
 5   0  0.2503680E-04  0.1006445E+04  0.7818609E-02  0.9301504E-01
        2   -1    0    0  501    0  0.00000000000E+00  0.00000000000E+00  0.15159017963E+04  0.15159017963E+04  0.25500000920E-02 0.  1.
       -2   -1    0    0    0  501  0.00000000000E+00  0.00000000000E+00 -0.16705099454E+03  0.16705099456E+03  0.25500000920E-02 0. -1.
    10030    2    1    2    0    0  0.00000000000E+00  0.00000000000E+00  0.13488508017E+04  0.16829527908E+04  0.10064450362E+04 0.  0.
        2    1    3    3  502    0 -0.30548396641E+02 -0.12853721998E+03  0.14863830952E+04  0.14922431864E+04  0.25500000920E-02 0.  1.
       -2    1    3    3    0  502  0.30548396641E+02  0.12853721998E+03 -0.13753229352E+03  0.19070960444E+03  0.25500000920E-02 0. -1.
</event>
<event>
 5   0  0.2484904E-04  0.9998176E+03  0.7818609E-02  0.9308745E-01
       -2   -1    0    0    0  501  0.00000000000E+00  0.00000000000E+00  0.32044123256E+03  0.32044123257E+03  0.25500000920E-02 0.  1.
        2   -1    0    0  501    0  0.00000000000E+00  0.00000000000E+00 -0.77988964779E+03  0.77988964780E+03  0.25500000920E-02 0. -1.
    10030    2    1    2    0    0  0.00000000000E+00  0.00000000000E+00 -0.45944841524E+03  0.11003308804E+04  0.99981758337E+03 0.  0.
        3    1    3    3  502    0  0.32591731543E+03  0.17192046638E+03 -0.60151833734E+03  0.70540985506E+03  0.10100000352E+00 0. -1.
       -3    1    3    3    0  502 -0.32591731543E+03 -0.17192046638E+03  0.14206992210E+03  0.39492102530E+03  0.10100000352E+00 0.  1.
</event>
<event>
 5   0  0.9650500E-05  0.9999716E+03  0.7818609E-02  0.9308576E-01
       -3   -1    0    0    0  501  0.00000000000E+00  0.00000000000E+00  0.12862174537E+03  0.12862178502E+03  0.10100000352E+00 0.  1.
        3   -1    0    0  501    0  0.00000000000E+00  0.00000000000E+00 -0.19435732018E+04  0.19435732045E+04  0.10100000352E+00 0. -1.
    10030    2    1    2    0    0  0.00000000000E+00  0.00000000000E+00 -0.18149514565E+04  0.20721949895E+04  0.99997164215E+03 0.  0.
        2    1    3    3  502    0  0.18767385370E+03 -0.28356649216E+03 -0.14790386902E+03  0.37081934323E+03  0.25500000920E-02 0.  1.
       -2    1    3    3    0  502 -0.18767385370E+03  0.28356649216E+03 -0.16670475875E+04  0.17013756463E+04  0.25500000920E-02 0. -1.
</event>
<event>
 5   0  0.1430675E-04  0.9995556E+03  0.7818609E-02  0.9309032E-01
        1   -1    0    0  501    0  0.00000000000E+00  0.00000000000E+00  0.84995179853E+03  0.84995179854E+03  0.50400001928E-02 0.  1.
       -1   -1    0    0    0  501  0.00000000000E+00  0.00000000000E+00 -0.29387293622E+03  0.29387293627E+03  0.50400001928E-02 0. -1.
    10030    2    1    2    0    0  0.00000000000E+00  0.00000000000E+00  0.55607886231E+03  0.11438247348E+04  0.99955556267E+03 0.  0.
        5    1    3    3  502    0 -0.32115323994E+03 -0.18471004630E+03  0.66185799735E+03  0.75850860468E+03  0.46999998093E+01 0.  1.
       -5    1    3    3    0  502  0.32115323994E+03  0.18471004630E+03 -0.10577913504E+03  0.38531613013E+03  0.46999998093E+01 0. -1.
</event>
<event>
 5   0  0.2353916E-04  0.9977373E+03  0.7818609E-02  0.9311030E-01
       -2   -1    0    0    0  501  0.00000000000E+00  0.00000000000E+00  0.11444357360E+03  0.11444357363E+03  0.25500000920E-02 0.  1.
        2   -1    0    0  501    0  0.00000000000E+00  0.00000000000E+00 -0.21746082569E+04  0.21746082569E+04  0.25500000920E-02 0. -1.
    10030    2    1    2    0    0  0.00000000000E+00  0.00000000000E+00 -0.20601646833E+04  0.22890518305E+04  0.99773732039E+03 0.  0.
        4    1    3    3  502    0  0.29001683251E+02  0.11997324022E+03  0.78855253610E+02  0.14647334202E+03  0.12699999809E+01 0.  1.
       -4    1    3    3    0  502 -0.29001683251E+02 -0.11997324022E+03 -0.21390199369E+04  0.21425784885E+04  0.12699999809E+01 0. -1.
</event>
<event>
 5   0  0.2353916E-04  0.9998711E+03  0.7818609E-02  0.9308686E-01
        2   -1    0    0  501    0  0.00000000000E+00  0.00000000000E+00  0.13979553842E+04  0.13979553842E+04  0.25500000920E-02 0.  1.
       -2   -1    0    0    0  501  0.00000000000E+00  0.00000000000E+00 -0.17878651735E+03  0.17878651737E+03  0.25500000920E-02 0. -1.
    10030    2    1    2    0    0  0.00000000000E+00  0.00000000000E+00  0.12191688668E+04  0.15767419016E+04  0.99987114083E+03 0.  0.
        4    1    3    3  502    0 -0.44049648667E+02  0.27255703323E+03  0.12668249110E+04  0.12965626387E+04  0.12699999809E+01 0.  1.
       -4    1    3    3    0  502  0.44049648667E+02 -0.27255703323E+03 -0.47656044178E+02  0.28017926289E+03  0.12699999809E+01 0. -1.
</event>
<event>
 5   0  0.2503680E-04  0.9998248E+03  0.7818609E-02  0.9308737E-01
        2   -1    0    0  501    0  0.00000000000E+00  0.00000000000E+00  0.52838386154E+03  0.52838386154E+03  0.25500000920E-02 0.  1.
       -2   -1    0    0    0  501  0.00000000000E+00  0.00000000000E+00 -0.47297506401E+03  0.47297506402E+03  0.25500000920E-02 0. -1.
    10030    2    1    2    0    0  0.00000000000E+00  0.00000000000E+00  0.55408797522E+02  0.10013589256E+04  0.99982476613E+03 0.  0.
        2    1    3    3  502    0  0.12674040939E+03  0.38352755325E+03 -0.26729106030E+03  0.48435630108E+03  0.25500000920E-02 0. -1.
       -2    1    3    3    0  502 -0.12674040939E+03 -0.38352755325E+03  0.32269985782E+03  0.51700262448E+03  0.25500000920E-02 0.  1.
</event>
<event>
 5   0  0.1506454E-04  0.9998699E+03  0.7818609E-02  0.9308687E-01
       -1   -1    0    0    0  501  0.00000000000E+00  0.00000000000E+00  0.24423727898E+03  0.24423727903E+03  0.50400001928E-02 0. -1.
        1   -1    0    0  501    0  0.00000000000E+00  0.00000000000E+00 -0.10233284943E+04  0.10233284943E+04  0.50400001928E-02 0.  1.
    10030    2    1    2    0    0  0.00000000000E+00  0.00000000000E+00 -0.77909121533E+03  0.12675657733E+04  0.99986992552E+03 0.  0.
        3    1    3    3  502    0  0.20104349633E+03  0.28099670478E+03  0.68519924254E+02  0.35223944375E+03  0.10100000352E+00 0. -1.
       -3    1    3    3    0  502 -0.20104349633E+03 -0.28099670478E+03 -0.84761113958E+03  0.91532632960E+03  0.10100000352E+00 0.  1.
</event>
<event>
 5   0  0.2484904E-04  0.1000065E+04  0.7818609E-02  0.9308474E-01
       -2   -1    0    0    0  501  0.00000000000E+00  0.00000000000E+00  0.14379308259E+03  0.14379308261E+03  0.25500000920E-02 0.  1.
        2   -1    0    0  501    0  0.00000000000E+00  0.00000000000E+00 -0.17388354242E+04  0.17388354242E+04  0.25500000920E-02 0. -1.
    10030    2    1    2    0    0  0.00000000000E+00  0.00000000000E+00 -0.15950423416E+04  0.18826285068E+04  0.10000650094E+04 0.  0.
        3    1    3    3  502    0 -0.16473583409E+03 -0.12946458223E+03 -0.16522152797E+04  0.16654471814E+04  0.10100000352E+00 0. -1.
       -3    1    3    3    0  502  0.16473583409E+03  0.12946458223E+03  0.57172938097E+02  0.21718132548E+03  0.10100000352E+00 0.  1.
</event>
<event>
 5   0  0.1430675E-04  0.1000110E+04  0.7818609E-02  0.9308424E-01
        1   -1    0    0  501    0  0.00000000000E+00  0.00000000000E+00  0.18885074724E+04  0.18885074724E+04  0.50400001928E-02 0. -1.
       -1   -1    0    0    0  501  0.00000000000E+00  0.00000000000E+00 -0.13240882893E+03  0.13240882903E+03  0.50400001928E-02 0.  1.
    10030    2    1    2    0    0  0.00000000000E+00  0.00000000000E+00  0.17560986435E+04  0.20209163014E+04  0.10001101198E+04 0.  0.
        5    1    3    3  502    0  0.35182577011E+03  0.20825650036E+03  0.29631116249E+03  0.50495003463E+03  0.46999998093E+01 0.  1.
       -5    1    3    3    0  502 -0.35182577011E+03 -0.20825650036E+03  0.14597874810E+04  0.15159662668E+04  0.46999998093E+01 0. -1.
</event>
<event>
 5   0  0.1506454E-04  0.1001399E+04  0.7818609E-02  0.9307011E-01
       -1   -1    0    0    0  501  0.00000000000E+00  0.00000000000E+00  0.25689509334E+03  0.25689509339E+03  0.50400001928E-02 0. -1.
        1   -1    0    0  501    0  0.00000000000E+00  0.00000000000E+00 -0.97588536930E+03  0.97588536932E+03  0.50400001928E-02 0.  1.
    10030    2    1    2    0    0  0.00000000000E+00  0.00000000000E+00 -0.71899027597E+03  0.12327804627E+04  0.10013993471E+04 0.  0.
        3    1    3    3  502    0  0.30139299272E+03  0.38975044976E+03 -0.24968227362E+03  0.55234445512E+03  0.10100000352E+00 0.  1.
       -3    1    3    3    0  502 -0.30139299272E+03 -0.38975044976E+03 -0.46930800235E+03  0.68043600758E+03  0.10100000352E+00 0. -1.
</event>
<event>
 5   0  0.1430675E-04  0.1006354E+04  0.7818609E-02  0.9301603E-01
        1   -1    0    0  501    0  0.00000000000E+00  0.00000000000E+00  0.52233370626E+03  0.52233370629E+03  0.50400001928E-02 0. -1.
       -1   -1    0    0    0  501  0.00000000000E+00  0.00000000000E+00 -0.48472303510E+03  0.48472303513E+03  0.50400001928E-02 0.  1.
    10030    2    1    2    0    0  0.00000000000E+00  0.00000000000E+00  0.37610671160E+02  0.10070567414E+04  0.10063541712E+04 0.  0.
        5    1    3    3  502    0 -0.47810123870E+03  0.86364764055E+02  0.14976083405E+03  0.50841918171E+03  0.46999998093E+01 0. -1.
       -5    1    3    3    0  502  0.47810123870E+03 -0.86364764055E+02 -0.11215016289E+03  0.49863755971E+03  0.46999998093E+01 0.  1.
</event>
<event>
 5   0  0.2353916E-04  0.9987112E+03  0.7818609E-02  0.9309959E-01
       -2   -1    0    0    0  501  0.00000000000E+00  0.00000000000E+00  0.14000737677E+03  0.14000737679E+03  0.25500000920E-02 0.  1.
        2   -1    0    0  501    0  0.00000000000E+00  0.00000000000E+00 -0.17810206825E+04  0.17810206825E+04  0.25500000920E-02 0. -1.
    10030    2    1    2    0    0  0.00000000000E+00  0.00000000000E+00 -0.16410133057E+04  0.19210280593E+04  0.99871123704E+03 0.  0.
        4    1    3    3  502    0  0.43438466563E+03 -0.20819079555E+03 -0.56735547702E+03  0.74426292081E+03  0.12699999809E+01 0. -1.
       -4    1    3    3    0  502 -0.43438466563E+03  0.20819079555E+03 -0.10736578287E+04  0.11767651385E+04  0.12699999809E+01 0.  1.
</event>
<event>
 5   0  0.1414165E-04  0.1000161E+04  0.7818609E-02  0.9308368E-01
       -1   -1    0    0    0  501  0.00000000000E+00  0.00000000000E+00  0.34157854607E+03  0.34157854611E+03  0.50400001928E-02 0.  1.
        1   -1    0    0  501    0  0.00000000000E+00  0.00000000000E+00 -0.73213236473E+03  0.73213236474E+03  0.50400001928E-02 0. -1.
    10030    2    1    2    0    0  0.00000000000E+00  0.00000000000E+00 -0.39055381866E+03  0.10737109109E+04  0.10001614044E+04 0.  0.
        4    1    3    3  502    0  0.13611106455E+02  0.21339812315E+03 -0.68057657078E+03  0.71337935404E+03  0.12699999809E+01 0. -1.
       -4    1    3    3    0  502 -0.13611106455E+02 -0.21339812315E+03  0.29002275212E+03  0.36033155681E+03  0.12699999809E+01 0.  1.
</event>
<event>
 5   0  0.1506454E-04  0.9992017E+03  0.7818609E-02  0.9309421E-01
       -1   -1    0    0    0  501  0.00000000000E+00  0.00000000000E+00  0.20217810177E+03  0.20217810184E+03  0.50400001928E-02 0. -1.
        1   -1    0    0  501    0  0.00000000000E+00  0.00000000000E+00 -0.12345600515E+04  0.12345600515E+04  0.50400001928E-02 0.  1.
    10030    2    1    2    0    0  0.00000000000E+00  0.00000000000E+00 -0.10323819497E+04  0.14367381533E+04  0.99920169692E+03 0.  0.
        3    1    3    3  502    0 -0.36695540316E+03  0.21320863071E+03 -0.89522277447E+03  0.99072600362E+03  0.10100000352E+00 0.  1.
       -3    1    3    3    0  502  0.36695540316E+03 -0.21320863071E+03 -0.13715917522E+03  0.44601214969E+03  0.10100000352E+00 0. -1.
</event>
<event>
 5   0  0.2503680E-04  0.9984983E+03  0.7818609E-02  0.9310193E-01
        2   -1    0    0  501    0  0.00000000000E+00  0.00000000000E+00  0.89771181020E+03  0.89771181020E+03  0.25500000920E-02 0.  1.
       -2   -1    0    0    0  501  0.00000000000E+00  0.00000000000E+00 -0.27765001232E+03  0.27765001233E+03  0.25500000920E-02 0. -1.
    10030    2    1    2    0    0  0.00000000000E+00  0.00000000000E+00  0.62006179788E+03  0.11753618225E+04  0.99849826273E+03 0.  0.
        2    1    3    3  502    0  0.25651302549E+03 -0.32088076475E+03  0.64398381644E+03  0.76385767868E+03  0.25500000920E-02 0.  1.
       -2    1    3    3    0  502 -0.25651302549E+03  0.32088076475E+03 -0.23922018564E+02  0.41150414385E+03  0.25500000920E-02 0. -1.
</event>
<event>
 5   0  0.1506454E-04  0.1000115E+04  0.7818609E-02  0.9308419E-01
        1   -1    0    0  501    0  0.00000000000E+00  0.00000000000E+00  0.17838862739E+04  0.17838862739E+04  0.50400001928E-02 0.  1.
       -1   -1    0    0    0  501  0.00000000000E+00  0.00000000000E+00 -0.14017564822E+03  0.14017564831E+03  0.50400001928E-02 0. -1.
    10030    2    1    2    0    0  0.00000000000E+00  0.00000000000E+00  0.16437106256E+04  0.19240619222E+04  0.10001148232E+04 0.  0.
        3    1    3    3  502    0  0.36256805425E+03  0.32488264140E+03  0.10416542971E+04  0.11498034656E+04  0.10100000352E+00 0.  1.
       -3    1    3    3    0  502 -0.36256805425E+03 -0.32488264140E+03  0.60205632854E+03  0.77425845658E+03  0.10100000352E+00 0. -1.
</event>
<event>
 5   0  0.2353916E-04  0.9973714E+03  0.7818609E-02  0.9311433E-01
        2   -1    0    0  501    0  0.00000000000E+00  0.00000000000E+00  0.18050357609E+04  0.18050357609E+04  0.25500000920E-02 0. -1.
       -2   -1    0    0    0  501  0.00000000000E+00  0.00000000000E+00 -0.13777423343E+03  0.13777423346E+03  0.25500000920E-02 0.  1.
    10030    2    1    2    0    0  0.00000000000E+00  0.00000000000E+00  0.16672615275E+04  0.19428099943E+04  0.99737138178E+03 0.  0.
        4    1    3    3  502    0  0.37737887946E+03  0.20096060031E+03  0.13336300873E+04  0.14004894874E+04  0.12699999809E+01 0. -1.
       -4    1    3    3    0  502 -0.37737887946E+03 -0.20096060031E+03  0.33363144014E+03  0.54232050698E+03  0.12699999809E+01 0.  1.
</event>
<event>
 5   0  0.2403037E-04  0.1000162E+04  0.7818609E-02  0.9308367E-01
        2   -1    0    0  501    0  0.00000000000E+00  0.00000000000E+00  0.12512054864E+04  0.12512054864E+04  0.25500000920E-02 0. -1.
       -2   -1    0    0    0  501  0.00000000000E+00  0.00000000000E+00 -0.19987197092E+03  0.19987197093E+03  0.25500000920E-02 0.  1.
    10030    2    1    2    0    0  0.00000000000E+00  0.00000000000E+00  0.10513335155E+04  0.14510774574E+04  0.10001618001E+04 0.  0.
        1    1    3    3  502    0 -0.13219952009E+03  0.21493402746E+03  0.11520672493E+04  0.11793779277E+04  0.50400001928E-02 0. -1.
       -1    1    3    3    0  502  0.13219952009E+03 -0.21493402746E+03 -0.10073373384E+03  0.27169952968E+03  0.50400001928E-02 0.  1.
</event>
<event>
 5   0  0.2403037E-04  0.1000450E+04  0.7818609E-02  0.9308052E-01
        2   -1    0    0  501    0  0.00000000000E+00  0.00000000000E+00  0.12306790029E+04  0.12306790029E+04  0.25500000920E-02 0.  1.
       -2   -1    0    0    0  501  0.00000000000E+00  0.00000000000E+00 -0.20332260752E+03  0.20332260754E+03  0.25500000920E-02 0. -1.
    10030    2    1    2    0    0  0.00000000000E+00  0.00000000000E+00  0.10273563954E+04  0.14340016104E+04  0.10004496267E+04 0.  0.
        1    1    3    3  502    0 -0.87607471310E+02  0.45409790803E+03  0.24041819975E+03  0.52123016979E+03  0.50400001928E-02 0. -1.
       -1    1    3    3    0  502  0.87607471310E+02 -0.45409790803E+03  0.78693819563E+03  0.91277144065E+03  0.50400001928E-02 0.  1.
</event>
<event>
 5   0  0.2484904E-04  0.9995723E+03  0.7818609E-02  0.9309014E-01
        2   -1    0    0  501    0  0.00000000000E+00  0.00000000000E+00  0.11066842475E+04  0.11066842475E+04  0.25500000920E-02 0.  1.
       -2   -1    0    0    0  501  0.00000000000E+00  0.00000000000E+00 -0.22570683719E+03  0.22570683720E+03  0.25500000920E-02 0. -1.
    10030    2    1    2    0    0  0.00000000000E+00  0.00000000000E+00  0.88097741027E+03  0.13323910847E+04  0.99957231108E+03 0.  0.
        3    1    3    3  502    0 -0.20502942497E+03 -0.94751061620E+02  0.10347732114E+04  0.10591366475E+04  0.10100000352E+00 0.  1.
       -3    1    3    3    0  502  0.20502942497E+03  0.94751061620E+02 -0.15379580115E+03  0.27325443717E+03  0.10100000352E+00 0. -1.
</event>
<event>
 5   0  0.2473312E-04  0.9996190E+03  0.7818609E-02  0.9308963E-01
        2   -1    0    0  501    0  0.00000000000E+00  0.00000000000E+00  0.10022051976E+04  0.10022051976E+04  0.25500000920E-02 0.  1.
       -2   -1    0    0    0  501  0.00000000000E+00  0.00000000000E+00 -0.24925984504E+03  0.24925984505E+03  0.25500000920E-02 0. -1.
    10030    2    1    2    0    0  0.00000000000E+00  0.00000000000E+00  0.75294535257E+03  0.12514650427E+04  0.99961895192E+03 0.  0.
        5    1    3    3  502    0  0.39225835658E+03  0.30960107975E+03  0.38679458580E+03  0.63194270982E+03  0.46999998093E+01 0.  1.
       -5    1    3    3    0  502 -0.39225835658E+03 -0.30960107975E+03  0.36615076677E+03  0.61952233285E+03  0.46999998093E+01 0. -1.
</event>
<event>
 5   0  0.1506454E-04  0.1000682E+04  0.7818609E-02  0.9307797E-01
        1   -1    0    0  501    0  0.00000000000E+00  0.00000000000E+00  0.22743857049E+03  0.22743857054E+03  0.50400001928E-02 0. -1.
       -1   -1    0    0    0  501  0.00000000000E+00  0.00000000000E+00 -0.11006969997E+04  0.11006969997E+04  0.50400001928E-02 0.  1.
    10030    2    1    2    0    0  0.00000000000E+00  0.00000000000E+00 -0.87325842917E+03  0.13281355702E+04  0.10006816720E+04 0.  0.
        3    1    3    3  502    0  0.23162122213E+03  0.24068928041E+03 -0.93103155744E+03  0.98914078441E+03  0.10100000352E+00 0.  1.
       -3    1    3    3    0  502 -0.23162122213E+03 -0.24068928041E+03  0.57773128272E+02  0.33899478579E+03  0.10100000352E+00 0. -1.
</event>
<event>
 5   0  0.1414165E-04  0.1000017E+04  0.7818609E-02  0.9308526E-01
       -1   -1    0    0    0  501  0.00000000000E+00  0.00000000000E+00  0.23218434426E+03  0.23218434431E+03  0.50400001928E-02 0. -1.
        1   -1    0    0  501    0  0.00000000000E+00  0.00000000000E+00 -0.10767677858E+04  0.10767677858E+04  0.50400001928E-02 0.  1.
    10030    2    1    2    0    0  0.00000000000E+00  0.00000000000E+00 -0.84458344158E+03  0.13089521302E+04  0.10000172445E+04 0.  0.
        4    1    3    3  502    0 -0.30544933200E+03  0.24184309134E+03 -0.12073042326E+02  0.38978807896E+03  0.12699999809E+01 0. -1.
       -4    1    3    3    0  502  0.30544933200E+03 -0.24184309134E+03 -0.83251039926E+03  0.91916405120E+03  0.12699999809E+01 0.  1.
</event>
<event>
 5   0  0.2353916E-04  0.1000220E+04  0.7818609E-02  0.9308303E-01
        2   -1    0    0  501    0  0.00000000000E+00  0.00000000000E+00  0.49838048031E+03  0.49838048031E+03  0.25500000920E-02 0.  1.
       -2   -1    0    0    0  501  0.00000000000E+00  0.00000000000E+00 -0.50184598267E+03  0.50184598268E+03  0.25500000920E-02 0. -1.
    10030    2    1    2    0    0  0.00000000000E+00  0.00000000000E+00 -0.34655023662E+01  0.10002264630E+04  0.10002204595E+04 0.  0.
        4    1    3    3  502    0 -0.13125815886E+03  0.10855857791E+03  0.46847742948E+03  0.49848408594E+03  0.12699999809E+01 0.  1.
       -4    1    3    3    0  502  0.13125815886E+03 -0.10855857791E+03 -0.47194293185E+03  0.50174237705E+03  0.12699999809E+01 0. -1.
</event>
<event>
 5   0  0.1506454E-04  0.1000040E+04  0.7818609E-02  0.9308501E-01
        1   -1    0    0  501    0  0.00000000000E+00  0.00000000000E+00  0.44490294425E+03  0.44490294428E+03  0.50400001928E-02 0.  1.
       -1   -1    0    0    0  501  0.00000000000E+00  0.00000000000E+00 -0.56196492867E+03  0.56196492869E+03  0.50400001928E-02 0. -1.
    10030    2    1    2    0    0  0.00000000000E+00  0.00000000000E+00 -0.11706198442E+03  0.10068678730E+04  0.10000397019E+04 0.  0.
        3    1    3    3  502    0  0.40598820065E+03 -0.25477328891E+02  0.23421939584E+03  0.46939775132E+03  0.10100000352E+00 0.  1.
       -3    1    3    3    0  502 -0.40598820065E+03  0.25477328891E+02 -0.35128138025E+03  0.53747012166E+03  0.10100000352E+00 0. -1.
</event>
<event>
 5   0  0.1461334E-04  0.9999134E+03  0.7818609E-02  0.9308640E-01
        1   -1    0    0  501    0  0.00000000000E+00  0.00000000000E+00  0.70327529384E+03  0.70327529386E+03  0.50400001928E-02 0.  1.
       -1   -1    0    0    0  501  0.00000000000E+00  0.00000000000E+00 -0.35541803246E+03  0.35541803250E+03  0.50400001928E-02 0. -1.
    10030    2    1    2    0    0  0.00000000000E+00  0.00000000000E+00  0.34785726138E+03  0.10586933264E+04  0.99991343874E+03 0.  0.
        2    1    3    3  502    0  0.19040146566E+03 -0.18296994184E+03  0.62341496900E+03  0.67703540626E+03  0.25500000920E-02 0.  1.
       -2    1    3    3    0  502 -0.19040146566E+03  0.18296994184E+03 -0.27555770762E+03  0.38165792010E+03  0.25500000920E-02 0. -1.
</event>
<event>
 5   0  0.1506454E-04  0.9993863E+03  0.7818609E-02  0.9309218E-01
        1   -1    0    0  501    0  0.00000000000E+00  0.00000000000E+00  0.11190923946E+04  0.11190923946E+04  0.50400001928E-02 0. -1.
       -1   -1    0    0    0  501  0.00000000000E+00  0.00000000000E+00 -0.22312122420E+03  0.22312122426E+03  0.50400001928E-02 0.  1.
    10030    2    1    2    0    0  0.00000000000E+00  0.00000000000E+00  0.89597117039E+03  0.13422136189E+04  0.99938634195E+03 0.  0.
        3    1    3    3  502    0  0.13072163450E+03 -0.27888984849E+03  0.97644247352E+03  0.10238689406E+04  0.10100000352E+00 0. -1.
       -3    1    3    3    0  502 -0.13072163450E+03  0.27888984849E+03 -0.80471303135E+02  0.31834467821E+03  0.10100000352E+00 0.  1.
</event>
<event>
 5   0  0.1453863E-04  0.9995373E+03  0.7818609E-02  0.9309052E-01
        1   -1    0    0  501    0  0.00000000000E+00  0.00000000000E+00  0.52507034839E+03  0.52507034842E+03  0.50400001928E-02 0. -1.
       -1   -1    0    0    0  501  0.00000000000E+00  0.00000000000E+00 -0.47568620573E+03  0.47568620575E+03  0.50400001928E-02 0.  1.
    10030    2    1    2    0    0  0.00000000000E+00  0.00000000000E+00  0.49384142666E+02  0.10007565542E+04  0.99953733656E+03 0.  0.
        1    1    3    3  502    0 -0.33341812154E+03  0.34529541106E+02  0.39583114332E+03  0.51869280603E+03  0.50400001928E-02 0. -1.
       -1    1    3    3    0  502  0.33341812154E+03 -0.34529541106E+02 -0.34644700066E+03  0.48206374814E+03  0.50400001928E-02 0.  1.
</event>
<event>
 5   0  0.1430675E-04  0.1000168E+04  0.7818609E-02  0.9308360E-01
        1   -1    0    0  501    0  0.00000000000E+00  0.00000000000E+00  0.11592774266E+04  0.11592774266E+04  0.50400001928E-02 0. -1.
       -1   -1    0    0    0  501  0.00000000000E+00  0.00000000000E+00 -0.21572423128E+03  0.21572423134E+03  0.50400001928E-02 0.  1.
    10030    2    1    2    0    0  0.00000000000E+00  0.00000000000E+00  0.94355319528E+03  0.13750016579E+04  0.10001684493E+04 0.  0.
        5    1    3    3  502    0 -0.38931898036E+03  0.78207275443E+02  0.53935828580E+02  0.40077027086E+03  0.46999998093E+01 0.  1.
       -5    1    3    3    0  502  0.38931898036E+03 -0.78207275443E+02  0.88961736670E+03  0.97423138706E+03  0.46999998093E+01 0. -1.
</event>
<event>
 5   0  0.1461334E-04  0.1000276E+04  0.7818609E-02  0.9308242E-01
       -1   -1    0    0    0  501  0.00000000000E+00  0.00000000000E+00  0.11101220760E+04  0.11101220760E+04  0.50400001928E-02 0. -1.
        1   -1    0    0  501    0  0.00000000000E+00  0.00000000000E+00 -0.22532496842E+03  0.22532496848E+03  0.50400001928E-02 0.  1.
    10030    2    1    2    0    0  0.00000000000E+00  0.00000000000E+00  0.88479710756E+03  0.13354470445E+04  0.10002764053E+04 0.  0.
        2    1    3    3  502    0 -0.30976675987E+03 -0.23266681586E+03  0.86469056789E+03  0.94751204262E+03  0.25500000920E-02 0. -1.
       -2    1    3    3    0  502  0.30976675987E+03  0.23266681586E+03  0.20106539678E+02  0.38793500185E+03  0.25500000920E-02 0.  1.
</event>
<event>
 5   0  0.9650500E-05  0.9999025E+03  0.7818609E-02  0.9308652E-01
        3   -1    0    0  501    0  0.00000000000E+00  0.00000000000E+00  0.15535095495E+04  0.15535095528E+04  0.10100000352E+00 0.  1.
       -3   -1    0    0    0  501  0.00000000000E+00  0.00000000000E+00 -0.16089456656E+03  0.16089459826E+03  0.10100000352E+00 0. -1.
    10030    2    1    2    0    0  0.00000000000E+00  0.00000000000E+00  0.13926149830E+04  0.17144041511E+04  0.99990254645E+03 0.  0.
        4    1    3    3  502    0  0.11964322620E+03  0.19087913573E+03  0.14615525739E+04  0.14788126606E+04  0.12699999809E+01 0.  1.
       -4    1    3    3    0  502 -0.11964322620E+03 -0.19087913573E+03 -0.68937590923E+02  0.23559149045E+03  0.12699999809E+01 0. -1.
</event>
<event>
 5   0  0.9650500E-05  0.9997708E+03  0.7818609E-02  0.9308796E-01
       -4   -1    0    0    0  501  0.00000000000E+00  0.00000000000E+00  0.14370298217E+04  0.14370303829E+04  0.12699999809E+01 0.  1.
        4   -1    0    0  501    0  0.00000000000E+00  0.00000000000E+00 -0.17388727826E+03  0.17389191597E+03  0.12699999809E+01 0. -1.
    10030    2    1    2    0    0  0.00000000000E+00  0.00000000000E+00  0.12631425434E+04  0.16109222988E+04  0.99977075767E+03 0.  0.
        1    1    3    3  502    0  0.24462916074E+03 -0.75452066206E+02 -0.60250936261E+02  0.26299546749E+03  0.50400001928E-02 0. -1.
       -1    1    3    3    0  502 -0.24462916074E+03  0.75452066206E+02  0.13233934797E+04  0.13479268313E+04  0.50400001928E-02 0.  1.
</event>
<event>
 5   0  0.2473312E-04  0.9999983E+03  0.7818609E-02  0.9308547E-01
       -2   -1    0    0    0  501  0.00000000000E+00  0.00000000000E+00  0.13793802903E+03  0.13793802906E+03  0.25500000920E-02 0. -1.
        2   -1    0    0  501    0  0.00000000000E+00  0.00000000000E+00 -0.18124017815E+04  0.18124017815E+04  0.25500000920E-02 0.  1.
    10030    2    1    2    0    0  0.00000000000E+00  0.00000000000E+00 -0.16744637525E+04  0.19503398105E+04  0.99999825916E+03 0.  0.
        5    1    3    3  502    0 -0.58209274739E+02  0.48027158249E+03 -0.10833766786E+04  0.11864974633E+04  0.46999998093E+01 0. -1.
       -5    1    3    3    0  502  0.58209274739E+02 -0.48027158249E+03 -0.59108707386E+03  0.76384234728E+03  0.46999998093E+01 0.  1.
</event>
<event>
 5   0  0.1453863E-04  0.9994230E+03  0.7818609E-02  0.9309178E-01
        1   -1    0    0  501    0  0.00000000000E+00  0.00000000000E+00  0.69035179235E+03  0.69035179237E+03  0.50400001928E-02 0. -1.
       -1   -1    0    0    0  501  0.00000000000E+00  0.00000000000E+00 -0.36171643945E+03  0.36171643948E+03  0.50400001928E-02 0.  1.
    10030    2    1    2    0    0  0.00000000000E+00  0.00000000000E+00  0.32863535290E+03  0.10520682319E+04  0.99942301820E+03 0.  0.
        1    1    3    3  502    0 -0.47220869797E+03 -0.72869785391E+02  0.31838469842E+03  0.57416014863E+03  0.50400001928E-02 0. -1.
       -1    1    3    3    0  502  0.47220869797E+03  0.72869785391E+02  0.10250654485E+02  0.47790808322E+03  0.50400001928E-02 0.  1.
</event>
<event>
 5   0  0.2473312E-04  0.9998331E+03  0.7818609E-02  0.9308728E-01
       -2   -1    0    0    0  501  0.00000000000E+00  0.00000000000E+00  0.17939518779E+03  0.17939518780E+03  0.25500000920E-02 0.  1.
        2   -1    0    0  501    0  0.00000000000E+00  0.00000000000E+00 -0.13931063447E+04  0.13931063447E+04  0.25500000920E-02 0. -1.
    10030    2    1    2    0    0  0.00000000000E+00  0.00000000000E+00 -0.12137111569E+04  0.15725015325E+04  0.99983313474E+03 0.  0.
        5    1    3    3  502    0 -0.24048088672E+03  0.18005046662E+03 -0.12352633714E+04  0.12712776700E+04  0.46999998093E+01 0. -1.
       -5    1    3    3    0  502  0.24048088672E+03 -0.18005046662E+03  0.21552214506E+02  0.30122386253E+03  0.46999998093E+01 0.  1.
</event>
<event>
 5   0  0.1506454E-04  0.9999925E+03  0.7818609E-02  0.9308553E-01
       -1   -1    0    0    0  501  0.00000000000E+00  0.00000000000E+00  0.26007759347E+03  0.26007759352E+03  0.50400001928E-02 0. -1.
        1   -1    0    0  501    0  0.00000000000E+00  0.00000000000E+00 -0.96123719701E+03  0.96123719702E+03  0.50400001928E-02 0.  1.
    10030    2    1    2    0    0  0.00000000000E+00  0.00000000000E+00 -0.70115960354E+03  0.12213147905E+04  0.99999251396E+03 0.  0.
        3    1    3    3  502    0  0.39992028355E+03  0.11215904052E+03 -0.69053891816E+03  0.80582869846E+03  0.10100000352E+00 0.  1.
       -3    1    3    3    0  502 -0.39992028355E+03 -0.11215904052E+03 -0.10620685377E+02  0.41548609209E+03  0.10100000352E+00 0. -1.
</event>
<event>
 5   0  0.2353916E-04  0.1002034E+04  0.7818609E-02  0.9306317E-01
       -2   -1    0    0    0  501  0.00000000000E+00  0.00000000000E+00  0.46795591818E+03  0.46795591819E+03  0.25500000920E-02 0. -1.
        2   -1    0    0  501    0  0.00000000000E+00  0.00000000000E+00 -0.53641332006E+03  0.53641332007E+03  0.25500000920E-02 0.  1.
    10030    2    1    2    0    0  0.00000000000E+00  0.00000000000E+00 -0.68457401877E+02  0.10043692383E+04  0.10020335079E+04 0.  0.
        4    1    3    3  502    0  0.33065008765E+03  0.18168305863E+03 -0.36466054810E+03  0.52470672046E+03  0.12699999809E+01 0.  1.
       -4    1    3    3    0  502 -0.33065008765E+03 -0.18168305863E+03  0.29620314622E+03  0.47966251780E+03  0.12699999809E+01 0. -1.
</event>
<event>
 5   0  0.1414165E-04  0.1000507E+04  0.7818609E-02  0.9307988E-01
        1   -1    0    0  501    0  0.00000000000E+00  0.00000000000E+00  0.10871035551E+04  0.10871035552E+04  0.50400001928E-02 0.  1.
       -1   -1    0    0    0  501  0.00000000000E+00  0.00000000000E+00 -0.23020231252E+03  0.23020231258E+03  0.50400001928E-02 0. -1.
    10030    2    1    2    0    0  0.00000000000E+00  0.00000000000E+00  0.85690124262E+03  0.13173058677E+04  0.10005073761E+04 0.  0.
        4    1    3    3  502    0  0.17212864055E+02  0.39507294610E+02 -0.22775173120E+03  0.23179640415E+03  0.12699999809E+01 0. -1.
       -4    1    3    3    0  502 -0.17212864055E+02 -0.39507294610E+02  0.10846529738E+04  0.10855094636E+04  0.12699999809E+01 0.  1.
</event>
<event>
 5   0  0.2353916E-04  0.1000159E+04  0.7818609E-02  0.9308371E-01
        2   -1    0    0  501    0  0.00000000000E+00  0.00000000000E+00  0.25974863150E+03  0.25974863152E+03  0.25500000920E-02 0. -1.
       -2   -1    0    0    0  501  0.00000000000E+00  0.00000000000E+00 -0.96277491774E+03  0.96277491774E+03  0.25500000920E-02 0.  1.
    10030    2    1    2    0    0  0.00000000000E+00  0.00000000000E+00 -0.70302628624E+03  0.12225235493E+04  0.10001589221E+04 0.  0.
        4    1    3    3  502    0 -0.30451520786E+03  0.37483965086E+03 -0.51015047833E+03  0.70248800639E+03  0.12699999809E+01 0.  1.
       -4    1    3    3    0  502  0.30451520786E+03 -0.37483965086E+03 -0.19287580790E+03  0.52003554287E+03  0.12699999809E+01 0. -1.
</event>
<event>
 5   0  0.2503680E-04  0.1000278E+04  0.7818609E-02  0.9308240E-01
       -2   -1    0    0    0  501  0.00000000000E+00  0.00000000000E+00  0.17937107859E+03  0.17937107861E+03  0.25500000920E-02 0.  1.
        2   -1    0    0  501    0  0.00000000000E+00  0.00000000000E+00 -0.13945341391E+04  0.13945341391E+04  0.25500000920E-02 0. -1.
    10030    2    1    2    0    0  0.00000000000E+00  0.00000000000E+00 -0.12151630605E+04  0.15739052177E+04  0.10002781467E+04 0.  0.
        2    1    3    3  502    0 -0.33281382953E+03 -0.14919445124E+03 -0.11460548292E+04  0.12026910247E+04  0.25500000920E-02 0. -1.
       -2    1    3    3    0  502  0.33281382953E+03  0.14919445124E+03 -0.69108231258E+02  0.37121419295E+03  0.25500000920E-02 0.  1.
</event>
<event>
 5   0  0.1453863E-04  0.9995766E+03  0.7818609E-02  0.9309009E-01
        1   -1    0    0  501    0  0.00000000000E+00  0.00000000000E+00  0.42636152786E+03  0.42636152789E+03  0.50400001928E-02 0.  1.
       -1   -1    0    0    0  501  0.00000000000E+00  0.00000000000E+00 -0.58586046650E+03  0.58586046652E+03  0.50400001928E-02 0. -1.
    10030    2    1    2    0    0  0.00000000000E+00  0.00000000000E+00 -0.15949893863E+03  0.10122219944E+04  0.99957663766E+03 0.  0.
        1    1    3    3  502    0 -0.48918373446E+03  0.76593313195E+02 -0.10910803199E+02  0.49526387647E+03  0.50400001928E-02 0. -1.
       -1    1    3    3    0  502  0.48918373446E+03 -0.76593313195E+02 -0.14858813544E+03  0.51695811794E+03  0.50400001928E-02 0.  1.
</event>
<event>
 5   0  0.1430675E-04  0.9999188E+03  0.7818609E-02  0.9308634E-01
        1   -1    0    0  501    0  0.00000000000E+00  0.00000000000E+00  0.18420513615E+04  0.18420513615E+04  0.50400001928E-02 0.  1.
       -1   -1    0    0    0  501  0.00000000000E+00  0.00000000000E+00 -0.13569620366E+03  0.13569620376E+03  0.50400001928E-02 0. -1.
    10030    2    1    2    0    0  0.00000000000E+00  0.00000000000E+00  0.17063551578E+04  0.19777475653E+04  0.99991875032E+03 0.  0.
        5    1    3    3  502    0  0.26511592085E+03 -0.21223403789E+03  0.12750476437E+03  0.36277995157E+03  0.46999998093E+01 0. -1.
       -5    1    3    3    0  502 -0.26511592085E+03  0.21223403789E+03  0.15788503935E+04  0.16149676137E+04  0.46999998093E+01 0.  1.
</event>
<event>
 5   0  0.1453863E-04  0.9999385E+03  0.7818609E-02  0.9308612E-01
       -1   -1    0    0    0  501  0.00000000000E+00  0.00000000000E+00  0.18107341465E+03  0.18107341472E+03  0.50400001928E-02 0.  1.
        1   -1    0    0  501    0  0.00000000000E+00  0.00000000000E+00 -0.13804856980E+04  0.13804856980E+04  0.50400001928E-02 0. -1.
    10030    2    1    2    0    0  0.00000000000E+00  0.00000000000E+00 -0.11994122833E+04  0.15615591127E+04  0.99993851665E+03 0.  0.
        1    1    3    3  502    0 -0.38267446497E+02 -0.38551873444E+03 -0.10932488751E+04  0.11598630070E+04  0.50400001928E-02 0. -1.
       -1    1    3    3    0  502  0.38267446497E+02  0.38551873444E+03 -0.10616340822E+03  0.40169610570E+03  0.50400001928E-02 0.  1.
</event>
<event>
 5   0  0.2473312E-04  0.9999671E+03  0.7818609E-02  0.9308581E-01
       -2   -1    0    0    0  501  0.00000000000E+00  0.00000000000E+00  0.21364474737E+03  0.21364474739E+03  0.25500000920E-02 0. -1.
        2   -1    0    0  501    0  0.00000000000E+00  0.00000000000E+00 -0.11700898884E+04  0.11700898884E+04  0.25500000920E-02 0.  1.
    10030    2    1    2    0    0  0.00000000000E+00  0.00000000000E+00 -0.95644514099E+03  0.13837346358E+04  0.99996711668E+03 0.  0.
        5    1    3    3  502    0 -0.73996186468E+02  0.14591532954E+03 -0.11319686239E+04  0.11437402565E+04  0.46999998093E+01 0.  1.
       -5    1    3    3    0  502  0.73996186468E+02 -0.14591532954E+03  0.17552348288E+03  0.23999437920E+03  0.46999998093E+01 0. -1.
</event>
<event>
 5   0  0.2484904E-04  0.9998994E+03  0.7818609E-02  0.9308655E-01
       -2   -1    0    0    0  501  0.00000000000E+00  0.00000000000E+00  0.17612903618E+03  0.17612903620E+03  0.25500000920E-02 0.  1.
        2   -1    0    0  501    0  0.00000000000E+00  0.00000000000E+00 -0.14191282646E+04  0.14191282646E+04  0.25500000920E-02 0. -1.
    10030    2    1    2    0    0  0.00000000000E+00  0.00000000000E+00 -0.12429992284E+04  0.15952573008E+04  0.99989938189E+03 0.  0.
        3    1    3    3  502    0  0.40701001180E+03  0.28714260412E+03 -0.68996624996E+03  0.85097676883E+03  0.10100000352E+00 0. -1.
       -3    1    3    3    0  502 -0.40701001180E+03 -0.28714260412E+03 -0.55303297841E+03  0.74428053193E+03  0.10100000352E+00 0.  1.
</event>
<event>
 5   0  0.2484904E-04  0.9995832E+03  0.7818609E-02  0.9309002E-01
       -2   -1    0    0    0  501  0.00000000000E+00  0.00000000000E+00  0.38884253425E+03  0.38884253426E+03  0.25500000920E-02 0.  1.
        2   -1    0    0  501    0  0.00000000000E+00  0.00000000000E+00 -0.64239788029E+03  0.64239788029E+03  0.25500000920E-02 0. -1.
    10030    2    1    2    0    0  0.00000000000E+00  0.00000000000E+00 -0.25355534604E+03  0.10312404146E+04  0.99958315267E+03 0.  0.
        3    1    3    3  502    0  0.26404828502E+03  0.24387803538E+03 -0.48504166188E+03  0.60370805603E+03  0.10100000352E+00 0. -1.
       -3    1    3    3    0  502 -0.26404828502E+03 -0.24387803538E+03  0.23148631584E+03  0.42753235852E+03  0.10100000352E+00 0.  1.
</event>
<event>
 5   0  0.1461334E-04  0.1000392E+04  0.7818609E-02  0.9308115E-01
       -1   -1    0    0    0  501  0.00000000000E+00  0.00000000000E+00  0.12562336227E+03  0.12562336237E+03  0.50400001928E-02 0. -1.
        1   -1    0    0  501    0  0.00000000000E+00  0.00000000000E+00 -0.19916343592E+04  0.19916343592E+04  0.50400001928E-02 0.  1.
    10030    2    1    2    0    0  0.00000000000E+00  0.00000000000E+00 -0.18660109970E+04  0.21172577216E+04  0.10003915328E+04 0.  0.
        2    1    3    3  502    0 -0.97902267304E+01  0.40432743564E+03 -0.15558949917E+04  0.16076024847E+04  0.25500000920E-02 0.  1.
       -2    1    3    3    0  502  0.97902267304E+01 -0.40432743564E+03 -0.31011600530E+03  0.50965523690E+03  0.25500000920E-02 0. -1.
</event>
<event>
 5   0  0.2353916E-04  0.1000188E+04  0.7818609E-02  0.9308339E-01
        2   -1    0    0  501    0  0.00000000000E+00  0.00000000000E+00  0.92766993008E+03  0.92766993008E+03  0.25500000920E-02 0.  1.
       -2   -1    0    0    0  501  0.00000000000E+00  0.00000000000E+00 -0.26959358242E+03  0.26959358243E+03  0.25500000920E-02 0. -1.
    10030    2    1    2    0    0  0.00000000000E+00  0.00000000000E+00  0.65807634766E+03  0.11972635125E+04  0.10001877019E+04 0.  0.
        4    1    3    3  502    0 -0.10922205845E+03  0.38942368611E+03  0.68112223636E+03  0.79215489591E+03  0.12699999809E+01 0.  1.
       -4    1    3    3    0  502  0.10922205845E+03 -0.38942368611E+03 -0.23045888698E+02  0.40510861660E+03  0.12699999809E+01 0. -1.
</event>
<event>
 5   0  0.1453863E-04  0.1002063E+04  0.7818609E-02  0.9306285E-01
       -1   -1    0    0    0  501  0.00000000000E+00  0.00000000000E+00  0.36668779830E+03  0.36668779833E+03  0.50400001928E-02 0.  1.
        1   -1    0    0  501    0  0.00000000000E+00  0.00000000000E+00 -0.68459480731E+03  0.68459480733E+03  0.50400001928E-02 0. -1.
    10030    2    1    2    0    0  0.00000000000E+00  0.00000000000E+00 -0.31790700901E+03  0.10512826057E+04  0.10020629973E+04 0.  0.
        1    1    3    3  502    0  0.43914784294E+03  0.13904983807E+03 -0.36573063756E+03  0.58817054049E+03  0.50400001928E-02 0.  1.
       -1    1    3    3    0  502 -0.43914784294E+03 -0.13904983807E+03  0.47823628551E+02  0.46311206517E+03  0.50400001928E-02 0. -1.
</event>
<event>
 5   0  0.2484904E-04  0.9998202E+03  0.7818609E-02  0.9308742E-01
        2   -1    0    0  501    0  0.00000000000E+00  0.00000000000E+00  0.12072144420E+04  0.12072144420E+04  0.25500000920E-02 0.  1.
       -2   -1    0    0    0  501  0.00000000000E+00  0.00000000000E+00 -0.20701384121E+03  0.20701384123E+03  0.25500000920E-02 0. -1.
    10030    2    1    2    0    0  0.00000000000E+00  0.00000000000E+00  0.10002006008E+04  0.14142282833E+04  0.99982018148E+03 0.  0.
        3    1    3    3  502    0 -0.77888657868E+01  0.45568157706E+03  0.79068517124E+03  0.91262775343E+03  0.10100000352E+00 0.  1.
       -3    1    3    3    0  502  0.77888657868E+01 -0.45568157706E+03  0.20951542958E+03  0.50160052983E+03  0.10100000352E+00 0. -1.
</event>
<event>
 5   0  0.1453863E-04  0.9999777E+03  0.7818609E-02  0.9308569E-01
       -1   -1    0    0    0  501  0.00000000000E+00  0.00000000000E+00  0.39214519269E+03  0.39214519272E+03  0.50400001928E-02 0. -1.
        1   -1    0    0  501    0  0.00000000000E+00  0.00000000000E+00 -0.63749047641E+03  0.63749047643E+03  0.50400001928E-02 0.  1.
    10030    2    1    2    0    0  0.00000000000E+00  0.00000000000E+00 -0.24534528373E+03  0.10296356692E+04  0.99997765122E+03 0.  0.
        1    1    3    3  502    0 -0.41361440537E+03  0.39920212977E+01  0.16654235837E+03  0.44590264601E+03  0.50400001928E-02 0. -1.
       -1    1    3    3    0  502  0.41361440537E+03 -0.39920212977E+01 -0.41188764210E+03  0.58373302314E+03  0.50400001928E-02 0.  1.
</event>
<event>
 5   0  0.2473312E-04  0.1000214E+04  0.7818609E-02  0.9308311E-01
        2   -1    0    0  501    0  0.00000000000E+00  0.00000000000E+00  0.88438972234E+03  0.88438972235E+03  0.25500000920E-02 0.  1.
       -2   -1    0    0    0  501  0.00000000000E+00  0.00000000000E+00 -0.28280158363E+03  0.28280158364E+03  0.25500000920E-02 0. -1.
    10030    2    1    2    0    0  0.00000000000E+00  0.00000000000E+00  0.60158813871E+03  0.11671913060E+04  0.10002136053E+04 0.  0.
        5    1    3    3  502    0  0.80409488335E+02  0.12723028934E+03 -0.25571799834E+03  0.29676087513E+03  0.46999998093E+01 0. -1.
       -5    1    3    3    0  502 -0.80409488335E+02 -0.12723028934E+03  0.85730613705E+03  0.87043043086E+03  0.46999998093E+01 0.  1.
</event>
<event>
 5   0  0.9650500E-05  0.1000375E+04  0.7818609E-02  0.9308133E-01
       -3   -1    0    0    0  501  0.00000000000E+00  0.00000000000E+00  0.61907107063E+03  0.61907107887E+03  0.10100000352E+00 0. -1.
        3   -1    0    0  501    0  0.00000000000E+00  0.00000000000E+00 -0.40413395811E+03  0.40413397073E+03  0.10100000352E+00 0.  1.
    10030    2    1    2    0    0  0.00000000000E+00  0.00000000000E+00  0.21493711252E+03  0.10232050496E+04  0.10003752352E+04 0.  0.
        2    1    3    3  502    0 -0.12688716854E+03  0.23288138296E+03  0.54123830705E+03  0.60272132623E+03  0.25500000920E-02 0. -1.
       -2    1    3    3    0  502  0.12688716854E+03 -0.23288138296E+03 -0.32630119453E+03  0.42048372338E+03  0.25500000920E-02 0.  1.
</event>
<event>
 5   0  0.1414165E-04  0.1000348E+04  0.7818609E-02  0.9308164E-01
       -1   -1    0    0    0  501  0.00000000000E+00  0.00000000000E+00  0.13671463889E+04  0.13671463889E+04  0.50400001928E-02 0.  1.
        1   -1    0    0  501    0  0.00000000000E+00  0.00000000000E+00 -0.18298979441E+03  0.18298979448E+03  0.50400001928E-02 0. -1.
    10030    2    1    2    0    0  0.00000000000E+00  0.00000000000E+00  0.11841565945E+04  0.15501361834E+04  0.10003476130E+04 0.  0.
        4    1    3    3  502    0 -0.56184456757E+02  0.14727263557E+03  0.13276497356E+04  0.13369747028E+04  0.12699999809E+01 0.  1.
       -4    1    3    3    0  502  0.56184456757E+02 -0.14727263557E+03 -0.14349314115E+03  0.21316148064E+03  0.12699999809E+01 0. -1.
</event>
<event>
 5   0  0.2503680E-04  0.1000185E+04  0.7818609E-02  0.9308342E-01
       -2   -1    0    0    0  501  0.00000000000E+00  0.00000000000E+00  0.38204443729E+03  0.38204443730E+03  0.25500000920E-02 0.  1.
        2   -1    0    0  501    0  0.00000000000E+00  0.00000000000E+00 -0.65461585735E+03  0.65461585736E+03  0.25500000920E-02 0. -1.
    10030    2    1    2    0    0  0.00000000000E+00  0.00000000000E+00 -0.27257142006E+03  0.10366602947E+04  0.10001846767E+04 0.  0.
        2    1    3    3  502    0 -0.43471237689E+03 -0.21732203256E+03 -0.14137817393E+02  0.48621352752E+03  0.25500000920E-02 0. -1.
       -2    1    3    3    0  502  0.43471237689E+03  0.21732203256E+03 -0.25843360267E+03  0.55044676713E+03  0.25500000920E-02 0.  1.
</event>
<event>
 5   0  0.2484904E-04  0.9981703E+03  0.7818609E-02  0.9310554E-01
        2   -1    0    0  501    0  0.00000000000E+00  0.00000000000E+00  0.11163662558E+04  0.11163662558E+04  0.25500000920E-02 0. -1.
       -2   -1    0    0    0  501  0.00000000000E+00  0.00000000000E+00 -0.22312209529E+03  0.22312209530E+03  0.25500000920E-02 0.  1.
    10030    2    1    2    0    0  0.00000000000E+00  0.00000000000E+00  0.89324416053E+03  0.13394883511E+04  0.99817028230E+03 0.  0.
        3    1    3    3  502    0 -0.43506620407E+03  0.20542723216E+03  0.62466629856E+03  0.78847380705E+03  0.10100000352E+00 0. -1.
       -3    1    3    3    0  502  0.43506620407E+03 -0.20542723216E+03  0.26857786197E+03  0.55101454408E+03  0.10100000352E+00 0.  1.
</event>
<event>
 5   0  0.1506454E-04  0.1000575E+04  0.7818609E-02  0.9307915E-01
        1   -1    0    0  501    0  0.00000000000E+00  0.00000000000E+00  0.62904103094E+03  0.62904103096E+03  0.50400001928E-02 0.  1.
       -1   -1    0    0    0  501  0.00000000000E+00  0.00000000000E+00 -0.39788722631E+03  0.39788722635E+03  0.50400001928E-02 0. -1.
    10030    2    1    2    0    0  0.00000000000E+00  0.00000000000E+00  0.23115380463E+03  0.10269282573E+04  0.10005746170E+04 0.  0.
        3    1    3    3  502    0  0.44312134792E+03  0.20125818468E+03 -0.33455518722E+01  0.48669558124E+03  0.10100000352E+00 0. -1.
       -3    1    3    3    0  502 -0.44312134792E+03 -0.20125818468E+03  0.23449935650E+03  0.54023267606E+03  0.10100000352E+00 0.  1.
</event>
<event>
 5   0  0.2473312E-04  0.9988727E+03  0.7818609E-02  0.9309782E-01
       -2   -1    0    0    0  501  0.00000000000E+00  0.00000000000E+00  0.33997061516E+03  0.33997061517E+03  0.25500000920E-02 0.  1.
        2   -1    0    0  501    0  0.00000000000E+00  0.00000000000E+00 -0.73370072886E+03  0.73370072886E+03  0.25500000920E-02 0. -1.
    10030    2    1    2    0    0  0.00000000000E+00  0.00000000000E+00 -0.39373011370E+03  0.10736713440E+04  0.99887274092E+03 0.  0.
        5    1    3    3  502    0 -0.23011128782E+03 -0.62190346018E+00 -0.67329779191E+03  0.71155013747E+03  0.46999998093E+01 0. -1.
       -5    1    3    3    0  502  0.23011128782E+03  0.62190346018E+00  0.27956767821E+03  0.36212120656E+03  0.46999998093E+01 0.  1.
</event>
<event>
 5   0  0.2353916E-04  0.1000012E+04  0.7818609E-02  0.9308532E-01
        2   -1    0    0  501    0  0.00000000000E+00  0.00000000000E+00  0.13295222330E+04  0.13295222330E+04  0.25500000920E-02 0.  1.
       -2   -1    0    0    0  501  0.00000000000E+00  0.00000000000E+00 -0.18804181845E+03  0.18804181846E+03  0.25500000920E-02 0. -1.
    10030    2    1    2    0    0  0.00000000000E+00  0.00000000000E+00  0.11414804146E+04  0.15175640515E+04  0.10000115567E+04 0.  0.
        4    1    3    3  502    0  0.36685221074E+03 -0.29636186130E+03  0.82282322075E+03  0.94839367504E+03  0.12699999809E+01 0.  1.
       -4    1    3    3    0  502 -0.36685221074E+03  0.29636186130E+03  0.31865719385E+03  0.56917037647E+03  0.12699999809E+01 0. -1.
</event>
<event>
 5   0  0.2503680E-04  0.9997651E+03  0.7818609E-02  0.9308802E-01
       -2   -1    0    0    0  501  0.00000000000E+00  0.00000000000E+00  0.30656866016E+03  0.30656866017E+03  0.25500000920E-02 0.  1.
        2   -1    0    0  501    0  0.00000000000E+00  0.00000000000E+00 -0.81509499542E+03  0.81509499542E+03  0.25500000920E-02 0. -1.
    10030    2    1    2    0    0  0.00000000000E+00  0.00000000000E+00 -0.50852633526E+03  0.11216636556E+04  0.99976513373E+03 0.  0.
        2    1    3    3  502    0  0.37722668091E+03  0.30785642418E+03 -0.12729672797E+03  0.50326931524E+03  0.25500000920E-02 0.  1.
       -2    1    3    3    0  502 -0.37722668091E+03 -0.30785642418E+03 -0.38122960729E+03  0.61839434035E+03  0.25500000920E-02 0. -1.
</event>
<event>
 5   0  0.9650500E-05  0.9999076E+03  0.7818609E-02  0.9308646E-01
        4   -1    0    0  501    0  0.00000000000E+00  0.00000000000E+00  0.10191513873E+04  0.10191521786E+04  0.12699999809E+01 0.  1.
       -4   -1    0    0    0  501  0.00000000000E+00  0.00000000000E+00 -0.24525426577E+03  0.24525755397E+03  0.12699999809E+01 0. -1.
    10030    2    1    2    0    0  0.00000000000E+00  0.00000000000E+00  0.77389712155E+03  0.12644097326E+04  0.99990760429E+03 0.  0.
        3    1    3    3  502    0 -0.12739850940E+03  0.29934558071E+02  0.99711026093E+03  0.10056616432E+04  0.10100000352E+00 0.  1.
       -3    1    3    3    0  502  0.12739850940E+03 -0.29934558071E+02 -0.22321313938E+03  0.25874808938E+03  0.10100000352E+00 0. -1.
</event>
<event>
 5   0  0.2353916E-04  0.1000092E+04  0.7818609E-02  0.9308443E-01
       -2   -1    0    0    0  501  0.00000000000E+00  0.00000000000E+00  0.22345503838E+03  0.22345503839E+03  0.25500000920E-02 0. -1.
        2   -1    0    0  501    0  0.00000000000E+00  0.00000000000E+00 -0.11190000192E+04  0.11190000192E+04  0.25500000920E-02 0.  1.
    10030    2    1    2    0    0  0.00000000000E+00  0.00000000000E+00 -0.89554498080E+03  0.13424550576E+04  0.10000923802E+04 0.  0.
        4    1    3    3  502    0  0.29227121927E+03  0.23677314548E+03 -0.89005089785E+03  0.96626921802E+03  0.12699999809E+01 0.  1.
       -4    1    3    3    0  502 -0.29227121927E+03 -0.23677314548E+03 -0.54940829469E+01  0.37618583955E+03  0.12699999809E+01 0. -1.
</event>
<event>
 5   0  0.2473312E-04  0.9998638E+03  0.7818609E-02  0.9308694E-01
        2   -1    0    0  501    0  0.00000000000E+00  0.00000000000E+00  0.14410996944E+04  0.14410996944E+04  0.25500000920E-02 0.  1.
       -2   -1    0    0    0  501  0.00000000000E+00  0.00000000000E+00 -0.17343137472E+03  0.17343137473E+03  0.25500000920E-02 0. -1.
    10030    2    1    2    0    0  0.00000000000E+00  0.00000000000E+00  0.12676683197E+04  0.16145310692E+04  0.99986379298E+03 0.  0.
        5    1    3    3  502    0 -0.14573298556E+03  0.47280817475E+03  0.51824530246E+03  0.71650956498E+03  0.46999998093E+01 0. -1.
       -5    1    3    3    0  502  0.14573298556E+03 -0.47280817475E+03  0.74942301726E+03  0.89802150419E+03  0.46999998093E+01 0.  1.
</event>
<event>
 5   0  0.2353916E-04  0.1000027E+04  0.7818609E-02  0.9308515E-01
       -2   -1    0    0    0  501  0.00000000000E+00  0.00000000000E+00  0.17154981235E+03  0.17154981237E+03  0.25500000920E-02 0. -1.
        2   -1    0    0  501    0  0.00000000000E+00  0.00000000000E+00 -0.14573808825E+04  0.14573808825E+04  0.25500000920E-02 0.  1.
    10030    2    1    2    0    0  0.00000000000E+00  0.00000000000E+00 -0.12858310702E+04  0.16289306949E+04  0.10000268335E+04 0.  0.
        4    1    3    3  502    0  0.16052258271E+03  0.45281873217E+03 -0.41721327082E+03  0.63630246740E+03  0.12699999809E+01 0. -1.
       -4    1    3    3    0  502 -0.16052258271E+03 -0.45281873217E+03 -0.86861779934E+03  0.99262822749E+03  0.12699999809E+01 0.  1.
</event>
<event>
 5   0  0.2503680E-04  0.1000334E+04  0.7818609E-02  0.9308178E-01
       -2   -1    0    0    0  501  0.00000000000E+00  0.00000000000E+00  0.45441796302E+03  0.45441796303E+03  0.25500000920E-02 0. -1.
        2   -1    0    0  501    0  0.00000000000E+00  0.00000000000E+00 -0.55052217164E+03  0.55052217165E+03  0.25500000920E-02 0.  1.
    10030    2    1    2    0    0  0.00000000000E+00  0.00000000000E+00 -0.96104208617E+02  0.10049401347E+04  0.10003342718E+04 0.  0.
        2    1    3    3  502    0  0.45420889390E+03 -0.19837891989E+03 -0.11549726644E+03  0.50891996789E+03  0.25500000920E-02 0.  1.
       -2    1    3    3    0  502 -0.45420889390E+03  0.19837891989E+03  0.19393057823E+02  0.49602016678E+03  0.25500000920E-02 0. -1.
</event>
<event>
 5   0  0.2473312E-04  0.9996944E+03  0.7818609E-02  0.9308880E-01
        2   -1    0    0  501    0  0.00000000000E+00  0.00000000000E+00  0.99912152471E+03  0.99912152471E+03  0.25500000920E-02 0.  1.
       -2   -1    0    0    0  501  0.00000000000E+00  0.00000000000E+00 -0.25006689069E+03  0.25006689070E+03  0.25500000920E-02 0. -1.
    10030    2    1    2    0    0  0.00000000000E+00  0.00000000000E+00  0.74905463402E+03  0.12491884154E+04  0.99969437953E+03 0.  0.
        5    1    3    3  502    0  0.44882549982E+03  0.21995335380E+03  0.37309385861E+03  0.62373465870E+03  0.46999998093E+01 0. -1.
       -5    1    3    3    0  502 -0.44882549982E+03 -0.21995335380E+03  0.37596077541E+03  0.62545375671E+03  0.46999998093E+01 0.  1.
</event>
<event>
 5   0  0.1453863E-04  0.9989965E+03  0.7818609E-02  0.9309646E-01
        1   -1    0    0  501    0  0.00000000000E+00  0.00000000000E+00  0.42110044452E+03  0.42110044455E+03  0.50400001928E-02 0.  1.
       -1   -1    0    0    0  501  0.00000000000E+00  0.00000000000E+00 -0.59249170715E+03  0.59249170717E+03  0.50400001928E-02 0. -1.
    10030    2    1    2    0    0  0.00000000000E+00  0.00000000000E+00 -0.17139126264E+03  0.10135921517E+04  0.99899653909E+03 0.  0.
        1    1    3    3  502    0  0.36066923479E+03  0.18926975099E+03  0.20765342374E+03  0.45719282582E+03  0.50400001928E-02 0.  1.
       -1    1    3    3    0  502 -0.36066923479E+03 -0.18926975099E+03 -0.37904468638E+03  0.55639932590E+03  0.50400001928E-02 0. -1.
</event>
<event>
 5   0  0.2484904E-04  0.9993671E+03  0.7818609E-02  0.9309239E-01
       -2   -1    0    0    0  501  0.00000000000E+00  0.00000000000E+00  0.12961075281E+03  0.12961075283E+03  0.25500000920E-02 0.  1.
        2   -1    0    0  501    0  0.00000000000E+00  0.00000000000E+00 -0.19264117223E+04  0.19264117223E+04  0.25500000920E-02 0. -1.
    10030    2    1    2    0    0  0.00000000000E+00  0.00000000000E+00 -0.17968009695E+04  0.20560224752E+04  0.99936714691E+03 0.  0.
        3    1    3    3  502    0  0.47739920804E+03  0.13885440346E+03 -0.79567602306E+03  0.93823818568E+03  0.10100000352E+00 0.  1.
       -3    1    3    3    0  502 -0.47739920804E+03 -0.13885440346E+03 -0.10011249465E+04  0.11177842895E+04  0.10100000352E+00 0. -1.
</event>
<event>
 5   0  0.1453863E-04  0.9999002E+03  0.7818609E-02  0.9308654E-01
        1   -1    0    0  501    0  0.00000000000E+00  0.00000000000E+00  0.22084799778E+04  0.22084799778E+04  0.50400001928E-02 0. -1.
       -1   -1    0    0    0  501  0.00000000000E+00  0.00000000000E+00 -0.11317743846E+03  0.11317743857E+03  0.50400001928E-02 0.  1.
    10030    2    1    2    0    0  0.00000000000E+00  0.00000000000E+00  0.20953025393E+04  0.23216574164E+04  0.99990020886E+03 0.  0.
        1    1    3    3  502    0  0.43118282763E+03  0.10181222363E+03  0.15855370542E+04  0.16462721859E+04  0.50400001928E-02 0. -1.
       -1    1    3    3    0  502 -0.43118282763E+03 -0.10181222363E+03  0.50976548515E+03  0.67538523051E+03  0.50400001928E-02 0.  1.
</event>
<event>
 5   0  0.2503680E-04  0.9997732E+03  0.7818609E-02  0.9308794E-01
       -2   -1    0    0    0  501  0.00000000000E+00  0.00000000000E+00  0.45774257342E+03  0.45774257342E+03  0.25500000920E-02 0.  1.
        2   -1    0    0  501    0  0.00000000000E+00  0.00000000000E+00 -0.54591081526E+03  0.54591081527E+03  0.25500000920E-02 0. -1.
    10030    2    1    2    0    0  0.00000000000E+00  0.00000000000E+00 -0.88168241848E+02  0.10036533887E+04  0.99977321717E+03 0.  0.
        2    1    3    3  502    0 -0.46443919922E+03 -0.18408261003E+03 -0.61368502372E+02  0.50334508061E+03  0.25500000920E-02 0.  1.
       -2    1    3    3    0  502  0.46443919922E+03  0.18408261003E+03 -0.26799739475E+02  0.50030830808E+03  0.25500000920E-02 0. -1.
</event>
<event>
 5   0  0.2473312E-04  0.1000668E+04  0.7818609E-02  0.9307812E-01
       -2   -1    0    0    0  501  0.00000000000E+00  0.00000000000E+00  0.12964406764E+03  0.12964406767E+03  0.25500000920E-02 0. -1.
        2   -1    0    0  501    0  0.00000000000E+00  0.00000000000E+00 -0.19309343985E+04  0.19309343985E+04  0.25500000920E-02 0.  1.
    10030    2    1    2    0    0  0.00000000000E+00  0.00000000000E+00 -0.18012903309E+04  0.20605784662E+04  0.10006681564E+04 0.  0.
        5    1    3    3  502    0  0.29044342323E+03 -0.19757298449E+03 -0.16703813970E+03  0.38899395421E+03  0.46999998093E+01 0. -1.
       -5    1    3    3    0  502 -0.29044342323E+03  0.19757298449E+03 -0.16342521912E+04  0.16715845120E+04  0.46999998093E+01 0.  1.
</event>
<event>
 5   0  0.1453863E-04  0.1000003E+04  0.7818609E-02  0.9308542E-01
        1   -1    0    0  501    0  0.00000000000E+00  0.00000000000E+00  0.12189491159E+04  0.12189491159E+04  0.50400001928E-02 0.  1.
       -1   -1    0    0    0  501  0.00000000000E+00  0.00000000000E+00 -0.20509585162E+03  0.20509585168E+03  0.50400001928E-02 0. -1.
    10030    2    1    2    0    0  0.00000000000E+00  0.00000000000E+00  0.10138532643E+04  0.14240449676E+04  0.10000028141E+04 0.  0.
        1    1    3    3  502    0  0.48919955334E+03  0.79566876917E+02  0.60089516802E+03  0.77892367653E+03  0.50400001928E-02 0.  1.
       -1    1    3    3    0  502 -0.48919955334E+03 -0.79566876917E+02  0.41295809627E+03  0.64512129106E+03  0.50400001928E-02 0. -1.
</event>
<event>
 5   0  0.1414165E-04  0.1001010E+04  0.7818609E-02  0.9307437E-01
       -1   -1    0    0    0  501  0.00000000000E+00  0.00000000000E+00  0.31896917858E+03  0.31896917862E+03  0.50400001928E-02 0. -1.
        1   -1    0    0  501    0  0.00000000000E+00  0.00000000000E+00 -0.78535943130E+03  0.78535943131E+03  0.50400001928E-02 0.  1.
    10030    2    1    2    0    0  0.00000000000E+00  0.00000000000E+00 -0.46639025271E+03  0.11043286099E+04  0.10010103950E+04 0.  0.
        4    1    3    3  502    0 -0.72588769401E+02  0.37640502513E+03  0.12181693436E+03  0.40223233433E+03  0.12699999809E+01 0. -1.
       -4    1    3    3    0  502  0.72588769401E+02 -0.37640502513E+03 -0.58820718707E+03  0.70209627560E+03  0.12699999809E+01 0.  1.
</event>
<event>
 5   0  0.1506454E-04  0.1000249E+04  0.7818609E-02  0.9308272E-01
       -1   -1    0    0    0  501  0.00000000000E+00  0.00000000000E+00  0.33740052961E+03  0.33740052965E+03  0.50400001928E-02 0. -1.
        1   -1    0    0  501    0  0.00000000000E+00  0.00000000000E+00 -0.74132829287E+03  0.74132829289E+03  0.50400001928E-02 0.  1.
    10030    2    1    2    0    0  0.00000000000E+00  0.00000000000E+00 -0.40392776326E+03  0.10787288225E+04  0.10002490863E+04 0.  0.
        3    1    3    3  502    0  0.25281118529E+03 -0.99258523846E+02 -0.65486426171E+03  0.70895201631E+03  0.10100000352E+00 0.  1.
       -3    1    3    3    0  502 -0.25281118529E+03  0.99258523846E+02  0.25093649845E+03  0.36977680622E+03  0.10100000352E+00 0. -1.
</event>
<event>
 5   0  0.9650500E-05  0.1000611E+04  0.7818609E-02  0.9307875E-01
       -3   -1    0    0    0  501  0.00000000000E+00  0.00000000000E+00  0.15062283630E+03  0.15062287016E+03  0.10100000352E+00 0. -1.
        3   -1    0    0  501    0  0.00000000000E+00  0.00000000000E+00 -0.16618038218E+04  0.16618038249E+04  0.10100000352E+00 0.  1.
    10030    2    1    2    0    0  0.00000000000E+00  0.00000000000E+00 -0.15111809855E+04  0.18124266950E+04  0.10006110902E+04 0.  0.
        2    1    3    3  502    0  0.13070403732E+03 -0.47465021732E+03 -0.91688203150E+03  0.10406964177E+04  0.25500000920E-02 0. -1.
       -2    1    3    3    0  502 -0.13070403732E+03  0.47465021732E+03 -0.59429895399E+03  0.77173027730E+03  0.25500000920E-02 0.  1.
</event>
<event>
 5   0  0.1430675E-04  0.1000198E+04  0.7818609E-02  0.9308328E-01
       -1   -1    0    0    0  501  0.00000000000E+00  0.00000000000E+00  0.20502287958E+03  0.20502287964E+03  0.50400001928E-02 0.  1.
        1   -1    0    0  501    0  0.00000000000E+00  0.00000000000E+00 -0.12198590005E+04  0.12198590006E+04  0.50400001928E-02 0. -1.
    10030    2    1    2    0    0  0.00000000000E+00  0.00000000000E+00 -0.10148361210E+04  0.14248818802E+04  0.10001979904E+04 0.  0.
        5    1    3    3  502    0 -0.15773690772E+03 -0.84881350144E+02 -0.11725568974E+04  0.11861692727E+04  0.46999998093E+01 0. -1.
       -5    1    3    3    0  502  0.15773690772E+03  0.84881350144E+02  0.15772077649E+03  0.23871260753E+03  0.46999998093E+01 0.  1.
</event>
<event>
 5   0  0.1506454E-04  0.9991488E+03  0.7818609E-02  0.9309479E-01
       -1   -1    0    0    0  501  0.00000000000E+00  0.00000000000E+00  0.35959611380E+03  0.35959611383E+03  0.50400001928E-02 0.  1.
        1   -1    0    0  501    0  0.00000000000E+00  0.00000000000E+00 -0.69404141820E+03  0.69404141822E+03  0.50400001928E-02 0. -1.
    10030    2    1    2    0    0  0.00000000000E+00  0.00000000000E+00 -0.33444530440E+03  0.10536375321E+04  0.99914883141E+03 0.  0.
        3    1    3    3  502    0 -0.23026775100E+03 -0.11950616227E+03 -0.61743582683E+03  0.66972529475E+03  0.10100000352E+00 0. -1.
       -3    1    3    3    0  502  0.23026775100E+03  0.11950616227E+03  0.28299052242E+03  0.38391223731E+03  0.10100000352E+00 0.  1.
</event>
<event>
 5   0  0.2473312E-04  0.1000123E+04  0.7818609E-02  0.9308410E-01
        2   -1    0    0  501    0  0.00000000000E+00  0.00000000000E+00  0.14029241337E+04  0.14029241337E+04  0.25500000920E-02 0.  1.
       -2   -1    0    0    0  501  0.00000000000E+00  0.00000000000E+00 -0.17824298386E+03  0.17824298388E+03  0.25500000920E-02 0. -1.
    10030    2    1    2    0    0  0.00000000000E+00  0.00000000000E+00  0.12246811498E+04  0.15811671176E+04  0.10001227599E+04 0.  0.
        5    1    3    3  502    0  0.15072251782E+03  0.11830588662E+03  0.13425477351E+04  0.13561600463E+04  0.46999998093E+01 0.  1.
       -5    1    3    3    0  502 -0.15072251782E+03 -0.11830588662E+03 -0.11786658528E+03  0.22500707124E+03  0.46999998093E+01 0. -1.
</event>
<event>
 5   0  0.9650500E-05  0.9999071E+03  0.7818609E-02  0.9308647E-01
        3   -1    0    0  501    0  0.00000000000E+00  0.00000000000E+00  0.53791424269E+03  0.53791425217E+03  0.10100000352E+00 0.  1.
       -3   -1    0    0    0  501  0.00000000000E+00  0.00000000000E+00 -0.46467170091E+03  0.46467171188E+03  0.10100000352E+00 0. -1.
    10030    2    1    2    0    0  0.00000000000E+00  0.00000000000E+00  0.73242541782E+02  0.10025859641E+04  0.99990706838E+03 0.  0.
        5    1    3    3  502    0 -0.33281372073E+03 -0.20637092855E+03  0.34822309528E+03  0.52405662571E+03  0.46999998093E+01 0.  1.
       -5    1    3    3    0  502  0.33281372073E+03  0.20637092855E+03 -0.27498055350E+03  0.47852933835E+03  0.46999998093E+01 0. -1.
</event>
<event>
 5   0  0.1430675E-04  0.9999934E+03  0.7818609E-02  0.9308552E-01
       -1   -1    0    0    0  501  0.00000000000E+00  0.00000000000E+00  0.55410067778E+03  0.55410067780E+03  0.50400001928E-02 0. -1.
        1   -1    0    0  501    0  0.00000000000E+00  0.00000000000E+00 -0.45117562141E+03  0.45117562144E+03  0.50400001928E-02 0.  1.
    10030    2    1    2    0    0  0.00000000000E+00  0.00000000000E+00  0.10292505637E+03  0.10052762992E+04  0.99999343527E+03 0.  0.
        5    1    3    3  502    0  0.25438582905E+03 -0.96423318350E+01  0.48404909108E+03  0.54692845708E+03  0.46999998093E+01 0. -1.
       -5    1    3    3    0  502 -0.25438582905E+03  0.96423318350E+01 -0.38112403471E+03  0.45834784216E+03  0.46999998093E+01 0.  1.
</event>
<event>
 5   0  0.2473312E-04  0.9998949E+03  0.7818609E-02  0.9308660E-01
        2   -1    0    0  501    0  0.00000000000E+00  0.00000000000E+00  0.55922279508E+03  0.55922279509E+03  0.25500000920E-02 0.  1.
       -2   -1    0    0    0  501  0.00000000000E+00  0.00000000000E+00 -0.44695508038E+03  0.44695508039E+03  0.25500000920E-02 0. -1.
    10030    2    1    2    0    0  0.00000000000E+00  0.00000000000E+00  0.11226771470E+03  0.10061778755E+04  0.99989493315E+03 0.  0.
        5    1    3    3  502    0  0.25587306682E+03 -0.54453200131E+02  0.48482626443E+03  0.55092174944E+03  0.46999998093E+01 0.  1.
       -5    1    3    3    0  502 -0.25587306682E+03  0.54453200131E+02 -0.37255854972E+03  0.45525612604E+03  0.46999998093E+01 0. -1.
</event>
<event>
 5   0  0.1414165E-04  0.1000028E+04  0.7818609E-02  0.9308514E-01
        1   -1    0    0  501    0  0.00000000000E+00  0.00000000000E+00  0.60042972809E+03  0.60042972811E+03  0.50400001928E-02 0. -1.
       -1   -1    0    0    0  501  0.00000000000E+00  0.00000000000E+00 -0.41639180273E+03  0.41639180276E+03  0.50400001928E-02 0.  1.
    10030    2    1    2    0    0  0.00000000000E+00  0.00000000000E+00  0.18403792535E+03  0.10168215309E+04  0.10000280334E+04 0.  0.
        4    1    3    3  502    0  0.18095164600E+03 -0.52493673684E+01  0.56593761903E+03  0.59418688608E+03  0.12699999809E+01 0. -1.
       -4    1    3    3    0  502 -0.18095164600E+03  0.52493673684E+01 -0.38189969368E+03  0.42263464480E+03  0.12699999809E+01 0.  1.
</event>
<event>
 5   0  0.1430675E-04  0.9999074E+03  0.7818609E-02  0.9308646E-01
        1   -1    0    0  501    0  0.00000000000E+00  0.00000000000E+00  0.34142590691E+03  0.34142590695E+03  0.50400001928E-02 0.  1.
       -1   -1    0    0    0  501  0.00000000000E+00  0.00000000000E+00 -0.73208765228E+03  0.73208765229E+03  0.50400001928E-02 0. -1.
    10030    2    1    2    0    0  0.00000000000E+00  0.00000000000E+00 -0.39066174536E+03  0.10735135592E+04  0.99990737701E+03 0.  0.
        5    1    3    3  502    0  0.49225787672E+02 -0.12427811433E+03 -0.71252199525E+03  0.72496752451E+03  0.46999998093E+01 0. -1.
       -5    1    3    3    0  502 -0.49225787672E+02  0.12427811433E+03  0.32186024989E+03  0.34854603474E+03  0.46999998093E+01 0.  1.
</event>
<event>
 5   0  0.2484904E-04  0.1000297E+04  0.7818609E-02  0.9308219E-01
        2   -1    0    0  501    0  0.00000000000E+00  0.00000000000E+00  0.24524234350E+03  0.24524234351E+03  0.25500000920E-02 0.  1.
       -2   -1    0    0    0  501  0.00000000000E+00  0.00000000000E+00 -0.10200062222E+04  0.10200062222E+04  0.25500000920E-02 0. -1.
    10030    2    1    2    0    0  0.00000000000E+00  0.00000000000E+00 -0.77476387868E+03  0.12652485657E+04  0.10002973884E+04 0.  0.
        3    1    3    3  502    0  0.11720697231E+02 -0.39015060909E+03  0.81690310554E+01  0.39041211019E+03  0.10100000352E+00 0.  1.
       -3    1    3    3    0  502 -0.11720697231E+02  0.39015060909E+03 -0.78293290974E+03  0.87483645550E+03  0.10100000352E+00 0. -1.
</event>
<event>
 5   0  0.2473312E-04  0.9997793E+03  0.7818609E-02  0.9308787E-01
       -2   -1    0    0    0  501  0.00000000000E+00  0.00000000000E+00  0.96086358492E+03  0.96086358492E+03  0.25500000920E-02 0.  1.
        2   -1    0    0  501    0  0.00000000000E+00  0.00000000000E+00 -0.26006777707E+03  0.26006777709E+03  0.25500000920E-02 0. -1.
    10030    2    1    2    0    0  0.00000000000E+00  0.00000000000E+00  0.70079580785E+03  0.12209313620E+04  0.99977928886E+03 0.  0.
        5    1    3    3  502    0 -0.53873739819E+02  0.49695563147E+03  0.35105226192E+03  0.61084127242E+03  0.46999998093E+01 0.  1.
       -5    1    3    3    0  502  0.53873739819E+02 -0.49695563147E+03  0.34974354592E+03  0.61009008958E+03  0.46999998093E+01 0. -1.
</event>
<event>
 5   0  0.1430675E-04  0.9999112E+03  0.7818609E-02  0.9308642E-01
        1   -1    0    0  501    0  0.00000000000E+00  0.00000000000E+00  0.15040836025E+04  0.15040836025E+04  0.50400001928E-02 0.  1.
       -1   -1    0    0    0  501  0.00000000000E+00  0.00000000000E+00 -0.16618465029E+03  0.16618465037E+03  0.50400001928E-02 0. -1.
    10030    2    1    2    0    0  0.00000000000E+00  0.00000000000E+00  0.13378989522E+04  0.16702682529E+04  0.99991121118E+03 0.  0.
        5    1    3    3  502    0  0.34477048231E+03  0.17553164167E+03  0.11978558952E+04  0.12587926272E+04  0.46999998093E+01 0.  1.
       -5    1    3    3    0  502 -0.34477048231E+03 -0.17553164167E+03  0.14004305704E+03  0.41147562568E+03  0.46999998093E+01 0. -1.
</event>
<event>
 5   0  0.2353916E-04  0.1000278E+04  0.7818609E-02  0.9308240E-01
       -2   -1    0    0    0  501  0.00000000000E+00  0.00000000000E+00  0.40513134652E+03  0.40513134653E+03  0.25500000920E-02 0. -1.
        2   -1    0    0  501    0  0.00000000000E+00  0.00000000000E+00 -0.61742707191E+03  0.61742707191E+03  0.25500000920E-02 0.  1.
    10030    2    1    2    0    0  0.00000000000E+00  0.00000000000E+00 -0.21229572539E+03  0.10225584184E+04  0.10002780834E+04 0.  0.
        4    1    3    3  502    0  0.24746760317E+03  0.98119581523E+01  0.33804284922E+03  0.41905974509E+03  0.12699999809E+01 0. -1.
       -4    1    3    3    0  502 -0.24746760317E+03 -0.98119581523E+01 -0.55033857461E+03  0.60349867336E+03  0.12699999809E+01 0.  1.
</event>
<event>
 5   0  0.1453863E-04  0.1000472E+04  0.7818609E-02  0.9308027E-01
        1   -1    0    0  501    0  0.00000000000E+00  0.00000000000E+00  0.68335034435E+03  0.68335034436E+03  0.50400001928E-02 0. -1.
       -1   -1    0    0    0  501  0.00000000000E+00  0.00000000000E+00 -0.36618988553E+03  0.36618988556E+03  0.50400001928E-02 0.  1.
    10030    2    1    2    0    0  0.00000000000E+00  0.00000000000E+00  0.31716045882E+03  0.10495402299E+04  0.10004718575E+04 0.  0.
        1    1    3    3  502    0 -0.19860929650E+03 -0.39193241735E+03 -0.92269522557E+02  0.44896585310E+03  0.50400001928E-02 0.  1.
       -1    1    3    3    0  502  0.19860929650E+03  0.39193241735E+03  0.40942998138E+03  0.60057437683E+03  0.50400001928E-02 0. -1.
</event>
<event>
 5   0  0.1461334E-04  0.9995544E+03  0.7818609E-02  0.9309034E-01
        1   -1    0    0  501    0  0.00000000000E+00  0.00000000000E+00  0.22747960419E+04  0.22747960419E+04  0.50400001928E-02 0.  1.
       -1   -1    0    0    0  501  0.00000000000E+00  0.00000000000E+00 -0.10980205194E+03  0.10980205205E+03  0.50400001928E-02 0. -1.
    10030    2    1    2    0    0  0.00000000000E+00  0.00000000000E+00  0.21649939899E+04  0.23845980939E+04  0.99955444731E+03 0.  0.
        2    1    3    3  502    0  0.22163970116E+03 -0.43489322552E+03  0.82642988649E+03  0.95981385280E+03  0.25500000920E-02 0. -1.
       -2    1    3    3    0  502 -0.22163970116E+03  0.43489322552E+03  0.13385641035E+04  0.14247842411E+04  0.25500000920E-02 0.  1.
</event>
<event>
 5   0  0.1414165E-04  0.1000874E+04  0.7818609E-02  0.9307587E-01
       -1   -1    0    0    0  501  0.00000000000E+00  0.00000000000E+00  0.70448067991E+03  0.70448067993E+03  0.50400001928E-02 0. -1.
        1   -1    0    0  501    0  0.00000000000E+00  0.00000000000E+00 -0.35549197680E+03  0.35549197684E+03  0.50400001928E-02 0.  1.
    10030    2    1    2    0    0  0.00000000000E+00  0.00000000000E+00  0.34898870311E+03  0.10599726568E+04  0.10008740771E+04 0.  0.
        4    1    3    3  502    0 -0.24050008378E+03 -0.25635991991E+03  0.55172164550E+03  0.65418581905E+03  0.12699999809E+01 0. -1.
       -4    1    3    3    0  502  0.24050008378E+03  0.25635991991E+03 -0.20273294239E+03  0.40578683771E+03  0.12699999809E+01 0.  1.
</event>
<event>
 5   0  0.1414165E-04  0.1000479E+04  0.7818609E-02  0.9308020E-01
        1   -1    0    0  501    0  0.00000000000E+00  0.00000000000E+00  0.61659444131E+03  0.61659444133E+03  0.50400001928E-02 0. -1.
       -1   -1    0    0    0  501  0.00000000000E+00  0.00000000000E+00 -0.40584121532E+03  0.40584121536E+03  0.50400001928E-02 0.  1.
    10030    2    1    2    0    0  0.00000000000E+00  0.00000000000E+00  0.21075322599E+03  0.10224356567E+04  0.10004787603E+04 0.  0.
        4    1    3    3  502    0 -0.36079974906E+03  0.32393045876E+03  0.23108193241E+03  0.53712928929E+03  0.12699999809E+01 0. -1.
       -4    1    3    3    0  502  0.36079974906E+03 -0.32393045876E+03 -0.20328706424E+02  0.48530636740E+03  0.12699999809E+01 0.  1.
</event>
<event>
 5   0  0.1453863E-04  0.1001516E+04  0.7818609E-02  0.9306884E-01
       -1   -1    0    0    0  501  0.00000000000E+00  0.00000000000E+00  0.32009818039E+03  0.32009818043E+03  0.50400001928E-02 0. -1.
        1   -1    0    0  501    0  0.00000000000E+00  0.00000000000E+00 -0.78338008706E+03  0.78338008708E+03  0.50400001928E-02 0.  1.
    10030    2    1    2    0    0  0.00000000000E+00  0.00000000000E+00 -0.46328190667E+03  0.11034782675E+04  0.10015159319E+04 0.  0.
        1    1    3    3  502    0 -0.96054949204E+00 -0.12329761272E+03  0.30311099720E+03  0.32723004233E+03  0.50400001928E-02 0. -1.
       -1    1    3    3    0  502  0.96054949204E+00  0.12329761272E+03 -0.76639290387E+03  0.77624822517E+03  0.50400001928E-02 0.  1.
</event>
<event>
 5   0  0.1430675E-04  0.1000002E+04  0.7818609E-02  0.9308542E-01
       -1   -1    0    0    0  501  0.00000000000E+00  0.00000000000E+00  0.68894847975E+03  0.68894847977E+03  0.50400001928E-02 0.  1.
        1   -1    0    0  501    0  0.00000000000E+00  0.00000000000E+00 -0.36287360703E+03  0.36287360706E+03  0.50400001928E-02 0. -1.
    10030    2    1    2    0    0  0.00000000000E+00  0.00000000000E+00  0.32607487272E+03  0.10518220868E+04  0.10000024399E+04 0.  0.
        5    1    3    3  502    0 -0.16520084397E+03 -0.51983584956E+02 -0.33029341106E+03  0.37297377836E+03  0.46999998093E+01 0. -1.
       -5    1    3    3    0  502  0.16520084397E+03  0.51983584956E+02  0.65636828378E+03  0.67884830847E+03  0.46999998093E+01 0.  1.
</event>
<event>
 5   0  0.2353916E-04  0.9997172E+03  0.7818609E-02  0.9308855E-01
        2   -1    0    0  501    0  0.00000000000E+00  0.00000000000E+00  0.13168997806E+04  0.13168997806E+04  0.25500000920E-02 0. -1.
       -2   -1    0    0    0  501  0.00000000000E+00  0.00000000000E+00 -0.18973243286E+03  0.18973243288E+03  0.25500000920E-02 0.  1.
    10030    2    1    2    0    0  0.00000000000E+00  0.00000000000E+00  0.11271673477E+04  0.15066322135E+04  0.99971715845E+03 0.  0.
        4    1    3    3  502    0  0.27658048044E+03 -0.26094069878E+03  0.10525543073E+04  0.11191331436E+04  0.12699999809E+01 0. -1.
       -4    1    3    3    0  502 -0.27658048044E+03  0.26094069878E+03  0.74613040444E+02  0.38749906986E+03  0.12699999809E+01 0.  1.
</event>
<event>
 5   0  0.1430675E-04  0.1000034E+04  0.7818609E-02  0.9308507E-01
        1   -1    0    0  501    0  0.00000000000E+00  0.00000000000E+00  0.57943974629E+03  0.57943974631E+03  0.50400001928E-02 0.  1.
       -1   -1    0    0    0  501  0.00000000000E+00  0.00000000000E+00 -0.43148071677E+03  0.43148071680E+03  0.50400001928E-02 0. -1.
    10030    2    1    2    0    0  0.00000000000E+00  0.00000000000E+00  0.14795902952E+03  0.10109204631E+04  0.10000341536E+04 0.  0.
        5    1    3    3  502    0 -0.35139019842E+03  0.20650911332E+03  0.36674210314E+03  0.54830916976E+03  0.46999998093E+01 0.  1.
       -5    1    3    3    0  502  0.35139019842E+03 -0.20650911332E+03 -0.21878307362E+03  0.46261129335E+03  0.46999998093E+01 0. -1.
</event>
<event>
 5   0  0.2353916E-04  0.1000197E+04  0.7818609E-02  0.9308329E-01
        2   -1    0    0  501    0  0.00000000000E+00  0.00000000000E+00  0.17092185620E+04  0.17092185620E+04  0.25500000920E-02 0.  1.
       -2   -1    0    0    0  501  0.00000000000E+00  0.00000000000E+00 -0.14632323668E+03  0.14632323670E+03  0.25500000920E-02 0. -1.
    10030    2    1    2    0    0  0.00000000000E+00  0.00000000000E+00  0.15628953253E+04  0.18555417987E+04  0.10001967650E+04 0.  0.
        4    1    3    3  502    0  0.40567965180E+03 -0.23477094940E+03  0.11049268759E+04  0.12002326411E+04  0.12699999809E+01 0.  1.
       -4    1    3    3    0  502 -0.40567965180E+03  0.23477094940E+03  0.45796844936E+03  0.65530915763E+03  0.12699999809E+01 0. -1.
</event>
<event>
 5   0  0.1453863E-04  0.9998508E+03  0.7818609E-02  0.9308708E-01
        1   -1    0    0  501    0  0.00000000000E+00  0.00000000000E+00  0.36499784689E+03  0.36499784692E+03  0.50400001928E-02 0.  1.
       -1   -1    0    0    0  501  0.00000000000E+00  0.00000000000E+00 -0.68473119505E+03  0.68473119507E+03  0.50400001928E-02 0. -1.
    10030    2    1    2    0    0  0.00000000000E+00  0.00000000000E+00 -0.31973334816E+03  0.10497290420E+04  0.99985081271E+03 0.  0.
        1    1    3    3  502    0 -0.53302754186E+02 -0.15346603732E+03 -0.65624436311E+03  0.67605448919E+03  0.50400001928E-02 0. -1.
       -1    1    3    3    0  502  0.53302754186E+02  0.15346603732E+03  0.33651101494E+03  0.37367455281E+03  0.50400001928E-02 0.  1.
</event>
<event>
 5   0  0.9650500E-05  0.9995482E+03  0.7818609E-02  0.9309040E-01
       -3   -1    0    0    0  501  0.00000000000E+00  0.00000000000E+00  0.14308117286E+04  0.14308117322E+04  0.10100000352E+00 0. -1.
        3   -1    0    0  501    0  0.00000000000E+00  0.00000000000E+00 -0.17456811854E+03  0.17456814776E+03  0.10100000352E+00 0.  1.
    10030    2    1    2    0    0  0.00000000000E+00  0.00000000000E+00  0.12562436101E+04  0.16053798799E+04  0.99954817345E+03 0.  0.
        1    1    3    3  502    0  0.49750988283E+02  0.28285012444E+03  0.12850460432E+04  0.13167470095E+04  0.50400001928E-02 0. -1.
       -1    1    3    3    0  502 -0.49750988283E+02 -0.28285012444E+03 -0.28802433146E+02  0.28863287046E+03  0.50400001928E-02 0.  1.
</event>
<event>
 5   0  0.2403037E-04  0.9999324E+03  0.7818609E-02  0.9308619E-01
       -2   -1    0    0    0  501  0.00000000000E+00  0.00000000000E+00  0.22653275959E+03  0.22653275960E+03  0.25500000920E-02 0. -1.
        2   -1    0    0  501    0  0.00000000000E+00  0.00000000000E+00 -0.11034440246E+04  0.11034440246E+04  0.25500000920E-02 0.  1.
    10030    2    1    2    0    0  0.00000000000E+00  0.00000000000E+00 -0.87691126498E+03  0.13299767842E+04  0.99993243761E+03 0.  0.
        1    1    3    3  502    0  0.56587462683E+02 -0.33440990735E+03  0.50122752804E+02  0.34284751340E+03  0.50400001928E-02 0. -1.
       -1    1    3    3    0  502 -0.56587462683E+02  0.33440990735E+03 -0.92703401779E+03  0.98712927078E+03  0.50400001928E-02 0.  1.
</event>
<event>
 5   0  0.1453863E-04  0.9998663E+03  0.7818609E-02  0.9308691E-01
        1   -1    0    0  501    0  0.00000000000E+00  0.00000000000E+00  0.91617882290E+03  0.91617882291E+03  0.50400001928E-02 0. -1.
       -1   -1    0    0    0  501  0.00000000000E+00  0.00000000000E+00 -0.27279955371E+03  0.27279955376E+03  0.50400001928E-02 0.  1.
    10030    2    1    2    0    0  0.00000000000E+00  0.00000000000E+00  0.64337926918E+03  0.11889783767E+04  0.99986633915E+03 0.  0.
        1    1    3    3  502    0 -0.23358656783E+03  0.23404345066E+03  0.76756721693E+03  0.83576219943E+03  0.50400001928E-02 0. -1.
       -1    1    3    3    0  502  0.23358656783E+03 -0.23404345066E+03 -0.12418794775E+03  0.35321617724E+03  0.50400001928E-02 0.  1.
</event>
<event>
 5   0  0.2503680E-04  0.9998746E+03  0.7818609E-02  0.9308682E-01
        2   -1    0    0  501    0  0.00000000000E+00  0.00000000000E+00  0.71897278818E+03  0.71897278818E+03  0.25500000920E-02 0.  1.
       -2   -1    0    0    0  501  0.00000000000E+00  0.00000000000E+00 -0.34763108531E+03  0.34763108532E+03  0.25500000920E-02 0. -1.
    10030    2    1    2    0    0  0.00000000000E+00  0.00000000000E+00  0.37134170287E+03  0.10666038735E+04  0.99987457347E+03 0.  0.
        2    1    3    3  502    0  0.36337823488E+03 -0.18738953682E+03  0.49258503603E+03  0.64015513574E+03  0.25500000920E-02 0. -1.
       -2    1    3    3    0  502 -0.36337823488E+03  0.18738953682E+03 -0.12124333315E+03  0.42644873776E+03  0.25500000920E-02 0.  1.
</event>
<event>
 5   0  0.1453863E-04  0.9993952E+03  0.7818609E-02  0.9309208E-01
        1   -1    0    0  501    0  0.00000000000E+00  0.00000000000E+00  0.15654901413E+03  0.15654901421E+03  0.50400001928E-02 0.  1.
       -1   -1    0    0    0  501  0.00000000000E+00  0.00000000000E+00 -0.15950127058E+04  0.15950127058E+04  0.50400001928E-02 0. -1.
    10030    2    1    2    0    0  0.00000000000E+00  0.00000000000E+00 -0.14384636917E+04  0.17515617200E+04  0.99939515046E+03 0.  0.
        1    1    3    3  502    0  0.11613159076E+03 -0.16204220676E+03  0.83831323683E+02  0.21626815299E+03  0.50400001928E-02 0.  1.
       -1    1    3    3    0  502 -0.11613159076E+03  0.16204220676E+03 -0.15222950154E+04  0.15352935670E+04  0.50400001928E-02 0. -1.
</event>
<event>
 5   0  0.1506454E-04  0.9995332E+03  0.7818609E-02  0.9309057E-01
        1   -1    0    0  501    0  0.00000000000E+00  0.00000000000E+00  0.67796860099E+03  0.67796860101E+03  0.50400001928E-02 0. -1.
       -1   -1    0    0    0  501  0.00000000000E+00  0.00000000000E+00 -0.36840447369E+03  0.36840447373E+03  0.50400001928E-02 0.  1.
    10030    2    1    2    0    0  0.00000000000E+00  0.00000000000E+00  0.30956412730E+03  0.10463730747E+04  0.99953322238E+03 0.  0.
        3    1    3    3  502    0  0.40414443604E+03 -0.86248728833E+02 -0.13944957004E+03  0.43613961204E+03  0.10100000352E+00 0.  1.
       -3    1    3    3    0  502 -0.40414443604E+03  0.86248728833E+02  0.44901369734E+03  0.61023346270E+03  0.10100000352E+00 0. -1.
</event>
<event>
 5   0  0.1453863E-04  0.1000348E+04  0.7818609E-02  0.9308164E-01
        1   -1    0    0  501    0  0.00000000000E+00  0.00000000000E+00  0.12286089765E+04  0.12286089765E+04  0.50400001928E-02 0. -1.
       -1   -1    0    0    0  501  0.00000000000E+00  0.00000000000E+00 -0.20362360572E+03  0.20362360578E+03  0.50400001928E-02 0.  1.
    10030    2    1    2    0    0  0.00000000000E+00  0.00000000000E+00  0.10249853708E+04  0.14322325823E+04  0.10003475193E+04 0.  0.
        1    1    3    3  502    0  0.12005213386E+03  0.33954214412E+03  0.15549837774E+02  0.36047632371E+03  0.50400001928E-02 0.  1.
       -1    1    3    3    0  502 -0.12005213386E+03 -0.33954214412E+03  0.10094355330E+04  0.10717562586E+04  0.50400001928E-02 0. -1.
</event>
<event>
 5   0  0.2473312E-04  0.1000475E+04  0.7818609E-02  0.9308024E-01
        2   -1    0    0  501    0  0.00000000000E+00  0.00000000000E+00  0.90619806725E+03  0.90619806725E+03  0.25500000920E-02 0. -1.
       -2   -1    0    0    0  501  0.00000000000E+00  0.00000000000E+00 -0.27613985849E+03  0.27613985850E+03  0.25500000920E-02 0.  1.
    10030    2    1    2    0    0  0.00000000000E+00  0.00000000000E+00  0.63005820877E+03  0.11823379258E+04  0.10004746994E+04 0.  0.
        5    1    3    3  502    0 -0.38621682858E+03  0.10195217311E+03 -0.40796909231E+02  0.40155219098E+03  0.46999998093E+01 0.  1.
       -5    1    3    3    0  502  0.38621682858E+03 -0.10195217311E+03  0.67085511800E+03  0.78078573477E+03  0.46999998093E+01 0. -1.
</event>
<event>
 5   0  0.2484904E-04  0.9953072E+03  0.7818609E-02  0.9313707E-01
       -2   -1    0    0    0  501  0.00000000000E+00  0.00000000000E+00  0.80550541367E+03  0.80550541368E+03  0.25500000920E-02 0.  1.
        2   -1    0    0  501    0  0.00000000000E+00  0.00000000000E+00 -0.30745799759E+03  0.30745799760E+03  0.25500000920E-02 0. -1.
    10030    2    1    2    0    0  0.00000000000E+00  0.00000000000E+00  0.49804741608E+03  0.11129634113E+04  0.99530715168E+03 0.  0.
        3    1    3    3  502    0  0.42047133132E+03 -0.48991773774E+02  0.54160792234E+03  0.68741216610E+03  0.10100000352E+00 0.  1.
       -3    1    3    3    0  502 -0.42047133132E+03  0.48991773774E+02 -0.43560506258E+02  0.42555124518E+03  0.10100000352E+00 0. -1.
</event>
<event>
 5   0  0.2403037E-04  0.1000188E+04  0.7818609E-02  0.9308338E-01
        2   -1    0    0  501    0  0.00000000000E+00  0.00000000000E+00  0.88765043586E+03  0.88765043586E+03  0.25500000920E-02 0. -1.
       -2   -1    0    0    0  501  0.00000000000E+00  0.00000000000E+00 -0.28174841421E+03  0.28174841422E+03  0.25500000920E-02 0.  1.
    10030    2    1    2    0    0  0.00000000000E+00  0.00000000000E+00  0.60590202165E+03  0.11693988501E+04  0.10001881877E+04 0.  0.
        1    1    3    3  502    0  0.52017233779E+02 -0.13979185111E+02  0.88424914758E+03  0.88588812231E+03  0.50400001928E-02 0. -1.
       -1    1    3    3    0  502 -0.52017233779E+02  0.13979185111E+02 -0.27834712593E+03  0.28351072777E+03  0.50400001928E-02 0.  1.
</event>
<event>
 5   0  0.1461334E-04  0.1000066E+04  0.7818609E-02  0.9308472E-01
        1   -1    0    0  501    0  0.00000000000E+00  0.00000000000E+00  0.91947510754E+03  0.91947510755E+03  0.50400001928E-02 0.  1.
       -1   -1    0    0    0  501  0.00000000000E+00  0.00000000000E+00 -0.27193014286E+03  0.27193014291E+03  0.50400001928E-02 0. -1.
    10030    2    1    2    0    0  0.00000000000E+00  0.00000000000E+00  0.64754496467E+03  0.11914052505E+04  0.10000659926E+04 0.  0.
        2    1    3    3  502    0  0.27988799514E+03 -0.17952283027E+03 -0.12113221009E+03  0.35389087123E+03  0.25500000920E-02 0. -1.
       -2    1    3    3    0  502 -0.27988799514E+03  0.17952283027E+03  0.76867717476E+03  0.83751437923E+03  0.25500000920E-02 0.  1.
</event>
<event>
 5   0  0.1453863E-04  0.1000206E+04  0.7818609E-02  0.9308319E-01
        1   -1    0    0  501    0  0.00000000000E+00  0.00000000000E+00  0.59597021041E+03  0.59597021043E+03  0.50400001928E-02 0.  1.
       -1   -1    0    0    0  501  0.00000000000E+00  0.00000000000E+00 -0.41965708862E+03  0.41965708865E+03  0.50400001928E-02 0. -1.
    10030    2    1    2    0    0  0.00000000000E+00  0.00000000000E+00  0.17631312179E+03  0.10156272991E+04  0.10002062256E+04 0.  0.
        1    1    3    3  502    0  0.47817622933E+03 -0.59646522748E+02  0.22398330621E+03  0.53139320230E+03  0.50400001928E-02 0. -1.
       -1    1    3    3    0  502 -0.47817622933E+03  0.59646522748E+02 -0.47670184428E+02  0.48423409677E+03  0.50400001928E-02 0.  1.
</event>
<event>
 5   0  0.2473312E-04  0.9988325E+03  0.7818609E-02  0.9309826E-01
        2   -1    0    0  501    0  0.00000000000E+00  0.00000000000E+00  0.14485319696E+04  0.14485319696E+04  0.25500000920E-02 0.  1.
       -2   -1    0    0    0  501  0.00000000000E+00  0.00000000000E+00 -0.17218578191E+03  0.17218578193E+03  0.25500000920E-02 0. -1.
    10030    2    1    2    0    0  0.00000000000E+00  0.00000000000E+00  0.12763461877E+04  0.16207177515E+04  0.99883253815E+03 0.  0.
        5    1    3    3  502    0 -0.28841063113E+03 -0.36347872075E+02 -0.20720627546E+02  0.29146748422E+03  0.46999998093E+01 0. -1.
       -5    1    3    3    0  502  0.28841063113E+03  0.36347872075E+02  0.12970668152E+04  0.13292502673E+04  0.46999998093E+01 0.  1.
</event>
<event>
 5   0  0.1506454E-04  0.9941514E+03  0.7818609E-02  0.9314983E-01
       -1   -1    0    0    0  501  0.00000000000E+00  0.00000000000E+00  0.59628928832E+03  0.59628928834E+03  0.50400001928E-02 0.  1.
        1   -1    0    0  501    0  0.00000000000E+00  0.00000000000E+00 -0.41436976930E+03  0.41436976933E+03  0.50400001928E-02 0. -1.
    10030    2    1    2    0    0  0.00000000000E+00  0.00000000000E+00  0.18191951902E+03  0.10106590577E+04  0.99415140670E+03 0.  0.
        3    1    3    3  502    0  0.23148303974E+03 -0.39705734401E+03 -0.10151258075E+03  0.47068433835E+03  0.10100000352E+00 0. -1.
       -3    1    3    3    0  502 -0.23148303974E+03  0.39705734401E+03  0.28343209977E+03  0.53997471932E+03  0.10100000352E+00 0.  1.
</event>
<event>
 5   0  0.1414165E-04  0.1001215E+04  0.7818609E-02  0.9307214E-01
       -1   -1    0    0    0  501  0.00000000000E+00  0.00000000000E+00  0.36796668433E+03  0.36796668436E+03  0.50400001928E-02 0.  1.
        1   -1    0    0  501    0  0.00000000000E+00  0.00000000000E+00 -0.68106068560E+03  0.68106068562E+03  0.50400001928E-02 0. -1.
    10030    2    1    2    0    0  0.00000000000E+00  0.00000000000E+00 -0.31309400128E+03  0.10490273700E+04  0.10012145471E+04 0.  0.
        4    1    3    3  502    0 -0.38564525729E+03 -0.96818438128E+02  0.16213233510E+03  0.42940025782E+03  0.12699999809E+01 0. -1.
       -4    1    3    3    0  502  0.38564525729E+03  0.96818438128E+02 -0.47522633638E+03  0.61962711216E+03  0.12699999809E+01 0.  1.
</event>
<event>
 5   0  0.2484904E-04  0.9997447E+03  0.7818609E-02  0.9308825E-01
       -2   -1    0    0    0  501  0.00000000000E+00  0.00000000000E+00  0.17893028852E+03  0.17893028854E+03  0.25500000920E-02 0.  1.
        2   -1    0    0  501    0  0.00000000000E+00  0.00000000000E+00 -0.13964787296E+04  0.13964787296E+04  0.25500000920E-02 0. -1.
    10030    2    1    2    0    0  0.00000000000E+00  0.00000000000E+00 -0.12175484410E+04  0.15754090181E+04  0.99974465143E+03 0.  0.
        3    1    3    3  502    0 -0.18617605792E+03  0.51066317863E+02  0.11781503483E+03  0.22616296336E+03  0.10100000352E+00 0.  1.
       -3    1    3    3    0  502  0.18617605792E+03 -0.51066317863E+02 -0.13353634759E+04  0.13492460547E+04  0.10100000352E+00 0. -1.
</event>
<event>
 5   0  0.1430675E-04  0.9995525E+03  0.7818609E-02  0.9309036E-01
        1   -1    0    0  501    0  0.00000000000E+00  0.00000000000E+00  0.14500671111E+04  0.14500671111E+04  0.50400001928E-02 0. -1.
       -1   -1    0    0    0  501  0.00000000000E+00  0.00000000000E+00 -0.17225155171E+03  0.17225155179E+03  0.50400001928E-02 0.  1.
    10030    2    1    2    0    0  0.00000000000E+00  0.00000000000E+00  0.12778155594E+04  0.16223186629E+04  0.99955251998E+03 0.  0.
        5    1    3    3  502    0 -0.33321026766E+03 -0.10257261732E+03  0.12200485255E+04  0.12688935018E+04  0.46999998093E+01 0. -1.
       -5    1    3    3    0  502  0.33321026766E+03  0.10257261732E+03  0.57767033876E+02  0.35342516110E+03  0.46999998093E+01 0.  1.
</event>
<event>
 5   0  0.2473312E-04  0.1000366E+04  0.7818609E-02  0.9308144E-01
        2   -1    0    0  501    0  0.00000000000E+00  0.00000000000E+00  0.99929411564E+03  0.99929411565E+03  0.25500000920E-02 0.  1.
       -2   -1    0    0    0  501  0.00000000000E+00  0.00000000000E+00 -0.25035958730E+03  0.25035958732E+03  0.25500000920E-02 0. -1.
    10030    2    1    2    0    0  0.00000000000E+00  0.00000000000E+00  0.74893452834E+03  0.12496537030E+04  0.10003656579E+04 0.  0.
        5    1    3    3  502    0  0.77502243345E+02 -0.83215745494E+02  0.98290351712E+03  0.98947100613E+03  0.46999998093E+01 0.  1.
       -5    1    3    3    0  502 -0.77502243345E+02  0.83215745494E+02 -0.23396898878E+03  0.26018269683E+03  0.46999998093E+01 0. -1.
</event>
<event>
 5   0  0.2353916E-04  0.9980190E+03  0.7818609E-02  0.9310720E-01
       -2   -1    0    0    0  501  0.00000000000E+00  0.00000000000E+00  0.63955885951E+03  0.63955885951E+03  0.25500000920E-02 0. -1.
        2   -1    0    0  501    0  0.00000000000E+00  0.00000000000E+00 -0.38934728424E+03  0.38934728425E+03  0.25500000920E-02 0.  1.
    10030    2    1    2    0    0  0.00000000000E+00  0.00000000000E+00  0.25021157527E+03  0.10289061438E+04  0.99801904805E+03 0.  0.
        4    1    3    3  502    0  0.36634706826E+03  0.24257819401E+03  0.36897365792E+03  0.57375737709E+03  0.12699999809E+01 0. -1.
       -4    1    3    3    0  502 -0.36634706826E+03 -0.24257819401E+03 -0.11876208264E+03  0.45514876667E+03  0.12699999809E+01 0.  1.
</event>
<event>
 5   0  0.2403037E-04  0.9999311E+03  0.7818609E-02  0.9308620E-01
        2   -1    0    0  501    0  0.00000000000E+00  0.00000000000E+00  0.66741318262E+03  0.66741318262E+03  0.25500000920E-02 0.  1.
       -2   -1    0    0    0  501  0.00000000000E+00  0.00000000000E+00 -0.37452891312E+03  0.37452891312E+03  0.25500000920E-02 0. -1.
    10030    2    1    2    0    0  0.00000000000E+00  0.00000000000E+00  0.29288426950E+03  0.10419420957E+04  0.99993106541E+03 0.  0.
        1    1    3    3  502    0 -0.28973164482E+02  0.10092938442E+03 -0.36290909776E+03  0.37779518017E+03  0.50400001928E-02 0. -1.
       -1    1    3    3    0  502  0.28973164482E+02 -0.10092938442E+03  0.65579336726E+03  0.66414691557E+03  0.50400001928E-02 0.  1.
</event>
<event>
 5   0  0.2403037E-04  0.9999524E+03  0.7818609E-02  0.9308597E-01
        2   -1    0    0  501    0  0.00000000000E+00  0.00000000000E+00  0.10650150949E+04  0.10650150949E+04  0.25500000920E-02 0. -1.
       -2   -1    0    0    0  501  0.00000000000E+00  0.00000000000E+00 -0.23471612550E+03  0.23471612552E+03  0.25500000920E-02 0.  1.
    10030    2    1    2    0    0  0.00000000000E+00  0.00000000000E+00  0.83029896935E+03  0.12997312204E+04  0.99995243223E+03 0.  0.
        1    1    3    3  502    0  0.35355313564E+02  0.33770363268E+03  0.89216197857E+03  0.95459244589E+03  0.50400001928E-02 0.  1.
       -1    1    3    3    0  502 -0.35355313564E+02 -0.33770363268E+03 -0.61863009212E+02  0.34513877449E+03  0.50400001928E-02 0. -1.
</event>
<event>
 5   0  0.1461334E-04  0.1000349E+04  0.7818609E-02  0.9308163E-01
       -1   -1    0    0    0  501  0.00000000000E+00  0.00000000000E+00  0.22096269048E+03  0.22096269054E+03  0.50400001928E-02 0.  1.
        1   -1    0    0  501    0  0.00000000000E+00  0.00000000000E+00 -0.11322016880E+04  0.11322016880E+04  0.50400001928E-02 0. -1.
    10030    2    1    2    0    0  0.00000000000E+00  0.00000000000E+00 -0.91123899754E+03  0.13531643786E+04  0.10003486016E+04 0.  0.
        2    1    3    3  502    0 -0.43133503099E+03  0.46533318896E+02 -0.79232610790E+03  0.90332492492E+03  0.25500000920E-02 0. -1.
       -2    1    3    3    0  502  0.43133503099E+03 -0.46533318896E+02 -0.11891288965E+03  0.44983945365E+03  0.25500000920E-02 0.  1.
</event>
<event>
 5   0  0.2403037E-04  0.1000515E+04  0.7818609E-02  0.9307981E-01
        2   -1    0    0  501    0  0.00000000000E+00  0.00000000000E+00  0.20912180990E+03  0.20912180992E+03  0.25500000920E-02 0.  1.
       -2   -1    0    0    0  501  0.00000000000E+00  0.00000000000E+00 -0.11967060030E+04  0.11967060030E+04  0.25500000920E-02 0. -1.
    10030    2    1    2    0    0  0.00000000000E+00  0.00000000000E+00 -0.98758419309E+03  0.14058278129E+04  0.10005145182E+04 0.  0.
        1    1    3    3  502    0  0.15823823957E+03 -0.47453380895E+03 -0.50218152048E+03  0.70880741802E+03  0.50400001928E-02 0. -1.
       -1    1    3    3    0  502 -0.15823823957E+03  0.47453380895E+03 -0.48540267261E+03  0.69702039489E+03  0.50400001928E-02 0.  1.
</event>
<event>
 5   0  0.1430675E-04  0.9980645E+03  0.7818609E-02  0.9310670E-01
        1   -1    0    0  501    0  0.00000000000E+00  0.00000000000E+00  0.16111335949E+04  0.16111335950E+04  0.50400001928E-02 0. -1.
       -1   -1    0    0    0  501  0.00000000000E+00  0.00000000000E+00 -0.15457016061E+03  0.15457016069E+03  0.50400001928E-02 0.  1.
    10030    2    1    2    0    0  0.00000000000E+00  0.00000000000E+00  0.14565634343E+04  0.17657037556E+04  0.99806448411E+03 0.  0.
        5    1    3    3  502    0 -0.35773750514E+03 -0.25372802450E+03  0.11493826851E+04  0.12302262718E+04  0.46999998093E+01 0.  1.
       -5    1    3    3    0  502  0.35773750514E+03  0.25372802450E+03  0.30718074923E+03  0.53547748384E+03  0.46999998093E+01 0. -1.
</event>
<event>
 5   0  0.1506454E-04  0.1000028E+04  0.7818609E-02  0.9308514E-01
       -1   -1    0    0    0  501  0.00000000000E+00  0.00000000000E+00  0.22166197013E+03  0.22166197018E+03  0.50400001928E-02 0.  1.
        1   -1    0    0  501    0  0.00000000000E+00  0.00000000000E+00 -0.11279066409E+04  0.11279066409E+04  0.50400001928E-02 0. -1.
    10030    2    1    2    0    0  0.00000000000E+00  0.00000000000E+00 -0.90624467077E+03  0.13495686111E+04  0.10000280160E+04 0.  0.
        3    1    3    3  502    0 -0.49966174023E+03  0.12846705651E+02 -0.47158209608E+03  0.68718016272E+03  0.10100000352E+00 0.  1.
       -3    1    3    3    0  502  0.49966174023E+03 -0.12846705651E+02 -0.43466257469E+03  0.66238844837E+03  0.10100000352E+00 0. -1.
</event>
<event>
 5   0  0.2353916E-04  0.9997361E+03  0.7818609E-02  0.9308834E-01
       -2   -1    0    0    0  501  0.00000000000E+00  0.00000000000E+00  0.14697188100E+03  0.14697188102E+03  0.25500000920E-02 0. -1.
        2   -1    0    0  501    0  0.00000000000E+00  0.00000000000E+00 -0.17001080279E+04  0.17001080279E+04  0.25500000920E-02 0.  1.
    10030    2    1    2    0    0  0.00000000000E+00  0.00000000000E+00 -0.15531361469E+04  0.18470799089E+04  0.99973611474E+03 0.  0.
        4    1    3    3  502    0  0.42636081050E+02  0.17538225331E+03 -0.16377994927E+04  0.16477152550E+04  0.12699999809E+01 0.  1.
       -4    1    3    3    0  502 -0.42636081050E+02 -0.17538225331E+03  0.84663345891E+02  0.19936465389E+03  0.12699999809E+01 0. -1.
</event>
<event>
 5   0  0.1414165E-04  0.1000449E+04  0.7818609E-02  0.9308053E-01
        1   -1    0    0  501    0  0.00000000000E+00  0.00000000000E+00  0.22094123113E+04  0.22094123113E+04  0.50400001928E-02 0. -1.
       -1   -1    0    0    0  501  0.00000000000E+00  0.00000000000E+00 -0.11325387740E+03  0.11325387751E+03  0.50400001928E-02 0.  1.
    10030    2    1    2    0    0  0.00000000000E+00  0.00000000000E+00  0.20961584339E+04  0.23226661888E+04  0.10004489216E+04 0.  0.
        4    1    3    3  502    0  0.17747067463E+03  0.19343191629E+03  0.59516708274E+02  0.26917577539E+03  0.12699999809E+01 0.  1.
       -4    1    3    3    0  502 -0.17747067463E+03 -0.19343191629E+03  0.20366417256E+04  0.20534904134E+04  0.12699999809E+01 0. -1.
</event>
<event>
 5   0  0.2403037E-04  0.9976936E+03  0.7818609E-02  0.9311078E-01
       -2   -1    0    0    0  501  0.00000000000E+00  0.00000000000E+00  0.23268498190E+03  0.23268498192E+03  0.25500000920E-02 0. -1.
        2   -1    0    0  501    0  0.00000000000E+00  0.00000000000E+00 -0.10694637218E+04  0.10694637218E+04  0.25500000920E-02 0.  1.
    10030    2    1    2    0    0  0.00000000000E+00  0.00000000000E+00 -0.83677873988E+03  0.13021487037E+04  0.99769363385E+03 0.  0.
        1    1    3    3  502    0  0.14142444242E+03  0.46687661212E+03 -0.55448623411E+03  0.73853207628E+03  0.50400001928E-02 0. -1.
       -1    1    3    3    0  502 -0.14142444242E+03 -0.46687661212E+03 -0.28229250577E+03  0.56361662741E+03  0.50400001928E-02 0.  1.
</event>
<event>
 5   0  0.2484904E-04  0.1000108E+04  0.7818609E-02  0.9308427E-01
        2   -1    0    0  501    0  0.00000000000E+00  0.00000000000E+00  0.20468389098E+04  0.20468389098E+04  0.25500000920E-02 0. -1.
       -2   -1    0    0    0  501  0.00000000000E+00  0.00000000000E+00 -0.12216588258E+03  0.12216588261E+03  0.25500000920E-02 0.  1.
    10030    2    1    2    0    0  0.00000000000E+00  0.00000000000E+00  0.19246730272E+04  0.21690047924E+04  0.10001077581E+04 0.  0.
        3    1    3    3  502    0  0.19380864595E+03 -0.17896343282E+02  0.19613182472E+04  0.19709518886E+04  0.10100000352E+00 0. -1.
       -3    1    3    3    0  502 -0.19380864595E+03  0.17896343282E+02 -0.36645219964E+02  0.19805290378E+03  0.10100000352E+00 0.  1.
</event>
<event>
 5   0  0.2484904E-04  0.9999829E+03  0.7818609E-02  0.9308564E-01
        2   -1    0    0  501    0  0.00000000000E+00  0.00000000000E+00  0.26564065500E+03  0.26564065501E+03  0.25500000920E-02 0.  1.
       -2   -1    0    0    0  501  0.00000000000E+00  0.00000000000E+00 -0.94108886405E+03  0.94108886405E+03  0.25500000920E-02 0. -1.
    10030    2    1    2    0    0  0.00000000000E+00  0.00000000000E+00 -0.67544820905E+03  0.12067295191E+04  0.99998292438E+03 0.  0.
        3    1    3    3  502    0 -0.31357158782E+03 -0.99168876527E+02 -0.79218986304E+03  0.85774494814E+03  0.10100000352E+00 0. -1.
       -3    1    3    3    0  502  0.31357158782E+03  0.99168876527E+02  0.11674165398E+03  0.34898457092E+03  0.10100000352E+00 0.  1.
</event>
<event>
 5   0  0.1461334E-04  0.9999452E+03  0.7818609E-02  0.9308605E-01
       -1   -1    0    0    0  501  0.00000000000E+00  0.00000000000E+00  0.31796215439E+03  0.31796215443E+03  0.50400001928E-02 0.  1.
        1   -1    0    0  501    0  0.00000000000E+00  0.00000000000E+00 -0.78617092567E+03  0.78617092569E+03  0.50400001928E-02 0. -1.
    10030    2    1    2    0    0  0.00000000000E+00  0.00000000000E+00 -0.46820877128E+03  0.11041330801E+04  0.99994520105E+03 0.  0.
        2    1    3    3  502    0  0.14933948916E+03  0.37471581008E+03 -0.56027797581E+03  0.69038078734E+03  0.25500000920E-02 0.  1.
       -2    1    3    3    0  502 -0.14933948916E+03 -0.37471581008E+03  0.92069204528E+02  0.41375229277E+03  0.25500000920E-02 0. -1.
</event>
<event>
 5   0  0.2473312E-04  0.1000502E+04  0.7818609E-02  0.9307995E-01
        2   -1    0    0  501    0  0.00000000000E+00  0.00000000000E+00  0.65684806494E+03  0.65684806495E+03  0.25500000920E-02 0. -1.
       -2   -1    0    0    0  501  0.00000000000E+00  0.00000000000E+00 -0.38098736420E+03  0.38098736421E+03  0.25500000920E-02 0.  1.
    10030    2    1    2    0    0  0.00000000000E+00  0.00000000000E+00  0.27586070074E+03  0.10378354292E+04  0.10005015002E+04 0.  0.
        5    1    3    3  502    0  0.13463309412E+03 -0.41390380777E+03  0.39367912999E+03  0.58689673666E+03  0.46999998093E+01 0. -1.
       -5    1    3    3    0  502 -0.13463309412E+03  0.41390380777E+03 -0.11781842925E+03  0.45093869249E+03  0.46999998093E+01 0.  1.
</event>
<event>
 5   0  0.2473312E-04  0.1000940E+04  0.7818609E-02  0.9307514E-01
        2   -1    0    0  501    0  0.00000000000E+00  0.00000000000E+00  0.21191532126E+04  0.21191532126E+04  0.25500000920E-02 0.  1.
       -2   -1    0    0    0  501  0.00000000000E+00  0.00000000000E+00 -0.11819352503E+03  0.11819352505E+03  0.25500000920E-02 0. -1.
    10030    2    1    2    0    0  0.00000000000E+00  0.00000000000E+00  0.20009596876E+04  0.22373467377E+04  0.10009399349E+04 0.  0.
        5    1    3    3  502    0 -0.49395149935E+03 -0.80237405657E+02  0.10109577185E+04  0.11280442029E+04  0.46999998093E+01 0. -1.
       -5    1    3    3    0  502  0.49395149935E+03  0.80237405657E+02  0.99000196906E+03  0.11093025348E+04  0.46999998093E+01 0.  1.
</event>
<event>
 5   0  0.2353916E-04  0.1000640E+04  0.7818609E-02  0.9307843E-01
        2   -1    0    0  501    0  0.00000000000E+00  0.00000000000E+00  0.92117418753E+03  0.92117418753E+03  0.25500000920E-02 0.  1.
       -2   -1    0    0    0  501  0.00000000000E+00  0.00000000000E+00 -0.27174011793E+03  0.27174011794E+03  0.25500000920E-02 0. -1.
    10030    2    1    2    0    0  0.00000000000E+00  0.00000000000E+00  0.64943406960E+03  0.11929143055E+04  0.10006397601E+04 0.  0.
        4    1    3    3  502    0 -0.37521702418E+03 -0.25777017845E+02 -0.68631759198E+02  0.38231427015E+03  0.12699999809E+01 0. -1.
       -4    1    3    3    0  502  0.37521702418E+03  0.25777017845E+02  0.71806582880E+03  0.81060003533E+03  0.12699999809E+01 0.  1.
</event>
<event>
 5   0  0.2353916E-04  0.1000113E+04  0.7818609E-02  0.9308421E-01
        2   -1    0    0  501    0  0.00000000000E+00  0.00000000000E+00  0.64030447396E+03  0.64030447397E+03  0.25500000920E-02 0.  1.
       -2   -1    0    0    0  501  0.00000000000E+00  0.00000000000E+00 -0.39052721398E+03  0.39052721399E+03  0.25500000920E-02 0. -1.
    10030    2    1    2    0    0  0.00000000000E+00  0.00000000000E+00  0.24977725998E+03  0.10308316880E+04  0.10001126383E+04 0.  0.
        4    1    3    3  502    0 -0.38853962844E+03  0.14221378059E+03  0.41434709179E+03  0.58555352243E+03  0.12699999809E+01 0.  1.
       -4    1    3    3    0  502  0.38853962844E+03 -0.14221378059E+03 -0.16456983180E+03  0.44527816553E+03  0.12699999809E+01 0. -1.
</event>
<event>
 5   0  0.1461334E-04  0.9992795E+03  0.7818609E-02  0.9309335E-01
       -1   -1    0    0    0  501  0.00000000000E+00  0.00000000000E+00  0.20756590820E+03  0.20756590826E+03  0.50400001928E-02 0. -1.
        1   -1    0    0  501    0  0.00000000000E+00  0.00000000000E+00 -0.12027017516E+04  0.12027017516E+04  0.50400001928E-02 0.  1.
    10030    2    1    2    0    0  0.00000000000E+00  0.00000000000E+00 -0.99513584342E+03  0.14102676599E+04  0.99927950327E+03 0.  0.
        2    1    3    3  502    0  0.45123100932E+03  0.19613108107E+03 -0.62030145717E+03  0.79173904950E+03  0.25500000920E-02 0.  1.
       -2    1    3    3    0  502 -0.45123100932E+03 -0.19613108107E+03 -0.37483438625E+03  0.61852861038E+03  0.25500000920E-02 0. -1.
</event>
<event>
 5   0  0.2484904E-04  0.1000339E+04  0.7818609E-02  0.9308173E-01
       -2   -1    0    0    0  501  0.00000000000E+00  0.00000000000E+00  0.41727978962E+03  0.41727978963E+03  0.25500000920E-02 0. -1.
        2   -1    0    0  501    0  0.00000000000E+00  0.00000000000E+00 -0.59952431907E+03  0.59952431907E+03  0.25500000920E-02 0.  1.
    10030    2    1    2    0    0  0.00000000000E+00  0.00000000000E+00 -0.18224452945E+03  0.10168041087E+04  0.10003387061E+04 0.  0.
        3    1    3    3  502    0 -0.40052144091E+02  0.46226347512E+03  0.98707362087E+02  0.47437838084E+03  0.10100000352E+00 0. -1.
       -3    1    3    3    0  502  0.40052144091E+02 -0.46226347512E+03 -0.28095189154E+03  0.54242572786E+03  0.10100000352E+00 0.  1.
</event>
<event>
 5   0  0.1414165E-04  0.9999468E+03  0.7818609E-02  0.9308603E-01
        1   -1    0    0  501    0  0.00000000000E+00  0.00000000000E+00  0.12503184823E+04  0.12503184823E+04  0.50400001928E-02 0.  1.
       -1   -1    0    0    0  501  0.00000000000E+00  0.00000000000E+00 -0.19992776414E+03  0.19992776420E+03  0.50400001928E-02 0. -1.
    10030    2    1    2    0    0  0.00000000000E+00  0.00000000000E+00  0.10503907182E+04  0.14502462465E+04  0.99994675595E+03 0.  0.
        4    1    3    3  502    0 -0.27374535979E+03  0.26913730875E+01 -0.81567012032E+02  0.28565460935E+03  0.12699999809E+01 0. -1.
       -4    1    3    3    0  502  0.27374535979E+03 -0.26913730875E+01  0.11319577302E+04  0.11645916372E+04  0.12699999809E+01 0.  1.
</event>
<event>
 5   0  0.2403037E-04  0.1000967E+04  0.7818609E-02  0.9307485E-01
       -2   -1    0    0    0  501  0.00000000000E+00  0.00000000000E+00  0.27849815430E+03  0.27849815431E+03  0.25500000920E-02 0. -1.
        2   -1    0    0  501    0  0.00000000000E+00  0.00000000000E+00 -0.89940812060E+03  0.89940812061E+03  0.25500000920E-02 0.  1.
    10030    2    1    2    0    0  0.00000000000E+00  0.00000000000E+00 -0.62090996630E+03  0.11779062749E+04  0.10009665360E+04 0.  0.
        1    1    3    3  502    0 -0.15666348669E+03 -0.29234970029E+03  0.13059276149E+03  0.35646355311E+03  0.50400001928E-02 0. -1.
       -1    1    3    3    0  502  0.15666348669E+03  0.29234970029E+03 -0.75150272778E+03  0.82144272181E+03  0.50400001928E-02 0.  1.
</event>
<event>
 5   0  0.2503680E-04  0.9997303E+03  0.7818609E-02  0.9308841E-01
       -2   -1    0    0    0  501  0.00000000000E+00  0.00000000000E+00  0.33841219193E+03  0.33841219194E+03  0.25500000920E-02 0.  1.
        2   -1    0    0  501    0  0.00000000000E+00  0.00000000000E+00 -0.73834568321E+03  0.73834568321E+03  0.25500000920E-02 0. -1.
    10030    2    1    2    0    0  0.00000000000E+00  0.00000000000E+00 -0.39993349128E+03  0.10767578752E+04  0.99973032577E+03 0.  0.
        2    1    3    3  502    0  0.29779470222E+02 -0.23141367490E+03  0.27616424035E+03  0.36153256206E+03  0.25500000920E-02 0.  1.
       -2    1    3    3    0  502 -0.29779470222E+02  0.23141367490E+03 -0.67609773162E+03  0.71522531309E+03  0.25500000920E-02 0. -1.
</event>
<event>
 5   0  0.1414165E-04  0.1000491E+04  0.7818609E-02  0.9308006E-01
       -1   -1    0    0    0  501  0.00000000000E+00  0.00000000000E+00  0.44985376768E+03  0.44985376771E+03  0.50400001928E-02 0.  1.
        1   -1    0    0  501    0  0.00000000000E+00  0.00000000000E+00 -0.55628233005E+03  0.55628233007E+03  0.50400001928E-02 0. -1.
    10030    2    1    2    0    0  0.00000000000E+00  0.00000000000E+00 -0.10642856237E+03  0.10061360978E+04  0.10004912835E+04 0.  0.
        4    1    3    3  502    0  0.40438901951E+03  0.67573970069E+02 -0.34144499001E+03  0.53355694601E+03  0.12699999809E+01 0.  1.
       -4    1    3    3    0  502 -0.40438901951E+03 -0.67573970069E+02  0.23501642764E+03  0.47257915177E+03  0.12699999809E+01 0. -1.
</event>
<event>
 5   0  0.1461334E-04  0.9997304E+03  0.7818609E-02  0.9308841E-01
        1   -1    0    0  501    0  0.00000000000E+00  0.00000000000E+00  0.10618760945E+04  0.10618760945E+04  0.50400001928E-02 0.  1.
       -1   -1    0    0    0  501  0.00000000000E+00  0.00000000000E+00 -0.23530541623E+03  0.23530541628E+03  0.50400001928E-02 0. -1.
    10030    2    1    2    0    0  0.00000000000E+00  0.00000000000E+00  0.82657067828E+03  0.12971815108E+04  0.99973035653E+03 0.  0.
        2    1    3    3  502    0 -0.42428886628E+03  0.52907080696E+02  0.74925576693E+03  0.86267282647E+03  0.25500000920E-02 0.  1.
       -2    1    3    3    0  502  0.42428886628E+03 -0.52907080696E+02  0.77314911344E+02  0.43450868433E+03  0.25500000920E-02 0. -1.
</event>
<event>
 5   0  0.2353916E-04  0.1000207E+04  0.7818609E-02  0.9308318E-01
        2   -1    0    0  501    0  0.00000000000E+00  0.00000000000E+00  0.11185745237E+04  0.11185745237E+04  0.25500000920E-02 0.  1.
       -2   -1    0    0    0  501  0.00000000000E+00  0.00000000000E+00 -0.22359107501E+03  0.22359107502E+03  0.25500000920E-02 0. -1.
    10030    2    1    2    0    0  0.00000000000E+00  0.00000000000E+00  0.89498344869E+03  0.13421655987E+04  0.10002065392E+04 0.  0.
        4    1    3    3  502    0  0.56343230681E+02 -0.40792014866E+03  0.66697308315E+02  0.41716130113E+03  0.12699999809E+01 0. -1.
       -4    1    3    3    0  502 -0.56343230681E+02  0.40792014866E+03  0.82828614037E+03  0.92500429759E+03  0.12699999809E+01 0.  1.
</event>
<event>
 5   0  0.2353916E-04  0.1000062E+04  0.7818609E-02  0.9308477E-01
        2   -1    0    0  501    0  0.00000000000E+00  0.00000000000E+00  0.11736307258E+04  0.11736307258E+04  0.25500000920E-02 0.  1.
       -2   -1    0    0    0  501  0.00000000000E+00  0.00000000000E+00 -0.21304050871E+03  0.21304050873E+03  0.25500000920E-02 0. -1.
    10030    2    1    2    0    0  0.00000000000E+00  0.00000000000E+00  0.96059021706E+03  0.13866712345E+04  0.10000617718E+04 0.  0.
        4    1    3    3  502    0 -0.53247337880E+02  0.34218710062E+03  0.98043170978E+03  0.10397957690E+04  0.12699999809E+01 0.  1.
       -4    1    3    3    0  502  0.53247337880E+02 -0.34218710062E+03 -0.19841492715E+02  0.34687546549E+03  0.12699999809E+01 0. -1.
</event>
<event>
 5   0  0.1414165E-04  0.1000034E+04  0.7818609E-02  0.9308508E-01
       -1   -1    0    0    0  501  0.00000000000E+00  0.00000000000E+00  0.25976583923E+03  0.25976583928E+03  0.50400001928E-02 0. -1.
        1   -1    0    0  501    0  0.00000000000E+00  0.00000000000E+00 -0.96247052455E+03  0.96247052456E+03  0.50400001928E-02 0.  1.
    10030    2    1    2    0    0  0.00000000000E+00  0.00000000000E+00 -0.70270468532E+03  0.12222363638E+04  0.10000339266E+04 0.  0.
        4    1    3    3  502    0 -0.11063873387E+03  0.31912147267E+02  0.24333815191E+03  0.26921066778E+03  0.12699999809E+01 0. -1.
       -4    1    3    3    0  502  0.11063873387E+03 -0.31912147267E+02 -0.94604283723E+03  0.95302569606E+03  0.12699999809E+01 0.  1.
</event>
<event>
 5   0  0.1461334E-04  0.9999658E+03  0.7818609E-02  0.9308582E-01
       -1   -1    0    0    0  501  0.00000000000E+00  0.00000000000E+00  0.33128093512E+03  0.33128093516E+03  0.50400001928E-02 0. -1.
        1   -1    0    0  501    0  0.00000000000E+00  0.00000000000E+00 -0.75459489237E+03  0.75459489239E+03  0.50400001928E-02 0.  1.
    10030    2    1    2    0    0  0.00000000000E+00  0.00000000000E+00 -0.42331395725E+03  0.10858758275E+04  0.99996580263E+03 0.  0.
        2    1    3    3  502    0 -0.10433534958E+03  0.25991980606E+03 -0.66141209626E+03  0.71826884371E+03  0.25500000920E-02 0.  1.
       -2    1    3    3    0  502  0.10433534958E+03 -0.25991980606E+03  0.23809813901E+03  0.36760698383E+03  0.25500000920E-02 0. -1.
</event>
<event>
 5   0  0.2473312E-04  0.1001104E+04  0.7818609E-02  0.9307335E-01
        2   -1    0    0  501    0  0.00000000000E+00  0.00000000000E+00  0.68281312740E+03  0.68281312740E+03  0.25500000920E-02 0.  1.
       -2   -1    0    0    0  501  0.00000000000E+00  0.00000000000E+00 -0.36694096968E+03  0.36694096969E+03  0.25500000920E-02 0. -1.
    10030    2    1    2    0    0  0.00000000000E+00  0.00000000000E+00  0.31587215772E+03  0.10497540971E+04  0.10011036132E+04 0.  0.
        5    1    3    3  502    0 -0.27629862037E+03  0.38830629726E+03 -0.24934582884E+01  0.47660362508E+03  0.46999998093E+01 0. -1.
       -5    1    3    3    0  502  0.27629862037E+03 -0.38830629726E+03  0.31836561601E+03  0.57315047201E+03  0.46999998093E+01 0.  1.
</event>
<event>
 5   0  0.2473312E-04  0.9978663E+03  0.7818609E-02  0.9310888E-01
       -2   -1    0    0    0  501  0.00000000000E+00  0.00000000000E+00  0.22395870472E+03  0.22395870474E+03  0.25500000920E-02 0. -1.
        2   -1    0    0  501    0  0.00000000000E+00  0.00000000000E+00 -0.11115187294E+04  0.11115187294E+04  0.25500000920E-02 0.  1.
    10030    2    1    2    0    0  0.00000000000E+00  0.00000000000E+00 -0.88756002463E+03  0.13354774341E+04  0.99786631352E+03 0.  0.
        5    1    3    3  502    0 -0.48322476847E+03  0.95614934271E+02 -0.54970137593E+03  0.73813419187E+03  0.46999998093E+01 0.  1.
       -5    1    3    3    0  502  0.48322476847E+03 -0.95614934271E+02 -0.33785864871E+03  0.59734324222E+03  0.46999998093E+01 0. -1.
</event>
<event>
 5   0  0.1506454E-04  0.9979676E+03  0.7818609E-02  0.9310777E-01
        1   -1    0    0  501    0  0.00000000000E+00  0.00000000000E+00  0.52175950492E+03  0.52175950494E+03  0.50400001928E-02 0.  1.
       -1   -1    0    0    0  501  0.00000000000E+00  0.00000000000E+00 -0.47720228972E+03  0.47720228975E+03  0.50400001928E-02 0. -1.
    10030    2    1    2    0    0  0.00000000000E+00  0.00000000000E+00  0.44557215198E+02  0.99896179469E+03  0.99796759558E+03 0.  0.
        3    1    3    3  502    0 -0.13712749612E+03  0.18729825065E+03  0.46442016413E+03  0.51920196835E+03  0.10100000352E+00 0.  1.
       -3    1    3    3    0  502  0.13712749612E+03 -0.18729825065E+03 -0.41986294893E+03  0.47975982634E+03  0.10100000352E+00 0. -1.
</event>
<event>
 5   0  0.2503680E-04  0.1000433E+04  0.7818609E-02  0.9308070E-01
       -2   -1    0    0    0  501  0.00000000000E+00  0.00000000000E+00  0.28628659033E+03  0.28628659034E+03  0.25500000920E-02 0. -1.
        2   -1    0    0  501    0  0.00000000000E+00  0.00000000000E+00 -0.87400659675E+03  0.87400659676E+03  0.25500000920E-02 0.  1.
    10030    2    1    2    0    0  0.00000000000E+00  0.00000000000E+00 -0.58772000642E+03  0.11602931871E+04  0.10004326435E+04 0.  0.
        2    1    3    3  502    0  0.28308795913E+03  0.38364217470E+03 -0.11836605675E+03  0.49125414422E+03  0.25500000920E-02 0.  1.
       -2    1    3    3    0  502 -0.28308795913E+03 -0.38364217470E+03 -0.46935394967E+03  0.66903904288E+03  0.25500000920E-02 0. -1.
</event>
<event>
 5   0  0.1414165E-04  0.9991721E+03  0.7818609E-02  0.9309453E-01
        1   -1    0    0  501    0  0.00000000000E+00  0.00000000000E+00  0.44811839499E+03  0.44811839502E+03  0.50400001928E-02 0.  1.
       -1   -1    0    0    0  501  0.00000000000E+00  0.00000000000E+00 -0.55696492999E+03  0.55696493001E+03  0.50400001928E-02 0. -1.
    10030    2    1    2    0    0  0.00000000000E+00  0.00000000000E+00 -0.10884653500E+03  0.10050833250E+04  0.99917211834E+03 0.  0.
        4    1    3    3  502    0  0.47324221056E+03 -0.68570227960E+02 -0.19993226254E+03  0.51829970916E+03  0.12699999809E+01 0. -1.
       -4    1    3    3    0  502 -0.47324221056E+03  0.68570227960E+02  0.91085727536E+02  0.48678361587E+03  0.12699999809E+01 0.  1.
</event>
<event>
 5   0  0.2484904E-04  0.9987002E+03  0.7818609E-02  0.9309972E-01
       -2   -1    0    0    0  501  0.00000000000E+00  0.00000000000E+00  0.62579485490E+03  0.62579485491E+03  0.25500000920E-02 0.  1.
        2   -1    0    0  501    0  0.00000000000E+00  0.00000000000E+00 -0.39845408736E+03  0.39845408737E+03  0.25500000920E-02 0. -1.
    10030    2    1    2    0    0  0.00000000000E+00  0.00000000000E+00  0.22734076755E+03  0.10242489423E+04  0.99870019083E+03 0.  0.
        3    1    3    3  502    0  0.19663390310E+03  0.23104168787E+03  0.52043404130E+03  0.60240912587E+03  0.10100000352E+00 0.  1.
       -3    1    3    3    0  502 -0.19663390310E+03 -0.23104168787E+03 -0.29309327376E+03  0.42183981640E+03  0.10100000352E+00 0. -1.
</event>
<event>
 5   0  0.2473312E-04  0.9994049E+03  0.7818609E-02  0.9309198E-01
       -2   -1    0    0    0  501  0.00000000000E+00  0.00000000000E+00  0.17194476112E+04  0.17194476112E+04  0.25500000920E-02 0.  1.
        2   -1    0    0  501    0  0.00000000000E+00  0.00000000000E+00 -0.14522252602E+03  0.14522252604E+03  0.25500000920E-02 0. -1.
    10030    2    1    2    0    0  0.00000000000E+00  0.00000000000E+00  0.15742250852E+04  0.18646701372E+04  0.99940487386E+03 0.  0.
        5    1    3    3  502    0 -0.22248232761E+03 -0.12181931643E+03 -0.16131653910E+02  0.25420592481E+03  0.46999998093E+01 0. -1.
       -5    1    3    3    0  502  0.22248232761E+03  0.12181931643E+03  0.15903567391E+04  0.16104642124E+04  0.46999998093E+01 0.  1.
</event>
<event>
 5   0  0.2503680E-04  0.9998504E+03  0.7818609E-02  0.9308709E-01
        2   -1    0    0  501    0  0.00000000000E+00  0.00000000000E+00  0.10195571023E+04  0.10195571023E+04  0.25500000920E-02 0.  1.
       -2   -1    0    0    0  501  0.00000000000E+00  0.00000000000E+00 -0.24513113343E+03  0.24513113345E+03  0.25500000920E-02 0. -1.
    10030    2    1    2    0    0  0.00000000000E+00  0.00000000000E+00  0.77442596886E+03  0.12646882357E+04  0.99985036499E+03 0.  0.
        2    1    3    3  502    0  0.29395036661E+03  0.39498865314E+03  0.27765433618E+03  0.56525638832E+03  0.25500000920E-02 0.  1.
       -2    1    3    3    0  502 -0.29395036661E+03 -0.39498865314E+03  0.49677163268E+03  0.69943184742E+03  0.25500000920E-02 0. -1.
</event>
<event>
 5   0  0.1506454E-04  0.1001555E+04  0.7818609E-02  0.9306841E-01
        1   -1    0    0  501    0  0.00000000000E+00  0.00000000000E+00  0.23901013257E+03  0.23901013262E+03  0.50400001928E-02 0. -1.
       -1   -1    0    0    0  501  0.00000000000E+00  0.00000000000E+00 -0.10492357146E+04  0.10492357146E+04  0.50400001928E-02 0.  1.
    10030    2    1    2    0    0  0.00000000000E+00  0.00000000000E+00 -0.81022558204E+03  0.12882458473E+04  0.10015547260E+04 0.  0.
        3    1    3    3  502    0  0.10469637299E+03 -0.53712338883E+02  0.22097548372E+03  0.25035279202E+03  0.10100000352E+00 0. -1.
       -3    1    3    3    0  502 -0.10469637299E+03  0.53712338883E+02 -0.10312010658E+04  0.10378930552E+04  0.10100000352E+00 0.  1.
</event>
<event>
 5   0  0.2503680E-04  0.9979227E+03  0.7818609E-02  0.9310826E-01
       -2   -1    0    0    0  501  0.00000000000E+00  0.00000000000E+00  0.96588335201E+03  0.96588335202E+03  0.25500000920E-02 0.  1.
        2   -1    0    0  501    0  0.00000000000E+00  0.00000000000E+00 -0.25775619157E+03  0.25775619158E+03  0.25500000920E-02 0. -1.
    10030    2    1    2    0    0  0.00000000000E+00  0.00000000000E+00  0.70812716044E+03  0.12236395436E+04  0.99792267101E+03 0.  0.
        2    1    3    3  502    0 -0.66442657543E+02 -0.39203880911E+03  0.72365945077E+03  0.82570700329E+03  0.25500000920E-02 0.  1.
       -2    1    3    3    0  502  0.66442657543E+02  0.39203880911E+03 -0.15532290329E+02  0.39793254031E+03  0.25500000920E-02 0. -1.
</event>
<event>
 5   0  0.1506454E-04  0.1001319E+04  0.7818609E-02  0.9307099E-01
        1   -1    0    0  501    0  0.00000000000E+00  0.00000000000E+00  0.62087301510E+03  0.62087301512E+03  0.50400001928E-02 0. -1.
       -1   -1    0    0    0  501  0.00000000000E+00  0.00000000000E+00 -0.40372207757E+03  0.40372207760E+03  0.50400001928E-02 0.  1.
    10030    2    1    2    0    0  0.00000000000E+00  0.00000000000E+00  0.21715093752E+03  0.10245950927E+04  0.10013194167E+04 0.  0.
        3    1    3    3  502    0 -0.25827684707E+03 -0.39692077847E+03  0.27485545612E+03  0.54753864345E+03  0.10100000352E+00 0.  1.
       -3    1    3    3    0  502  0.25827684707E+03  0.39692077847E+03 -0.57704518593E+02  0.47705644926E+03  0.10100000352E+00 0. -1.
</event>
<event>
 5   0  0.1414165E-04  0.1000977E+04  0.7818609E-02  0.9307473E-01
       -1   -1    0    0    0  501  0.00000000000E+00  0.00000000000E+00  0.13896991916E+03  0.13896991925E+03  0.50400001928E-02 0.  1.
        1   -1    0    0  501    0  0.00000000000E+00  0.00000000000E+00 -0.18024686727E+04  0.18024686727E+04  0.50400001928E-02 0. -1.
    10030    2    1    2    0    0  0.00000000000E+00  0.00000000000E+00 -0.16634987535E+04  0.19414385920E+04  0.10009773740E+04 0.  0.
        4    1    3    3  502    0 -0.17891535644E+03  0.46256112185E+03 -0.96205746031E+03  0.10823722401E+04  0.12699999809E+01 0.  1.
       -4    1    3    3    0  502  0.17891535644E+03 -0.46256112185E+03 -0.70144129323E+03  0.85906635190E+03  0.12699999809E+01 0. -1.
</event>
<event>
 5   0  0.2484904E-04  0.9992658E+03  0.7818609E-02  0.9309350E-01
       -2   -1    0    0    0  501  0.00000000000E+00  0.00000000000E+00  0.16175970474E+03  0.16175970476E+03  0.25500000920E-02 0.  1.
        2   -1    0    0  501    0  0.00000000000E+00  0.00000000000E+00 -0.15432336507E+04  0.15432336507E+04  0.25500000920E-02 0. -1.
    10030    2    1    2    0    0  0.00000000000E+00  0.00000000000E+00 -0.13814739460E+04  0.17049933555E+04  0.99926576986E+03 0.  0.
        3    1    3    3  502    0 -0.40684139943E+03 -0.21496269119E+03 -0.35854821793E+03  0.58334013892E+03  0.10100000352E+00 0.  1.
       -3    1    3    3    0  502  0.40684139943E+03  0.21496269119E+03 -0.10229257280E+04  0.11216532166E+04  0.10100000352E+00 0. -1.
</event>
<event>
 5   0  0.1453863E-04  0.9998614E+03  0.7818609E-02  0.9308697E-01
        1   -1    0    0  501    0  0.00000000000E+00  0.00000000000E+00  0.77156597641E+03  0.77156597643E+03  0.50400001928E-02 0. -1.
       -1   -1    0    0    0  501  0.00000000000E+00  0.00000000000E+00 -0.32392654001E+03  0.32392654005E+03  0.50400001928E-02 0.  1.
    10030    2    1    2    0    0  0.00000000000E+00  0.00000000000E+00  0.44763943640E+03  0.10954925165E+04  0.99986138471E+03 0.  0.
        1    1    3    3  502    0 -0.22478985638E+03 -0.27420087656E+02 -0.26450882200E+03  0.34820576916E+03  0.50400001928E-02 0.  1.
       -1    1    3    3    0  502  0.22478985638E+03  0.27420087656E+02  0.71214825840E+03  0.74728674731E+03  0.50400001928E-02 0. -1.
</event>
<event>
 5   0  0.1461334E-04  0.9999917E+03  0.7818609E-02  0.9308554E-01
       -1   -1    0    0    0  501  0.00000000000E+00  0.00000000000E+00  0.14455595404E+03  0.14455595413E+03  0.50400001928E-02 0. -1.
        1   -1    0    0  501    0  0.00000000000E+00  0.00000000000E+00 -0.17294053705E+04  0.17294053705E+04  0.50400001928E-02 0.  1.
    10030    2    1    2    0    0  0.00000000000E+00  0.00000000000E+00 -0.15848494165E+04  0.18739613246E+04  0.99999168666E+03 0.  0.
        2    1    3    3  502    0  0.48972313686E+03  0.96693609250E+02 -0.84600335968E+03  0.98229328077E+03  0.25500000920E-02 0.  1.
       -2    1    3    3    0  502 -0.48972313686E+03 -0.96693609250E+02 -0.73884605677E+03  0.89166804387E+03  0.25500000920E-02 0. -1.
</event>
<event>
 5   0  0.1461334E-04  0.1000294E+04  0.7818609E-02  0.9308222E-01
       -1   -1    0    0    0  501  0.00000000000E+00  0.00000000000E+00  0.19734239181E+03  0.19734239187E+03  0.50400001928E-02 0. -1.
        1   -1    0    0  501    0  0.00000000000E+00  0.00000000000E+00 -0.12675796035E+04  0.12675796035E+04  0.50400001928E-02 0.  1.
    10030    2    1    2    0    0  0.00000000000E+00  0.00000000000E+00 -0.10702372117E+04  0.14649219954E+04  0.10002943383E+04 0.  0.
        2    1    3    3  502    0 -0.42606604919E+02 -0.25639466629E+03  0.90672686864E+02  0.27527274444E+03  0.25500000920E-02 0. -1.
       -2    1    3    3    0  502  0.42606604919E+02  0.25639466629E+03 -0.11609098986E+04  0.11896492509E+04  0.25500000920E-02 0.  1.
</event>
<event>
 5   0  0.2353916E-04  0.9996574E+03  0.7818609E-02  0.9308921E-01
        2   -1    0    0  501    0  0.00000000000E+00  0.00000000000E+00  0.14919805765E+04  0.14919805765E+04  0.25500000920E-02 0. -1.
       -2   -1    0    0    0  501  0.00000000000E+00  0.00000000000E+00 -0.16744770009E+03  0.16744770011E+03  0.25500000920E-02 0.  1.
    10030    2    1    2    0    0  0.00000000000E+00  0.00000000000E+00  0.13245328764E+04  0.16594282766E+04  0.99965737358E+03 0.  0.
        4    1    3    3  502    0  0.98965734264E+02 -0.28858817889E+03  0.13194863919E+04  0.13542980856E+04  0.12699999809E+01 0. -1.
       -4    1    3    3    0  502 -0.98965734264E+02  0.28858817889E+03  0.50464845718E+01  0.30513019100E+03  0.12699999809E+01 0.  1.
</event>
<event>
 5   0  0.1414165E-04  0.1000587E+04  0.7818609E-02  0.9307901E-01
       -1   -1    0    0    0  501  0.00000000000E+00  0.00000000000E+00  0.17073482798E+03  0.17073482805E+03  0.50400001928E-02 0.  1.
        1   -1    0    0  501    0  0.00000000000E+00  0.00000000000E+00 -0.14659785553E+04  0.14659785553E+04  0.50400001928E-02 0. -1.
    10030    2    1    2    0    0  0.00000000000E+00  0.00000000000E+00 -0.12952437274E+04  0.16367133834E+04  0.10005870208E+04 0.  0.
        4    1    3    3  502    0 -0.18842327531E+02  0.48655044872E+03 -0.45964819337E+03  0.66960021433E+03  0.12699999809E+01 0. -1.
       -4    1    3    3    0  502  0.18842327531E+02 -0.48655044872E+03 -0.83559553398E+03  0.96711316906E+03  0.12699999809E+01 0.  1.
</event>
<event>
 5   0  0.1414165E-04  0.9990195E+03  0.7818609E-02  0.9309621E-01
        1   -1    0    0  501    0  0.00000000000E+00  0.00000000000E+00  0.32270026514E+03  0.32270026518E+03  0.50400001928E-02 0. -1.
       -1   -1    0    0    0  501  0.00000000000E+00  0.00000000000E+00 -0.77319424910E+03  0.77319424912E+03  0.50400001928E-02 0.  1.
    10030    2    1    2    0    0  0.00000000000E+00  0.00000000000E+00 -0.45049398396E+03  0.10958945143E+04  0.99901949774E+03 0.  0.
        4    1    3    3  502    0 -0.16624187771E+03 -0.47305061256E+02 -0.73934369296E+03  0.75927915812E+03  0.12699999809E+01 0.  1.
       -4    1    3    3    0  502  0.16624187771E+03  0.47305061256E+02  0.28884970900E+03  0.33661535618E+03  0.12699999809E+01 0. -1.
</event>
<event>
 5   0  0.2473312E-04  0.1000093E+04  0.7818609E-02  0.9308443E-01
        2   -1    0    0  501    0  0.00000000000E+00  0.00000000000E+00  0.15314894362E+04  0.15314894362E+04  0.25500000920E-02 0.  1.
       -2   -1    0    0    0  501  0.00000000000E+00  0.00000000000E+00 -0.16327002225E+03  0.16327002227E+03  0.25500000920E-02 0. -1.
    10030    2    1    2    0    0  0.00000000000E+00  0.00000000000E+00  0.13682194139E+04  0.16947594584E+04  0.10000926244E+04 0.  0.
        5    1    3    3  502    0 -0.87930638457E+02  0.62837712196E+02  0.15114226453E+04  0.15152890410E+04  0.46999998093E+01 0.  1.
       -5    1    3    3    0  502  0.87930638457E+02 -0.62837712196E+02 -0.14320323135E+03  0.17947041740E+03  0.46999998093E+01 0. -1.
</event>
<event>
 5   0  0.2403037E-04  0.9987549E+03  0.7818609E-02  0.9309911E-01
        2   -1    0    0  501    0  0.00000000000E+00  0.00000000000E+00  0.17090102945E+04  0.17090102945E+04  0.25500000920E-02 0. -1.
       -2   -1    0    0    0  501  0.00000000000E+00  0.00000000000E+00 -0.14591943919E+03  0.14591943921E+03  0.25500000920E-02 0.  1.
    10030    2    1    2    0    0  0.00000000000E+00  0.00000000000E+00  0.15630908553E+04  0.18549297337E+04  0.99875487235E+03 0.  0.
        1    1    3    3  502    0  0.42002509309E+02 -0.91381679225E+02 -0.12691565047E+03  0.16193333334E+03  0.50400001928E-02 0.  1.
       -1    1    3    3    0  502 -0.42002509309E+02  0.91381679225E+02  0.16900065058E+04  0.16929964004E+04  0.50400001928E-02 0. -1.
</event>
<event>
 5   0  0.2403037E-04  0.9996666E+03  0.7818609E-02  0.9308911E-01
        2   -1    0    0  501    0  0.00000000000E+00  0.00000000000E+00  0.88658323438E+03  0.88658323438E+03  0.25500000920E-02 0.  1.
       -2   -1    0    0    0  501  0.00000000000E+00  0.00000000000E+00 -0.28179341917E+03  0.28179341918E+03  0.25500000920E-02 0. -1.
    10030    2    1    2    0    0  0.00000000000E+00  0.00000000000E+00  0.60478981520E+03  0.11683766536E+04  0.99966658643E+03 0.  0.
        1    1    3    3  502    0 -0.37633549668E+03 -0.31156474753E+03  0.42571123830E+03  0.64802087652E+03  0.50400001928E-02 0.  1.
       -1    1    3    3    0  502  0.37633549668E+03  0.31156474753E+03  0.17907857690E+03  0.52035577704E+03  0.50400001928E-02 0. -1.
</event>
<event>
 5   0  0.9650500E-05  0.1000141E+04  0.7818609E-02  0.9308391E-01
        3   -1    0    0  501    0  0.00000000000E+00  0.00000000000E+00  0.18837427880E+04  0.18837427908E+04  0.10100000352E+00 0.  1.
       -3   -1    0    0    0  501  0.00000000000E+00  0.00000000000E+00 -0.13275180080E+03  0.13275183922E+03  0.10100000352E+00 0. -1.
    10030    2    1    2    0    0  0.00000000000E+00  0.00000000000E+00  0.17509909872E+04  0.20164946300E+04  0.10001405678E+04 0.  0.
        5    1    3    3  502    0 -0.30819227621E+02 -0.31436812664E+03  0.16570759550E+04  0.16869202573E+04  0.46999998093E+01 0.  1.
       -5    1    3    3    0  502  0.30819227621E+02  0.31436812664E+03  0.93915032230E+02  0.32957437267E+03  0.46999998093E+01 0. -1.
</event>
<event>
 5   0  0.1506454E-04  0.9998373E+03  0.7818609E-02  0.9308723E-01
       -1   -1    0    0    0  501  0.00000000000E+00  0.00000000000E+00  0.36193457041E+03  0.36193457044E+03  0.50400001928E-02 0. -1.
        1   -1    0    0  501    0  0.00000000000E+00  0.00000000000E+00 -0.69050780958E+03  0.69050780960E+03  0.50400001928E-02 0.  1.
    10030    2    1    2    0    0  0.00000000000E+00  0.00000000000E+00 -0.32857323917E+03  0.10524423800E+04  0.99983728166E+03 0.  0.
        3    1    3    3  502    0 -0.10297432261E+03 -0.36223671626E+03  0.18179682050E+03  0.41817370059E+03  0.10100000352E+00 0. -1.
       -3    1    3    3    0  502  0.10297432261E+03  0.36223671626E+03 -0.51037005967E+03  0.63426867945E+03  0.10100000352E+00 0.  1.
</event>
<event>
 5   0  0.2473312E-04  0.9998128E+03  0.7818609E-02  0.9308750E-01
        2   -1    0    0  501    0  0.00000000000E+00  0.00000000000E+00  0.16490022058E+04  0.16490022058E+04  0.25500000920E-02 0.  1.
       -2   -1    0    0    0  501  0.00000000000E+00  0.00000000000E+00 -0.15155007473E+03  0.15155007475E+03  0.25500000920E-02 0. -1.
    10030    2    1    2    0    0  0.00000000000E+00  0.00000000000E+00  0.14974521311E+04  0.18005522806E+04  0.99981279755E+03 0.  0.
        5    1    3    3  502    0 -0.25200093829E+03 -0.28459165158E+03  0.13333565605E+04  0.13864915032E+04  0.46999998093E+01 0.  1.
       -5    1    3    3    0  502  0.25200093829E+03  0.28459165158E+03  0.16409557058E+03  0.41406077734E+03  0.46999998093E+01 0. -1.
</event>
<event>
 5   0  0.2503680E-04  0.1000256E+04  0.7818609E-02  0.9308265E-01
       -2   -1    0    0    0  501  0.00000000000E+00  0.00000000000E+00  0.13792442069E+03  0.13792442072E+03  0.25500000920E-02 0.  1.
        2   -1    0    0  501    0  0.00000000000E+00  0.00000000000E+00 -0.18135133470E+04  0.18135133470E+04  0.25500000920E-02 0. -1.
    10030    2    1    2    0    0  0.00000000000E+00  0.00000000000E+00 -0.16755889263E+04  0.19514377677E+04  0.10002555230E+04 0.  0.
        2    1    3    3  502    0  0.25727560024E+03  0.63070549519E+02 -0.16654139606E+04  0.16863488041E+04  0.25500000920E-02 0.  1.
       -2    1    3    3    0  502 -0.25727560024E+03 -0.63070549519E+02 -0.10174965626E+02  0.26508896361E+03  0.25500000920E-02 0. -1.
</event>
<event>
 5   0  0.1430675E-04  0.9998974E+03  0.7818609E-02  0.9308657E-01
        1   -1    0    0  501    0  0.00000000000E+00  0.00000000000E+00  0.16066063760E+03  0.16066063768E+03  0.50400001928E-02 0.  1.
       -1   -1    0    0    0  501  0.00000000000E+00  0.00000000000E+00 -0.15557556254E+04  0.15557556254E+04  0.50400001928E-02 0. -1.
    10030    2    1    2    0    0  0.00000000000E+00  0.00000000000E+00 -0.13950949877E+04  0.17164162630E+04  0.99989737633E+03 0.  0.
        5    1    3    3  502    0  0.10462832895E+03 -0.44046169303E+02  0.13820466298E+03  0.17891274722E+03  0.46999998093E+01 0.  1.
       -5    1    3    3    0  502 -0.10462832895E+03  0.44046169303E+02 -0.15332996507E+04  0.15375035158E+04  0.46999998093E+01 0. -1.
</event>
<event>
 5   0  0.2403037E-04  0.1000052E+04  0.7818609E-02  0.9308487E-01
       -2   -1    0    0    0  501  0.00000000000E+00  0.00000000000E+00  0.26583691317E+03  0.26583691318E+03  0.25500000920E-02 0. -1.
        2   -1    0    0  501    0  0.00000000000E+00  0.00000000000E+00 -0.94052452996E+03  0.94052452996E+03  0.25500000920E-02 0.  1.
    10030    2    1    2    0    0  0.00000000000E+00  0.00000000000E+00 -0.67468761679E+03  0.12063614431E+04  0.10000522743E+04 0.  0.
        1    1    3    3  502    0 -0.18463946053E+03 -0.44489977539E+03 -0.17550820330E+03  0.51267013759E+03  0.50400001928E-02 0. -1.
       -1    1    3    3    0  502  0.18463946053E+03  0.44489977539E+03 -0.49917941348E+03  0.69369130555E+03  0.50400001928E-02 0.  1.
</event>
<event>
 5   0  0.2353916E-04  0.1000547E+04  0.7818609E-02  0.9307946E-01
        2   -1    0    0  501    0  0.00000000000E+00  0.00000000000E+00  0.47020898237E+03  0.47020898237E+03  0.25500000920E-02 0.  1.
       -2   -1    0    0    0  501  0.00000000000E+00  0.00000000000E+00 -0.53225978087E+03  0.53225978087E+03  0.25500000920E-02 0. -1.
    10030    2    1    2    0    0  0.00000000000E+00  0.00000000000E+00 -0.62050798500E+02  0.10024687632E+04  0.10005465105E+04 0.  0.
        4    1    3    3  502    0 -0.30528990278E+02 -0.11982837242E+03  0.45465414326E+03  0.47117179560E+03  0.12699999809E+01 0.  1.
       -4    1    3    3    0  502  0.30528990278E+02  0.11982837242E+03 -0.51670494176E+03  0.53129696764E+03  0.12699999809E+01 0. -1.
</event>
<event>
 5   0  0.2403037E-04  0.1001443E+04  0.7818609E-02  0.9306964E-01
       -2   -1    0    0    0  501  0.00000000000E+00  0.00000000000E+00  0.39707301209E+03  0.39707301210E+03  0.25500000920E-02 0.  1.
        2   -1    0    0  501    0  0.00000000000E+00  0.00000000000E+00 -0.63142541212E+03  0.63142541212E+03  0.25500000920E-02 0. -1.
    10030    2    1    2    0    0  0.00000000000E+00  0.00000000000E+00 -0.23435240003E+03  0.10284984242E+04  0.10014429396E+04 0.  0.
        1    1    3    3  502    0  0.23202582809E+03  0.43954064959E+03 -0.17956288977E+03  0.52846456736E+03  0.50400001928E-02 0. -1.
       -1    1    3    3    0  502 -0.23202582809E+03 -0.43954064959E+03 -0.54789510261E+02  0.50003385686E+03  0.50400001928E-02 0.  1.
</event>
<event>
 5   0  0.2503680E-04  0.1000200E+04  0.7818609E-02  0.9308325E-01
        2   -1    0    0  501    0  0.00000000000E+00  0.00000000000E+00  0.17368851048E+04  0.17368851048E+04  0.25500000920E-02 0. -1.
       -2   -1    0    0    0  501  0.00000000000E+00  0.00000000000E+00 -0.14399345525E+03  0.14399345528E+03  0.25500000920E-02 0.  1.
    10030    2    1    2    0    0  0.00000000000E+00  0.00000000000E+00  0.15928916495E+04  0.18808785600E+04  0.10002001552E+04 0.  0.
        2    1    3    3  502    0  0.61293575719E+02  0.45659604502E+03  0.43052872286E+03  0.63054883393E+03  0.25500000920E-02 0.  1.
       -2    1    3    3    0  502 -0.61293575719E+02 -0.45659604502E+03  0.11623629266E+04  0.12503297261E+04  0.25500000920E-02 0. -1.
</event>
<event>
 5   0  0.1461334E-04  0.9997681E+03  0.7818609E-02  0.9308799E-01
        1   -1    0    0  501    0  0.00000000000E+00  0.00000000000E+00  0.33636394161E+03  0.33636394165E+03  0.50400001928E-02 0. -1.
       -1   -1    0    0    0  501  0.00000000000E+00  0.00000000000E+00 -0.74289788941E+03  0.74289788942E+03  0.50400001928E-02 0.  1.
    10030    2    1    2    0    0  0.00000000000E+00  0.00000000000E+00 -0.40653394779E+03  0.10792618311E+04  0.99976809776E+03 0.  0.
        2    1    3    3  502    0 -0.23142500261E+03  0.25424382344E+03 -0.59500736314E+03  0.68719081469E+03  0.25500000920E-02 0.  1.
       -2    1    3    3    0  502  0.23142500261E+03 -0.25424382344E+03  0.18847341535E+03  0.39207101639E+03  0.25500000920E-02 0. -1.
</event>
<event>
 5   0  0.1461334E-04  0.1002255E+04  0.7818609E-02  0.9306075E-01
       -1   -1    0    0    0  501  0.00000000000E+00  0.00000000000E+00  0.30968779456E+03  0.30968779460E+03  0.50400001928E-02 0.  1.
        1   -1    0    0  501    0  0.00000000000E+00  0.00000000000E+00 -0.81090943085E+03  0.81090943087E+03  0.50400001928E-02 0. -1.
    10030    2    1    2    0    0  0.00000000000E+00  0.00000000000E+00 -0.50122163630E+03  0.11205972255E+04  0.10022549641E+04 0.  0.
        2    1    3    3  502    0  0.16546170566E+03  0.52637869511E+01 -0.77945423193E+03  0.79684012397E+03  0.25500000920E-02 0. -1.
       -2    1    3    3    0  502 -0.16546170566E+03 -0.52637869511E+01  0.27823259563E+03  0.32375710150E+03  0.25500000920E-02 0.  1.
</event>
<event>
 5   0  0.2403037E-04  0.9995242E+03  0.7818609E-02  0.9309067E-01
        2   -1    0    0  501    0  0.00000000000E+00  0.00000000000E+00  0.14665817383E+04  0.14665817383E+04  0.25500000920E-02 0. -1.
       -2   -1    0    0    0  501  0.00000000000E+00  0.00000000000E+00 -0.17030225751E+03  0.17030225753E+03  0.25500000920E-02 0.  1.
    10030    2    1    2    0    0  0.00000000000E+00  0.00000000000E+00  0.12962794808E+04  0.16368839958E+04  0.99952424857E+03 0.  0.
        1    1    3    3  502    0 -0.13740353384E+03 -0.29822484296E+03  0.31141836594E+02  0.32982965616E+03  0.50400001928E-02 0.  1.
       -1    1    3    3    0  502  0.13740353384E+03  0.29822484296E+03  0.12651376442E+04  0.13070543397E+04  0.50400001928E-02 0. -1.
</event>
<event>
 5   0  0.1453863E-04  0.1000238E+04  0.7818609E-02  0.9308284E-01
       -1   -1    0    0    0  501  0.00000000000E+00  0.00000000000E+00  0.12975111614E+04  0.12975111614E+04  0.50400001928E-02 0. -1.
        1   -1    0    0  501    0  0.00000000000E+00  0.00000000000E+00 -0.19276815822E+03  0.19276815829E+03  0.50400001928E-02 0.  1.
    10030    2    1    2    0    0  0.00000000000E+00  0.00000000000E+00  0.11047430032E+04  0.14902793197E+04  0.10002376456E+04 0.  0.
        1    1    3    3  502    0 -0.13612655265E+03 -0.28242541325E+03  0.11329154476E+04  0.11754964755E+04  0.50400001928E-02 0. -1.
       -1    1    3    3    0  502  0.13612655265E+03  0.28242541325E+03 -0.28172444405E+02  0.31478284425E+03  0.50400001928E-02 0.  1.
</event>
<event>
 5   0  0.1430675E-04  0.9999335E+03  0.7818609E-02  0.9308618E-01
       -1   -1    0    0    0  501  0.00000000000E+00  0.00000000000E+00  0.42390385434E+03  0.42390385437E+03  0.50400001928E-02 0.  1.
        1   -1    0    0  501    0  0.00000000000E+00  0.00000000000E+00 -0.58967792672E+03  0.58967792674E+03  0.50400001928E-02 0. -1.
    10030    2    1    2    0    0  0.00000000000E+00  0.00000000000E+00 -0.16577407238E+03  0.10135817811E+04  0.99993348975E+03 0.  0.
        5    1    3    3  502    0  0.49141912770E+03 -0.63441563374E+02 -0.15442677671E+02  0.49576018126E+03  0.46999998093E+01 0.  1.
       -5    1    3    3    0  502 -0.49141912770E+03  0.63441563374E+02 -0.15033139471E+03  0.51782159985E+03  0.46999998093E+01 0. -1.
</event>
<event>
 5   0  0.2403037E-04  0.9995970E+03  0.7818609E-02  0.9308987E-01
        2   -1    0    0  501    0  0.00000000000E+00  0.00000000000E+00  0.27639464157E+04  0.27639464157E+04  0.25500000920E-02 0. -1.
       -2   -1    0    0    0  501  0.00000000000E+00  0.00000000000E+00 -0.90377491903E+02  0.90377491939E+02  0.25500000920E-02 0.  1.
    10030    2    1    2    0    0  0.00000000000E+00  0.00000000000E+00  0.26735689238E+04  0.28543239076E+04  0.99959700852E+03 0.  0.
        1    1    3    3  502    0 -0.46927451232E+03  0.12087152778E+03  0.16861579476E+04  0.17544107611E+04  0.50400001928E-02 0. -1.
       -1    1    3    3    0  502  0.46927451232E+03 -0.12087152778E+03  0.98741097616E+03  0.10999131466E+04  0.50400001928E-02 0.  1.
</event>
<event>
 5   0  0.1414165E-04  0.9989082E+03  0.7818609E-02  0.9309743E-01
       -1   -1    0    0    0  501  0.00000000000E+00  0.00000000000E+00  0.39880183185E+03  0.39880183188E+03  0.50400001928E-02 0.  1.
        1   -1    0    0  501    0  0.00000000000E+00  0.00000000000E+00 -0.62550967362E+03  0.62550967364E+03  0.50400001928E-02 0. -1.
    10030    2    1    2    0    0  0.00000000000E+00  0.00000000000E+00 -0.22670784177E+03  0.10243115055E+04  0.99890821141E+03 0.  0.
        4    1    3    3  502    0  0.37839778462E+03 -0.30643407025E+03 -0.22738475016E+03  0.53739385958E+03  0.12699999809E+01 0.  1.
       -4    1    3    3    0  502 -0.37839778462E+03  0.30643407025E+03  0.67690839109E+00  0.48691764593E+03  0.12699999809E+01 0. -1.
</event>
<event>
 5   0  0.2503680E-04  0.1000561E+04  0.7818609E-02  0.9307930E-01
       -2   -1    0    0    0  501  0.00000000000E+00  0.00000000000E+00  0.19696579519E+03  0.19696579521E+03  0.25500000920E-02 0.  1.
        2   -1    0    0  501    0  0.00000000000E+00  0.00000000000E+00 -0.12706796153E+04  0.12706796153E+04  0.25500000920E-02 0. -1.
    10030    2    1    2    0    0  0.00000000000E+00  0.00000000000E+00 -0.10737138201E+04  0.14676454105E+04  0.10005606846E+04 0.  0.
        2    1    3    3  502    0  0.23834304288E+03 -0.43382936838E+03 -0.64329100404E+03  0.81168875984E+03  0.25500000920E-02 0.  1.
       -2    1    3    3    0  502 -0.23834304288E+03  0.43382936838E+03 -0.43042281605E+03  0.65595665066E+03  0.25500000920E-02 0. -1.
</event>
<event>
 5   0  0.1414165E-04  0.9989524E+03  0.7818609E-02  0.9309695E-01
        1   -1    0    0  501    0  0.00000000000E+00  0.00000000000E+00  0.82930196123E+03  0.82930196125E+03  0.50400001928E-02 0.  1.
       -1   -1    0    0    0  501  0.00000000000E+00  0.00000000000E+00 -0.30082706605E+03  0.30082706609E+03  0.50400001928E-02 0. -1.
    10030    2    1    2    0    0  0.00000000000E+00  0.00000000000E+00  0.52847489518E+03  0.11301290273E+04  0.99895240307E+03 0.  0.
        4    1    3    3  502    0 -0.11369681630E+03  0.42238877883E+03 -0.85374334337E+01  0.43750856813E+03  0.12699999809E+01 0. -1.
       -4    1    3    3    0  502  0.11369681630E+03 -0.42238877883E+03  0.53701232861E+03  0.69262045920E+03  0.12699999809E+01 0.  1.
</event>
<event>
 5   0  0.1453863E-04  0.9995665E+03  0.7818609E-02  0.9309020E-01
        1   -1    0    0  501    0  0.00000000000E+00  0.00000000000E+00  0.36363768328E+03  0.36363768331E+03  0.50400001928E-02 0. -1.
       -1   -1    0    0    0  501  0.00000000000E+00  0.00000000000E+00 -0.68690151746E+03  0.68690151748E+03  0.50400001928E-02 0.  1.
    10030    2    1    2    0    0  0.00000000000E+00  0.00000000000E+00 -0.32326383419E+03  0.10505392008E+04  0.99956645898E+03 0.  0.
        1    1    3    3  502    0 -0.62657979980E+02  0.34453382438E+01 -0.68274456841E+03  0.68562237313E+03  0.50400001928E-02 0.  1.
       -1    1    3    3    0  502  0.62657979980E+02 -0.34453382438E+01  0.35948073422E+03  0.36491682767E+03  0.50400001928E-02 0. -1.
</event>
<event>
 5   0  0.2473312E-04  0.9999860E+03  0.7818609E-02  0.9308560E-01
        2   -1    0    0  501    0  0.00000000000E+00  0.00000000000E+00  0.43666155931E+03  0.43666155932E+03  0.25500000920E-02 0. -1.
       -2   -1    0    0    0  501  0.00000000000E+00  0.00000000000E+00 -0.57250980526E+03  0.57250980526E+03  0.25500000920E-02 0.  1.
    10030    2    1    2    0    0  0.00000000000E+00  0.00000000000E+00 -0.13584824594E+03  0.10091713646E+04  0.99998604848E+03 0.  0.
        5    1    3    3  502    0 -0.20537921179E+03 -0.44520965378E+03 -0.16669382905E+03  0.51788143343E+03  0.46999998093E+01 0.  1.
       -5    1    3    3    0  502  0.20537921179E+03  0.44520965378E+03  0.30845583102E+02  0.49128993115E+03  0.46999998093E+01 0. -1.
</event>
<event>
 5   0  0.1506454E-04  0.1000982E+04  0.7818609E-02  0.9307469E-01
       -1   -1    0    0    0  501  0.00000000000E+00  0.00000000000E+00  0.45517326765E+03  0.45517326768E+03  0.50400001928E-02 0. -1.
        1   -1    0    0  501    0  0.00000000000E+00  0.00000000000E+00 -0.55032010505E+03  0.55032010508E+03  0.50400001928E-02 0.  1.
    10030    2    1    2    0    0  0.00000000000E+00  0.00000000000E+00 -0.95146837402E+02  0.10054933728E+04  0.10009815193E+04 0.  0.
        3    1    3    3  502    0 -0.12535597395E+03 -0.35110650657E+03  0.28784948312E+03  0.47100661810E+03  0.10100000352E+00 0. -1.
       -3    1    3    3    0  502  0.12535597395E+03  0.35110650657E+03 -0.38299632052E+03  0.53448675465E+03  0.10100000352E+00 0.  1.
</event>
<event>
 5   0  0.1506454E-04  0.1000094E+04  0.7818609E-02  0.9308442E-01
        1   -1    0    0  501    0  0.00000000000E+00  0.00000000000E+00  0.23767423228E+03  0.23767423234E+03  0.50400001928E-02 0. -1.
       -1   -1    0    0    0  501  0.00000000000E+00  0.00000000000E+00 -0.10520575211E+04  0.10520575211E+04  0.50400001928E-02 0.  1.
    10030    2    1    2    0    0  0.00000000000E+00  0.00000000000E+00 -0.81438328880E+03  0.12897317534E+04  0.10000939230E+04 0.  0.
        3    1    3    3  502    0 -0.18973750821E+03  0.25020914555E+02  0.18857578599E+03  0.26867676760E+03  0.10100000352E+00 0. -1.
       -3    1    3    3    0  502  0.18973750821E+03 -0.25020914555E+02 -0.10029590748E+04  0.10210549858E+04  0.10100000352E+00 0.  1.
</event>
<event>
 5   0  0.2503680E-04  0.9996049E+03  0.7818609E-02  0.9308978E-01
        2   -1    0    0  501    0  0.00000000000E+00  0.00000000000E+00  0.40959072651E+03  0.40959072652E+03  0.25500000920E-02 0. -1.
       -2   -1    0    0    0  501  0.00000000000E+00  0.00000000000E+00 -0.60988316014E+03  0.60988316014E+03  0.25500000920E-02 0.  1.
    10030    2    1    2    0    0  0.00000000000E+00  0.00000000000E+00 -0.20029243363E+03  0.10194738867E+04  0.99960489526E+03 0.  0.
        2    1    3    3  502    0  0.15267691580E+02  0.49949381519E+03 -0.91295422976E+02  0.50799805913E+03  0.25500000920E-02 0. -1.
       -2    1    3    3    0  502 -0.15267691580E+02 -0.49949381519E+03 -0.10899701065E+03  0.51147582754E+03  0.25500000920E-02 0.  1.
</event>
<event>
 5   0  0.2353916E-04  0.9998499E+03  0.7818609E-02  0.9308709E-01
        2   -1    0    0  501    0  0.00000000000E+00  0.00000000000E+00  0.41537272041E+03  0.41537272042E+03  0.25500000920E-02 0.  1.
       -2   -1    0    0    0  501  0.00000000000E+00  0.00000000000E+00 -0.60168837746E+03  0.60168837746E+03  0.25500000920E-02 0. -1.
    10030    2    1    2    0    0  0.00000000000E+00  0.00000000000E+00 -0.18631565704E+03  0.10170610979E+04  0.99984986511E+03 0.  0.
        4    1    3    3  502    0 -0.49616169921E+02 -0.40520470486E+03  0.20037614911E+03  0.45475799189E+03  0.12699999809E+01 0.  1.
       -4    1    3    3    0  502  0.49616169921E+02  0.40520470486E+03 -0.38669180616E+03  0.56230310599E+03  0.12699999809E+01 0. -1.
</event>
<event>
 5   0  0.1506454E-04  0.9998476E+03  0.7818609E-02  0.9308712E-01
       -1   -1    0    0    0  501  0.00000000000E+00  0.00000000000E+00  0.16632875701E+03  0.16632875709E+03  0.50400001928E-02 0. -1.
        1   -1    0    0  501    0  0.00000000000E+00  0.00000000000E+00 -0.15025894157E+04  0.15025894157E+04  0.50400001928E-02 0.  1.
    10030    2    1    2    0    0  0.00000000000E+00  0.00000000000E+00 -0.13362606587E+04  0.16689181728E+04  0.99984764816E+03 0.  0.
        3    1    3    3  502    0 -0.13320763618E+03 -0.19874253491E+03 -0.14008209026E+04  0.14211059358E+04  0.10100000352E+00 0.  1.
       -3    1    3    3    0  502  0.13320763618E+03  0.19874253491E+03  0.64560243867E+02  0.24781223700E+03  0.10100000352E+00 0. -1.
</event>
<event>
 5   0  0.2503680E-04  0.9993653E+03  0.7818609E-02  0.9309241E-01
        2   -1    0    0  501    0  0.00000000000E+00  0.00000000000E+00  0.90899874317E+03  0.90899874317E+03  0.25500000920E-02 0. -1.
       -2   -1    0    0    0  501  0.00000000000E+00  0.00000000000E+00 -0.27467887662E+03  0.27467887664E+03  0.25500000920E-02 0.  1.
    10030    2    1    2    0    0  0.00000000000E+00  0.00000000000E+00  0.63431986654E+03  0.11836776198E+04  0.99936530585E+03 0.  0.
        2    1    3    3  502    0  0.99942520994E+00  0.22923325798E+02  0.90837444219E+03  0.90866418712E+03  0.25500000920E-02 0. -1.
       -2    1    3    3    0  502 -0.99942520994E+00 -0.22923325798E+02 -0.27405457565E+03  0.27501343269E+03  0.25500000920E-02 0.  1.
</event>
<event>
 5   0  0.2353916E-04  0.1000046E+04  0.7818609E-02  0.9308494E-01
        2   -1    0    0  501    0  0.00000000000E+00  0.00000000000E+00  0.16415906108E+04  0.16415906108E+04  0.25500000920E-02 0. -1.
       -2   -1    0    0    0  501  0.00000000000E+00  0.00000000000E+00 -0.15230542802E+03  0.15230542804E+03  0.25500000920E-02 0.  1.
    10030    2    1    2    0    0  0.00000000000E+00  0.00000000000E+00  0.14892851828E+04  0.17938960388E+04  0.10000463202E+04 0.  0.
        4    1    3    3  502    0 -0.39033554425E+03 -0.21223004900E+03  0.11561188720E+04  0.12385539512E+04  0.12699999809E+01 0. -1.
       -4    1    3    3    0  502  0.39033554425E+03  0.21223004900E+03  0.33316631074E+03  0.55534208765E+03  0.12699999809E+01 0.  1.
</event>
<event>
 5   0  0.2484904E-04  0.9998384E+03  0.7818609E-02  0.9308722E-01
        2   -1    0    0  501    0  0.00000000000E+00  0.00000000000E+00  0.11298285130E+04  0.11298285130E+04  0.25500000920E-02 0. -1.
       -2   -1    0    0    0  501  0.00000000000E+00  0.00000000000E+00 -0.22120098746E+03  0.22120098748E+03  0.25500000920E-02 0.  1.
    10030    2    1    2    0    0  0.00000000000E+00  0.00000000000E+00  0.90862752552E+03  0.13510295005E+04  0.99983835243E+03 0.  0.
        3    1    3    3  502    0  0.11694952855E+03  0.33332536621E+03  0.93231221251E+03  0.99699000184E+03  0.10100000352E+00 0. -1.
       -3    1    3    3    0  502 -0.11694952855E+03 -0.33332536621E+03 -0.23684686983E+02  0.35403949862E+03  0.10100000352E+00 0.  1.
</event>
<event>
 5   0  0.1506454E-04  0.1000035E+04  0.7818609E-02  0.9308507E-01
       -1   -1    0    0    0  501  0.00000000000E+00  0.00000000000E+00  0.42792408415E+03  0.42792408418E+03  0.50400001928E-02 0. -1.
        1   -1    0    0  501    0  0.00000000000E+00  0.00000000000E+00 -0.58425653914E+03  0.58425653916E+03  0.50400001928E-02 0.  1.
    10030    2    1    2    0    0  0.00000000000E+00  0.00000000000E+00 -0.15633245498E+03  0.10121806233E+04  0.10000348883E+04 0.  0.
        3    1    3    3  502    0 -0.32892021156E+03  0.93164469402E+02  0.29116185245E+03  0.44904716729E+03  0.10100000352E+00 0. -1.
       -3    1    3    3    0  502  0.32892021156E+03 -0.93164469402E+02 -0.44749430744E+03  0.56313345605E+03  0.10100000352E+00 0.  1.
</event>
<event>
 5   0  0.2503680E-04  0.9993586E+03  0.7818609E-02  0.9309249E-01
       -2   -1    0    0    0  501  0.00000000000E+00  0.00000000000E+00  0.18430878692E+03  0.18430878693E+03  0.25500000920E-02 0. -1.
        2   -1    0    0  501    0  0.00000000000E+00  0.00000000000E+00 -0.13546798538E+04  0.13546798538E+04  0.25500000920E-02 0.  1.
    10030    2    1    2    0    0  0.00000000000E+00  0.00000000000E+00 -0.11703710669E+04  0.15389886407E+04  0.99935859536E+03 0.  0.
        2    1    3    3  502    0  0.53414675145E+02 -0.49394904812E+03 -0.50310882458E+03  0.70707657226E+03  0.25500000920E-02 0.  1.
       -2    1    3    3    0  502 -0.53414675145E+02  0.49394904812E+03 -0.66726224230E+03  0.83191206847E+03  0.25500000920E-02 0. -1.
</event>
<event>
 5   0  0.1430675E-04  0.1000926E+04  0.7818609E-02  0.9307530E-01
       -1   -1    0    0    0  501  0.00000000000E+00  0.00000000000E+00  0.43143375875E+03  0.43143375878E+03  0.50400001928E-02 0. -1.
        1   -1    0    0  501    0  0.00000000000E+00  0.00000000000E+00 -0.58053661897E+03  0.58053661899E+03  0.50400001928E-02 0.  1.
    10030    2    1    2    0    0  0.00000000000E+00  0.00000000000E+00 -0.14910286022E+03  0.10119703778E+04  0.10009257628E+04 0.  0.
        5    1    3    3  502    0  0.16386912065E+03  0.26211866295E+03  0.32334131331E+03  0.44736000834E+03  0.46999998093E+01 0. -1.
       -5    1    3    3    0  502 -0.16386912065E+03 -0.26211866295E+03 -0.47244417353E+03  0.56461036943E+03  0.46999998093E+01 0.  1.
</event>
<event>
 5   0  0.1414165E-04  0.9973061E+03  0.7818609E-02  0.9311504E-01
        1   -1    0    0  501    0  0.00000000000E+00  0.00000000000E+00  0.23151561578E+04  0.23151561578E+04  0.50400001928E-02 0.  1.
       -1   -1    0    0    0  501  0.00000000000E+00  0.00000000000E+00 -0.10740306881E+03  0.10740306892E+03  0.50400001928E-02 0. -1.
    10030    2    1    2    0    0  0.00000000000E+00  0.00000000000E+00  0.22077530890E+04  0.24225592268E+04  0.99730612405E+03 0.  0.
        4    1    3    3  502    0 -0.28246494469E+03 -0.20362543978E+03  0.19709114759E+04  0.20014353408E+04  0.12699999809E+01 0.  1.
       -4    1    3    3    0  502  0.28246494469E+03  0.20362543978E+03  0.23684161310E+03  0.42112388593E+03  0.12699999809E+01 0. -1.
</event>
<event>
 5   0  0.2503680E-04  0.1000240E+04  0.7818609E-02  0.9308281E-01
       -2   -1    0    0    0  501  0.00000000000E+00  0.00000000000E+00  0.44821659100E+03  0.44821659100E+03  0.25500000920E-02 0. -1.
        2   -1    0    0  501    0  0.00000000000E+00  0.00000000000E+00 -0.55803395792E+03  0.55803395793E+03  0.25500000920E-02 0.  1.
    10030    2    1    2    0    0  0.00000000000E+00  0.00000000000E+00 -0.10981736693E+03  0.10062505489E+04  0.10002401277E+04 0.  0.
        2    1    3    3  502    0  0.14580796109E+03 -0.32745402042E+03  0.29594764769E+03  0.46483449440E+03  0.25500000920E-02 0. -1.
       -2    1    3    3    0  502 -0.14580796109E+03  0.32745402042E+03 -0.40576501462E+03  0.54141605453E+03  0.25500000920E-02 0.  1.
</event>
<event>
 5   0  0.1506454E-04  0.1000040E+04  0.7818609E-02  0.9308500E-01
        1   -1    0    0  501    0  0.00000000000E+00  0.00000000000E+00  0.41904527782E+03  0.41904527785E+03  0.50400001928E-02 0. -1.
       -1   -1    0    0    0  501  0.00000000000E+00  0.00000000000E+00 -0.59664252222E+03  0.59664252224E+03  0.50400001928E-02 0.  1.
    10030    2    1    2    0    0  0.00000000000E+00  0.00000000000E+00 -0.17759724440E+03  0.10156878001E+04  0.10000404622E+04 0.  0.
        3    1    3    3  502    0  0.51370441148E+02 -0.11424135753E+03 -0.58044948528E+03  0.59381110226E+03  0.10100000352E+00 0.  1.
       -3    1    3    3    0  502 -0.51370441148E+02  0.11424135753E+03  0.40285224089E+03  0.42187669784E+03  0.10100000352E+00 0. -1.
</event>
<event>
 5   0  0.1506454E-04  0.1000177E+04  0.7818609E-02  0.9308351E-01
        1   -1    0    0  501    0  0.00000000000E+00  0.00000000000E+00  0.52819335631E+03  0.52819335634E+03  0.50400001928E-02 0. -1.
       -1   -1    0    0    0  501  0.00000000000E+00  0.00000000000E+00 -0.47347861646E+03  0.47347861649E+03  0.50400001928E-02 0.  1.
    10030    2    1    2    0    0  0.00000000000E+00  0.00000000000E+00  0.54714739849E+02  0.10016719728E+04  0.10001765036E+04 0.  0.
        3    1    3    3  502    0 -0.29229768497E+03  0.17568077560E+03  0.39367274463E+03  0.52084538168E+03  0.10100000352E+00 0. -1.
       -3    1    3    3    0  502  0.29229768497E+03 -0.17568077560E+03 -0.33895800478E+03  0.48082659115E+03  0.10100000352E+00 0.  1.
</event>
<event>
 5   0  0.1506454E-04  0.9994267E+03  0.7818609E-02  0.9309174E-01
       -1   -1    0    0    0  501  0.00000000000E+00  0.00000000000E+00  0.17034670607E+03  0.17034670615E+03  0.50400001928E-02 0.  1.
        1   -1    0    0  501    0  0.00000000000E+00  0.00000000000E+00 -0.14659129517E+04  0.14659129517E+04  0.50400001928E-02 0. -1.
    10030    2    1    2    0    0  0.00000000000E+00  0.00000000000E+00 -0.12955662456E+04  0.16362596579E+04  0.99942672124E+03 0.  0.
        3    1    3    3  502    0  0.40825519302E+03 -0.27872133468E+03 -0.52797032607E+03  0.72326382492E+03  0.10100000352E+00 0. -1.
       -3    1    3    3    0  502 -0.40825519302E+03  0.27872133468E+03 -0.76759591957E+03  0.91299583295E+03  0.10100000352E+00 0.  1.
</event>
<event>
 5   0  0.1461334E-04  0.1003574E+04  0.7818609E-02  0.9304633E-01
       -1   -1    0    0    0  501  0.00000000000E+00  0.00000000000E+00  0.52342713909E+03  0.52342713912E+03  0.50400001928E-02 0.  1.
        1   -1    0    0  501    0  0.00000000000E+00  0.00000000000E+00 -0.48104199659E+03  0.48104199661E+03  0.50400001928E-02 0. -1.
    10030    2    1    2    0    0  0.00000000000E+00  0.00000000000E+00  0.42385142510E+02  0.10044691357E+04  0.10035744837E+04 0.  0.
        2    1    3    3  502    0  0.19712743975E+03  0.37241823945E+03 -0.25151291075E+03  0.49072733454E+03  0.25500000920E-02 0. -1.
       -2    1    3    3    0  502 -0.19712743975E+03 -0.37241823945E+03  0.29389805326E+03  0.51374180120E+03  0.25500000920E-02 0.  1.
</event>
<event>
 5   0  0.2473312E-04  0.9990337E+03  0.7818609E-02  0.9309605E-01
        2   -1    0    0  501    0  0.00000000000E+00  0.00000000000E+00  0.42288017340E+03  0.42288017340E+03  0.25500000920E-02 0.  1.
       -2   -1    0    0    0  501  0.00000000000E+00  0.00000000000E+00 -0.59004210407E+03  0.59004210408E+03  0.25500000920E-02 0. -1.
    10030    2    1    2    0    0  0.00000000000E+00  0.00000000000E+00 -0.16716193067E+03  0.10129222775E+04  0.99903374775E+03 0.  0.
        5    1    3    3  502    0 -0.47998420869E+03 -0.12845920611E+03 -0.31798369985E+02  0.49791548938E+03  0.46999998093E+01 0.  1.
       -5    1    3    3    0  502  0.47998420869E+03  0.12845920611E+03 -0.13536356069E+03  0.51500678810E+03  0.46999998093E+01 0. -1.
</event>
<event>
 5   0  0.1414165E-04  0.9996999E+03  0.7818609E-02  0.9308874E-01
        1   -1    0    0  501    0  0.00000000000E+00  0.00000000000E+00  0.46252174628E+03  0.46252174631E+03  0.50400001928E-02 0.  1.
       -1   -1    0    0    0  501  0.00000000000E+00  0.00000000000E+00 -0.54019074392E+03  0.54019074394E+03  0.50400001928E-02 0. -1.
    10030    2    1    2    0    0  0.00000000000E+00  0.00000000000E+00 -0.77668997637E+02  0.10027124902E+04  0.99969988742E+03 0.  0.
        4    1    3    3  502    0 -0.66059189383E+02  0.48839756624E+03 -0.12246654525E+03  0.50783429070E+03  0.12699999809E+01 0.  1.
       -4    1    3    3    0  502  0.66059189383E+02 -0.48839756624E+03  0.44797547610E+02  0.49487819954E+03  0.12699999809E+01 0. -1.
</event>
<event>
 5   0  0.1506454E-04  0.9971659E+03  0.7818609E-02  0.9311659E-01
       -1   -1    0    0    0  501  0.00000000000E+00  0.00000000000E+00  0.23213028922E+03  0.23213028928E+03  0.50400001928E-02 0. -1.
        1   -1    0    0  501    0  0.00000000000E+00  0.00000000000E+00 -0.10708854685E+04  0.10708854685E+04  0.50400001928E-02 0.  1.
    10030    2    1    2    0    0  0.00000000000E+00  0.00000000000E+00 -0.83875517924E+03  0.13030157578E+04  0.99716589104E+03 0.  0.
        3    1    3    3  502    0 -0.49774893184E+03 -0.25388265445E+02 -0.43721706715E+03  0.66299120445E+03  0.10100000352E+00 0.  1.
       -3    1    3    3    0  502  0.49774893184E+03  0.25388265445E+02 -0.40153811209E+03  0.64002455330E+03  0.10100000352E+00 0. -1.
</event>
<event>
 5   0  0.2503680E-04  0.1000289E+04  0.7818609E-02  0.9308227E-01
        2   -1    0    0  501    0  0.00000000000E+00  0.00000000000E+00  0.57511473637E+03  0.57511473638E+03  0.25500000920E-02 0.  1.
       -2   -1    0    0    0  501  0.00000000000E+00  0.00000000000E+00 -0.43494753508E+03  0.43494753508E+03  0.25500000920E-02 0. -1.
    10030    2    1    2    0    0  0.00000000000E+00  0.00000000000E+00  0.14016720130E+03  0.10100622715E+04  0.10002894321E+04 0.  0.
        2    1    3    3  502    0 -0.27865785908E+03 -0.37789382678E+02 -0.34755915251E+03  0.44707449533E+03  0.25500000920E-02 0. -1.
       -2    1    3    3    0  502  0.27865785908E+03  0.37789382678E+02  0.48772635381E+03  0.56298777613E+03  0.25500000920E-02 0.  1.
</event>
<event>
 5   0  0.9650500E-05  0.1000309E+04  0.7818609E-02  0.9308206E-01
        4   -1    0    0  501    0  0.00000000000E+00  0.00000000000E+00  0.15717469702E+03  0.15717982786E+03  0.12699999809E+01 0. -1.
       -4   -1    0    0    0  501  0.00000000000E+00  0.00000000000E+00 -0.15915375921E+04  0.15915380988E+04  0.12699999809E+01 0.  1.
    10030    2    1    2    0    0  0.00000000000E+00  0.00000000000E+00 -0.14343628950E+04  0.17487179266E+04  0.10003086885E+04 0.  0.
        1    1    3    3  502    0  0.37307570163E+03  0.19742977321E+03 -0.24812734951E+03  0.48962350443E+03  0.50400001928E-02 0. -1.
       -1    1    3    3    0  502 -0.37307570163E+03 -0.19742977321E+03 -0.11862355455E+04  0.12590944222E+04  0.50400001928E-02 0.  1.
</event>
<event>
 5   0  0.2473312E-04  0.9999396E+03  0.7818609E-02  0.9308611E-01
       -2   -1    0    0    0  501  0.00000000000E+00  0.00000000000E+00  0.47277005936E+03  0.47277005936E+03  0.25500000920E-02 0.  1.
        2   -1    0    0  501    0  0.00000000000E+00  0.00000000000E+00 -0.52873440609E+03  0.52873440610E+03  0.25500000920E-02 0. -1.
    10030    2    1    2    0    0  0.00000000000E+00  0.00000000000E+00 -0.55964346733E+02  0.10015044655E+04  0.99993959129E+03 0.  0.
        5    1    3    3  502    0  0.48512598669E+02  0.28754548869E+03 -0.43471106815E+03  0.52348035595E+03  0.46999998093E+01 0. -1.
       -5    1    3    3    0  502 -0.48512598669E+02 -0.28754548869E+03  0.37874672141E+03  0.47802410951E+03  0.46999998093E+01 0.  1.
</event>
<event>
 5   0  0.1453863E-04  0.1000125E+04  0.7818609E-02  0.9308408E-01
       -1   -1    0    0    0  501  0.00000000000E+00  0.00000000000E+00  0.18067651516E+03  0.18067651523E+03  0.50400001928E-02 0.  1.
        1   -1    0    0  501    0  0.00000000000E+00  0.00000000000E+00 -0.13840343332E+04  0.13840343333E+04  0.50400001928E-02 0. -1.
    10030    2    1    2    0    0  0.00000000000E+00  0.00000000000E+00 -0.12033578181E+04  0.15647108485E+04  0.10001249927E+04 0.  0.
        1    1    3    3  502    0 -0.23014573051E+03  0.29811519153E+03 -0.86996710658E+02  0.38653350746E+03  0.50400001928E-02 0.  1.
       -1    1    3    3    0  502  0.23014573051E+03 -0.29811519153E+03 -0.11163611074E+04  0.11781773410E+04  0.50400001928E-02 0. -1.
</event>
<event>
 5   0  0.2484904E-04  0.9995327E+03  0.7818609E-02  0.9309057E-01
       -2   -1    0    0    0  501  0.00000000000E+00  0.00000000000E+00  0.12087345358E+03  0.12087345361E+03  0.25500000920E-02 0. -1.
        2   -1    0    0  501    0  0.00000000000E+00  0.00000000000E+00 -0.20663463776E+04  0.20663463776E+04  0.25500000920E-02 0.  1.
    10030    2    1    2    0    0  0.00000000000E+00  0.00000000000E+00 -0.19454729240E+04  0.21872198312E+04  0.99953273680E+03 0.  0.
        3    1    3    3  502    0 -0.45966902032E+03 -0.17605841573E+03 -0.78355486089E+03  0.92533799458E+03  0.10100000352E+00 0. -1.
       -3    1    3    3    0  502  0.45966902032E+03  0.17605841573E+03 -0.11619180632E+04  0.12618818367E+04  0.10100000352E+00 0.  1.
</event>
<event>
 5   0  0.2473312E-04  0.9999206E+03  0.7818609E-02  0.9308632E-01
        2   -1    0    0  501    0  0.00000000000E+00  0.00000000000E+00  0.16445131996E+03  0.16445131998E+03  0.25500000920E-02 0. -1.
       -2   -1    0    0    0  501  0.00000000000E+00  0.00000000000E+00 -0.15199652112E+04  0.15199652112E+04  0.25500000920E-02 0.  1.
    10030    2    1    2    0    0  0.00000000000E+00  0.00000000000E+00 -0.13555138913E+04  0.16844165312E+04  0.99992056744E+03 0.  0.
        5    1    3    3  502    0 -0.12237893276E+03  0.17159603905E+03 -0.14414295768E+04  0.14567646065E+04  0.46999998093E+01 0.  1.
       -5    1    3    3    0  502  0.12237893276E+03 -0.17159603905E+03  0.85915685554E+02  0.22765192471E+03  0.46999998093E+01 0. -1.
</event>
<event>
 5   0  0.1453863E-04  0.1001041E+04  0.7818609E-02  0.9307404E-01
       -1   -1    0    0    0  501  0.00000000000E+00  0.00000000000E+00  0.99109845848E+03  0.99109845849E+03  0.50400001928E-02 0. -1.
        1   -1    0    0  501    0  0.00000000000E+00  0.00000000000E+00 -0.25277083349E+03  0.25277083354E+03  0.50400001928E-02 0.  1.
    10030    2    1    2    0    0  0.00000000000E+00  0.00000000000E+00  0.73832762499E+03  0.12438692920E+04  0.10010410251E+04 0.  0.
        1    1    3    3  502    0  0.19026139767E+03 -0.46178062819E+03  0.40999968789E+03  0.64617373214E+03  0.50400001928E-02 0. -1.
       -1    1    3    3    0  502 -0.19026139767E+03  0.46178062819E+03  0.32832793710E+03  0.59769555990E+03  0.50400001928E-02 0.  1.
</event>
<event>
 5   0  0.2503680E-04  0.9987807E+03  0.7818609E-02  0.9309883E-01
        2   -1    0    0  501    0  0.00000000000E+00  0.00000000000E+00  0.12679752180E+04  0.12679752180E+04  0.25500000920E-02 0.  1.
       -2   -1    0    0    0  501  0.00000000000E+00  0.00000000000E+00 -0.19668422438E+03  0.19668422440E+03  0.25500000920E-02 0. -1.
    10030    2    1    2    0    0  0.00000000000E+00  0.00000000000E+00  0.10712909936E+04  0.14646594424E+04  0.99878070127E+03 0.  0.
        2    1    3    3  502    0  0.37622475187E+03 -0.24063621129E+03  0.86335589894E+03  0.97202585271E+03  0.25500000920E-02 0.  1.
       -2    1    3    3    0  502 -0.37622475187E+03  0.24063621129E+03  0.20793509471E+03  0.49263358972E+03  0.25500000920E-02 0. -1.
</event>
<event>
 5   0  0.2473312E-04  0.9999821E+03  0.7818609E-02  0.9308564E-01
       -2   -1    0    0    0  501  0.00000000000E+00  0.00000000000E+00  0.24749062695E+03  0.24749062696E+03  0.25500000920E-02 0. -1.
        2   -1    0    0  501    0  0.00000000000E+00  0.00000000000E+00 -0.10101030229E+04  0.10101030229E+04  0.25500000920E-02 0.  1.
    10030    2    1    2    0    0  0.00000000000E+00  0.00000000000E+00 -0.76261239591E+03  0.12575936498E+04  0.99998206067E+03 0.  0.
        5    1    3    3  502    0  0.13779503339E+02 -0.88703068745E+01 -0.10097373876E+04  0.10098812994E+04  0.46999998093E+01 0.  1.
       -5    1    3    3    0  502 -0.13779503339E+02  0.88703068745E+01  0.24712499164E+03  0.24771235042E+03  0.46999998093E+01 0. -1.
</event>
<event>
 5   0  0.1461334E-04  0.1000273E+04  0.7818609E-02  0.9308245E-01
       -1   -1    0    0    0  501  0.00000000000E+00  0.00000000000E+00  0.19840893157E+03  0.19840893164E+03  0.50400001928E-02 0.  1.
        1   -1    0    0  501    0  0.00000000000E+00  0.00000000000E+00 -0.12607119679E+04  0.12607119679E+04  0.50400001928E-02 0. -1.
    10030    2    1    2    0    0  0.00000000000E+00  0.00000000000E+00 -0.10623030363E+04  0.14591208995E+04  0.10002729920E+04 0.  0.
        2    1    3    3  502    0  0.21907429817E+03 -0.93683550894E+02  0.11029905122E+03  0.26255673012E+03  0.25500000920E-02 0.  1.
       -2    1    3    3    0  502 -0.21907429817E+03  0.93683550894E+02 -0.11726020875E+04  0.11965641694E+04  0.25500000920E-02 0. -1.
</event>
<event>
 5   0  0.2473312E-04  0.1000096E+04  0.7818609E-02  0.9308439E-01
        2   -1    0    0  501    0  0.00000000000E+00  0.00000000000E+00  0.12217072277E+04  0.12217072277E+04  0.25500000920E-02 0.  1.
       -2   -1    0    0    0  501  0.00000000000E+00  0.00000000000E+00 -0.20467104445E+03  0.20467104447E+03  0.25500000920E-02 0. -1.
    10030    2    1    2    0    0  0.00000000000E+00  0.00000000000E+00  0.10170361832E+04  0.14263782721E+04  0.10000961840E+04 0.  0.
        5    1    3    3  502    0  0.26786937410E+03  0.27656780265E+02  0.11094161702E+04  0.11416414620E+04  0.46999998093E+01 0.  1.
       -5    1    3    3    0  502 -0.26786937410E+03 -0.27656780265E+02 -0.92379986954E+02  0.28473681016E+03  0.46999998093E+01 0. -1.
</event>
<event>
 5   0  0.1414165E-04  0.1000293E+04  0.7818609E-02  0.9308224E-01
       -1   -1    0    0    0  501  0.00000000000E+00  0.00000000000E+00  0.31711264272E+03  0.31711264276E+03  0.50400001928E-02 0.  1.
        1   -1    0    0  501    0  0.00000000000E+00  0.00000000000E+00 -0.78882524258E+03  0.78882524260E+03  0.50400001928E-02 0. -1.
    10030    2    1    2    0    0  0.00000000000E+00  0.00000000000E+00 -0.47171259987E+03  0.11059378854E+04  0.10002928718E+04 0.  0.
        4    1    3    3  502    0 -0.88215915052E+02 -0.12062860716E+03 -0.76356155336E+03  0.77804959174E+03  0.12699999809E+01 0. -1.
       -4    1    3    3    0  502  0.88215915052E+02  0.12062860716E+03  0.29184895350E+03  0.32788829362E+03  0.12699999809E+01 0.  1.
</event>
<event>
 5   0  0.1430675E-04  0.1000125E+04  0.7818609E-02  0.9308407E-01
       -1   -1    0    0    0  501  0.00000000000E+00  0.00000000000E+00  0.43149236168E+03  0.43149236171E+03  0.50400001928E-02 0.  1.
        1   -1    0    0  501    0  0.00000000000E+00  0.00000000000E+00 -0.57952976623E+03  0.57952976625E+03  0.50400001928E-02 0. -1.
    10030    2    1    2    0    0  0.00000000000E+00  0.00000000000E+00 -0.14803740455E+03  0.10110221280E+04  0.10001253272E+04 0.  0.
        5    1    3    3  502    0 -0.28834966757E+03  0.25884681912E+03  0.24548402521E+03  0.45872835447E+03  0.46999998093E+01 0.  1.
       -5    1    3    3    0  502  0.28834966757E+03 -0.25884681912E+03 -0.39352142976E+03  0.55229377349E+03  0.46999998093E+01 0. -1.
</event>
<event>
 5   0  0.1430675E-04  0.9989560E+03  0.7818609E-02  0.9309691E-01
       -1   -1    0    0    0  501  0.00000000000E+00  0.00000000000E+00  0.26472888433E+03  0.26472888438E+03  0.50400001928E-02 0.  1.
        1   -1    0    0  501    0  0.00000000000E+00  0.00000000000E+00 -0.94239155225E+03  0.94239155226E+03  0.50400001928E-02 0. -1.
    10030    2    1    2    0    0  0.00000000000E+00  0.00000000000E+00 -0.67766266792E+03  0.12071204366E+04  0.99895598354E+03 0.  0.
        5    1    3    3  502    0 -0.27027424673E+03  0.17253232974E+03  0.12390261808E+03  0.34378703003E+03  0.46999998093E+01 0.  1.
       -5    1    3    3    0  502  0.27027424673E+03 -0.17253232974E+03 -0.80156528600E+03  0.86333340661E+03  0.46999998093E+01 0. -1.
</event>
<event>
 5   0  0.1430675E-04  0.9998977E+03  0.7818609E-02  0.9308657E-01
        1   -1    0    0  501    0  0.00000000000E+00  0.00000000000E+00  0.17134098468E+04  0.17134098469E+04  0.50400001928E-02 0.  1.
       -1   -1    0    0    0  501  0.00000000000E+00  0.00000000000E+00 -0.14587802786E+03  0.14587802794E+03  0.50400001928E-02 0. -1.
    10030    2    1    2    0    0  0.00000000000E+00  0.00000000000E+00  0.15675318190E+04  0.18592878748E+04  0.99989769367E+03 0.  0.
        5    1    3    3  502    0  0.65572554701E+02  0.22117060368E+03 -0.40951023941E+02  0.23434007814E+03  0.46999998093E+01 0. -1.
       -5    1    3    3    0  502 -0.65572554701E+02 -0.22117060368E+03  0.16084828429E+04  0.16249477967E+04  0.46999998093E+01 0.  1.
</event>
<event>
 5   0  0.2484904E-04  0.9999500E+03  0.7818609E-02  0.9308600E-01
       -2   -1    0    0    0  501  0.00000000000E+00  0.00000000000E+00  0.44147475391E+03  0.44147475391E+03  0.25500000920E-02 0.  1.
        2   -1    0    0  501    0  0.00000000000E+00  0.00000000000E+00 -0.56622722012E+03  0.56622722013E+03  0.25500000920E-02 0. -1.
    10030    2    1    2    0    0  0.00000000000E+00  0.00000000000E+00 -0.12475246622E+03  0.10077019740E+04  0.99995004408E+03 0.  0.
        3    1    3    3  502    0  0.26202454992E+03 -0.18982156979E+02 -0.49106538114E+03  0.55692226190E+03  0.10100000352E+00 0. -1.
       -3    1    3    3    0  502 -0.26202454992E+03  0.18982156979E+02  0.36631291492E+03  0.45077971215E+03  0.10100000352E+00 0.  1.
</event>
<event>
 5   0  0.1430675E-04  0.9999012E+03  0.7818609E-02  0.9308653E-01
       -1   -1    0    0    0  501  0.00000000000E+00  0.00000000000E+00  0.18308341318E+03  0.18308341325E+03  0.50400001928E-02 0.  1.
        1   -1    0    0  501    0  0.00000000000E+00  0.00000000000E+00 -0.13652279312E+04  0.13652279312E+04  0.50400001928E-02 0. -1.
    10030    2    1    2    0    0  0.00000000000E+00  0.00000000000E+00 -0.11821445181E+04  0.15483113445E+04  0.99990117408E+03 0.  0.
        5    1    3    3  502    0 -0.30110441878E+03  0.53665945227E+02  0.21275597734E+02  0.30662460068E+03  0.46999998093E+01 0.  1.
       -5    1    3    3    0  502  0.30110441878E+03 -0.53665945227E+02 -0.12034201158E+04  0.12416867438E+04  0.46999998093E+01 0. -1.
</event>
<event>
 5   0  0.1430675E-04  0.9999505E+03  0.7818609E-02  0.9308599E-01
       -1   -1    0    0    0  501  0.00000000000E+00  0.00000000000E+00  0.10449591494E+04  0.10449591494E+04  0.50400001928E-02 0.  1.
        1   -1    0    0  501    0  0.00000000000E+00  0.00000000000E+00 -0.23922011144E+03  0.23922011150E+03  0.50400001928E-02 0. -1.
    10030    2    1    2    0    0  0.00000000000E+00  0.00000000000E+00  0.80573903794E+03  0.12841792609E+04  0.99995048719E+03 0.  0.
        5    1    3    3  502    0  0.17297063899E+03  0.20347021797E+03  0.94565652100E+03  0.98265320295E+03  0.46999998093E+01 0.  1.
       -5    1    3    3    0  502 -0.17297063899E+03 -0.20347021797E+03 -0.13991748306E+03  0.30152605794E+03  0.46999998093E+01 0. -1.
</event>
<event>
 5   0  0.2484904E-04  0.9994816E+03  0.7818609E-02  0.9309114E-01
       -2   -1    0    0    0  501  0.00000000000E+00  0.00000000000E+00  0.73256284366E+03  0.73256284366E+03  0.25500000920E-02 0.  1.
        2   -1    0    0  501    0  0.00000000000E+00  0.00000000000E+00 -0.34091388768E+03  0.34091388769E+03  0.25500000920E-02 0. -1.
    10030    2    1    2    0    0  0.00000000000E+00  0.00000000000E+00  0.39164895598E+03  0.10734767314E+04  0.99948155962E+03 0.  0.
        3    1    3    3  502    0 -0.23699259134E+03 -0.36987153653E+03 -0.60080542967E+02  0.44337357130E+03  0.10100000352E+00 0. -1.
       -3    1    3    3    0  502  0.23699259134E+03  0.36987153653E+03  0.45172949895E+03  0.63010316005E+03  0.10100000352E+00 0.  1.
</event>
<event>
 5   0  0.2403037E-04  0.9996375E+03  0.7818609E-02  0.9308942E-01
        2   -1    0    0  501    0  0.00000000000E+00  0.00000000000E+00  0.87351818607E+03  0.87351818607E+03  0.25500000920E-02 0.  1.
       -2   -1    0    0    0  501  0.00000000000E+00  0.00000000000E+00 -0.28599152744E+03  0.28599152745E+03  0.25500000920E-02 0. -1.
    10030    2    1    2    0    0  0.00000000000E+00  0.00000000000E+00  0.58752665862E+03  0.11595097135E+04  0.99963753489E+03 0.  0.
        1    1    3    3  502    0 -0.19084898369E+03 -0.62334021369E+02  0.82468951776E+03  0.84877656985E+03  0.50400001928E-02 0.  1.
       -1    1    3    3    0  502  0.19084898369E+03  0.62334021369E+02 -0.23716285914E+03  0.31073314367E+03  0.50400001928E-02 0. -1.
</event>
<event>
 5   0  0.2353916E-04  0.1000175E+04  0.7818609E-02  0.9308353E-01
        2   -1    0    0  501    0  0.00000000000E+00  0.00000000000E+00  0.21582027738E+03  0.21582027740E+03  0.25500000920E-02 0.  1.
       -2   -1    0    0    0  501  0.00000000000E+00  0.00000000000E+00 -0.11587758601E+04  0.11587758601E+04  0.25500000920E-02 0. -1.
    10030    2    1    2    0    0  0.00000000000E+00  0.00000000000E+00 -0.94295558271E+03  0.13745961375E+04  0.10001746399E+04 0.  0.
        4    1    3    3  502    0 -0.29786310876E+03  0.29713726547E+02 -0.10220448832E+04  0.10649801375E+04  0.12699999809E+01 0. -1.
       -4    1    3    3    0  502  0.29786310876E+03 -0.29713726547E+02  0.79089300474E+02  0.30961600000E+03  0.12699999809E+01 0.  1.
</event>
<event>
 5   0  0.1461334E-04  0.1002316E+04  0.7818609E-02  0.9306008E-01
       -1   -1    0    0    0  501  0.00000000000E+00  0.00000000000E+00  0.40269967770E+03  0.40269967773E+03  0.50400001928E-02 0. -1.
        1   -1    0    0  501    0  0.00000000000E+00  0.00000000000E+00 -0.62368950503E+03  0.62368950505E+03  0.50400001928E-02 0.  1.
    10030    2    1    2    0    0  0.00000000000E+00  0.00000000000E+00 -0.22098982733E+03  0.10263891828E+04  0.10023164424E+04 0.  0.
        2    1    3    3  502    0 -0.36884081245E+03  0.31623324389E+03  0.15390709211E+02  0.48609040661E+03  0.25500000920E-02 0. -1.
       -2    1    3    3    0  502  0.36884081245E+03 -0.31623324389E+03 -0.23638053654E+03  0.54029877617E+03  0.25500000920E-02 0.  1.
</event>
<event>
 5   0  0.2473312E-04  0.9999539E+03  0.7818609E-02  0.9308595E-01
        2   -1    0    0  501    0  0.00000000000E+00  0.00000000000E+00  0.37052457892E+03  0.37052457893E+03  0.25500000920E-02 0.  1.
       -2   -1    0    0    0  501  0.00000000000E+00  0.00000000000E+00 -0.67465680787E+03  0.67465680787E+03  0.25500000920E-02 0. -1.
    10030    2    1    2    0    0  0.00000000000E+00  0.00000000000E+00 -0.30413222894E+03  0.10451813868E+04  0.99995385826E+03 0.  0.
        5    1    3    3  502    0  0.42903660063E+03  0.12010206718E+03 -0.38916955498E+03  0.59158426597E+03  0.46999998093E+01 0. -1.
       -5    1    3    3    0  502 -0.42903660063E+03 -0.12010206718E+03  0.85037326034E+02  0.45359712084E+03  0.46999998093E+01 0.  1.
</event>
<event>
 5   0  0.1414165E-04  0.1001791E+04  0.7818609E-02  0.9306582E-01
        1   -1    0    0  501    0  0.00000000000E+00  0.00000000000E+00  0.88407600289E+03  0.88407600291E+03  0.50400001928E-02 0.  1.
       -1   -1    0    0    0  501  0.00000000000E+00  0.00000000000E+00 -0.28379518508E+03  0.28379518512E+03  0.50400001928E-02 0. -1.
    10030    2    1    2    0    0  0.00000000000E+00  0.00000000000E+00  0.60028081781E+03  0.11678711880E+04  0.10017914212E+04 0.  0.
        4    1    3    3  502    0 -0.12292180318E+03 -0.19396470351E+03 -0.21881342822E+03  0.31719553146E+03  0.12699999809E+01 0. -1.
       -4    1    3    3    0  502  0.12292180318E+03  0.19396470351E+03  0.81909424603E+03  0.85067565658E+03  0.12699999809E+01 0.  1.
</event>
<event>
 5   0  0.2403037E-04  0.9996690E+03  0.7818609E-02  0.9308908E-01
       -2   -1    0    0    0  501  0.00000000000E+00  0.00000000000E+00  0.67668212388E+03  0.67668212389E+03  0.25500000920E-02 0.  1.
        2   -1    0    0  501    0  0.00000000000E+00  0.00000000000E+00 -0.36920511923E+03  0.36920511924E+03  0.25500000920E-02 0. -1.
    10030    2    1    2    0    0  0.00000000000E+00  0.00000000000E+00  0.30747700465E+03  0.10458872431E+04  0.99966895368E+03 0.  0.
        1    1    3    3  502    0 -0.62147502822E+02  0.35326856092E+03 -0.21045527076E+03  0.41587547326E+03  0.50400001928E-02 0. -1.
       -1    1    3    3    0  502  0.62147502822E+02 -0.35326856092E+03  0.51793227542E+03  0.63001176987E+03  0.50400001928E-02 0.  1.
</event>
<event>
 5   0  0.2473312E-04  0.1000349E+04  0.7818609E-02  0.9308162E-01
        2   -1    0    0  501    0  0.00000000000E+00  0.00000000000E+00  0.60895133597E+03  0.60895133598E+03  0.25500000920E-02 0. -1.
       -2   -1    0    0    0  501  0.00000000000E+00  0.00000000000E+00 -0.41082853424E+03  0.41082853424E+03  0.25500000920E-02 0.  1.
    10030    2    1    2    0    0  0.00000000000E+00  0.00000000000E+00  0.19812280174E+03  0.10197798702E+04  0.10003491086E+04 0.  0.
        5    1    3    3  502    0 -0.34965596513E+03  0.30472451377E+03  0.28987668905E+03  0.54696152341E+03  0.46999998093E+01 0. -1.
       -5    1    3    3    0  502  0.34965596513E+03 -0.30472451377E+03 -0.91753887316E+02  0.47281834681E+03  0.46999998093E+01 0.  1.
</event>
<event>
 5   0  0.2503680E-04  0.9999532E+03  0.7818609E-02  0.9308596E-01
        2   -1    0    0  501    0  0.00000000000E+00  0.00000000000E+00  0.12716730654E+04  0.12716730654E+04  0.25500000920E-02 0. -1.
       -2   -1    0    0    0  501  0.00000000000E+00  0.00000000000E+00 -0.19657299238E+03  0.19657299240E+03  0.25500000920E-02 0.  1.
    10030    2    1    2    0    0  0.00000000000E+00  0.00000000000E+00  0.10751000730E+04  0.14682460578E+04  0.99995315852E+03 0.  0.
        2    1    3    3  502    0 -0.24761975850E+03 -0.34274308830E+03  0.92931286326E+03  0.10209851944E+04  0.25500000920E-02 0. -1.
       -2    1    3    3    0  502  0.24761975850E+03  0.34274308830E+03  0.14578720976E+03  0.44726086339E+03  0.25500000920E-02 0.  1.
</event>
<event>
 5   0  0.1453863E-04  0.1000015E+04  0.7818609E-02  0.9308529E-01
       -1   -1    0    0    0  501  0.00000000000E+00  0.00000000000E+00  0.10021799343E+04  0.10021799343E+04  0.50400001928E-02 0. -1.
        1   -1    0    0  501    0  0.00000000000E+00  0.00000000000E+00 -0.24946358296E+03  0.24946358301E+03  0.50400001928E-02 0.  1.
    10030    2    1    2    0    0  0.00000000000E+00  0.00000000000E+00  0.75271635131E+03  0.12516435173E+04  0.10000147943E+04 0.  0.
        1    1    3    3  502    0 -0.69434128187E+02 -0.39542533092E+03  0.74938674808E+03  0.85015456755E+03  0.50400001928E-02 0. -1.
       -1    1    3    3    0  502  0.69434128187E+02  0.39542533092E+03  0.33296032235E+01  0.40148894975E+03  0.50400001928E-02 0.  1.
</event>
<event>
 5   0  0.1414165E-04  0.9992751E+03  0.7818609E-02  0.9309340E-01
        1   -1    0    0  501    0  0.00000000000E+00  0.00000000000E+00  0.21095488754E+04  0.21095488754E+04  0.50400001928E-02 0. -1.
       -1   -1    0    0    0  501  0.00000000000E+00  0.00000000000E+00 -0.11833698734E+03  0.11833698745E+03  0.50400001928E-02 0.  1.
    10030    2    1    2    0    0  0.00000000000E+00  0.00000000000E+00  0.19912118881E+04  0.22278858629E+04  0.99927505463E+03 0.  0.
        4    1    3    3  502    0  0.20613751849E+02  0.13053418067E+03  0.20698742502E+04  0.20740889865E+04  0.12699999809E+01 0. -1.
       -4    1    3    3    0  502 -0.20613751849E+02 -0.13053418067E+03 -0.78662362127E+02  0.15379687644E+03  0.12699999809E+01 0.  1.
</event>
<event>
 5   0  0.2503680E-04  0.1000106E+04  0.7818609E-02  0.9308429E-01
       -2   -1    0    0    0  501  0.00000000000E+00  0.00000000000E+00  0.50986833836E+03  0.50986833837E+03  0.25500000920E-02 0.  1.
        2   -1    0    0  501    0  0.00000000000E+00  0.00000000000E+00 -0.49042632987E+03  0.49042632988E+03  0.25500000920E-02 0. -1.
    10030    2    1    2    0    0  0.00000000000E+00  0.00000000000E+00  0.19442008492E+02  0.10002946682E+04  0.10001057102E+04 0.  0.
        2    1    3    3  502    0 -0.18843168838E+03 -0.15648657643E+03 -0.42631813779E+03  0.49167235473E+03  0.25500000920E-02 0. -1.
       -2    1    3    3    0  502  0.18843168838E+03  0.15648657643E+03  0.44576014628E+03  0.50862231352E+03  0.25500000920E-02 0.  1.
</event>
<event>
 5   0  0.2473312E-04  0.1005761E+04  0.7818609E-02  0.9302249E-01
       -2   -1    0    0    0  501  0.00000000000E+00  0.00000000000E+00  0.11975888251E+03  0.11975888254E+03  0.25500000920E-02 0.  1.
        2   -1    0    0  501    0  0.00000000000E+00  0.00000000000E+00 -0.21116483902E+04  0.21116483902E+04  0.25500000920E-02 0. -1.
    10030    2    1    2    0    0  0.00000000000E+00  0.00000000000E+00 -0.19918895077E+04  0.22314072728E+04  0.10057607101E+04 0.  0.
        5    1    3    3  502    0  0.23608898568E+03  0.44175815142E+02 -0.15781193382E+02  0.24075017729E+03  0.46999998093E+01 0.  1.
       -5    1    3    3    0  502 -0.23608898568E+03 -0.44175815142E+02 -0.19761083143E+04  0.19906570955E+04  0.46999998093E+01 0. -1.
</event>
<event>
 5   0  0.1414165E-04  0.9999882E+03  0.7818609E-02  0.9308558E-01
       -1   -1    0    0    0  501  0.00000000000E+00  0.00000000000E+00  0.12627523801E+03  0.12627523811E+03  0.50400001928E-02 0. -1.
        1   -1    0    0  501    0  0.00000000000E+00  0.00000000000E+00 -0.19797555935E+04  0.19797555935E+04  0.50400001928E-02 0.  1.
    10030    2    1    2    0    0  0.00000000000E+00  0.00000000000E+00 -0.18534803554E+04  0.21060308316E+04  0.99998821768E+03 0.  0.
        4    1    3    3  502    0  0.20845752060E+03  0.19240082906E+03 -0.17938620855E+04  0.18161540165E+04  0.12699999809E+01 0.  1.
       -4    1    3    3    0  502 -0.20845752060E+03 -0.19240082906E+03 -0.59618269958E+02  0.28987681509E+03  0.12699999809E+01 0. -1.
</event>
<event>
 5   0  0.1461334E-04  0.9999729E+03  0.7818609E-02  0.9308575E-01
       -1   -1    0    0    0  501  0.00000000000E+00  0.00000000000E+00  0.16091417062E+03  0.16091417069E+03  0.50400001928E-02 0. -1.
        1   -1    0    0  501    0  0.00000000000E+00  0.00000000000E+00 -0.15535390771E+04  0.15535390771E+04  0.50400001928E-02 0.  1.
    10030    2    1    2    0    0  0.00000000000E+00  0.00000000000E+00 -0.13926249065E+04  0.17144532478E+04  0.99997290401E+03 0.  0.
        2    1    3    3  502    0  0.24309377005E+03 -0.19329814949E+03 -0.13680981942E+04  0.14029082025E+04  0.25500000920E-02 0.  1.
       -2    1    3    3    0  502 -0.24309377005E+03  0.19329814949E+03 -0.24526712271E+02  0.31154504530E+03  0.25500000920E-02 0. -1.
</event>
<event>
 5   0  0.9650500E-05  0.1000773E+04  0.7818609E-02  0.9307697E-01
        3   -1    0    0  501    0  0.00000000000E+00  0.00000000000E+00  0.10785603035E+04  0.10785603082E+04  0.10100000352E+00 0. -1.
       -3   -1    0    0    0  501  0.00000000000E+00  0.00000000000E+00 -0.23214897866E+03  0.23214900064E+03  0.10100000352E+00 0.  1.
    10030    2    1    2    0    0  0.00000000000E+00  0.00000000000E+00  0.84641132482E+03  0.13107093088E+04  0.10007730819E+04 0.  0.
        3    1    3    3  502    0  0.35836060877E+03 -0.34398111529E+03  0.50223744484E+03  0.70639068142E+03  0.10100000352E+00 0. -1.
       -3    1    3    3    0  502 -0.35836060877E+03  0.34398111529E+03  0.34417387997E+03  0.60431862742E+03  0.10100000352E+00 0.  1.
</event>
<event>
 5   0  0.2353916E-04  0.9993752E+03  0.7818609E-02  0.9309230E-01
        2   -1    0    0  501    0  0.00000000000E+00  0.00000000000E+00  0.32005364352E+03  0.32005364353E+03  0.25500000920E-02 0. -1.
       -2   -1    0    0    0  501  0.00000000000E+00  0.00000000000E+00 -0.78014328807E+03  0.78014328807E+03  0.25500000920E-02 0.  1.
    10030    2    1    2    0    0  0.00000000000E+00  0.00000000000E+00 -0.46008964455E+03  0.11001969316E+04  0.99937520846E+03 0.  0.
        4    1    3    3  502    0 -0.40860461941E+03  0.26317523813E+03 -0.35780034213E+03  0.60352434805E+03  0.12699999809E+01 0.  1.
       -4    1    3    3    0  502  0.40860461941E+03 -0.26317523813E+03 -0.10228930242E+03  0.49667258355E+03  0.12699999809E+01 0. -1.
</event>
<event>
 5   0  0.1430675E-04  0.1000151E+04  0.7818609E-02  0.9308380E-01
       -1   -1    0    0    0  501  0.00000000000E+00  0.00000000000E+00  0.36627923494E+03  0.36627923498E+03  0.50400001928E-02 0.  1.
        1   -1    0    0  501    0  0.00000000000E+00  0.00000000000E+00 -0.68274497084E+03  0.68274497086E+03  0.50400001928E-02 0. -1.
    10030    2    1    2    0    0  0.00000000000E+00  0.00000000000E+00 -0.31646573590E+03  0.10490242058E+04  0.10001505999E+04 0.  0.
        5    1    3    3  502    0 -0.49129839277E+03 -0.49306720746E+02 -0.75326296092E+02  0.49950115548E+03  0.46999998093E+01 0.  1.
       -5    1    3    3    0  502  0.49129839277E+03  0.49306720746E+02 -0.24113943981E+03  0.54952305036E+03  0.46999998093E+01 0. -1.
</event>
<event>
 5   0  0.2353916E-04  0.1000092E+04  0.7818609E-02  0.9308444E-01
       -2   -1    0    0    0  501  0.00000000000E+00  0.00000000000E+00  0.15304202213E+03  0.15304202215E+03  0.25500000920E-02 0. -1.
        2   -1    0    0  501    0  0.00000000000E+00  0.00000000000E+00 -0.16338379753E+04  0.16338379753E+04  0.25500000920E-02 0.  1.
    10030    2    1    2    0    0  0.00000000000E+00  0.00000000000E+00 -0.14807959531E+04  0.17868799974E+04  0.10000917310E+04 0.  0.
        4    1    3    3  502    0  0.17805914746E+03  0.35292625281E+03 -0.12875599232E+04  0.13468757064E+04  0.12699999809E+01 0.  1.
       -4    1    3    3    0  502 -0.17805914746E+03 -0.35292625281E+03 -0.19323602997E+03  0.44000429100E+03  0.12699999809E+01 0. -1.
</event>
<event>
 5   0  0.2353916E-04  0.1000166E+04  0.7818609E-02  0.9308363E-01
       -2   -1    0    0    0  501  0.00000000000E+00  0.00000000000E+00  0.34037860157E+03  0.34037860158E+03  0.25500000920E-02 0. -1.
        2   -1    0    0  501    0  0.00000000000E+00  0.00000000000E+00 -0.73471941542E+03  0.73471941542E+03  0.25500000920E-02 0.  1.
    10030    2    1    2    0    0  0.00000000000E+00  0.00000000000E+00 -0.39434081385E+03  0.10750980170E+04  0.10001655207E+04 0.  0.
        4    1    3    3  502    0 -0.19770225497E+02 -0.19597997409E+03  0.29692131514E+03  0.35631852652E+03  0.12699999809E+01 0. -1.
       -4    1    3    3    0  502  0.19770225497E+02  0.19597997409E+03 -0.69126212899E+03  0.71877949048E+03  0.12699999809E+01 0.  1.
</event>
<event>
 5   0  0.2484904E-04  0.9997158E+03  0.7818609E-02  0.9308857E-01
       -2   -1    0    0    0  501  0.00000000000E+00  0.00000000000E+00  0.24711426855E+03  0.24711426856E+03  0.25500000920E-02 0.  1.
        2   -1    0    0  501    0  0.00000000000E+00  0.00000000000E+00 -0.10111027459E+04  0.10111027459E+04  0.25500000920E-02 0. -1.
    10030    2    1    2    0    0  0.00000000000E+00  0.00000000000E+00 -0.76398847737E+03  0.12582170145E+04  0.99971579060E+03 0.  0.
        3    1    3    3  502    0  0.25500281811E+03  0.27260074366E+03 -0.80040229149E+03  0.88316557967E+03  0.10100000352E+00 0. -1.
       -3    1    3    3    0  502 -0.25500281811E+03 -0.27260074366E+03  0.36413814122E+02  0.37505143481E+03  0.10100000352E+00 0.  1.
</event>
<event>
 5   0  0.1461334E-04  0.9999524E+03  0.7818609E-02  0.9308597E-01
       -1   -1    0    0    0  501  0.00000000000E+00  0.00000000000E+00  0.23664492928E+03  0.23664492934E+03  0.50400001928E-02 0. -1.
        1   -1    0    0  501    0  0.00000000000E+00  0.00000000000E+00 -0.10563344721E+04  0.10563344721E+04  0.50400001928E-02 0.  1.
    10030    2    1    2    0    0  0.00000000000E+00  0.00000000000E+00 -0.81968954280E+03  0.12929794014E+04  0.99995239185E+03 0.  0.
        2    1    3    3  502    0 -0.34882951585E+03 -0.26776372098E+03 -0.71746015375E+03  0.84150372170E+03  0.25500000920E-02 0.  1.
       -2    1    3    3    0  502  0.34882951585E+03  0.26776372098E+03 -0.10222938905E+03  0.45147567974E+03  0.25500000920E-02 0. -1.
</event>
<event>
 5   0  0.1414165E-04  0.9996732E+03  0.7818609E-02  0.9308903E-01
        1   -1    0    0  501    0  0.00000000000E+00  0.00000000000E+00  0.58782979906E+03  0.58782979908E+03  0.50400001928E-02 0.  1.
       -1   -1    0    0    0  501  0.00000000000E+00  0.00000000000E+00 -0.42501525173E+03  0.42501525176E+03  0.50400001928E-02 0. -1.
    10030    2    1    2    0    0  0.00000000000E+00  0.00000000000E+00  0.16281454733E+03  0.10128450508E+04  0.99967320670E+03 0.  0.
        4    1    3    3  502    0 -0.42799701782E+03 -0.10553785110E+03 -0.15731416780E+03  0.46804812314E+03  0.12699999809E+01 0. -1.
       -4    1    3    3    0  502  0.42799701782E+03  0.10553785110E+03  0.32012871514E+03  0.54479692770E+03  0.12699999809E+01 0.  1.
</event>
<event>
 5   0  0.1430675E-04  0.1000100E+04  0.7818609E-02  0.9308435E-01
       -1   -1    0    0    0  501  0.00000000000E+00  0.00000000000E+00  0.28676355984E+03  0.28676355988E+03  0.50400001928E-02 0.  1.
        1   -1    0    0  501    0  0.00000000000E+00  0.00000000000E+00 -0.87197232686E+03  0.87197232687E+03  0.50400001928E-02 0. -1.
    10030    2    1    2    0    0  0.00000000000E+00  0.00000000000E+00 -0.58520876702E+03  0.11587358868E+04  0.10000997722E+04 0.  0.
        5    1    3    3  502    0  0.20170609229E+03 -0.43124054234E+03 -0.11546787826E+03  0.48990680127E+03  0.46999998093E+01 0.  1.
       -5    1    3    3    0  502 -0.20170609229E+03  0.43124054234E+03 -0.46974088876E+03  0.66882908549E+03  0.46999998093E+01 0. -1.
</event>
<event>
 5   0  0.2403037E-04  0.1002357E+04  0.7818609E-02  0.9305963E-01
       -2   -1    0    0    0  501  0.00000000000E+00  0.00000000000E+00  0.31555877733E+03  0.31555877734E+03  0.25500000920E-02 0.  1.
        2   -1    0    0  501    0  0.00000000000E+00  0.00000000000E+00 -0.79598450231E+03  0.79598450231E+03  0.25500000920E-02 0. -1.
    10030    2    1    2    0    0  0.00000000000E+00  0.00000000000E+00 -0.48042572498E+03  0.11115432797E+04  0.10023570149E+04 0.  0.
        1    1    3    3  502    0  0.19637787361E+03 -0.39044530186E+03 -0.51222423876E+03  0.67333904817E+03  0.50400001928E-02 0. -1.
       -1    1    3    3    0  502 -0.19637787361E+03  0.39044530186E+03  0.31798513777E+02  0.43820423149E+03  0.50400001928E-02 0.  1.
</event>
<event>
 5   0  0.2473312E-04  0.9990205E+03  0.7818609E-02  0.9309620E-01
        2   -1    0    0  501    0  0.00000000000E+00  0.00000000000E+00  0.76576043682E+03  0.76576043683E+03  0.25500000920E-02 0. -1.
       -2   -1    0    0    0  501  0.00000000000E+00  0.00000000000E+00 -0.32583359146E+03  0.32583359147E+03  0.25500000920E-02 0.  1.
    10030    2    1    2    0    0  0.00000000000E+00  0.00000000000E+00  0.43992684536E+03  0.10915940283E+04  0.99902046693E+03 0.  0.
        5    1    3    3  502    0  0.43895537720E+03  0.20172748424E+03  0.81265697130E+02  0.48989999449E+03  0.46999998093E+01 0.  1.
       -5    1    3    3    0  502 -0.43895537720E+03 -0.20172748424E+03  0.35866114823E+03  0.60169403381E+03  0.46999998093E+01 0. -1.
</event>
<event>
 5   0  0.2353916E-04  0.1000086E+04  0.7818609E-02  0.9308450E-01
        2   -1    0    0  501    0  0.00000000000E+00  0.00000000000E+00  0.44630208893E+03  0.44630208894E+03  0.25500000920E-02 0. -1.
       -2   -1    0    0    0  501  0.00000000000E+00  0.00000000000E+00 -0.56025561274E+03  0.56025561275E+03  0.25500000920E-02 0.  1.
    10030    2    1    2    0    0  0.00000000000E+00  0.00000000000E+00 -0.11395352381E+03  0.10065577017E+04  0.10000864969E+04 0.  0.
        4    1    3    3  502    0  0.19501973415E+03 -0.20089304060E+03  0.36001184501E+03  0.45607110402E+03  0.12699999809E+01 0. -1.
       -4    1    3    3    0  502 -0.19501973415E+03  0.20089304060E+03 -0.47396536882E+03  0.55048659767E+03  0.12699999809E+01 0.  1.
</event>
<event>
 5   0  0.1430675E-04  0.1000759E+04  0.7818609E-02  0.9307712E-01
       -1   -1    0    0    0  501  0.00000000000E+00  0.00000000000E+00  0.17299813012E+03  0.17299813019E+03  0.50400001928E-02 0.  1.
        1   -1    0    0  501    0  0.00000000000E+00  0.00000000000E+00 -0.14472975347E+04  0.14472975347E+04  0.50400001928E-02 0. -1.
    10030    2    1    2    0    0  0.00000000000E+00  0.00000000000E+00 -0.12742994046E+04  0.16202956649E+04  0.10007592464E+04 0.  0.
        5    1    3    3  502    0 -0.81500465160E+02 -0.36703138705E+03 -0.11716949913E+04  0.12305468733E+04  0.46999998093E+01 0. -1.
       -5    1    3    3    0  502  0.81500465160E+02  0.36703138705E+03 -0.10260441331E+03  0.38974879157E+03  0.46999998093E+01 0.  1.
</event>
<event>
 5   0  0.1453863E-04  0.9999378E+03  0.7818609E-02  0.9308613E-01
       -1   -1    0    0    0  501  0.00000000000E+00  0.00000000000E+00  0.78588151687E+03  0.78588151689E+03  0.50400001928E-02 0.  1.
        1   -1    0    0  501    0  0.00000000000E+00  0.00000000000E+00 -0.31807455195E+03  0.31807455199E+03  0.50400001928E-02 0. -1.
    10030    2    1    2    0    0  0.00000000000E+00  0.00000000000E+00  0.46780696493E+03  0.11039560689E+04  0.99993782085E+03 0.  0.
        1    1    3    3  502    0 -0.20408735472E+03  0.56717883363E+02  0.73389425726E+03  0.76385165282E+03  0.50400001928E-02 0.  1.
       -1    1    3    3    0  502  0.20408735472E+03 -0.56717883363E+02 -0.26608729234E+03  0.34010441605E+03  0.50400001928E-02 0. -1.
</event>
<event>
 5   0  0.9650500E-05  0.9993714E+03  0.7818609E-02  0.9309235E-01
       -4   -1    0    0    0  501  0.00000000000E+00  0.00000000000E+00  0.21875464880E+03  0.21875833532E+03  0.12699999809E+01 0. -1.
        4   -1    0    0  501    0  0.00000000000E+00  0.00000000000E+00 -0.11413828066E+04  0.11413835132E+04  0.12699999809E+01 0.  1.
    10030    2    1    2    0    0  0.00000000000E+00  0.00000000000E+00 -0.92262815785E+03  0.13601418485E+04  0.99937136763E+03 0.  0.
        3    1    3    3  502    0  0.67908047465E+02 -0.21627870966E+02  0.21180407163E+03  0.22347313636E+03  0.10100000352E+00 0. -1.
       -3    1    3    3    0  502 -0.67908047465E+02  0.21627870966E+02 -0.11344322295E+04  0.11366687122E+04  0.10100000352E+00 0.  1.
</event>
<event>
 5   0  0.1461334E-04  0.1000456E+04  0.7818609E-02  0.9308045E-01
       -1   -1    0    0    0  501  0.00000000000E+00  0.00000000000E+00  0.24517309815E+03  0.24517309820E+03  0.50400001928E-02 0.  1.
        1   -1    0    0  501    0  0.00000000000E+00  0.00000000000E+00 -0.10206177489E+04  0.10206177489E+04  0.50400001928E-02 0. -1.
    10030    2    1    2    0    0  0.00000000000E+00  0.00000000000E+00 -0.77544465071E+03  0.12657908471E+04  0.10004559272E+04 0.  0.
        2    1    3    3  502    0  0.43385167475E+03  0.19195576358E+03 -0.58838432745E+03  0.75582432327E+03  0.25500000920E-02 0. -1.
       -2    1    3    3    0  502 -0.43385167475E+03 -0.19195576358E+03 -0.18706032326E+03  0.50996652380E+03  0.25500000920E-02 0.  1.
</event>
<event>
 5   0  0.1506454E-04  0.9998458E+03  0.7818609E-02  0.9308714E-01
       -1   -1    0    0    0  501  0.00000000000E+00  0.00000000000E+00  0.18164442234E+03  0.18164442241E+03  0.50400001928E-02 0.  1.
        1   -1    0    0  501    0  0.00000000000E+00  0.00000000000E+00 -0.13758908899E+04  0.13758908899E+04  0.50400001928E-02 0. -1.
    10030    2    1    2    0    0  0.00000000000E+00  0.00000000000E+00 -0.11942464675E+04  0.15575353123E+04  0.99984580003E+03 0.  0.
        3    1    3    3  502    0  0.49117332773E+02 -0.32680504128E+03 -0.11814631842E+04  0.12268126643E+04  0.10100000352E+00 0. -1.
       -3    1    3    3    0  502 -0.49117332773E+02  0.32680504128E+03 -0.12783283332E+02  0.33072264803E+03  0.10100000352E+00 0.  1.
</event>
<event>
 5   0  0.2403037E-04  0.1001394E+04  0.7818609E-02  0.9307018E-01
        2   -1    0    0  501    0  0.00000000000E+00  0.00000000000E+00  0.25224515977E+04  0.25224515977E+04  0.25500000920E-02 0.  1.
       -2   -1    0    0    0  501  0.00000000000E+00  0.00000000000E+00 -0.99386373837E+02  0.99386373870E+02  0.25500000920E-02 0. -1.
    10030    2    1    2    0    0  0.00000000000E+00  0.00000000000E+00  0.24230652239E+04  0.26218379716E+04  0.10013936639E+04 0.  0.
        1    1    3    3  502    0 -0.84046206572E+02  0.47548678474E+03  0.86472512391E+03  0.99040445639E+03  0.50400001928E-02 0. -1.
       -1    1    3    3    0  502  0.84046206572E+02 -0.47548678474E+03  0.15583401000E+04  0.16314335152E+04  0.50400001928E-02 0.  1.
</event>
<event>
 5   0  0.1461334E-04  0.9997088E+03  0.7818609E-02  0.9308864E-01
       -1   -1    0    0    0  501  0.00000000000E+00  0.00000000000E+00  0.46301544573E+03  0.46301544575E+03  0.50400001928E-02 0. -1.
        1   -1    0    0  501    0  0.00000000000E+00  0.00000000000E+00 -0.53962442800E+03  0.53962442802E+03  0.50400001928E-02 0.  1.
    10030    2    1    2    0    0  0.00000000000E+00  0.00000000000E+00 -0.76608982271E+02  0.10026398738E+04  0.99970884777E+03 0.  0.
        2    1    3    3  502    0  0.29613705338E+03 -0.33368775976E+03  0.18776660982E+03  0.48404645972E+03  0.25500000920E-02 0. -1.
       -2    1    3    3    0  502 -0.29613705338E+03  0.33368775976E+03 -0.26437559209E+03  0.51859341405E+03  0.25500000920E-02 0.  1.
</event>
<event>
 5   0  0.1414165E-04  0.1000053E+04  0.7818609E-02  0.9308487E-01
        1   -1    0    0  501    0  0.00000000000E+00  0.00000000000E+00  0.42365695773E+03  0.42365695776E+03  0.50400001928E-02 0. -1.
       -1   -1    0    0    0  501  0.00000000000E+00  0.00000000000E+00 -0.59016219278E+03  0.59016219280E+03  0.50400001928E-02 0.  1.
    10030    2    1    2    0    0  0.00000000000E+00  0.00000000000E+00 -0.16650523505E+03  0.10138191506E+04  0.10000526370E+04 0.  0.
        4    1    3    3  502    0 -0.14581748001E+03  0.47481114470E+03 -0.14163307957E+03  0.51649772772E+03  0.12699999809E+01 0.  1.
       -4    1    3    3    0  502  0.14581748001E+03 -0.47481114470E+03 -0.24872155475E+02  0.49732142285E+03  0.12699999809E+01 0. -1.
</event>
<event>
 5   0  0.2353916E-04  0.9992260E+03  0.7818609E-02  0.9309394E-01
       -2   -1    0    0    0  501  0.00000000000E+00  0.00000000000E+00  0.76599207014E+03  0.76599207015E+03  0.25500000920E-02 0. -1.
        2   -1    0    0  501    0  0.00000000000E+00  0.00000000000E+00 -0.32586910760E+03  0.32586910761E+03  0.25500000920E-02 0.  1.
    10030    2    1    2    0    0  0.00000000000E+00  0.00000000000E+00  0.44012296254E+03  0.10918611778E+04  0.99922600514E+03 0.  0.
        4    1    3    3  502    0  0.58608878912E+02 -0.25864250347E+03  0.68273041319E+03  0.73242977499E+03  0.12699999809E+01 0. -1.
       -4    1    3    3    0  502 -0.58608878912E+02  0.25864250347E+03 -0.24260745065E+03  0.35943140277E+03  0.12699999809E+01 0.  1.
</event>
<event>
 5   0  0.1430675E-04  0.9999125E+03  0.7818609E-02  0.9308641E-01
       -1   -1    0    0    0  501  0.00000000000E+00  0.00000000000E+00  0.18427022950E+04  0.18427022950E+04  0.50400001928E-02 0.  1.
        1   -1    0    0  501    0  0.00000000000E+00  0.00000000000E+00 -0.13564657097E+03  0.13564657107E+03  0.50400001928E-02 0. -1.
    10030    2    1    2    0    0  0.00000000000E+00  0.00000000000E+00  0.17070557240E+04  0.19783488660E+04  0.99991249164E+03 0.  0.
        5    1    3    3  502    0 -0.32369689306E+02  0.21530968502E+03 -0.36868812250E+02  0.22087882779E+03  0.46999998093E+01 0. -1.
       -5    1    3    3    0  502  0.32369689306E+02 -0.21530968502E+03  0.17439245362E+04  0.17574700382E+04  0.46999998093E+01 0.  1.
</event>
<event>
 5   0  0.1430675E-04  0.9999051E+03  0.7818609E-02  0.9308649E-01
        1   -1    0    0  501    0  0.00000000000E+00  0.00000000000E+00  0.13657339711E+04  0.13657339711E+04  0.50400001928E-02 0. -1.
       -1   -1    0    0    0  501  0.00000000000E+00  0.00000000000E+00 -0.18301700098E+03  0.18301700105E+03  0.50400001928E-02 0.  1.
    10030    2    1    2    0    0  0.00000000000E+00  0.00000000000E+00  0.11827169701E+04  0.15487509722E+04  0.99990506667E+03 0.  0.
        5    1    3    3  502    0 -0.51374372936E+02 -0.14954818520E+03  0.13259452456E+04  0.13353489694E+04  0.46999998093E+01 0. -1.
       -5    1    3    3    0  502  0.51374372936E+02  0.14954818520E+03 -0.14322827544E+03  0.21340200274E+03  0.46999998093E+01 0.  1.
</event>
<event>
 5   0  0.9650500E-05  0.1000010E+04  0.7818609E-02  0.9308534E-01
        3   -1    0    0  501    0  0.00000000000E+00  0.00000000000E+00  0.16174011965E+03  0.16174015119E+03  0.10100000352E+00 0.  1.
       -3   -1    0    0    0  501  0.00000000000E+00  0.00000000000E+00 -0.15457198142E+04  0.15457198175E+04  0.10100000352E+00 0. -1.
    10030    2    1    2    0    0  0.00000000000E+00  0.00000000000E+00 -0.13839796945E+04  0.17074599686E+04  0.10000098748E+04 0.  0.
        5    1    3    3  502    0 -0.37270322768E+03 -0.18552845669E+03 -0.21925825641E+03  0.47055794241E+03  0.46999998093E+01 0.  1.
       -5    1    3    3    0  502  0.37270322768E+03  0.18552845669E+03 -0.11647214381E+04  0.12369020262E+04  0.46999998093E+01 0. -1.
</event>
<event>
 5   0  0.1461334E-04  0.1001148E+04  0.7818609E-02  0.9307287E-01
       -1   -1    0    0    0  501  0.00000000000E+00  0.00000000000E+00  0.67954257257E+03  0.67954257259E+03  0.50400001928E-02 0.  1.
        1   -1    0    0  501    0  0.00000000000E+00  0.00000000000E+00 -0.36873961899E+03  0.36873961902E+03  0.50400001928E-02 0. -1.
    10030    2    1    2    0    0  0.00000000000E+00  0.00000000000E+00  0.31080295358E+03  0.10482821916E+04  0.10011478798E+04 0.  0.
        2    1    3    3  502    0  0.12568852731E+03 -0.45102478701E+03  0.34080656093E+03  0.57911145419E+03  0.25500000920E-02 0.  1.
       -2    1    3    3    0  502 -0.12568852731E+03  0.45102478701E+03 -0.30003607353E+02  0.46917073742E+03  0.25500000920E-02 0. -1.
</event>
<event>
 5   0  0.2403037E-04  0.1000169E+04  0.7818609E-02  0.9308360E-01
       -2   -1    0    0    0  501  0.00000000000E+00  0.00000000000E+00  0.10408593772E+04  0.10408593772E+04  0.25500000920E-02 0.  1.
        2   -1    0    0  501    0  0.00000000000E+00  0.00000000000E+00 -0.24026715341E+03  0.24026715343E+03  0.25500000920E-02 0. -1.
    10030    2    1    2    0    0  0.00000000000E+00  0.00000000000E+00  0.80059222378E+03  0.12811265306E+04  0.10001686251E+04 0.  0.
        1    1    3    3  502    0  0.10754456557E+03 -0.55439583359E+02 -0.22123586545E+03  0.25216004674E+03  0.50400001928E-02 0. -1.
       -1    1    3    3    0  502 -0.10754456557E+03  0.55439583359E+02  0.10218280892E+04  0.10289664839E+04  0.50400001928E-02 0.  1.
</event>
<event>
 5   0  0.1461334E-04  0.9998597E+03  0.7818609E-02  0.9308699E-01
        1   -1    0    0  501    0  0.00000000000E+00  0.00000000000E+00  0.12349645157E+04  0.12349645157E+04  0.50400001928E-02 0.  1.
       -1   -1    0    0    0  501  0.00000000000E+00  0.00000000000E+00 -0.20237817123E+03  0.20237817129E+03  0.50400001928E-02 0. -1.
    10030    2    1    2    0    0  0.00000000000E+00  0.00000000000E+00  0.10325863445E+04  0.14373426870E+04  0.99985971070E+03 0.  0.
        2    1    3    3  502    0 -0.41910296836E+03  0.27254820329E+03  0.51657729342E+03  0.71887545603E+03  0.25500000920E-02 0. -1.
       -2    1    3    3    0  502  0.41910296836E+03 -0.27254820329E+03  0.51600905103E+03  0.71846723095E+03  0.25500000920E-02 0.  1.
</event>
<event>
 5   0  0.2403037E-04  0.1000334E+04  0.7818609E-02  0.9308178E-01
       -2   -1    0    0    0  501  0.00000000000E+00  0.00000000000E+00  0.28890325368E+03  0.28890325369E+03  0.25500000920E-02 0.  1.
        2   -1    0    0  501    0  0.00000000000E+00  0.00000000000E+00 -0.86592019931E+03  0.86592019931E+03  0.25500000920E-02 0. -1.
    10030    2    1    2    0    0  0.00000000000E+00  0.00000000000E+00 -0.57701694563E+03  0.11548234530E+04  0.10003342702E+04 0.  0.
        1    1    3    3  502    0  0.46296607200E+03 -0.16144719538E+03 -0.17443285370E+03  0.52041291413E+03  0.50400001928E-02 0.  1.
       -1    1    3    3    0  502 -0.46296607200E+03  0.16144719538E+03 -0.40258409194E+03  0.63441053887E+03  0.50400001928E-02 0. -1.
</event>
<event>
 5   0  0.2484904E-04  0.9998502E+03  0.7818609E-02  0.9308709E-01
       -2   -1    0    0    0  501  0.00000000000E+00  0.00000000000E+00  0.47196117542E+03  0.47196117542E+03  0.25500000920E-02 0.  1.
        2   -1    0    0  501    0  0.00000000000E+00  0.00000000000E+00 -0.52954586744E+03  0.52954586745E+03  0.25500000920E-02 0. -1.
    10030    2    1    2    0    0  0.00000000000E+00  0.00000000000E+00 -0.57584692026E+02  0.10015070429E+04  0.99985016886E+03 0.  0.
        3    1    3    3  502    0 -0.19557333807E+02  0.26550697726E+03  0.39505024059E+03  0.47638340343E+03  0.10100000352E+00 0.  1.
       -3    1    3    3    0  502  0.19557333807E+02 -0.26550697726E+03 -0.45263493261E+03  0.52512363944E+03  0.10100000352E+00 0. -1.
</event>
<event>
 5   0  0.2484904E-04  0.1000206E+04  0.7818609E-02  0.9308319E-01
        2   -1    0    0  501    0  0.00000000000E+00  0.00000000000E+00  0.40747226500E+03  0.40747226501E+03  0.25500000920E-02 0. -1.
       -2   -1    0    0    0  501  0.00000000000E+00  0.00000000000E+00 -0.61379168609E+03  0.61379168609E+03  0.25500000920E-02 0.  1.
    10030    2    1    2    0    0  0.00000000000E+00  0.00000000000E+00 -0.20631942109E+03  0.10212639511E+04  0.10002061559E+04 0.  0.
        3    1    3    3  502    0 -0.20800570750E+03  0.22382052582E+03  0.30108085369E+03  0.42896584105E+03  0.10100000352E+00 0. -1.
       -3    1    3    3    0  502  0.20800570750E+03 -0.22382052582E+03 -0.50740027478E+03  0.59229811005E+03  0.10100000352E+00 0.  1.
</event>
<event>
 5   0  0.1453863E-04  0.1000052E+04  0.7818609E-02  0.9308488E-01
        1   -1    0    0  501    0  0.00000000000E+00  0.00000000000E+00  0.47550646636E+03  0.47550646639E+03  0.50400001928E-02 0. -1.
       -1   -1    0    0    0  501  0.00000000000E+00  0.00000000000E+00 -0.52580946382E+03  0.52580946384E+03  0.50400001928E-02 0.  1.
    10030    2    1    2    0    0  0.00000000000E+00  0.00000000000E+00 -0.50302997457E+02  0.10013159302E+04  0.10000515990E+04 0.  0.
        1    1    3    3  502    0 -0.10980394995E+03 -0.45265658835E+03  0.15693249128E+03  0.49151063188E+03  0.50400001928E-02 0. -1.
       -1    1    3    3    0  502  0.10980394995E+03  0.45265658835E+03 -0.20723548874E+03  0.50980529835E+03  0.50400001928E-02 0.  1.
</event>
<event>
 5   0  0.1506454E-04  0.1000300E+04  0.7818609E-02  0.9308215E-01
        1   -1    0    0  501    0  0.00000000000E+00  0.00000000000E+00  0.61495844678E+03  0.61495844680E+03  0.50400001928E-02 0. -1.
       -1   -1    0    0    0  501  0.00000000000E+00  0.00000000000E+00 -0.40677574612E+03  0.40677574615E+03  0.50400001928E-02 0.  1.
    10030    2    1    2    0    0  0.00000000000E+00  0.00000000000E+00  0.20818270066E+03  0.10217341930E+04  0.10003003170E+04 0.  0.
        3    1    3    3  502    0 -0.54231303573E+02  0.42290886205E+03  0.37114575908E+03  0.56528057155E+03  0.10100000352E+00 0. -1.
       -3    1    3    3    0  502  0.54231303573E+02 -0.42290886205E+03 -0.16296305842E+03  0.45645362141E+03  0.10100000352E+00 0.  1.
</event>
<event>
 5   0  0.2484904E-04  0.9999798E+03  0.7818609E-02  0.9308567E-01
        2   -1    0    0  501    0  0.00000000000E+00  0.00000000000E+00  0.86034712026E+03  0.86034712026E+03  0.25500000920E-02 0. -1.
       -2   -1    0    0    0  501  0.00000000000E+00  0.00000000000E+00 -0.29056864909E+03  0.29056864910E+03  0.25500000920E-02 0.  1.
    10030    2    1    2    0    0  0.00000000000E+00  0.00000000000E+00  0.56977847117E+03  0.11509157694E+04  0.99997980078E+03 0.  0.
        3    1    3    3  502    0 -0.14081124541E+03 -0.46242143037E+03  0.13781875414E+03  0.50264839132E+03  0.10100000352E+00 0. -1.
       -3    1    3    3    0  502  0.14081124541E+03  0.46242143037E+03  0.43195971703E+03  0.64826737805E+03  0.10100000352E+00 0.  1.
</event>
<event>
 5   0  0.1430675E-04  0.9998873E+03  0.7818609E-02  0.9308668E-01
        1   -1    0    0  501    0  0.00000000000E+00  0.00000000000E+00  0.16435779646E+04  0.16435779646E+04  0.50400001928E-02 0.  1.
       -1   -1    0    0    0  501  0.00000000000E+00  0.00000000000E+00 -0.15207288493E+03  0.15207288501E+03  0.50400001928E-02 0. -1.
    10030    2    1    2    0    0  0.00000000000E+00  0.00000000000E+00  0.14915050796E+04  0.17956508496E+04  0.99988727917E+03 0.  0.
        5    1    3    3  502    0  0.19421114437E+03  0.41167386928E+03  0.11169698328E+04  0.12061662574E+04  0.46999998093E+01 0.  1.
       -5    1    3    3    0  502 -0.19421114437E+03 -0.41167386928E+03  0.37453524687E+03  0.58948459216E+03  0.46999998093E+01 0. -1.
</event>
<event>
 5   0  0.2503680E-04  0.9999914E+03  0.7818609E-02  0.9308554E-01
       -2   -1    0    0    0  501  0.00000000000E+00  0.00000000000E+00  0.18679236776E+03  0.18679236778E+03  0.25500000920E-02 0.  1.
        2   -1    0    0  501    0  0.00000000000E+00  0.00000000000E+00 -0.13383614239E+04  0.13383614239E+04  0.25500000920E-02 0. -1.
    10030    2    1    2    0    0  0.00000000000E+00  0.00000000000E+00 -0.11515690561E+04  0.15251537917E+04  0.99999139858E+03 0.  0.
        2    1    3    3  502    0 -0.53955562850E+02  0.47540442039E+03 -0.35437182055E+03  0.59539898631E+03  0.25500000920E-02 0. -1.
       -2    1    3    3    0  502  0.53955562850E+02 -0.47540442039E+03 -0.79719723557E+03  0.92975480536E+03  0.25500000920E-02 0.  1.
</event>
<event>
 5   0  0.1453863E-04  0.1000094E+04  0.7818609E-02  0.9308442E-01
        1   -1    0    0  501    0  0.00000000000E+00  0.00000000000E+00  0.26687470336E+03  0.26687470341E+03  0.50400001928E-02 0. -1.
       -1   -1    0    0    0  501  0.00000000000E+00  0.00000000000E+00 -0.93694448724E+03  0.93694448726E+03  0.50400001928E-02 0.  1.
    10030    2    1    2    0    0  0.00000000000E+00  0.00000000000E+00 -0.67006978389E+03  0.12038191907E+04  0.10000935599E+04 0.  0.
        1    1    3    3  502    0  0.20094608793E+03  0.11850063087E+03  0.19735875848E+03  0.30556866552E+03  0.50400001928E-02 0. -1.
       -1    1    3    3    0  502 -0.20094608793E+03 -0.11850063087E+03 -0.86742854237E+03  0.89825052514E+03  0.50400001928E-02 0.  1.
</event>
<event>
 5   0  0.1453863E-04  0.9999245E+03  0.7818609E-02  0.9308628E-01
        1   -1    0    0  501    0  0.00000000000E+00  0.00000000000E+00  0.11384413927E+04  0.11384413927E+04  0.50400001928E-02 0. -1.
       -1   -1    0    0    0  501  0.00000000000E+00  0.00000000000E+00 -0.21956532601E+03  0.21956532607E+03  0.50400001928E-02 0.  1.
    10030    2    1    2    0    0  0.00000000000E+00  0.00000000000E+00  0.91887606672E+03  0.13580067188E+04  0.99992450833E+03 0.  0.
        1    1    3    3  502    0  0.28343442628E+03 -0.21679434896E+03 -0.16147298100E+02  0.35720526172E+03  0.50400001928E-02 0.  1.
       -1    1    3    3    0  502 -0.28343442628E+03  0.21679434896E+03  0.93502336482E+03  0.10008014571E+04  0.50400001928E-02 0. -1.
</event>
<event>
 5   0  0.1461334E-04  0.1000430E+04  0.7818609E-02  0.9308073E-01
       -1   -1    0    0    0  501  0.00000000000E+00  0.00000000000E+00  0.55926456530E+03  0.55926456532E+03  0.50400001928E-02 0. -1.
        1   -1    0    0  501    0  0.00000000000E+00  0.00000000000E+00 -0.44740025928E+03  0.44740025931E+03  0.50400001928E-02 0.  1.
    10030    2    1    2    0    0  0.00000000000E+00  0.00000000000E+00  0.11186430602E+03  0.10066648246E+04  0.10004301306E+04 0.  0.
        2    1    3    3  502    0  0.22399021938E+03 -0.41372828983E+03  0.22690987968E+03  0.52233208755E+03  0.25500000920E-02 0.  1.
       -2    1    3    3    0  502 -0.22399021938E+03  0.41372828983E+03 -0.11504557367E+03  0.48433273708E+03  0.25500000920E-02 0. -1.
</event>
<event>
 5   0  0.2353916E-04  0.9999764E+03  0.7818609E-02  0.9308571E-01
       -2   -1    0    0    0  501  0.00000000000E+00  0.00000000000E+00  0.37701792723E+03  0.37701792724E+03  0.25500000920E-02 0.  1.
        2   -1    0    0  501    0  0.00000000000E+00  0.00000000000E+00 -0.66306716411E+03  0.66306716412E+03  0.25500000920E-02 0. -1.
    10030    2    1    2    0    0  0.00000000000E+00  0.00000000000E+00 -0.28604923688E+03  0.10400850914E+04  0.99997641539E+03 0.  0.
        4    1    3    3  502    0 -0.99024225547E+02 -0.24357657680E+02  0.36608487320E+03  0.38002478869E+03  0.12699999809E+01 0.  1.
       -4    1    3    3    0  502  0.99024225547E+02  0.24357657680E+02 -0.65213411008E+03  0.66006030267E+03  0.12699999809E+01 0. -1.
</event>
<event>
 5   0  0.1506454E-04  0.1000235E+04  0.7818609E-02  0.9308287E-01
       -1   -1    0    0    0  501  0.00000000000E+00  0.00000000000E+00  0.20447264626E+03  0.20447264632E+03  0.50400001928E-02 0. -1.
        1   -1    0    0  501    0  0.00000000000E+00  0.00000000000E+00 -0.12232318899E+04  0.12232318899E+04  0.50400001928E-02 0.  1.
    10030    2    1    2    0    0  0.00000000000E+00  0.00000000000E+00 -0.10187592436E+04  0.14277045362E+04  0.10002348955E+04 0.  0.
        3    1    3    3  502    0 -0.33916435934E+03  0.36726425889E+03 -0.52966398353E+03  0.72832646811E+03  0.10100000352E+00 0.  1.
       -3    1    3    3    0  502  0.33916435934E+03 -0.36726425889E+03 -0.48909526012E+03  0.69937806812E+03  0.10100000352E+00 0. -1.
</event>
<event>
 5   0  0.1430675E-04  0.1000029E+04  0.7818609E-02  0.9308513E-01
        1   -1    0    0  501    0  0.00000000000E+00  0.00000000000E+00  0.11151577469E+04  0.11151577469E+04  0.50400001928E-02 0. -1.
       -1   -1    0    0    0  501  0.00000000000E+00  0.00000000000E+00 -0.22419654725E+03  0.22419654730E+03  0.50400001928E-02 0.  1.
    10030    2    1    2    0    0  0.00000000000E+00  0.00000000000E+00  0.89096119969E+03  0.13393542942E+04  0.10000290327E+04 0.  0.
        5    1    3    3  502    0 -0.16343677181E+03  0.15895563475E+03 -0.15049813549E+03  0.27322198115E+03  0.46999998093E+01 0.  1.
       -5    1    3    3    0  502  0.16343677181E+03 -0.15895563475E+03  0.10414593352E+04  0.10661323131E+04  0.46999998093E+01 0. -1.
</event>
<event>
 5   0  0.1461334E-04  0.9998973E+03  0.7818609E-02  0.9308657E-01
        1   -1    0    0  501    0  0.00000000000E+00  0.00000000000E+00  0.30169754288E+03  0.30169754292E+03  0.50400001928E-02 0. -1.
       -1   -1    0    0    0  501  0.00000000000E+00  0.00000000000E+00 -0.82847420466E+03  0.82847420468E+03  0.50400001928E-02 0.  1.
    10030    2    1    2    0    0  0.00000000000E+00  0.00000000000E+00 -0.52677666178E+03  0.11301717476E+04  0.99989725856E+03 0.  0.
        2    1    3    3  502    0 -0.42826985444E+02 -0.14019651771E+03  0.27686020864E+03  0.31327430376E+03  0.25500000920E-02 0. -1.
       -2    1    3    3    0  502  0.42826985444E+02  0.14019651771E+03 -0.80363687042E+03  0.81689744384E+03  0.25500000920E-02 0.  1.
</event>
<event>
 5   0  0.2503680E-04  0.9992371E+03  0.7818609E-02  0.9309382E-01
       -2   -1    0    0    0  501  0.00000000000E+00  0.00000000000E+00  0.32440234778E+03  0.32440234779E+03  0.25500000920E-02 0. -1.
        2   -1    0    0  501    0  0.00000000000E+00  0.00000000000E+00 -0.76947257008E+03  0.76947257008E+03  0.25500000920E-02 0.  1.
    10030    2    1    2    0    0  0.00000000000E+00  0.00000000000E+00 -0.44507022230E+03  0.10938749179E+04  0.99923712559E+03 0.  0.
        2    1    3    3  502    0  0.63121728529E+02  0.29977413417E+03 -0.65459183444E+03  0.72273048494E+03  0.25500000920E-02 0.  1.
       -2    1    3    3    0  502 -0.63121728529E+02 -0.29977413417E+03  0.20952161215E+03  0.37114443293E+03  0.25500000920E-02 0. -1.
</event>
<event>
 5   0  0.9650500E-05  0.9999490E+03  0.7818609E-02  0.9308601E-01
        3   -1    0    0  501    0  0.00000000000E+00  0.00000000000E+00  0.53019495128E+03  0.53019496090E+03  0.10100000352E+00 0.  1.
       -3   -1    0    0    0  501  0.00000000000E+00  0.00000000000E+00 -0.47147655169E+03  0.47147656250E+03  0.10100000352E+00 0. -1.
    10030    2    1    2    0    0  0.00000000000E+00  0.00000000000E+00  0.58718399590E+02  0.10016715234E+04  0.99994899387E+03 0.  0.
        4    1    3    3  502    0  0.90255654081E+01 -0.35160300578E+03  0.38531164531E+03  0.52170184149E+03  0.12699999809E+01 0.  1.
       -4    1    3    3    0  502 -0.90255654081E+01  0.35160300578E+03 -0.32659324572E+03  0.47996968191E+03  0.12699999809E+01 0. -1.
</event>
<event>
 5   0  0.2353916E-04  0.9998521E+03  0.7818609E-02  0.9308707E-01
       -2   -1    0    0    0  501  0.00000000000E+00  0.00000000000E+00  0.31264570626E+03  0.31264570627E+03  0.25500000920E-02 0.  1.
        2   -1    0    0  501    0  0.00000000000E+00  0.00000000000E+00 -0.79939066330E+03  0.79939066331E+03  0.25500000920E-02 0. -1.
    10030    2    1    2    0    0  0.00000000000E+00  0.00000000000E+00 -0.48674495704E+03  0.11120363696E+04  0.99985210610E+03 0.  0.
        4    1    3    3  502    0  0.18715037906E+03  0.20538825534E+03 -0.70559176211E+03  0.75833432434E+03  0.12699999809E+01 0. -1.
       -4    1    3    3    0  502 -0.18715037906E+03 -0.20538825534E+03  0.21884680507E+03  0.35370204524E+03  0.12699999809E+01 0.  1.
</event>
<event>
 5   0  0.2353916E-04  0.1000071E+04  0.7818609E-02  0.9308467E-01
       -2   -1    0    0    0  501  0.00000000000E+00  0.00000000000E+00  0.17448883946E+03  0.17448883948E+03  0.25500000920E-02 0.  1.
        2   -1    0    0  501    0  0.00000000000E+00  0.00000000000E+00 -0.14329609426E+04  0.14329609426E+04  0.25500000920E-02 0. -1.
    10030    2    1    2    0    0  0.00000000000E+00  0.00000000000E+00 -0.12584721031E+04  0.16074497821E+04  0.10000713812E+04 0.  0.
        4    1    3    3  502    0  0.14969749915E+03 -0.25497355083E+03  0.18927115234E+02  0.29627808131E+03  0.12699999809E+01 0.  1.
       -4    1    3    3    0  502 -0.14969749915E+03  0.25497355083E+03 -0.12773992184E+04  0.13111717007E+04  0.12699999809E+01 0. -1.
</event>
<event>
 5   0  0.1414165E-04  0.9995381E+03  0.7818609E-02  0.9309052E-01
        1   -1    0    0  501    0  0.00000000000E+00  0.00000000000E+00  0.33551331845E+03  0.33551331849E+03  0.50400001928E-02 0. -1.
       -1   -1    0    0    0  501  0.00000000000E+00  0.00000000000E+00 -0.74443872328E+03  0.74443872329E+03  0.50400001928E-02 0.  1.
    10030    2    1    2    0    0  0.00000000000E+00  0.00000000000E+00 -0.40892540482E+03  0.10799520418E+04  0.99953810625E+03 0.  0.
        4    1    3    3  502    0  0.27239947577E+02  0.23540962425E+03 -0.67987074582E+03  0.71998996511E+03  0.12699999809E+01 0.  1.
       -4    1    3    3    0  502 -0.27239947577E+02 -0.23540962425E+03  0.27094534100E+03  0.35996207667E+03  0.12699999809E+01 0. -1.
</event>
<event>
 5   0  0.2503680E-04  0.9997116E+03  0.7818609E-02  0.9308861E-01
       -2   -1    0    0    0  501  0.00000000000E+00  0.00000000000E+00  0.28346412882E+03  0.28346412883E+03  0.25500000920E-02 0.  1.
        2   -1    0    0  501    0  0.00000000000E+00  0.00000000000E+00 -0.88143723110E+03  0.88143723110E+03  0.25500000920E-02 0. -1.
    10030    2    1    2    0    0  0.00000000000E+00  0.00000000000E+00 -0.59797310228E+03  0.11649013599E+04  0.99971163208E+03 0.  0.
        2    1    3    3  502    0 -0.89872960520E+02 -0.12322987554E+03 -0.85366045474E+03  0.86717871471E+03  0.25500000920E-02 0. -1.
       -2    1    3    3    0  502  0.89872960520E+02  0.12322987554E+03  0.25568735246E+03  0.29772264522E+03  0.25500000920E-02 0.  1.
</event>
<event>
 5   0  0.9650500E-05  0.1000752E+04  0.7818609E-02  0.9307720E-01
       -3   -1    0    0    0  501  0.00000000000E+00  0.00000000000E+00  0.13398273069E+04  0.13398273107E+04  0.10100000352E+00 0.  1.
        3   -1    0    0  501    0  0.00000000000E+00  0.00000000000E+00 -0.18687208239E+03  0.18687210968E+03  0.10100000352E+00 0. -1.
    10030    2    1    2    0    0  0.00000000000E+00  0.00000000000E+00  0.11529552245E+04  0.15266994204E+04  0.10007524022E+04 0.  0.
        3    1    3    3  502    0  0.29432582632E+03  0.33368430139E+03  0.92570375387E+03  0.10270834217E+04  0.10100000352E+00 0.  1.
       -3    1    3    3    0  502 -0.29432582632E+03 -0.33368430139E+03  0.22725147065E+03  0.49961599869E+03  0.10100000352E+00 0. -1.
</event>
<event>
 5   0  0.2353916E-04  0.1000267E+04  0.7818609E-02  0.9308252E-01
       -2   -1    0    0    0  501  0.00000000000E+00  0.00000000000E+00  0.30650922034E+03  0.30650922035E+03  0.25500000920E-02 0.  1.
        2   -1    0    0  501    0  0.00000000000E+00  0.00000000000E+00 -0.81607238254E+03  0.81607238255E+03  0.25500000920E-02 0. -1.
    10030    2    1    2    0    0  0.00000000000E+00  0.00000000000E+00 -0.50956316220E+03  0.11225816029E+04  0.10002673837E+04 0.  0.
        4    1    3    3  502    0 -0.28541025559E+03 -0.30037925852E+03  0.59548184876E+02  0.41860997619E+03  0.12699999809E+01 0.  1.
       -4    1    3    3    0  502  0.28541025559E+03  0.30037925852E+03 -0.56911134708E+03  0.70397162671E+03  0.12699999809E+01 0. -1.
</event>
<event>
 5   0  0.2473312E-04  0.9999295E+03  0.7818609E-02  0.9308622E-01
       -2   -1    0    0    0  501  0.00000000000E+00  0.00000000000E+00  0.41261136749E+03  0.41261136750E+03  0.25500000920E-02 0. -1.
        2   -1    0    0  501    0  0.00000000000E+00  0.00000000000E+00 -0.60581157246E+03  0.60581157246E+03  0.25500000920E-02 0.  1.
    10030    2    1    2    0    0  0.00000000000E+00  0.00000000000E+00 -0.19320020497E+03  0.10184229400E+04  0.99992948023E+03 0.  0.
        5    1    3    3  502    0  0.31143253879E+03 -0.35909095227E+03  0.61204521568E+02  0.47927510021E+03  0.46999998093E+01 0. -1.
       -5    1    3    3    0  502 -0.31143253879E+03  0.35909095227E+03 -0.25440472654E+03  0.53914783975E+03  0.46999998093E+01 0.  1.
</event>
<event>
 5   0  0.9650500E-05  0.9998994E+03  0.7818609E-02  0.9308655E-01
        4   -1    0    0  501    0  0.00000000000E+00  0.00000000000E+00  0.46738837965E+03  0.46739010508E+03  0.12699999809E+01 0. -1.
       -4   -1    0    0    0  501  0.00000000000E+00  0.00000000000E+00 -0.53477597676E+03  0.53477748477E+03  0.12699999809E+01 0.  1.
    10030    2    1    2    0    0  0.00000000000E+00  0.00000000000E+00 -0.67387597109E+02  0.10021675898E+04  0.99989938989E+03 0.  0.
        2    1    3    3  502    0 -0.37191491422E+03  0.31723853406E+03  0.71371025657E+02  0.49401904237E+03  0.25500000920E-02 0.  1.
       -2    1    3    3    0  502  0.37191491422E+03 -0.31723853406E+03 -0.13875862277E+03  0.50814854748E+03  0.25500000920E-02 0. -1.
</event>
<event>
 5   0  0.2484904E-04  0.1000130E+04  0.7818609E-02  0.9308403E-01
       -2   -1    0    0    0  501  0.00000000000E+00  0.00000000000E+00  0.20969702017E+03  0.20969702019E+03  0.25500000920E-02 0. -1.
        2   -1    0    0  501    0  0.00000000000E+00  0.00000000000E+00 -0.11925055258E+04  0.11925055258E+04  0.25500000920E-02 0.  1.
    10030    2    1    2    0    0  0.00000000000E+00  0.00000000000E+00 -0.98280850562E+03  0.14022025460E+04  0.10001297022E+04 0.  0.
        3    1    3    3  502    0 -0.47250492316E+03 -0.14688041837E+03 -0.39001105598E+03  0.63003443850E+03  0.10100000352E+00 0. -1.
       -3    1    3    3    0  502  0.47250492316E+03  0.14688041837E+03 -0.59279744965E+03  0.77216810749E+03  0.10100000352E+00 0.  1.
</event>
<event>
 5   0  0.1430675E-04  0.1001965E+04  0.7818609E-02  0.9306392E-01
        1   -1    0    0  501    0  0.00000000000E+00  0.00000000000E+00  0.45100953837E+03  0.45100953840E+03  0.50400001928E-02 0.  1.
       -1   -1    0    0    0  501  0.00000000000E+00  0.00000000000E+00 -0.55649261831E+03  0.55649261833E+03  0.50400001928E-02 0. -1.
    10030    2    1    2    0    0  0.00000000000E+00  0.00000000000E+00 -0.10548307994E+03  0.10075021567E+04  0.10019650272E+04 0.  0.
        5    1    3    3  502    0  0.34692968092E+03 -0.10386218634E+02 -0.41597642227E+03  0.54178090676E+03  0.46999998093E+01 0. -1.
       -5    1    3    3    0  502 -0.34692968092E+03  0.10386218634E+02  0.31049334233E+03  0.46572124997E+03  0.46999998093E+01 0.  1.
</event>
<event>
 5   0  0.1461334E-04  0.9998380E+03  0.7818609E-02  0.9308723E-01
       -1   -1    0    0    0  501  0.00000000000E+00  0.00000000000E+00  0.35021808119E+03  0.35021808123E+03  0.50400001928E-02 0. -1.
        1   -1    0    0  501    0  0.00000000000E+00  0.00000000000E+00 -0.71360959852E+03  0.71360959854E+03  0.50400001928E-02 0.  1.
    10030    2    1    2    0    0  0.00000000000E+00  0.00000000000E+00 -0.36339151733E+03  0.10638276798E+04  0.99983795556E+03 0.  0.
        2    1    3    3  502    0  0.29657847191E+03  0.38615343779E+03 -0.30228840863E+03  0.57310692678E+03  0.25500000920E-02 0.  1.
       -2    1    3    3    0  502 -0.29657847191E+03 -0.38615343779E+03 -0.61103108696E+02  0.49072075299E+03  0.25500000920E-02 0. -1.
</event>
<event>
 5   0  0.2403037E-04  0.9999994E+03  0.7818609E-02  0.9308545E-01
        2   -1    0    0  501    0  0.00000000000E+00  0.00000000000E+00  0.15975605685E+04  0.15975605685E+04  0.25500000920E-02 0. -1.
       -2   -1    0    0    0  501  0.00000000000E+00  0.00000000000E+00 -0.15648840162E+03  0.15648840164E+03  0.25500000920E-02 0.  1.
    10030    2    1    2    0    0  0.00000000000E+00  0.00000000000E+00  0.14410721669E+04  0.17540489701E+04  0.99999939974E+03 0.  0.
        1    1    3    3  502    0 -0.44728285931E+03  0.14361739701E+03  0.42023069708E+03  0.63030290476E+03  0.50400001928E-02 0.  1.
       -1    1    3    3    0  502  0.44728285931E+03 -0.14361739701E+03  0.10208414698E+04  0.11237460654E+04  0.50400001928E-02 0. -1.
</event>
<event>
 5   0  0.1414165E-04  0.9992714E+03  0.7818609E-02  0.9309344E-01
       -1   -1    0    0    0  501  0.00000000000E+00  0.00000000000E+00  0.19053741501E+04  0.19053741501E+04  0.50400001928E-02 0. -1.
        1   -1    0    0  501    0  0.00000000000E+00  0.00000000000E+00 -0.13101669046E+03  0.13101669056E+03  0.50400001928E-02 0.  1.
    10030    2    1    2    0    0  0.00000000000E+00  0.00000000000E+00  0.17743574596E+04  0.20363908406E+04  0.99927136522E+03 0.  0.
        4    1    3    3  502    0  0.31862525390E+03 -0.28355466715E+02  0.10502696025E+03  0.33668733299E+03  0.12699999809E+01 0.  1.
       -4    1    3    3    0  502 -0.31862525390E+03  0.28355466715E+02  0.16693304994E+04  0.16997035077E+04  0.12699999809E+01 0. -1.
</event>
<event>
 5   0  0.2484904E-04  0.1000638E+04  0.7818609E-02  0.9307845E-01
       -2   -1    0    0    0  501  0.00000000000E+00  0.00000000000E+00  0.14069565860E+03  0.14069565862E+03  0.25500000920E-02 0.  1.
        2   -1    0    0  501    0  0.00000000000E+00  0.00000000000E+00 -0.17791541048E+04  0.17791541048E+04  0.25500000920E-02 0. -1.
    10030    2    1    2    0    0  0.00000000000E+00  0.00000000000E+00 -0.16384584462E+04  0.19198497634E+04  0.10006383134E+04 0.  0.
        3    1    3    3  502    0  0.27942309081E+03 -0.53200880492E+02 -0.16089285257E+04  0.16338783946E+04  0.10100000352E+00 0. -1.
       -3    1    3    3    0  502 -0.27942309081E+03  0.53200880492E+02 -0.29529920480E+02  0.28597136879E+03  0.10100000352E+00 0.  1.
</event>
<event>
 5   0  0.1506454E-04  0.9997736E+03  0.7818609E-02  0.9308793E-01
       -1   -1    0    0    0  501  0.00000000000E+00  0.00000000000E+00  0.21783869539E+03  0.21783869545E+03  0.50400001928E-02 0.  1.
        1   -1    0    0  501    0  0.00000000000E+00  0.00000000000E+00 -0.11471184999E+04  0.11471184999E+04  0.50400001928E-02 0. -1.
    10030    2    1    2    0    0  0.00000000000E+00  0.00000000000E+00 -0.92927980446E+03  0.13649571953E+04  0.99977356940E+03 0.  0.
        3    1    3    3  502    0 -0.20919306827E+03 -0.45228560566E+03 -0.51861160039E+03  0.71922319982E+03  0.10100000352E+00 0. -1.
       -3    1    3    3    0  502  0.20919306827E+03  0.45228560566E+03 -0.41066820406E+03  0.64573399549E+03  0.10100000352E+00 0.  1.
</event>
<event>
 5   0  0.1506454E-04  0.1000004E+04  0.7818609E-02  0.9308540E-01
        1   -1    0    0  501    0  0.00000000000E+00  0.00000000000E+00  0.15043330505E+04  0.15043330505E+04  0.50400001928E-02 0. -1.
       -1   -1    0    0    0  501  0.00000000000E+00  0.00000000000E+00 -0.16618802710E+03  0.16618802718E+03  0.50400001928E-02 0.  1.
    10030    2    1    2    0    0  0.00000000000E+00  0.00000000000E+00  0.13381450234E+04  0.16705210777E+04  0.10000042837E+04 0.  0.
        3    1    3    3  502    0 -0.10572776825E+03  0.21827544401E+03  0.13994895158E+04  0.14203497617E+04  0.10100000352E+00 0. -1.
       -3    1    3    3    0  502  0.10572776825E+03 -0.21827544401E+03 -0.61344492358E+02  0.25017131606E+03  0.10100000352E+00 0.  1.
</event>
<event>
 5   0  0.1430675E-04  0.9998939E+03  0.7818609E-02  0.9308661E-01
       -1   -1    0    0    0  501  0.00000000000E+00  0.00000000000E+00  0.16857928977E+03  0.16857928985E+03  0.50400001928E-02 0. -1.
        1   -1    0    0  501    0  0.00000000000E+00  0.00000000000E+00 -0.14826668959E+04  0.14826668959E+04  0.50400001928E-02 0.  1.
    10030    2    1    2    0    0  0.00000000000E+00  0.00000000000E+00 -0.13140876061E+04  0.16512461858E+04  0.99989385907E+03 0.  0.
        5    1    3    3  502    0  0.54786522352E+01  0.10651692278E+03 -0.14636224136E+04  0.14675109983E+04  0.46999998093E+01 0.  1.
       -5    1    3    3    0  502 -0.54786522352E+01 -0.10651692278E+03  0.14953480748E+03  0.18373518747E+03  0.46999998093E+01 0. -1.
</event>
<event>
 5   0  0.2503680E-04  0.1000456E+04  0.7818609E-02  0.9308044E-01
        2   -1    0    0  501    0  0.00000000000E+00  0.00000000000E+00  0.55368908230E+03  0.55368908231E+03  0.25500000920E-02 0. -1.
       -2   -1    0    0    0  501  0.00000000000E+00  0.00000000000E+00 -0.45192926716E+03  0.45192926717E+03  0.25500000920E-02 0.  1.
    10030    2    1    2    0    0  0.00000000000E+00  0.00000000000E+00  0.10175981514E+03  0.10056183495E+04  0.10004564982E+04 0.  0.
        2    1    3    3  502    0  0.38780756277E+03  0.14991238201E+03 -0.22869156528E+03  0.47451897756E+03  0.25500000920E-02 0.  1.
       -2    1    3    3    0  502 -0.38780756277E+03 -0.14991238201E+03  0.33045138042E+03  0.53109937192E+03  0.25500000920E-02 0. -1.
</event>
<event>
 5   0  0.2473312E-04  0.9991854E+03  0.7818609E-02  0.9309439E-01
       -2   -1    0    0    0  501  0.00000000000E+00  0.00000000000E+00  0.41593845218E+03  0.41593845219E+03  0.25500000920E-02 0. -1.
        2   -1    0    0  501    0  0.00000000000E+00  0.00000000000E+00 -0.60007164316E+03  0.60007164317E+03  0.25500000920E-02 0.  1.
    10030    2    1    2    0    0  0.00000000000E+00  0.00000000000E+00 -0.18413319098E+03  0.10160100954E+04  0.99918540914E+03 0.  0.
        5    1    3    3  502    0  0.20726686005E+03 -0.29584811227E+03 -0.44296443617E+03  0.57159884404E+03  0.46999998093E+01 0.  1.
       -5    1    3    3    0  502 -0.20726686005E+03  0.29584811227E+03  0.25883124519E+03  0.44441125131E+03  0.46999998093E+01 0. -1.
</event>
<event>
 5   0  0.1414165E-04  0.9980934E+03  0.7818609E-02  0.9310638E-01
       -1   -1    0    0    0  501  0.00000000000E+00  0.00000000000E+00  0.58705955479E+03  0.58705955481E+03  0.50400001928E-02 0.  1.
        1   -1    0    0  501    0  0.00000000000E+00  0.00000000000E+00 -0.42422889996E+03  0.42422889999E+03  0.50400001928E-02 0. -1.
    10030    2    1    2    0    0  0.00000000000E+00  0.00000000000E+00  0.16283065483E+03  0.10112884548E+04  0.99809344085E+03 0.  0.
        4    1    3    3  502    0 -0.46777896694E+03 -0.17162822913E+03  0.53252082297E+02  0.50110957695E+03  0.12699999809E+01 0. -1.
       -4    1    3    3    0  502  0.46777896694E+03  0.17162822913E+03  0.10957857253E+03  0.51017887785E+03  0.12699999809E+01 0.  1.
</event>
<event>
 5   0  0.2353916E-04  0.1004995E+04  0.7818609E-02  0.9303083E-01
       -2   -1    0    0    0  501  0.00000000000E+00  0.00000000000E+00  0.38841606546E+03  0.38841606546E+03  0.25500000920E-02 0. -1.
        2   -1    0    0  501    0  0.00000000000E+00  0.00000000000E+00 -0.65008586819E+03  0.65008586819E+03  0.25500000920E-02 0.  1.
    10030    2    1    2    0    0  0.00000000000E+00  0.00000000000E+00 -0.26166980273E+03  0.10385019337E+04  0.10049951147E+04 0.  0.
        4    1    3    3  502    0 -0.52193940292E+02  0.47890294311E+03  0.16863898781E+02  0.48203551768E+03  0.12699999809E+01 0. -1.
       -4    1    3    3    0  502  0.52193940292E+02 -0.47890294311E+03 -0.27853370151E+03  0.55646641597E+03  0.12699999809E+01 0.  1.
</event>
<event>
 5   0  0.1430675E-04  0.9998491E+03  0.7818609E-02  0.9308710E-01
       -1   -1    0    0    0  501  0.00000000000E+00  0.00000000000E+00  0.21189949698E+03  0.21189949704E+03  0.50400001928E-02 0. -1.
        1   -1    0    0  501    0  0.00000000000E+00  0.00000000000E+00 -0.11794486710E+04  0.11794486710E+04  0.50400001928E-02 0.  1.
    10030    2    1    2    0    0  0.00000000000E+00  0.00000000000E+00 -0.96754917398E+03  0.13913481680E+04  0.99984914891E+03 0.  0.
        5    1    3    3  502    0  0.92840325161E+02  0.42086658891E+03 -0.13131053568E+03  0.45056914942E+03  0.46999998093E+01 0.  1.
       -5    1    3    3    0  502 -0.92840325161E+02 -0.42086658891E+03 -0.83623863830E+03  0.94077901859E+03  0.46999998093E+01 0. -1.
</event>
<event>
 5   0  0.2503680E-04  0.9993703E+03  0.7818609E-02  0.9309236E-01
       -2   -1    0    0    0  501  0.00000000000E+00  0.00000000000E+00  0.13740739680E+03  0.13740739682E+03  0.25500000920E-02 0. -1.
        2   -1    0    0  501    0  0.00000000000E+00  0.00000000000E+00 -0.18171164649E+04  0.18171164649E+04  0.25500000920E-02 0.  1.
    10030    2    1    2    0    0  0.00000000000E+00  0.00000000000E+00 -0.16797090682E+04  0.19545238618E+04  0.99937028803E+03 0.  0.
        2    1    3    3  502    0  0.13362148347E+03 -0.13725083688E+03  0.62748842724E+02  0.20156862439E+03  0.25500000920E-02 0. -1.
       -2    1    3    3    0  502 -0.13362148347E+03  0.13725083688E+03 -0.17424579109E+04  0.17529552374E+04  0.25500000920E-02 0.  1.
</event>
<event>
 5   0  0.2484904E-04  0.1000056E+04  0.7818609E-02  0.9308483E-01
        2   -1    0    0  501    0  0.00000000000E+00  0.00000000000E+00  0.71914549761E+03  0.71914549762E+03  0.25500000920E-02 0.  1.
       -2   -1    0    0    0  501  0.00000000000E+00  0.00000000000E+00 -0.34767406006E+03  0.34767406007E+03  0.25500000920E-02 0. -1.
    10030    2    1    2    0    0  0.00000000000E+00  0.00000000000E+00  0.37147143755E+03  0.10668195577E+04  0.10000564683E+04 0.  0.
        3    1    3    3  502    0  0.20069255059E+03  0.44895471055E+03  0.89193159071E+02  0.49979321906E+03  0.10100000352E+00 0.  1.
       -3    1    3    3    0  502 -0.20069255059E+03 -0.44895471055E+03  0.28227827848E+03  0.56702633863E+03  0.10100000352E+00 0. -1.
</event>
<event>
 5   0  0.1461334E-04  0.9998150E+03  0.7818609E-02  0.9308748E-01
       -1   -1    0    0    0  501  0.00000000000E+00  0.00000000000E+00  0.70385618881E+03  0.70385618883E+03  0.50400001928E-02 0.  1.
        1   -1    0    0  501    0  0.00000000000E+00  0.00000000000E+00 -0.35505478494E+03  0.35505478497E+03  0.50400001928E-02 0. -1.
    10030    2    1    2    0    0  0.00000000000E+00  0.00000000000E+00  0.34880140387E+03  0.10589109738E+04  0.99981499843E+03 0.  0.
        2    1    3    3  502    0 -0.18752671527E+03  0.17618636724E+03  0.62833595344E+03  0.67898009936E+03  0.25500000920E-02 0.  1.
       -2    1    3    3    0  502  0.18752671527E+03 -0.17618636724E+03 -0.27953454957E+03  0.37993087444E+03  0.25500000920E-02 0. -1.
</event>
<event>
 5   0  0.1430675E-04  0.1000442E+04  0.7818609E-02  0.9308061E-01
        1   -1    0    0  501    0  0.00000000000E+00  0.00000000000E+00  0.71161479909E+03  0.71161479911E+03  0.50400001928E-02 0. -1.
       -1   -1    0    0    0  501  0.00000000000E+00  0.00000000000E+00 -0.35162400398E+03  0.35162400401E+03  0.50400001928E-02 0.  1.
    10030    2    1    2    0    0  0.00000000000E+00  0.00000000000E+00  0.35999079512E+03  0.10632388031E+04  0.10004415924E+04 0.  0.
        5    1    3    3  502    0  0.75786251530E+02  0.27182213958E+03  0.61891781272E+03  0.68022950567E+03  0.46999998093E+01 0. -1.
       -5    1    3    3    0  502 -0.75786251530E+02 -0.27182213958E+03 -0.25892701760E+03  0.38300929745E+03  0.46999998093E+01 0.  1.
</event>
<event>
 5   0  0.2484904E-04  0.1000454E+04  0.7818609E-02  0.9308047E-01
       -2   -1    0    0    0  501  0.00000000000E+00  0.00000000000E+00  0.23302867950E+03  0.23302867951E+03  0.25500000920E-02 0.  1.
        2   -1    0    0  501    0  0.00000000000E+00  0.00000000000E+00 -0.10738031293E+04  0.10738031293E+04  0.25500000920E-02 0. -1.
    10030    2    1    2    0    0  0.00000000000E+00  0.00000000000E+00 -0.84077444977E+03  0.13068318088E+04  0.10004537476E+04 0.  0.
        3    1    3    3  502    0 -0.40045684383E+03  0.52710555921E+02 -0.80585577032E+03  0.90141423288E+03  0.10100000352E+00 0. -1.
       -3    1    3    3    0  502  0.40045684383E+03 -0.52710555921E+02 -0.34918679457E+02  0.40541757591E+03  0.10100000352E+00 0.  1.
</event>
<event>
 5   0  0.2484904E-04  0.9997683E+03  0.7818609E-02  0.9308799E-01
       -2   -1    0    0    0  501  0.00000000000E+00  0.00000000000E+00  0.29785595983E+03  0.29785595984E+03  0.25500000920E-02 0.  1.
        2   -1    0    0  501    0  0.00000000000E+00  0.00000000000E+00 -0.83894292665E+03  0.83894292666E+03  0.25500000920E-02 0. -1.
    10030    2    1    2    0    0  0.00000000000E+00  0.00000000000E+00 -0.54108696683E+03  0.11367988865E+04  0.99976827449E+03 0.  0.
        3    1    3    3  502    0  0.75154886862E+02  0.46405752694E+03 -0.46379891718E+03  0.66038404820E+03  0.10100000352E+00 0. -1.
       -3    1    3    3    0  502 -0.75154886862E+02 -0.46405752694E+03 -0.77288049647E+02  0.47641483830E+03  0.10100000352E+00 0.  1.
</event>
<event>
 5   0  0.2503680E-04  0.1000968E+04  0.7818609E-02  0.9307483E-01
       -2   -1    0    0    0  501  0.00000000000E+00  0.00000000000E+00  0.27047789537E+03  0.27047789539E+03  0.25500000920E-02 0. -1.
        2   -1    0    0  501    0  0.00000000000E+00  0.00000000000E+00 -0.92608103980E+03  0.92608103980E+03  0.25500000920E-02 0.  1.
    10030    2    1    2    0    0  0.00000000000E+00  0.00000000000E+00 -0.65560314442E+03  0.11965589352E+04  0.10009684323E+04 0.  0.
        2    1    3    3  502    0  0.23281255679E+03  0.29867993525E+03 -0.71896101667E+03  0.81259850714E+03  0.25500000920E-02 0.  1.
       -2    1    3    3    0  502 -0.23281255679E+03 -0.29867993525E+03  0.63357872244E+02  0.38396042804E+03  0.25500000920E-02 0. -1.
</event>
<event>
 5   0  0.1453863E-04  0.1005436E+04  0.7818609E-02  0.9302603E-01
        1   -1    0    0  501    0  0.00000000000E+00  0.00000000000E+00  0.32403937894E+03  0.32403937898E+03  0.50400001928E-02 0. -1.
       -1   -1    0    0    0  501  0.00000000000E+00  0.00000000000E+00 -0.77992141947E+03  0.77992141948E+03  0.50400001928E-02 0.  1.
    10030    2    1    2    0    0  0.00000000000E+00  0.00000000000E+00 -0.45588204053E+03  0.11039607985E+04  0.10054357312E+04 0.  0.
        1    1    3    3  502    0 -0.26404840655E+03  0.37991151705E+03 -0.12021628385E+02  0.46281620690E+03  0.50400001928E-02 0. -1.
       -1    1    3    3    0  502  0.26404840655E+03 -0.37991151705E+03 -0.44386041215E+03  0.64114459156E+03  0.50400001928E-02 0.  1.
</event>
<event>
 5   0  0.2353916E-04  0.1003398E+04  0.7818609E-02  0.9304825E-01
       -2   -1    0    0    0  501  0.00000000000E+00  0.00000000000E+00  0.25550010523E+03  0.25550010524E+03  0.25500000920E-02 0. -1.
        2   -1    0    0  501    0  0.00000000000E+00  0.00000000000E+00 -0.98513503004E+03  0.98513503004E+03  0.25500000920E-02 0.  1.
    10030    2    1    2    0    0  0.00000000000E+00  0.00000000000E+00 -0.72963492481E+03  0.12406351353E+04  0.10033984330E+04 0.  0.
        4    1    3    3  502    0 -0.15035697361E+03 -0.15222263721E+03 -0.92589327463E+03  0.95029412273E+03  0.12699999809E+01 0.  1.
       -4    1    3    3    0  502  0.15035697361E+03  0.15222263721E+03  0.19625834983E+03  0.29034101255E+03  0.12699999809E+01 0. -1.
</event>
<event>
 5   0  0.2484904E-04  0.1000550E+04  0.7818609E-02  0.9307942E-01
       -2   -1    0    0    0  501  0.00000000000E+00  0.00000000000E+00  0.34143139256E+03  0.34143139257E+03  0.25500000920E-02 0.  1.
        2   -1    0    0  501    0  0.00000000000E+00  0.00000000000E+00 -0.73301669360E+03  0.73301669361E+03  0.25500000920E-02 0. -1.
    10030    2    1    2    0    0  0.00000000000E+00  0.00000000000E+00 -0.39158530105E+03  0.10744480862E+04  0.10005496699E+04 0.  0.
        3    1    3    3  502    0 -0.26973504359E+03  0.29759053346E+03 -0.51607923931E+03  0.65395329404E+03  0.10100000352E+00 0. -1.
       -3    1    3    3    0  502  0.26973504359E+03 -0.29759053346E+03  0.12449393826E+03  0.42049479213E+03  0.10100000352E+00 0.  1.
</event>
<event>
 5   0  0.9650500E-05  0.9995679E+03  0.7818609E-02  0.9309019E-01
        4   -1    0    0  501    0  0.00000000000E+00  0.00000000000E+00  0.40805798154E+03  0.40805995785E+03  0.12699999809E+01 0. -1.
       -4   -1    0    0    0  501  0.00000000000E+00  0.00000000000E+00 -0.61212452879E+03  0.61212584625E+03  0.12699999809E+01 0.  1.
    10030    2    1    2    0    0  0.00000000000E+00  0.00000000000E+00 -0.20406654725E+03  0.10201858041E+04  0.99956786622E+03 0.  0.
        3    1    3    3  502    0  0.46753806341E+03 -0.84497263061E+02  0.56253880035E+02  0.47843091186E+03  0.10100000352E+00 0.  1.
       -3    1    3    3    0  502 -0.46753806341E+03  0.84497263061E+02 -0.26032042729E+03  0.54175489224E+03  0.10100000352E+00 0. -1.
</event>
<event>
 5   0  0.1453863E-04  0.1000213E+04  0.7818609E-02  0.9308312E-01
       -1   -1    0    0    0  501  0.00000000000E+00  0.00000000000E+00  0.34010525023E+03  0.34010525026E+03  0.50400001928E-02 0.  1.
        1   -1    0    0  501    0  0.00000000000E+00  0.00000000000E+00 -0.73537907390E+03  0.73537907392E+03  0.50400001928E-02 0. -1.
    10030    2    1    2    0    0  0.00000000000E+00  0.00000000000E+00 -0.39527382367E+03  0.10754843242E+04  0.10002125454E+04 0.  0.
        1    1    3    3  502    0 -0.16896973460E+03 -0.38759377005E+03 -0.48480587103E+03  0.64328565537E+03  0.50400001928E-02 0. -1.
       -1    1    3    3    0  502  0.16896973460E+03  0.38759377005E+03  0.89532047361E+02  0.43219866881E+03  0.50400001928E-02 0.  1.
</event>
<event>
 5   0  0.2403037E-04  0.9999257E+03  0.7818609E-02  0.9308626E-01
        2   -1    0    0  501    0  0.00000000000E+00  0.00000000000E+00  0.13731132211E+04  0.13731132212E+04  0.25500000920E-02 0.  1.
       -2   -1    0    0    0  501  0.00000000000E+00  0.00000000000E+00 -0.18204096998E+03  0.18204097000E+03  0.25500000920E-02 0. -1.
    10030    2    1    2    0    0  0.00000000000E+00  0.00000000000E+00  0.11910722512E+04  0.15551541911E+04  0.99992572261E+03 0.  0.
        1    1    3    3  502    0 -0.35207584308E+03 -0.30539299528E+03  0.31412004444E+03  0.56204420039E+03  0.50400001928E-02 0. -1.
       -1    1    3    3    0  502  0.35207584308E+03  0.30539299528E+03  0.87695220673E+03  0.99310999076E+03  0.50400001928E-02 0.  1.
</event>
<event>
 5   0  0.1430675E-04  0.9998209E+03  0.7818609E-02  0.9308741E-01
       -1   -1    0    0    0  501  0.00000000000E+00  0.00000000000E+00  0.68458613787E+03  0.68458613789E+03  0.50400001928E-02 0. -1.
        1   -1    0    0  501    0  0.00000000000E+00  0.00000000000E+00 -0.36505334914E+03  0.36505334917E+03  0.50400001928E-02 0.  1.
    10030    2    1    2    0    0  0.00000000000E+00  0.00000000000E+00  0.31953278873E+03  0.10496394871E+04  0.99982090882E+03 0.  0.
        5    1    3    3  502    0  0.39167488420E+02  0.43598587888E+03  0.41318743334E+03  0.60196654708E+03  0.46999998093E+01 0. -1.
       -5    1    3    3    0  502 -0.39167488420E+02 -0.43598587888E+03 -0.93654644608E+02  0.44767293998E+03  0.46999998093E+01 0.  1.
</event>
<event>
 5   0  0.1414165E-04  0.9999120E+03  0.7818609E-02  0.9308641E-01
        1   -1    0    0  501    0  0.00000000000E+00  0.00000000000E+00  0.78420965986E+03  0.78420965987E+03  0.50400001928E-02 0. -1.
       -1   -1    0    0    0  501  0.00000000000E+00  0.00000000000E+00 -0.31873618243E+03  0.31873618247E+03  0.50400001928E-02 0.  1.
    10030    2    1    2    0    0  0.00000000000E+00  0.00000000000E+00  0.46547347743E+03  0.11029458423E+04  0.99991198260E+03 0.  0.
        4    1    3    3  502    0 -0.32673253662E+01 -0.19623885401E+03 -0.27446396291E+03  0.33742027662E+03  0.12699999809E+01 0.  1.
       -4    1    3    3    0  502  0.32673253662E+01  0.19623885401E+03  0.73993744035E+03  0.76552556572E+03  0.12699999809E+01 0. -1.
</event>
<event>
 5   0  0.2484904E-04  0.9990034E+03  0.7818609E-02  0.9309639E-01
       -2   -1    0    0    0  501  0.00000000000E+00  0.00000000000E+00  0.43236104042E+03  0.43236104043E+03  0.25500000920E-02 0. -1.
        2   -1    0    0  501    0  0.00000000000E+00  0.00000000000E+00 -0.57706851775E+03  0.57706851776E+03  0.25500000920E-02 0.  1.
    10030    2    1    2    0    0  0.00000000000E+00  0.00000000000E+00 -0.14470747733E+03  0.10094295582E+04  0.99900339286E+03 0.  0.
        3    1    3    3  502    0  0.11303850002E+03 -0.46060472269E+03 -0.23072986872E+03  0.52741889952E+03  0.10100000352E+00 0.  1.
       -3    1    3    3    0  502 -0.11303850002E+03  0.46060472269E+03  0.86022391389E+02  0.48201065867E+03  0.10100000352E+00 0. -1.
</event>
<event>
 5   0  0.1414165E-04  0.1000459E+04  0.7818609E-02  0.9308042E-01
       -1   -1    0    0    0  501  0.00000000000E+00  0.00000000000E+00  0.42329535207E+03  0.42329535210E+03  0.50400001928E-02 0. -1.
        1   -1    0    0  501    0  0.00000000000E+00  0.00000000000E+00 -0.59114638579E+03  0.59114638581E+03  0.50400001928E-02 0.  1.
    10030    2    1    2    0    0  0.00000000000E+00  0.00000000000E+00 -0.16785103372E+03  0.10144417379E+04  0.10004589297E+04 0.  0.
        4    1    3    3  502    0 -0.79768423066E+02 -0.66501144234E+02 -0.58009318931E+03  0.58931750754E+03  0.12699999809E+01 0.  1.
       -4    1    3    3    0  502  0.79768423066E+02  0.66501144234E+02  0.41224215559E+03  0.42512423037E+03  0.12699999809E+01 0. -1.
</event>
<event>
 5   0  0.1453863E-04  0.1000413E+04  0.7818609E-02  0.9308092E-01
        1   -1    0    0  501    0  0.00000000000E+00  0.00000000000E+00  0.10837813228E+04  0.10837813229E+04  0.50400001928E-02 0. -1.
       -1   -1    0    0    0  501  0.00000000000E+00  0.00000000000E+00 -0.23086460216E+03  0.23086460221E+03  0.50400001928E-02 0.  1.
    10030    2    1    2    0    0  0.00000000000E+00  0.00000000000E+00  0.85291672068E+03  0.13146459251E+04  0.10004134025E+04 0.  0.
        1    1    3    3  502    0  0.34190059131E+03 -0.13453484467E+03 -0.19584374138E+02  0.36793910706E+03  0.50400001928E-02 0.  1.
       -1    1    3    3    0  502 -0.34190059131E+03  0.13453484467E+03  0.87250109482E+03  0.94670681800E+03  0.50400001928E-02 0. -1.
</event>
<event>
 5   0  0.1461334E-04  0.9998415E+03  0.7818609E-02  0.9308719E-01
        1   -1    0    0  501    0  0.00000000000E+00  0.00000000000E+00  0.20911691439E+04  0.20911691439E+04  0.50400001928E-02 0.  1.
       -1   -1    0    0    0  501  0.00000000000E+00  0.00000000000E+00 -0.11951245869E+03  0.11951245880E+03  0.50400001928E-02 0. -1.
    10030    2    1    2    0    0  0.00000000000E+00  0.00000000000E+00  0.19716566852E+04  0.22106816027E+04  0.99984151954E+03 0.  0.
        2    1    3    3  502    0  0.47592343420E+02  0.22247165292E+03  0.15785632729E+01  0.22751078958E+03  0.25500000920E-02 0. -1.
       -2    1    3    3    0  502 -0.47592343420E+02 -0.22247165292E+03  0.19700781219E+04  0.19831708131E+04  0.25500000920E-02 0.  1.
</event>
<event>
 5   0  0.2403037E-04  0.1000020E+04  0.7818609E-02  0.9308522E-01
        2   -1    0    0  501    0  0.00000000000E+00  0.00000000000E+00  0.16389611567E+04  0.16389611567E+04  0.25500000920E-02 0.  1.
       -2   -1    0    0    0  501  0.00000000000E+00  0.00000000000E+00 -0.15254187571E+03  0.15254187574E+03  0.25500000920E-02 0. -1.
    10030    2    1    2    0    0  0.00000000000E+00  0.00000000000E+00  0.14864192810E+04  0.17915030324E+04  0.10000204180E+04 0.  0.
        1    1    3    3  502    0  0.75942875472E+01 -0.42539657363E+03  0.27266300907E+03  0.50533655577E+03  0.50400001928E-02 0. -1.
       -1    1    3    3    0  502 -0.75942875472E+01  0.42539657363E+03  0.12137562719E+04  0.12861664767E+04  0.50400001928E-02 0.  1.
</event>
<event>
 5   0  0.1430675E-04  0.1001075E+04  0.7818609E-02  0.9307366E-01
        1   -1    0    0  501    0  0.00000000000E+00  0.00000000000E+00  0.60230553157E+03  0.60230553159E+03  0.50400001928E-02 0.  1.
       -1   -1    0    0    0  501  0.00000000000E+00  0.00000000000E+00 -0.41596477518E+03  0.41596477521E+03  0.50400001928E-02 0. -1.
    10030    2    1    2    0    0  0.00000000000E+00  0.00000000000E+00  0.18634075639E+03  0.10182703068E+04  0.10010751921E+04 0.  0.
        5    1    3    3  502    0 -0.15988898234E+01  0.37053308771E+03  0.43542949121E+03  0.57176766028E+03  0.46999998093E+01 0.  1.
       -5    1    3    3    0  502  0.15988898234E+01 -0.37053308771E+03 -0.24908873481E+03  0.44650264651E+03  0.46999998093E+01 0. -1.
</event>
<event>
 5   0  0.2484904E-04  0.9997427E+03  0.7818609E-02  0.9308827E-01
        2   -1    0    0  501    0  0.00000000000E+00  0.00000000000E+00  0.41130888552E+03  0.41130888553E+03  0.25500000920E-02 0. -1.
       -2   -1    0    0    0  501  0.00000000000E+00  0.00000000000E+00 -0.60750294957E+03  0.60750294957E+03  0.25500000920E-02 0.  1.
    10030    2    1    2    0    0  0.00000000000E+00  0.00000000000E+00 -0.19619406405E+03  0.10188118351E+04  0.99974268918E+03 0.  0.
        3    1    3    3  502    0 -0.10602106210E+03  0.50291291074E+02  0.39707405131E+03  0.41405010807E+03  0.10100000352E+00 0. -1.
       -3    1    3    3    0  502  0.10602106210E+03 -0.50291291074E+02 -0.59326811536E+03  0.60476172702E+03  0.10100000352E+00 0.  1.
</event>
<event>
 5   0  0.2503680E-04  0.9997498E+03  0.7818609E-02  0.9308819E-01
        2   -1    0    0  501    0  0.00000000000E+00  0.00000000000E+00  0.80858286751E+03  0.80858286751E+03  0.25500000920E-02 0. -1.
       -2   -1    0    0    0  501  0.00000000000E+00  0.00000000000E+00 -0.30902818136E+03  0.30902818137E+03  0.25500000920E-02 0.  1.
    10030    2    1    2    0    0  0.00000000000E+00  0.00000000000E+00  0.49955468615E+03  0.11176110489E+04  0.99974975475E+03 0.  0.
        2    1    3    3  502    0  0.17203101193E+03  0.21294189540E+02 -0.27435345657E+03  0.32452724187E+03  0.25500000920E-02 0.  1.
       -2    1    3    3    0  502 -0.17203101193E+03 -0.21294189540E+02  0.77390814272E+03  0.79308380701E+03  0.25500000920E-02 0. -1.
</event>
<event>
 5   0  0.2353916E-04  0.9995535E+03  0.7818609E-02  0.9309035E-01
        2   -1    0    0  501    0  0.00000000000E+00  0.00000000000E+00  0.93057279507E+03  0.93057279507E+03  0.25500000920E-02 0. -1.
       -2   -1    0    0    0  501  0.00000000000E+00  0.00000000000E+00 -0.26841190405E+03  0.26841190406E+03  0.25500000920E-02 0.  1.
    10030    2    1    2    0    0  0.00000000000E+00  0.00000000000E+00  0.66216089102E+03  0.11989846991E+04  0.99955353191E+03 0.  0.
        4    1    3    3  502    0 -0.19228608795E+02  0.43720731612E+03  0.41562805918E+02  0.43960101956E+03  0.12699999809E+01 0. -1.
       -4    1    3    3    0  502  0.19228608795E+02 -0.43720731612E+03  0.62059808511E+03  0.75938367957E+03  0.12699999809E+01 0.  1.
</event>
<event>
 5   0  0.2484904E-04  0.9995455E+03  0.7818609E-02  0.9309043E-01
       -2   -1    0    0    0  501  0.00000000000E+00  0.00000000000E+00  0.24266633888E+03  0.24266633889E+03  0.25500000920E-02 0. -1.
        2   -1    0    0  501    0  0.00000000000E+00  0.00000000000E+00 -0.10292849629E+04  0.10292849629E+04  0.25500000920E-02 0.  1.
    10030    2    1    2    0    0  0.00000000000E+00  0.00000000000E+00 -0.78661862407E+03  0.12719513018E+04  0.99954552398E+03 0.  0.
        3    1    3    3  502    0 -0.49337647148E+03  0.70744628832E+02 -0.44002446779E+03  0.66486591699E+03  0.10100000352E+00 0. -1.
       -3    1    3    3    0  502  0.49337647148E+03 -0.70744628832E+02 -0.34659415628E+03  0.60708538484E+03  0.10100000352E+00 0.  1.
</event>
<event>
 5   0  0.1453863E-04  0.9999067E+03  0.7818609E-02  0.9308647E-01
        1   -1    0    0  501    0  0.00000000000E+00  0.00000000000E+00  0.10901032292E+04  0.10901032292E+04  0.50400001928E-02 0.  1.
       -1   -1    0    0    0  501  0.00000000000E+00  0.00000000000E+00 -0.22929326976E+03  0.22929326982E+03  0.50400001928E-02 0. -1.
    10030    2    1    2    0    0  0.00000000000E+00  0.00000000000E+00  0.86080995946E+03  0.13193964991E+04  0.99990666335E+03 0.  0.
        1    1    3    3  502    0  0.84910280444E+02 -0.36668322447E+02  0.10787163063E+04  0.10826740928E+04  0.50400001928E-02 0.  1.
       -1    1    3    3    0  502 -0.84910280444E+02  0.36668322447E+02 -0.21790634688E+03  0.23672240627E+03  0.50400001928E-02 0. -1.
</event>
<event>
 5   0  0.1430675E-04  0.1000683E+04  0.7818609E-02  0.9307796E-01
       -1   -1    0    0    0  501  0.00000000000E+00  0.00000000000E+00  0.17606911846E+03  0.17606911853E+03  0.50400001928E-02 0. -1.
        1   -1    0    0  501    0  0.00000000000E+00  0.00000000000E+00 -0.14218369407E+04  0.14218369407E+04  0.50400001928E-02 0.  1.
    10030    2    1    2    0    0  0.00000000000E+00  0.00000000000E+00 -0.12457678222E+04  0.15979060592E+04  0.10006829204E+04 0.  0.
        5    1    3    3  502    0 -0.27624573652E+03  0.25994876298E+03 -0.10193419444E+03  0.39280750542E+03  0.46999998093E+01 0. -1.
       -5    1    3    3    0  502  0.27624573652E+03 -0.25994876298E+03 -0.11438336278E+04  0.12050985538E+04  0.46999998093E+01 0.  1.
</event>
<event>
 5   0  0.9650500E-05  0.9999140E+03  0.7818609E-02  0.9308639E-01
        3   -1    0    0  501    0  0.00000000000E+00  0.00000000000E+00  0.46399774782E+03  0.46399775881E+03  0.10100000352E+00 0.  1.
       -3   -1    0    0    0  501  0.00000000000E+00  0.00000000000E+00 -0.53870299950E+03  0.53870300897E+03  0.10100000352E+00 0. -1.
    10030    2    1    2    0    0  0.00000000000E+00  0.00000000000E+00 -0.74705251688E+02  0.10027007678E+04  0.99991397384E+03 0.  0.
        2    1    3    3  502    0  0.37845726035E+03 -0.30350111051E+03  0.83873364093E+02  0.49231855866E+03  0.25500000920E-02 0.  1.
       -2    1    3    3    0  502 -0.37845726035E+03  0.30350111051E+03 -0.15857861578E+03  0.51038220912E+03  0.25500000920E-02 0. -1.
</event>
<event>
 5   0  0.2353916E-04  0.9998819E+03  0.7818609E-02  0.9308674E-01
        2   -1    0    0  501    0  0.00000000000E+00  0.00000000000E+00  0.19283699290E+04  0.19283699290E+04  0.25500000920E-02 0. -1.
       -2   -1    0    0    0  501  0.00000000000E+00  0.00000000000E+00 -0.12961254782E+03  0.12961254785E+03  0.25500000920E-02 0.  1.
    10030    2    1    2    0    0  0.00000000000E+00  0.00000000000E+00  0.17987573812E+04  0.20579824768E+04  0.99988187236E+03 0.  0.
        4    1    3    3  502    0  0.99696199878E+02  0.31368175484E+03  0.12486275653E+03  0.35203394219E+03  0.12699999809E+01 0.  1.
       -4    1    3    3    0  502 -0.99696199878E+02 -0.31368175484E+03  0.16738946246E+04  0.17059485346E+04  0.12699999809E+01 0. -1.
</event>
<event>
 5   0  0.2503680E-04  0.1000613E+04  0.7818609E-02  0.9307872E-01
       -2   -1    0    0    0  501  0.00000000000E+00  0.00000000000E+00  0.53102038965E+03  0.53102038966E+03  0.25500000920E-02 0.  1.
        2   -1    0    0  501    0  0.00000000000E+00  0.00000000000E+00 -0.47136954832E+03  0.47136954832E+03  0.25500000920E-02 0. -1.
    10030    2    1    2    0    0  0.00000000000E+00  0.00000000000E+00  0.59650841335E+02  0.10023899380E+04  0.10006134943E+04 0.  0.
        2    1    3    3  502    0  0.59755824660E+02 -0.38260992571E+02 -0.46630343589E+03  0.47167102568E+03  0.25500000920E-02 0. -1.
       -2    1    3    3    0  502 -0.59755824660E+02  0.38260992571E+02  0.52595427723E+03  0.53071891230E+03  0.25500000920E-02 0.  1.
</event>
<event>
 5   0  0.1461334E-04  0.1000068E+04  0.7818609E-02  0.9308470E-01
        1   -1    0    0  501    0  0.00000000000E+00  0.00000000000E+00  0.48596614534E+03  0.48596614537E+03  0.50400001928E-02 0.  1.
       -1   -1    0    0    0  501  0.00000000000E+00  0.00000000000E+00 -0.51450894375E+03  0.51450894377E+03  0.50400001928E-02 0. -1.
    10030    2    1    2    0    0  0.00000000000E+00  0.00000000000E+00 -0.28542798406E+02  0.10004750891E+04  0.10000678540E+04 0.  0.
        2    1    3    3  502    0 -0.18655195660E+03  0.40428085288E+02 -0.47662608803E+03  0.51342817452E+03  0.25500000920E-02 0. -1.
       -2    1    3    3    0  502  0.18655195660E+03 -0.40428085288E+02  0.44808328963E+03  0.48704691462E+03  0.25500000920E-02 0.  1.
</event>
<event>
 5   0  0.9650500E-05  0.1000343E+04  0.7818609E-02  0.9308168E-01
       -4   -1    0    0    0  501  0.00000000000E+00  0.00000000000E+00  0.19093019771E+03  0.19093442146E+03  0.12699999809E+01 0.  1.
        4   -1    0    0  501    0  0.00000000000E+00  0.00000000000E+00 -0.13102593062E+04  0.13102599217E+04  0.12699999809E+01 0. -1.
    10030    2    1    2    0    0  0.00000000000E+00  0.00000000000E+00 -0.11193291085E+04  0.15011943431E+04  0.10003433424E+04 0.  0.
        2    1    3    3  502    0  0.46897321532E+02  0.31289867683E+03 -0.11410043933E+04  0.11840591059E+04  0.25500000920E-02 0. -1.
       -2    1    3    3    0  502 -0.46897321532E+02 -0.31289867683E+03  0.21675284808E+02  0.31713523725E+03  0.25500000920E-02 0.  1.
</event>
<event>
 5   0  0.2403037E-04  0.9993038E+03  0.7818609E-02  0.9309309E-01
       -2   -1    0    0    0  501  0.00000000000E+00  0.00000000000E+00  0.55037889463E+03  0.55037889463E+03  0.25500000920E-02 0.  1.
        2   -1    0    0  501    0  0.00000000000E+00  0.00000000000E+00 -0.45360027912E+03  0.45360027913E+03  0.25500000920E-02 0. -1.
    10030    2    1    2    0    0  0.00000000000E+00  0.00000000000E+00  0.96778615509E+02  0.10039791738E+04  0.99930379811E+03 0.  0.
        1    1    3    3  502    0 -0.43586549051E+03 -0.20002733323E+03 -0.92489280699E+02  0.48840958931E+03  0.50400001928E-02 0. -1.
       -1    1    3    3    0  502  0.43586549051E+03  0.20002733323E+03  0.18926789621E+03  0.51556958446E+03  0.50400001928E-02 0.  1.
</event>
<event>
 5   0  0.1414165E-04  0.1000020E+04  0.7818609E-02  0.9308523E-01
       -1   -1    0    0    0  501  0.00000000000E+00  0.00000000000E+00  0.14418872954E+03  0.14418872963E+03  0.50400001928E-02 0.  1.
        1   -1    0    0  501    0  0.00000000000E+00  0.00000000000E+00 -0.17339089550E+04  0.17339089550E+04  0.50400001928E-02 0. -1.
    10030    2    1    2    0    0  0.00000000000E+00  0.00000000000E+00 -0.15897202255E+04  0.18780976847E+04  0.10000202587E+04 0.  0.
        4    1    3    3  502    0  0.19703797348E+02  0.31986885743E+03 -0.15156636857E+04  0.15491747308E+04  0.12699999809E+01 0. -1.
       -4    1    3    3    0  502 -0.19703797348E+02 -0.31986885743E+03 -0.74056539799E+02  0.32892295385E+03  0.12699999809E+01 0.  1.
</event>
<event>
 5   0  0.1430675E-04  0.9986932E+03  0.7818609E-02  0.9309979E-01
       -1   -1    0    0    0  501  0.00000000000E+00  0.00000000000E+00  0.76258132792E+03  0.76258132794E+03  0.50400001928E-02 0.  1.
        1   -1    0    0  501    0  0.00000000000E+00  0.00000000000E+00 -0.32697759118E+03  0.32697759122E+03  0.50400001928E-02 0. -1.
    10030    2    1    2    0    0  0.00000000000E+00  0.00000000000E+00  0.43560373674E+03  0.10895589192E+04  0.99869315751E+03 0.  0.
        5    1    3    3  502    0  0.19631264706E+03  0.10777808751E+03 -0.26908803056E+03  0.35012173559E+03  0.46999998093E+01 0. -1.
       -5    1    3    3    0  502 -0.19631264706E+03 -0.10777808751E+03  0.70469176730E+03  0.73943718357E+03  0.46999998093E+01 0.  1.
</event>
<event>
 5   0  0.1453863E-04  0.9998632E+03  0.7818609E-02  0.9308695E-01
       -1   -1    0    0    0  501  0.00000000000E+00  0.00000000000E+00  0.21023032626E+03  0.21023032632E+03  0.50400001928E-02 0. -1.
        1   -1    0    0  501    0  0.00000000000E+00  0.00000000000E+00 -0.11888465058E+04  0.11888465059E+04  0.50400001928E-02 0.  1.
    10030    2    1    2    0    0  0.00000000000E+00  0.00000000000E+00 -0.97861617959E+03  0.13990768322E+04  0.99986316833E+03 0.  0.
        1    1    3    3  502    0  0.40225546474E+03 -0.23081973990E+03 -0.22811159176E+03  0.51683857206E+03  0.50400001928E-02 0.  1.
       -1    1    3    3    0  502 -0.40225546474E+03  0.23081973990E+03 -0.75050458783E+03  0.88223826012E+03  0.50400001928E-02 0. -1.
</event>
<event>
 5   0  0.1506454E-04  0.9998353E+03  0.7818609E-02  0.9308725E-01
       -1   -1    0    0    0  501  0.00000000000E+00  0.00000000000E+00  0.27934259893E+03  0.27934259898E+03  0.50400001928E-02 0. -1.
        1   -1    0    0  501    0  0.00000000000E+00  0.00000000000E+00 -0.89466362632E+03  0.89466362633E+03  0.50400001928E-02 0.  1.
    10030    2    1    2    0    0  0.00000000000E+00  0.00000000000E+00 -0.61532102739E+03  0.11740062253E+04  0.99983531160E+03 0.  0.
        3    1    3    3  502    0 -0.71713822527E+02  0.35664629068E+03 -0.71028977924E+03  0.79802946668E+03  0.10100000352E+00 0.  1.
       -3    1    3    3    0  502  0.71713822527E+02 -0.35664629068E+03  0.94968751856E+02  0.37597675863E+03  0.10100000352E+00 0. -1.
</event>
<event>
 5   0  0.2403037E-04  0.1004840E+04  0.7818609E-02  0.9303253E-01
        2   -1    0    0  501    0  0.00000000000E+00  0.00000000000E+00  0.18126833676E+04  0.18126833676E+04  0.25500000920E-02 0. -1.
       -2   -1    0    0    0  501  0.00000000000E+00  0.00000000000E+00 -0.13925526412E+03  0.13925526414E+03  0.25500000920E-02 0.  1.
    10030    2    1    2    0    0  0.00000000000E+00  0.00000000000E+00  0.16734281035E+04  0.19519386318E+04  0.10048396910E+04 0.  0.
        1    1    3    3  502    0  0.25121044958E+03 -0.57766924978E+02  0.16744455162E+04  0.16941698541E+04  0.50400001928E-02 0. -1.
       -1    1    3    3    0  502 -0.25121044958E+03  0.57766924978E+02 -0.10174127173E+01  0.25776877770E+03  0.50400001928E-02 0.  1.
</event>
<event>
 5   0  0.2403037E-04  0.9999386E+03  0.7818609E-02  0.9308612E-01
        2   -1    0    0  501    0  0.00000000000E+00  0.00000000000E+00  0.11617525589E+04  0.11617525589E+04  0.25500000920E-02 0. -1.
       -2   -1    0    0    0  501  0.00000000000E+00  0.00000000000E+00 -0.21516570586E+03  0.21516570588E+03  0.25500000920E-02 0.  1.
    10030    2    1    2    0    0  0.00000000000E+00  0.00000000000E+00  0.94658685303E+03  0.13769182648E+04  0.99993861688E+03 0.  0.
        1    1    3    3  502    0 -0.56226741827E+02  0.29233052242E+03  0.10264146023E+04  0.10687120831E+04  0.50400001928E-02 0. -1.
       -1    1    3    3    0  502  0.56226741827E+02 -0.29233052242E+03 -0.79827749234E+02  0.30820618165E+03  0.50400001928E-02 0.  1.
</event>
<event>
 5   0  0.1430675E-04  0.9998664E+03  0.7818609E-02  0.9308691E-01
        1   -1    0    0  501    0  0.00000000000E+00  0.00000000000E+00  0.86847280496E+03  0.86847280497E+03  0.50400001928E-02 0. -1.
       -1   -1    0    0    0  501  0.00000000000E+00  0.00000000000E+00 -0.28778473238E+03  0.28778473242E+03  0.50400001928E-02 0.  1.
    10030    2    1    2    0    0  0.00000000000E+00  0.00000000000E+00  0.58068807258E+03  0.11562575374E+04  0.99986641865E+03 0.  0.
        5    1    3    3  502    0 -0.79732739376E+01  0.49542446801E+03  0.21361762702E+03  0.53959573494E+03  0.46999998093E+01 0. -1.
       -5    1    3    3    0  502  0.79732739376E+01 -0.49542446801E+03  0.36707044556E+03  0.61666180245E+03  0.46999998093E+01 0.  1.
</event>
<event>
 5   0  0.2353916E-04  0.1000799E+04  0.7818609E-02  0.9307669E-01
       -2   -1    0    0    0  501  0.00000000000E+00  0.00000000000E+00  0.10437948721E+04  0.10437948721E+04  0.25500000920E-02 0.  1.
        2   -1    0    0  501    0  0.00000000000E+00  0.00000000000E+00 -0.23989334550E+03  0.23989334552E+03  0.25500000920E-02 0. -1.
    10030    2    1    2    0    0  0.00000000000E+00  0.00000000000E+00  0.80390152663E+03  0.12836882177E+04  0.10007985690E+04 0.  0.
        4    1    3    3  502    0 -0.20944944999E+03  0.38458699674E+03  0.71250804478E+03  0.83632861780E+03  0.12699999809E+01 0.  1.
       -4    1    3    3    0  502  0.20944944999E+03 -0.38458699674E+03  0.91393481849E+02  0.44735959986E+03  0.12699999809E+01 0. -1.
</event>
<event>
 5   0  0.1461334E-04  0.1000041E+04  0.7818609E-02  0.9308500E-01
        1   -1    0    0  501    0  0.00000000000E+00  0.00000000000E+00  0.26179994212E+03  0.26179994216E+03  0.50400001928E-02 0.  1.
       -1   -1    0    0    0  501  0.00000000000E+00  0.00000000000E+00 -0.95500573769E+03  0.95500573771E+03  0.50400001928E-02 0. -1.
    10030    2    1    2    0    0  0.00000000000E+00  0.00000000000E+00 -0.69320579558E+03  0.12168056799E+04  0.10000408929E+04 0.  0.
        2    1    3    3  502    0 -0.31106144022E+03  0.27040490820E+01  0.12972855392E+03  0.33704010026E+03  0.25500000920E-02 0.  1.
       -2    1    3    3    0  502  0.31106144022E+03 -0.27040490820E+01 -0.82293434950E+03  0.87976557961E+03  0.25500000920E-02 0. -1.
</event>
<event>
 5   0  0.2473312E-04  0.1005326E+04  0.7818609E-02  0.9302723E-01
       -2   -1    0    0    0  501  0.00000000000E+00  0.00000000000E+00  0.14203185520E+03  0.14203185523E+03  0.25500000920E-02 0.  1.
        2   -1    0    0  501    0  0.00000000000E+00  0.00000000000E+00 -0.17789664923E+04  0.17789664923E+04  0.25500000920E-02 0. -1.
    10030    2    1    2    0    0  0.00000000000E+00  0.00000000000E+00 -0.16369346371E+04  0.19209983475E+04  0.10053256413E+04 0.  0.
        5    1    3    3  502    0 -0.16297999170E+03  0.19920804686E+03 -0.16434501875E+04  0.16634893845E+04  0.46999998093E+01 0. -1.
       -5    1    3    3    0  502  0.16297999170E+03 -0.19920804686E+03  0.65155504089E+01  0.25750896300E+03  0.46999998093E+01 0.  1.
</event>
<event>
 5   0  0.2473312E-04  0.9999901E+03  0.7818609E-02  0.9308556E-01
        2   -1    0    0  501    0  0.00000000000E+00  0.00000000000E+00  0.74034981887E+03  0.74034981887E+03  0.25500000920E-02 0.  1.
       -2   -1    0    0    0  501  0.00000000000E+00  0.00000000000E+00 -0.33767150335E+03  0.33767150336E+03  0.25500000920E-02 0. -1.
    10030    2    1    2    0    0  0.00000000000E+00  0.00000000000E+00  0.40267831552E+03  0.10780213222E+04  0.99999007265E+03 0.  0.
        5    1    3    3  502    0 -0.10529365060E+03  0.35384115446E+03 -0.16213933638E+03  0.40323884962E+03  0.46999998093E+01 0. -1.
       -5    1    3    3    0  502  0.10529365060E+03 -0.35384115446E+03  0.56481765190E+03  0.67478247261E+03  0.46999998093E+01 0.  1.
</event>
<event>
 5   0  0.2484904E-04  0.1000344E+04  0.7818609E-02  0.9308168E-01
       -2   -1    0    0    0  501  0.00000000000E+00  0.00000000000E+00  0.25639546944E+03  0.25639546945E+03  0.25500000920E-02 0. -1.
        2   -1    0    0  501    0  0.00000000000E+00  0.00000000000E+00 -0.97572673719E+03  0.97572673719E+03  0.25500000920E-02 0.  1.
    10030    2    1    2    0    0  0.00000000000E+00  0.00000000000E+00 -0.71933126775E+03  0.12321222066E+04  0.10003437706E+04 0.  0.
        3    1    3    3  502    0  0.13659630307E+03  0.13019862169E+03  0.21086712646E+03  0.28297559316E+03  0.10100000352E+00 0. -1.
       -3    1    3    3    0  502 -0.13659630307E+03 -0.13019862169E+03 -0.93019839421E+03  0.94914661348E+03  0.10100000352E+00 0.  1.
</event>
<event>
 5   0  0.2473312E-04  0.9995927E+03  0.7818609E-02  0.9308992E-01
        2   -1    0    0  501    0  0.00000000000E+00  0.00000000000E+00  0.30655760784E+03  0.30655760785E+03  0.25500000920E-02 0. -1.
       -2   -1    0    0    0  501  0.00000000000E+00  0.00000000000E+00 -0.81484319433E+03  0.81484319434E+03  0.25500000920E-02 0.  1.
    10030    2    1    2    0    0  0.00000000000E+00  0.00000000000E+00 -0.50828558649E+03  0.11214008022E+04  0.99959267790E+03 0.  0.
        5    1    3    3  502    0 -0.14749377247E+03 -0.13603183420E+03 -0.76764886412E+03  0.79345191499E+03  0.46999998093E+01 0.  1.
       -5    1    3    3    0  502  0.14749377247E+03  0.13603183420E+03  0.25936327762E+03  0.32794888719E+03  0.46999998093E+01 0. -1.
</event>
<event>
 5   0  0.2503680E-04  0.1000003E+04  0.7818609E-02  0.9308542E-01
       -2   -1    0    0    0  501  0.00000000000E+00  0.00000000000E+00  0.90375627050E+03  0.90375627050E+03  0.25500000920E-02 0.  1.
        2   -1    0    0  501    0  0.00000000000E+00  0.00000000000E+00 -0.27662485950E+03  0.27662485951E+03  0.25500000920E-02 0. -1.
    10030    2    1    2    0    0  0.00000000000E+00  0.00000000000E+00  0.62713141100E+03  0.11803811300E+04  0.10000029027E+04 0.  0.
        2    1    3    3  502    0  0.19930694237E+03  0.39310075097E+03  0.59226983823E+03  0.73826487047E+03  0.25500000920E-02 0.  1.
       -2    1    3    3    0  502 -0.19930694237E+03 -0.39310075097E+03  0.34861572768E+02  0.44211625954E+03  0.25500000920E-02 0. -1.
</event>
<event>
 5   0  0.2473312E-04  0.9999139E+03  0.7818609E-02  0.9308639E-01
        2   -1    0    0  501    0  0.00000000000E+00  0.00000000000E+00  0.13658982238E+04  0.13658982238E+04  0.25500000920E-02 0.  1.
       -2   -1    0    0    0  501  0.00000000000E+00  0.00000000000E+00 -0.18299822474E+03  0.18299822475E+03  0.25500000920E-02 0. -1.
    10030    2    1    2    0    0  0.00000000000E+00  0.00000000000E+00  0.11828999990E+04  0.15488964485E+04  0.99991389657E+03 0.  0.
        5    1    3    3  502    0  0.19560068041E+03 -0.13782278473E+03  0.12714019550E+04  0.12937309486E+04  0.46999998093E+01 0.  1.
       -5    1    3    3    0  502 -0.19560068041E+03  0.13782278473E+03 -0.88501955938E+02  0.25516549996E+03  0.46999998093E+01 0. -1.
</event>
<event>
 5   0  0.2503680E-04  0.1000023E+04  0.7818609E-02  0.9308519E-01
        2   -1    0    0  501    0  0.00000000000E+00  0.00000000000E+00  0.15968031028E+04  0.15968031028E+04  0.25500000920E-02 0. -1.
       -2   -1    0    0    0  501  0.00000000000E+00  0.00000000000E+00 -0.15657015501E+03  0.15657015504E+03  0.25500000920E-02 0.  1.
    10030    2    1    2    0    0  0.00000000000E+00  0.00000000000E+00  0.14402329478E+04  0.17533732578E+04  0.10000234184E+04 0.  0.
        2    1    3    3  502    0 -0.22908126329E+03  0.32753377890E+03  0.12468610869E+04  0.13093583053E+04  0.25500000920E-02 0. -1.
       -2    1    3    3    0  502  0.22908126329E+03 -0.32753377890E+03  0.19337186085E+03  0.44401495255E+03  0.25500000920E-02 0.  1.
</event>
<event>
 5   0  0.2353916E-04  0.1002428E+04  0.7818609E-02  0.9305886E-01
       -2   -1    0    0    0  501  0.00000000000E+00  0.00000000000E+00  0.40725896808E+03  0.40725896808E+03  0.25500000920E-02 0.  1.
        2   -1    0    0  501    0  0.00000000000E+00  0.00000000000E+00 -0.61684438941E+03  0.61684438941E+03  0.25500000920E-02 0. -1.
    10030    2    1    2    0    0  0.00000000000E+00  0.00000000000E+00 -0.20958542133E+03  0.10241033575E+04  0.10024278717E+04 0.  0.
        4    1    3    3  502    0  0.31006235357E+03  0.29194138773E+03  0.16520459824E+03  0.45679602576E+03  0.12699999809E+01 0.  1.
       -4    1    3    3    0  502 -0.31006235357E+03 -0.29194138773E+03 -0.37479001957E+03  0.56730733173E+03  0.12699999809E+01 0. -1.
</event>
<event>
 5   0  0.2403037E-04  0.1000187E+04  0.7818609E-02  0.9308339E-01
       -2   -1    0    0    0  501  0.00000000000E+00  0.00000000000E+00  0.11675451251E+04  0.11675451252E+04  0.25500000920E-02 0. -1.
        2   -1    0    0  501    0  0.00000000000E+00  0.00000000000E+00 -0.21420478338E+03  0.21420478340E+03  0.25500000920E-02 0.  1.
    10030    2    1    2    0    0  0.00000000000E+00  0.00000000000E+00  0.95334034176E+03  0.13817499086E+04  0.10001874837E+04 0.  0.
        1    1    3    3  502    0  0.11634437228E+03 -0.11509816336E+03 -0.17616307213E+03  0.24045171693E+03  0.50400001928E-02 0.  1.
       -1    1    3    3    0  502 -0.11634437228E+03  0.11509816336E+03  0.11295034139E+04  0.11412981916E+04  0.50400001928E-02 0. -1.
</event>
<event>
 5   0  0.1453863E-04  0.1007212E+04  0.7818609E-02  0.9300670E-01
       -1   -1    0    0    0  501  0.00000000000E+00  0.00000000000E+00  0.33999543804E+03  0.33999543808E+03  0.50400001928E-02 0.  1.
        1   -1    0    0  501    0  0.00000000000E+00  0.00000000000E+00 -0.74594775810E+03  0.74594775812E+03  0.50400001928E-02 0. -1.
    10030    2    1    2    0    0  0.00000000000E+00  0.00000000000E+00 -0.40595232006E+03  0.10859431962E+04  0.10072116655E+04 0.  0.
        1    1    3    3  502    0 -0.43033882419E+03  0.14044696393E+03  0.34959577498E+02  0.45402535762E+03  0.50400001928E-02 0.  1.
       -1    1    3    3    0  502  0.43033882419E+03 -0.14044696393E+03 -0.44091189755E+03  0.63191783858E+03  0.50400001928E-02 0. -1.
</event>
<event>
 5   0  0.1430675E-04  0.1000533E+04  0.7818609E-02  0.9307961E-01
       -1   -1    0    0    0  501  0.00000000000E+00  0.00000000000E+00  0.39619470530E+03  0.39619470534E+03  0.50400001928E-02 0. -1.
        1   -1    0    0  501    0  0.00000000000E+00  0.00000000000E+00 -0.63167526719E+03  0.63167526721E+03  0.50400001928E-02 0.  1.
    10030    2    1    2    0    0  0.00000000000E+00  0.00000000000E+00 -0.23548056189E+03  0.10278699725E+04  0.10005326509E+04 0.  0.
        5    1    3    3  502    0  0.17685923026E+03  0.30646745286E+03  0.24553537194E+03  0.43071010653E+03  0.46999998093E+01 0. -1.
       -5    1    3    3    0  502 -0.17685923026E+03 -0.30646745286E+03 -0.48101593383E+03  0.59715986602E+03  0.46999998093E+01 0.  1.
</event>
<event>
 5   0  0.1461334E-04  0.9998062E+03  0.7818609E-02  0.9308757E-01
        1   -1    0    0  501    0  0.00000000000E+00  0.00000000000E+00  0.29399201224E+03  0.29399201229E+03  0.50400001928E-02 0. -1.
       -1   -1    0    0    0  501  0.00000000000E+00  0.00000000000E+00 -0.85003366532E+03  0.85003366533E+03  0.50400001928E-02 0.  1.
    10030    2    1    2    0    0  0.00000000000E+00  0.00000000000E+00 -0.55604165308E+03  0.11440256776E+04  0.99980619677E+03 0.  0.
        2    1    3    3  502    0 -0.22843408830E+03  0.18679145467E+03 -0.73974973149E+03  0.79643131875E+03  0.25500000920E-02 0.  1.
       -2    1    3    3    0  502  0.22843408830E+03 -0.18679145467E+03  0.18370807842E+03  0.34759435887E+03  0.25500000920E-02 0. -1.
</event>
<event>
 5   0  0.1430675E-04  0.9996239E+03  0.7818609E-02  0.9308957E-01
       -1   -1    0    0    0  501  0.00000000000E+00  0.00000000000E+00  0.47469539806E+03  0.47469539808E+03  0.50400001928E-02 0.  1.
        1   -1    0    0  501    0  0.00000000000E+00  0.00000000000E+00 -0.52625749011E+03  0.52625749013E+03  0.50400001928E-02 0. -1.
    10030    2    1    2    0    0  0.00000000000E+00  0.00000000000E+00 -0.51562092052E+02  0.10009528882E+04  0.99962394684E+03 0.  0.
        5    1    3    3  502    0 -0.85054542619E+02 -0.26009009158E+03 -0.44455802592E+03  0.52204890515E+03  0.46999998093E+01 0. -1.
       -5    1    3    3    0  502  0.85054542619E+02  0.26009009158E+03  0.39299593387E+03  0.47890398307E+03  0.46999998093E+01 0.  1.
</event>
<event>
 5   0  0.2403037E-04  0.1000015E+04  0.7818609E-02  0.9308528E-01
       -2   -1    0    0    0  501  0.00000000000E+00  0.00000000000E+00  0.29001742136E+03  0.29001742137E+03  0.25500000920E-02 0. -1.
        2   -1    0    0  501    0  0.00000000000E+00  0.00000000000E+00 -0.86204381975E+03  0.86204381976E+03  0.25500000920E-02 0.  1.
    10030    2    1    2    0    0  0.00000000000E+00  0.00000000000E+00 -0.57202639839E+03  0.11520612411E+04  0.10000154513E+04 0.  0.
        1    1    3    3  502    0  0.39506614830E+03  0.20178786628E+03 -0.55176373035E+03  0.70798221635E+03  0.50400001928E-02 0.  1.
       -1    1    3    3    0  502 -0.39506614830E+03 -0.20178786628E+03 -0.20262668045E+02  0.44407902478E+03  0.50400001928E-02 0. -1.
</event>
<event>
 5   0  0.2353916E-04  0.9995066E+03  0.7818609E-02  0.9309086E-01
        2   -1    0    0  501    0  0.00000000000E+00  0.00000000000E+00  0.10188103642E+04  0.10188103642E+04  0.25500000920E-02 0.  1.
       -2   -1    0    0    0  501  0.00000000000E+00  0.00000000000E+00 -0.24514215333E+03  0.24514215334E+03  0.25500000920E-02 0. -1.
    10030    2    1    2    0    0  0.00000000000E+00  0.00000000000E+00  0.77366821084E+03  0.12639525175E+04  0.99950661131E+03 0.  0.
        4    1    3    3  502    0 -0.23443583976E+03  0.13494704741E+03  0.91822845570E+03  0.95724394922E+03  0.12699999809E+01 0.  1.
       -4    1    3    3    0  502  0.23443583976E+03 -0.13494704741E+03 -0.14456024486E+03  0.30670856829E+03  0.12699999809E+01 0. -1.
</event>
<event>
 5   0  0.1414165E-04  0.9999958E+03  0.7818609E-02  0.9308549E-01
       -1   -1    0    0    0  501  0.00000000000E+00  0.00000000000E+00  0.24825876699E+03  0.24825876704E+03  0.50400001928E-02 0. -1.
        1   -1    0    0  501    0  0.00000000000E+00  0.00000000000E+00 -0.10070053356E+04  0.10070053357E+04  0.50400001928E-02 0.  1.
    10030    2    1    2    0    0  0.00000000000E+00  0.00000000000E+00 -0.75874656864E+03  0.12552641027E+04  0.99999580603E+03 0.  0.
        4    1    3    3  502    0 -0.22113530174E+03  0.42810810047E+03 -0.21181046717E+03  0.52634841528E+03  0.12699999809E+01 0.  1.
       -4    1    3    3    0  502  0.22113530174E+03 -0.42810810047E+03 -0.54693610148E+03  0.72891568742E+03  0.12699999809E+01 0. -1.
</event>
<event>
 5   0  0.1461334E-04  0.9993755E+03  0.7818609E-02  0.9309230E-01
       -1   -1    0    0    0  501  0.00000000000E+00  0.00000000000E+00  0.81941230403E+03  0.81941230405E+03  0.50400001928E-02 0. -1.
        1   -1    0    0  501    0  0.00000000000E+00  0.00000000000E+00 -0.30471574054E+03  0.30471574058E+03  0.50400001928E-02 0.  1.
    10030    2    1    2    0    0  0.00000000000E+00  0.00000000000E+00  0.51469656349E+03  0.11241280446E+04  0.99937545910E+03 0.  0.
        2    1    3    3  502    0  0.26616329026E+03 -0.21618104113E+00  0.73303974956E+03  0.77986551293E+03  0.25500000920E-02 0. -1.
       -2    1    3    3    0  502 -0.26616329026E+03  0.21618104113E+00 -0.21834318608E+03  0.34426253170E+03  0.25500000920E-02 0.  1.
</event>
<event>
 5   0  0.1461334E-04  0.9984527E+03  0.7818609E-02  0.9310244E-01
        1   -1    0    0  501    0  0.00000000000E+00  0.00000000000E+00  0.12624863137E+04  0.12624863137E+04  0.50400001928E-02 0.  1.
       -1   -1    0    0    0  501  0.00000000000E+00  0.00000000000E+00 -0.19740960762E+03  0.19740960768E+03  0.50400001928E-02 0. -1.
    10030    2    1    2    0    0  0.00000000000E+00  0.00000000000E+00  0.10650767061E+04  0.14598959214E+04  0.99845265862E+03 0.  0.
        2    1    3    3  502    0 -0.37180300650E+03  0.18832496108E+03  0.13071562509E+03  0.43679553713E+03  0.25500000920E-02 0. -1.
       -2    1    3    3    0  502  0.37180300650E+03 -0.18832496108E+03  0.93436108103E+03  0.10231003843E+04  0.25500000920E-02 0.  1.
</event>
<event>
 5   0  0.2503680E-04  0.9992518E+03  0.7818609E-02  0.9309366E-01
        2   -1    0    0  501    0  0.00000000000E+00  0.00000000000E+00  0.92429634882E+03  0.92429634882E+03  0.25500000920E-02 0. -1.
       -2   -1    0    0    0  501  0.00000000000E+00  0.00000000000E+00 -0.27007145990E+03  0.27007145992E+03  0.25500000920E-02 0.  1.
    10030    2    1    2    0    0  0.00000000000E+00  0.00000000000E+00  0.65422488891E+03  0.11943678087E+04  0.99925184877E+03 0.  0.
        2    1    3    3  502    0 -0.49406856659E+03 -0.38337131899E+02  0.40320268108E+03  0.63886296357E+03  0.25500000920E-02 0.  1.
       -2    1    3    3    0  502  0.49406856659E+03  0.38337131899E+02  0.25102220783E+03  0.55550484517E+03  0.25500000920E-02 0. -1.
</event>
<event>
 5   0  0.1414165E-04  0.1000129E+04  0.7818609E-02  0.9308403E-01
        1   -1    0    0  501    0  0.00000000000E+00  0.00000000000E+00  0.97946366637E+03  0.97946366638E+03  0.50400001928E-02 0. -1.
       -1   -1    0    0    0  501  0.00000000000E+00  0.00000000000E+00 -0.25530760273E+03  0.25530760278E+03  0.50400001928E-02 0.  1.
    10030    2    1    2    0    0  0.00000000000E+00  0.00000000000E+00  0.72415606364E+03  0.12347712692E+04  0.10001290330E+04 0.  0.
        4    1    3    3  502    0  0.42961694839E+03 -0.24882426278E+03  0.28822107510E+03  0.57407075968E+03  0.12699999809E+01 0. -1.
       -4    1    3    3    0  502 -0.42961694839E+03  0.24882426278E+03  0.43593498854E+03  0.66070050948E+03  0.12699999809E+01 0.  1.
</event>
<event>
 5   0  0.1461334E-04  0.1000093E+04  0.7818609E-02  0.9308442E-01
        1   -1    0    0  501    0  0.00000000000E+00  0.00000000000E+00  0.50749565863E+03  0.50749565866E+03  0.50400001928E-02 0. -1.
       -1   -1    0    0    0  501  0.00000000000E+00  0.00000000000E+00 -0.49270716755E+03  0.49270716758E+03  0.50400001928E-02 0.  1.
    10030    2    1    2    0    0  0.00000000000E+00  0.00000000000E+00  0.14788491081E+02  0.10002028262E+04  0.10000934927E+04 0.  0.
        2    1    3    3  502    0  0.38819062925E+03  0.31464568641E+03 -0.11392799949E+02  0.49982363740E+03  0.25500000920E-02 0.  1.
       -2    1    3    3    0  502 -0.38819062925E+03 -0.31464568641E+03  0.26181291030E+02  0.50037918883E+03  0.25500000920E-02 0. -1.
</event>
<event>
 5   0  0.1506454E-04  0.1000849E+04  0.7818609E-02  0.9307614E-01
        1   -1    0    0  501    0  0.00000000000E+00  0.00000000000E+00  0.26269768508E+04  0.26269768508E+04  0.50400001928E-02 0.  1.
       -1   -1    0    0    0  501  0.00000000000E+00  0.00000000000E+00 -0.95328145014E+02  0.95328145148E+02  0.50400001928E-02 0. -1.
    10030    2    1    2    0    0  0.00000000000E+00  0.00000000000E+00  0.25316487057E+04  0.27223049959E+04  0.10008493001E+04 0.  0.
        3    1    3    3  502    0  0.10021682648E+03 -0.20106602852E+01  0.25993914619E+04  0.26013234011E+04  0.10100000352E+00 0.  1.
       -3    1    3    3    0  502 -0.10021682648E+03  0.20106602852E+01 -0.67742756125E+02  0.12098159477E+03  0.10100000352E+00 0. -1.
</event>
<event>
 5   0  0.1414165E-04  0.9999937E+03  0.7818609E-02  0.9308552E-01
        1   -1    0    0  501    0  0.00000000000E+00  0.00000000000E+00  0.11901173091E+04  0.11901173091E+04  0.50400001928E-02 0.  1.
       -1   -1    0    0    0  501  0.00000000000E+00  0.00000000000E+00 -0.21006069527E+03  0.21006069533E+03  0.50400001928E-02 0. -1.
    10030    2    1    2    0    0  0.00000000000E+00  0.00000000000E+00  0.98005661380E+03  0.14001780044E+04  0.99999373887E+03 0.  0.
        4    1    3    3  502    0  0.24287862113E+02 -0.23359955787E+03  0.11080749395E+04  0.11326916341E+04  0.12699999809E+01 0.  1.
       -4    1    3    3    0  502 -0.24287862113E+02  0.23359955787E+03 -0.12801832566E+03  0.26748637028E+03  0.12699999809E+01 0. -1.
</event>
<event>
 5   0  0.2353916E-04  0.9992967E+03  0.7818609E-02  0.9309316E-01
       -2   -1    0    0    0  501  0.00000000000E+00  0.00000000000E+00  0.16763986125E+03  0.16763986127E+03  0.25500000920E-02 0.  1.
        2   -1    0    0  501    0  0.00000000000E+00  0.00000000000E+00 -0.14891951924E+04  0.14891951924E+04  0.25500000920E-02 0. -1.
    10030    2    1    2    0    0  0.00000000000E+00  0.00000000000E+00 -0.13215553311E+04  0.16568350537E+04  0.99929670358E+03 0.  0.
        4    1    3    3  502    0  0.22650446800E+03  0.44528755213E+03 -0.67378895399E+03  0.83879583066E+03  0.12699999809E+01 0. -1.
       -4    1    3    3    0  502 -0.22650446800E+03 -0.44528755213E+03 -0.64776637714E+03  0.81803922299E+03  0.12699999809E+01 0.  1.
</event>
<event>
 5   0  0.2503680E-04  0.9984570E+03  0.7818609E-02  0.9310239E-01
        2   -1    0    0  501    0  0.00000000000E+00  0.00000000000E+00  0.23359734253E+04  0.23359734253E+04  0.25500000920E-02 0.  1.
       -2   -1    0    0    0  501  0.00000000000E+00  0.00000000000E+00 -0.10669174831E+03  0.10669174835E+03  0.25500000920E-02 0. -1.
    10030    2    1    2    0    0  0.00000000000E+00  0.00000000000E+00  0.22292816770E+04  0.24426651737E+04  0.99845698716E+03 0.  0.
        2    1    3    3  502    0  0.18048729676E+03 -0.33573866222E+01  0.22533322918E+04  0.22605515596E+04  0.25500000920E-02 0.  1.
       -2    1    3    3    0  502 -0.18048729676E+03  0.33573866222E+01 -0.24050614824E+02  0.18211361404E+03  0.25500000920E-02 0. -1.
</event>
<event>
 5   0  0.2473312E-04  0.9999963E+03  0.7818609E-02  0.9308549E-01
        2   -1    0    0  501    0  0.00000000000E+00  0.00000000000E+00  0.14486629552E+04  0.14486629552E+04  0.25500000920E-02 0. -1.
       -2   -1    0    0    0  501  0.00000000000E+00  0.00000000000E+00 -0.17257164262E+03  0.17257164264E+03  0.25500000920E-02 0.  1.
    10030    2    1    2    0    0  0.00000000000E+00  0.00000000000E+00  0.12760913125E+04  0.16212345978E+04  0.99999629157E+03 0.  0.
        5    1    3    3  502    0  0.28180098532E+03 -0.37551030435E+03  0.35932298248E+03  0.59123166334E+03  0.46999998093E+01 0.  1.
       -5    1    3    3    0  502 -0.28180098532E+03  0.37551030435E+03  0.91676833006E+03  0.10300029345E+04  0.46999998093E+01 0. -1.
</event>
<event>
 5   0  0.2484904E-04  0.9999774E+03  0.7818609E-02  0.9308570E-01
        2   -1    0    0  501    0  0.00000000000E+00  0.00000000000E+00  0.94482337565E+03  0.94482337566E+03  0.25500000920E-02 0.  1.
       -2   -1    0    0    0  501  0.00000000000E+00  0.00000000000E+00 -0.26458774127E+03  0.26458774128E+03  0.25500000920E-02 0. -1.
    10030    2    1    2    0    0  0.00000000000E+00  0.00000000000E+00  0.68023563438E+03  0.12094111169E+04  0.99997736549E+03 0.  0.
        3    1    3    3  502    0 -0.49269103117E+02  0.19631956362E+03  0.89305724621E+03  0.91570741549E+03  0.10100000352E+00 0.  1.
       -3    1    3    3    0  502  0.49269103117E+02 -0.19631956362E+03 -0.21282161183E+03  0.29370370145E+03  0.10100000352E+00 0. -1.
</event>
<event>
 5   0  0.2403037E-04  0.9998434E+03  0.7818609E-02  0.9308717E-01
       -2   -1    0    0    0  501  0.00000000000E+00  0.00000000000E+00  0.28042968180E+03  0.28042968181E+03  0.25500000920E-02 0. -1.
        2   -1    0    0  501    0  0.00000000000E+00  0.00000000000E+00 -0.89120994362E+03  0.89120994362E+03  0.25500000920E-02 0.  1.
    10030    2    1    2    0    0  0.00000000000E+00  0.00000000000E+00 -0.61078026182E+03  0.11716396254E+04  0.99984342957E+03 0.  0.
        1    1    3    3  502    0 -0.57584510756E+02  0.51200955211E+02 -0.88420930905E+03  0.88756048578E+03  0.50400001928E-02 0.  1.
       -1    1    3    3    0  502  0.57584510756E+02 -0.51200955211E+02  0.27342904722E+03  0.28407913965E+03  0.50400001928E-02 0. -1.
</event>
<event>
 5   0  0.1506454E-04  0.9993043E+03  0.7818609E-02  0.9309308E-01
        1   -1    0    0  501    0  0.00000000000E+00  0.00000000000E+00  0.16519228136E+04  0.16519228136E+04  0.50400001928E-02 0. -1.
       -1   -1    0    0    0  501  0.00000000000E+00  0.00000000000E+00 -0.15112828512E+03  0.15112828520E+03  0.50400001928E-02 0.  1.
    10030    2    1    2    0    0  0.00000000000E+00  0.00000000000E+00  0.15007945285E+04  0.18030510988E+04  0.99930428208E+03 0.  0.
        3    1    3    3  502    0 -0.34670663948E+03  0.99037636435E+02  0.12630986867E+03  0.38205777104E+03  0.10100000352E+00 0.  1.
       -3    1    3    3    0  502  0.34670663948E+03 -0.99037636435E+02  0.13744846598E+04  0.14209933278E+04  0.10100000352E+00 0. -1.
</event>
<event>
 5   0  0.1453863E-04  0.1000117E+04  0.7818609E-02  0.9308417E-01
       -1   -1    0    0    0  501  0.00000000000E+00  0.00000000000E+00  0.33729141856E+03  0.33729141860E+03  0.50400001928E-02 0. -1.
        1   -1    0    0  501    0  0.00000000000E+00  0.00000000000E+00 -0.74137216566E+03  0.74137216568E+03  0.50400001928E-02 0.  1.
    10030    2    1    2    0    0  0.00000000000E+00  0.00000000000E+00 -0.40408074710E+03  0.10786635843E+04  0.10001169321E+04 0.  0.
        1    1    3    3  502    0 -0.29716245583E+03 -0.40675492468E+02 -0.63358806622E+03  0.70099490620E+03  0.50400001928E-02 0.  1.
       -1    1    3    3    0  502  0.29716245583E+03  0.40675492468E+02  0.22950731912E+03  0.37766867807E+03  0.50400001928E-02 0. -1.
</event>
<event>
 5   0  0.2484904E-04  0.1000107E+04  0.7818609E-02  0.9308427E-01
       -2   -1    0    0    0  501  0.00000000000E+00  0.00000000000E+00  0.19074814744E+03  0.19074814746E+03  0.25500000920E-02 0. -1.
        2   -1    0    0  501    0  0.00000000000E+00  0.00000000000E+00 -0.13109094605E+04  0.13109094605E+04  0.25500000920E-02 0.  1.
    10030    2    1    2    0    0  0.00000000000E+00  0.00000000000E+00 -0.11201613130E+04  0.15016576079E+04  0.10001070964E+04 0.  0.
        3    1    3    3  502    0  0.17893201666E+03  0.10214333848E+03 -0.12442157446E+04  0.12611592911E+04  0.10100000352E+00 0.  1.
       -3    1    3    3    0  502 -0.17893201666E+03 -0.10214333848E+03  0.12405443161E+03  0.24049831680E+03  0.10100000352E+00 0. -1.
</event>
<event>
 5   0  0.1461334E-04  0.1000007E+04  0.7818609E-02  0.9308538E-01
       -1   -1    0    0    0  501  0.00000000000E+00  0.00000000000E+00  0.29654733120E+03  0.29654733124E+03  0.50400001928E-02 0. -1.
        1   -1    0    0  501    0  0.00000000000E+00  0.00000000000E+00 -0.84304679782E+03  0.84304679783E+03  0.50400001928E-02 0.  1.
    10030    2    1    2    0    0  0.00000000000E+00  0.00000000000E+00 -0.54649946662E+03  0.11395941291E+04  0.10000065560E+04 0.  0.
        2    1    3    3  502    0  0.29846068451E+02 -0.73765926952E+01 -0.84196864538E+03  0.84252976311E+03  0.25500000920E-02 0.  1.
       -2    1    3    3    0  502 -0.29846068451E+02  0.73765926952E+01  0.29546917876E+03  0.29706436596E+03  0.25500000920E-02 0. -1.
</event>
<event>
 5   0  0.2403037E-04  0.1000041E+04  0.7818609E-02  0.9308500E-01
       -2   -1    0    0    0  501  0.00000000000E+00  0.00000000000E+00  0.34632463397E+03  0.34632463398E+03  0.25500000920E-02 0. -1.
        2   -1    0    0  501    0  0.00000000000E+00  0.00000000000E+00 -0.72192481138E+03  0.72192481139E+03  0.25500000920E-02 0.  1.
    10030    2    1    2    0    0  0.00000000000E+00  0.00000000000E+00 -0.37560017741E+03  0.10682494454E+04  0.10000406913E+04 0.  0.
        1    1    3    3  502    0 -0.36483440550E+03  0.33565962658E+03 -0.11817126592E+03  0.50964298922E+03  0.50400001928E-02 0.  1.
       -1    1    3    3    0  502  0.36483440550E+03 -0.33565962658E+03 -0.25742891149E+03  0.55860645615E+03  0.50400001928E-02 0. -1.
</event>
<event>
 5   0  0.2484904E-04  0.1000040E+04  0.7818609E-02  0.9308501E-01
        2   -1    0    0  501    0  0.00000000000E+00  0.00000000000E+00  0.87232203746E+03  0.87232203746E+03  0.25500000920E-02 0.  1.
       -2   -1    0    0    0  501  0.00000000000E+00  0.00000000000E+00 -0.28661433243E+03  0.28661433244E+03  0.25500000920E-02 0. -1.
    10030    2    1    2    0    0  0.00000000000E+00  0.00000000000E+00  0.58570770503E+03  0.11589363699E+04  0.10000399961E+04 0.  0.
        3    1    3    3  502    0 -0.25568205917E+03 -0.34346832345E+03 -0.63916207323E+01  0.42823436062E+03  0.10100000352E+00 0. -1.
       -3    1    3    3    0  502  0.25568205917E+03  0.34346832345E+03  0.59209932577E+03  0.73070200928E+03  0.10100000352E+00 0.  1.
</event>
<event>
 5   0  0.9650500E-05  0.9999571E+03  0.7818609E-02  0.9308592E-01
        3   -1    0    0  501    0  0.00000000000E+00  0.00000000000E+00  0.50393636916E+03  0.50393637928E+03  0.10100000352E+00 0. -1.
       -3   -1    0    0    0  501  0.00000000000E+00  0.00000000000E+00 -0.49605182511E+03  0.49605183539E+03  0.10100000352E+00 0.  1.
    10030    2    1    2    0    0  0.00000000000E+00  0.00000000000E+00  0.78845440465E+01  0.99998821467E+03  0.99995713080E+03 0.  0.
        3    1    3    3  502    0  0.17957365157E+03 -0.42488374250E+03 -0.18895142358E+03  0.49847321057E+03  0.10100000352E+00 0.  1.
       -3    1    3    3    0  502 -0.17957365157E+03  0.42488374250E+03  0.19683596763E+03  0.50151500410E+03  0.10100000352E+00 0. -1.
</event>
<event>
 5   0  0.1453863E-04  0.1000171E+04  0.7818609E-02  0.9308357E-01
       -1   -1    0    0    0  501  0.00000000000E+00  0.00000000000E+00  0.41550737062E+03  0.41550737065E+03  0.50400001928E-02 0. -1.
        1   -1    0    0  501    0  0.00000000000E+00  0.00000000000E+00 -0.60187964473E+03  0.60187964476E+03  0.50400001928E-02 0.  1.
    10030    2    1    2    0    0  0.00000000000E+00  0.00000000000E+00 -0.18637227412E+03  0.10173870154E+04  0.10001708427E+04 0.  0.
        1    1    3    3  502    0  0.48830399870E+03 -0.93305223030E+02 -0.14832968596E+03  0.51879509978E+03  0.50400001928E-02 0.  1.
       -1    1    3    3    0  502 -0.48830399870E+03  0.93305223030E+02 -0.38042588155E+02  0.49859191563E+03  0.50400001928E-02 0. -1.
</event>
<event>
 5   0  0.2484904E-04  0.9999862E+03  0.7818609E-02  0.9308560E-01
       -2   -1    0    0    0  501  0.00000000000E+00  0.00000000000E+00  0.41054142406E+03  0.41054142407E+03  0.25500000920E-02 0.  1.
        2   -1    0    0  501    0  0.00000000000E+00  0.00000000000E+00 -0.60893518498E+03  0.60893518498E+03  0.25500000920E-02 0. -1.
    10030    2    1    2    0    0  0.00000000000E+00  0.00000000000E+00 -0.19839376092E+03  0.10194766090E+04  0.99998623592E+03 0.  0.
        3    1    3    3  502    0  0.49290417854E+03  0.65699111694E+02 -0.15238855731E+03  0.52008959334E+03  0.10100000352E+00 0. -1.
       -3    1    3    3    0  502 -0.49290417854E+03 -0.65699111694E+02 -0.46005203608E+02  0.49938701571E+03  0.10100000352E+00 0.  1.
</event>
<event>
 5   0  0.2403037E-04  0.1000136E+04  0.7818609E-02  0.9308395E-01
        2   -1    0    0  501    0  0.00000000000E+00  0.00000000000E+00  0.14280701549E+04  0.14280701549E+04  0.25500000920E-02 0.  1.
       -2   -1    0    0    0  501  0.00000000000E+00  0.00000000000E+00 -0.17510918420E+03  0.17510918422E+03  0.25500000920E-02 0. -1.
    10030    2    1    2    0    0  0.00000000000E+00  0.00000000000E+00  0.12529609707E+04  0.16031793391E+04  0.10001363903E+04 0.  0.
        1    1    3    3  502    0 -0.13528931290E+03 -0.16840700471E+02  0.13977051685E+04  0.14043384726E+04  0.50400001928E-02 0.  1.
       -1    1    3    3    0  502  0.13528931290E+03  0.16840700471E+02 -0.14474419783E+03  0.19884086655E+03  0.50400001928E-02 0. -1.
</event>
<event>
 5   0  0.1461334E-04  0.9998662E+03  0.7818609E-02  0.9308692E-01
       -1   -1    0    0    0  501  0.00000000000E+00  0.00000000000E+00  0.38631511259E+03  0.38631511262E+03  0.50400001928E-02 0. -1.
        1   -1    0    0  501    0  0.00000000000E+00  0.00000000000E+00 -0.64696691081E+03  0.64696691083E+03  0.50400001928E-02 0.  1.
    10030    2    1    2    0    0  0.00000000000E+00  0.00000000000E+00 -0.26065179822E+03  0.10332820235E+04  0.99986618109E+03 0.  0.
        2    1    3    3  502    0  0.33585609028E+03  0.51776173344E+02  0.24860695271E+03  0.42105284994E+03  0.25500000920E-02 0. -1.
       -2    1    3    3    0  502 -0.33585609028E+03 -0.51776173344E+02 -0.50925875093E+03  0.61222917352E+03  0.25500000920E-02 0.  1.
</event>
<event>
 5   0  0.2353916E-04  0.9997798E+03  0.7818609E-02  0.9308786E-01
        2   -1    0    0  501    0  0.00000000000E+00  0.00000000000E+00  0.35037053405E+03  0.35037053406E+03  0.25500000920E-02 0. -1.
       -2   -1    0    0    0  501  0.00000000000E+00  0.00000000000E+00 -0.71321605754E+03  0.71321605754E+03  0.25500000920E-02 0.  1.
    10030    2    1    2    0    0  0.00000000000E+00  0.00000000000E+00 -0.36284552348E+03  0.10635865916E+04  0.99977975771E+03 0.  0.
        4    1    3    3  502    0  0.36104909600E+03  0.32183789169E+03 -0.31578548728E+03  0.57763151327E+03  0.12699999809E+01 0. -1.
       -4    1    3    3    0  502 -0.36104909600E+03 -0.32183789169E+03 -0.47060036199E+02  0.48595507833E+03  0.12699999809E+01 0.  1.
</event>
<event>
 5   0  0.2503680E-04  0.1000439E+04  0.7818609E-02  0.9308063E-01
        2   -1    0    0  501    0  0.00000000000E+00  0.00000000000E+00  0.86200001265E+03  0.86200001266E+03  0.25500000920E-02 0. -1.
       -2   -1    0    0    0  501  0.00000000000E+00  0.00000000000E+00 -0.29027810116E+03  0.29027810117E+03  0.25500000920E-02 0.  1.
    10030    2    1    2    0    0  0.00000000000E+00  0.00000000000E+00  0.57172191150E+03  0.11522781138E+04  0.10004393572E+04 0.  0.
        2    1    3    3  502    0 -0.21801201560E+03 -0.16250962007E+03  0.76944218444E+03  0.81607590993E+03  0.25500000920E-02 0. -1.
       -2    1    3    3    0  502  0.21801201560E+03  0.16250962007E+03 -0.19772027295E+03  0.33620220389E+03  0.25500000920E-02 0.  1.
</event>
<event>
 5   0  0.1506454E-04  0.9971613E+03  0.7818609E-02  0.9311664E-01
       -1   -1    0    0    0  501  0.00000000000E+00  0.00000000000E+00  0.11045755142E+03  0.11045755154E+03  0.50400001928E-02 0. -1.
        1   -1    0    0  501    0  0.00000000000E+00  0.00000000000E+00 -0.22504813541E+04  0.22504813541E+04  0.50400001928E-02 0.  1.
    10030    2    1    2    0    0  0.00000000000E+00  0.00000000000E+00 -0.21400238027E+04  0.23609389057E+04  0.99716129095E+03 0.  0.
        3    1    3    3  502    0 -0.39264706170E+03  0.26923121950E+03 -0.14205973969E+04  0.14982503592E+04  0.10100000352E+00 0.  1.
       -3    1    3    3    0  502  0.39264706170E+03 -0.26923121950E+03 -0.71942640578E+03  0.86268854643E+03  0.10100000352E+00 0. -1.
</event>
<event>
 5   0  0.1414165E-04  0.1000347E+04  0.7818609E-02  0.9308165E-01
       -1   -1    0    0    0  501  0.00000000000E+00  0.00000000000E+00  0.52617214375E+03  0.52617214377E+03  0.50400001928E-02 0.  1.
        1   -1    0    0  501    0  0.00000000000E+00  0.00000000000E+00 -0.47545929696E+03  0.47545929698E+03  0.50400001928E-02 0. -1.
    10030    2    1    2    0    0  0.00000000000E+00  0.00000000000E+00  0.50712846793E+02  0.10016314408E+04  0.10003468150E+04 0.  0.
        4    1    3    3  502    0 -0.39182915452E+03 -0.70816767249E+02  0.32844420837E+03  0.51616112966E+03  0.12699999809E+01 0.  1.
       -4    1    3    3    0  502  0.39182915452E+03  0.70816767249E+02 -0.27773136158E+03  0.48547031110E+03  0.12699999809E+01 0. -1.
</event>
<event>
 5   0  0.1430675E-04  0.9998837E+03  0.7818609E-02  0.9308672E-01
       -1   -1    0    0    0  501  0.00000000000E+00  0.00000000000E+00  0.17598240047E+03  0.17598240054E+03  0.50400001928E-02 0.  1.
        1   -1    0    0  501    0  0.00000000000E+00  0.00000000000E+00 -0.14202661383E+04  0.14202661384E+04  0.50400001928E-02 0. -1.
    10030    2    1    2    0    0  0.00000000000E+00  0.00000000000E+00 -0.12442837379E+04  0.15962485389E+04  0.99988368202E+03 0.  0.
        5    1    3    3  502    0  0.83639878961E+02  0.37708404360E+03 -0.11546133506E+03  0.40316425336E+03  0.46999998093E+01 0.  1.
       -5    1    3    3    0  502 -0.83639878961E+02 -0.37708404360E+03 -0.11288224028E+04  0.11930842855E+04  0.46999998093E+01 0. -1.
</event>
<event>
 5   0  0.1414165E-04  0.9996475E+03  0.7818609E-02  0.9308931E-01
        1   -1    0    0  501    0  0.00000000000E+00  0.00000000000E+00  0.44717984816E+03  0.44717984818E+03  0.50400001928E-02 0.  1.
       -1   -1    0    0    0  501  0.00000000000E+00  0.00000000000E+00 -0.55866516800E+03  0.55866516802E+03  0.50400001928E-02 0. -1.
    10030    2    1    2    0    0  0.00000000000E+00  0.00000000000E+00 -0.11148531984E+03  0.10058450162E+04  0.99964754793E+03 0.  0.
        4    1    3    3  502    0  0.14443281593E+03  0.11955462472E+03 -0.52193793163E+03  0.55459441395E+03  0.12699999809E+01 0. -1.
       -4    1    3    3    0  502 -0.14443281593E+03 -0.11955462472E+03  0.41045261179E+03  0.45125060225E+03  0.12699999809E+01 0.  1.
</event>
<event>
 5   0  0.1453863E-04  0.1000050E+04  0.7818609E-02  0.9308490E-01
       -1   -1    0    0    0  501  0.00000000000E+00  0.00000000000E+00  0.34034787570E+03  0.34034787574E+03  0.50400001928E-02 0. -1.
        1   -1    0    0  501    0  0.00000000000E+00  0.00000000000E+00 -0.73461539687E+03  0.73461539689E+03  0.50400001928E-02 0.  1.
    10030    2    1    2    0    0  0.00000000000E+00  0.00000000000E+00 -0.39426752117E+03  0.10749632726E+04  0.10000495784E+04 0.  0.
        1    1    3    3  502    0 -0.13594838710E+03 -0.32068844329E+03 -0.58275799418E+03  0.67891819936E+03  0.50400001928E-02 0.  1.
       -1    1    3    3    0  502  0.13594838710E+03  0.32068844329E+03  0.18849047301E+03  0.39604507326E+03  0.50400001928E-02 0. -1.
</event>
<event>
 5   0  0.2473312E-04  0.9976866E+03  0.7818609E-02  0.9311086E-01
        2   -1    0    0  501    0  0.00000000000E+00  0.00000000000E+00  0.18741497022E+04  0.18741497022E+04  0.25500000920E-02 0. -1.
       -2   -1    0    0    0  501  0.00000000000E+00  0.00000000000E+00 -0.13277734360E+03  0.13277734362E+03  0.25500000920E-02 0.  1.
    10030    2    1    2    0    0  0.00000000000E+00  0.00000000000E+00  0.17413723586E+04  0.20069270458E+04  0.99768656198E+03 0.  0.
        5    1    3    3  502    0  0.66383226268E+02 -0.36339793371E+03  0.19640823090E+03  0.41840539446E+03  0.46999998093E+01 0.  1.
       -5    1    3    3    0  502 -0.66383226268E+02  0.36339793371E+03  0.15449641277E+04  0.15885216514E+04  0.46999998093E+01 0. -1.
</event>
<event>
 5   0  0.1414165E-04  0.1000099E+04  0.7818609E-02  0.9308437E-01
        1   -1    0    0  501    0  0.00000000000E+00  0.00000000000E+00  0.57018086650E+03  0.57018086653E+03  0.50400001928E-02 0. -1.
       -1   -1    0    0    0  501  0.00000000000E+00  0.00000000000E+00 -0.43854387281E+03  0.43854387284E+03  0.50400001928E-02 0.  1.
    10030    2    1    2    0    0  0.00000000000E+00  0.00000000000E+00  0.13163699369E+03  0.10087247394E+04  0.10000986460E+04 0.  0.
        4    1    3    3  502    0 -0.13335229802E+03 -0.28861839840E+03 -0.32346942462E+03  0.45356090754E+03  0.12699999809E+01 0.  1.
       -4    1    3    3    0  502  0.13335229802E+03  0.28861839840E+03  0.45510641831E+03  0.55516383183E+03  0.12699999809E+01 0. -1.
</event>
<event>
 5   0  0.2473312E-04  0.9996769E+03  0.7818609E-02  0.9308899E-01
       -2   -1    0    0    0  501  0.00000000000E+00  0.00000000000E+00  0.29389727669E+03  0.29389727670E+03  0.25500000920E-02 0.  1.
        2   -1    0    0  501    0  0.00000000000E+00  0.00000000000E+00 -0.85008772252E+03  0.85008772252E+03  0.25500000920E-02 0. -1.
    10030    2    1    2    0    0  0.00000000000E+00  0.00000000000E+00 -0.55619044583E+03  0.11439849992E+04  0.99967688100E+03 0.  0.
        5    1    3    3  502    0  0.11475348350E+02 -0.46989326474E+03 -0.83605363296E+02  0.47743409036E+03  0.46999998093E+01 0.  1.
       -5    1    3    3    0  502 -0.11475348350E+02  0.46989326474E+03 -0.47258508254E+03  0.66655090886E+03  0.46999998093E+01 0. -1.
</event>
<event>
 5   0  0.2484904E-04  0.1000124E+04  0.7818609E-02  0.9308409E-01
        2   -1    0    0  501    0  0.00000000000E+00  0.00000000000E+00  0.81914579359E+03  0.81914579359E+03  0.25500000920E-02 0.  1.
       -2   -1    0    0    0  501  0.00000000000E+00  0.00000000000E+00 -0.30527183995E+03  0.30527183996E+03  0.25500000920E-02 0. -1.
    10030    2    1    2    0    0  0.00000000000E+00  0.00000000000E+00  0.51387395363E+03  0.11244176336E+04  0.10001242795E+04 0.  0.
        3    1    3    3  502    0 -0.38174609788E+03 -0.32111077605E+03  0.29620502300E+03  0.58015484105E+03  0.10100000352E+00 0.  1.
       -3    1    3    3    0  502  0.38174609788E+03  0.32111077605E+03  0.21766893063E+03  0.54426279250E+03  0.10100000352E+00 0. -1.
</event>
<event>
 5   0  0.2484904E-04  0.1000020E+04  0.7818609E-02  0.9308523E-01
       -2   -1    0    0    0  501  0.00000000000E+00  0.00000000000E+00  0.22328034574E+03  0.22328034575E+03  0.25500000920E-02 0.  1.
        2   -1    0    0  501    0  0.00000000000E+00  0.00000000000E+00 -0.11197129075E+04  0.11197129075E+04  0.25500000920E-02 0. -1.
    10030    2    1    2    0    0  0.00000000000E+00  0.00000000000E+00 -0.89643256175E+03  0.13429932532E+04  0.10000197701E+04 0.  0.
        3    1    3    3  502    0  0.20903440412E+03 -0.25374202515E+03 -0.95415922888E+03  0.10092077297E+04  0.10100000352E+00 0. -1.
       -3    1    3    3    0  502 -0.20903440412E+03  0.25374202515E+03  0.57726667125E+02  0.33378552355E+03  0.10100000352E+00 0.  1.
</event>
<event>
 5   0  0.1430675E-04  0.1000609E+04  0.7818609E-02  0.9307878E-01
       -1   -1    0    0    0  501  0.00000000000E+00  0.00000000000E+00  0.32237758038E+03  0.32237758042E+03  0.50400001928E-02 0.  1.
        1   -1    0    0  501    0  0.00000000000E+00  0.00000000000E+00 -0.77643230302E+03  0.77643230304E+03  0.50400001928E-02 0. -1.
    10030    2    1    2    0    0  0.00000000000E+00  0.00000000000E+00 -0.45405472264E+03  0.10988098835E+04  0.10006085493E+04 0.  0.
        5    1    3    3  502    0 -0.86907303078E+02  0.18673123874E+03  0.27363470725E+03  0.34251931020E+03  0.46999998093E+01 0.  1.
       -5    1    3    3    0  502  0.86907303078E+02 -0.18673123874E+03 -0.72768942988E+03  0.75629057327E+03  0.46999998093E+01 0. -1.
</event>
<event>
 5   0  0.2473312E-04  0.1000127E+04  0.7818609E-02  0.9308406E-01
        2   -1    0    0  501    0  0.00000000000E+00  0.00000000000E+00  0.11334920305E+04  0.11334920305E+04  0.25500000920E-02 0. -1.
       -2   -1    0    0    0  501  0.00000000000E+00  0.00000000000E+00 -0.22061330023E+03  0.22061330025E+03  0.25500000920E-02 0.  1.
    10030    2    1    2    0    0  0.00000000000E+00  0.00000000000E+00  0.91287873026E+03  0.13541053307E+04  0.10001268273E+04 0.  0.
        5    1    3    3  502    0  0.42875269652E+03 -0.20645198875E+03  0.66439065106E+03  0.81724434880E+03  0.46999998093E+01 0. -1.
       -5    1    3    3    0  502 -0.42875269652E+03  0.20645198875E+03  0.24848807920E+03  0.53686098194E+03  0.46999998093E+01 0.  1.
</event>
<event>
 5   0  0.2484904E-04  0.1000042E+04  0.7818609E-02  0.9308498E-01
       -2   -1    0    0    0  501  0.00000000000E+00  0.00000000000E+00  0.49311352115E+03  0.49311352115E+03  0.25500000920E-02 0.  1.
        2   -1    0    0  501    0  0.00000000000E+00  0.00000000000E+00 -0.50702550223E+03  0.50702550223E+03  0.25500000920E-02 0. -1.
    10030    2    1    2    0    0  0.00000000000E+00  0.00000000000E+00 -0.13911981080E+02  0.10001390234E+04  0.10000422605E+04 0.  0.
        3    1    3    3  502    0  0.13086465975E+03 -0.11762528995E+03 -0.47503957974E+03  0.50658057654E+03  0.10100000352E+00 0. -1.
       -3    1    3    3    0  502 -0.13086465975E+03  0.11762528995E+03  0.46112759866E+03  0.49355844685E+03  0.10100000352E+00 0.  1.
</event>
<event>
 5   0  0.1453863E-04  0.9976583E+03  0.7818609E-02  0.9311117E-01
       -1   -1    0    0    0  501  0.00000000000E+00  0.00000000000E+00  0.16964895888E+03  0.16964895896E+03  0.50400001928E-02 0.  1.
        1   -1    0    0  501    0  0.00000000000E+00  0.00000000000E+00 -0.14667377071E+04  0.14667377071E+04  0.50400001928E-02 0. -1.
    10030    2    1    2    0    0  0.00000000000E+00  0.00000000000E+00 -0.12970887482E+04  0.16363866661E+04  0.99765830831E+03 0.  0.
        1    1    3    3  502    0  0.47637146306E+03 -0.95849523487E+02 -0.46360100131E+03  0.67159719357E+03  0.50400001928E-02 0.  1.
       -1    1    3    3    0  502 -0.47637146306E+03  0.95849523487E+02 -0.83348774692E+03  0.96478947251E+03  0.50400001928E-02 0. -1.
</event>
<event>
 5   0  0.1506454E-04  0.1000025E+04  0.7818609E-02  0.9308517E-01
       -1   -1    0    0    0  501  0.00000000000E+00  0.00000000000E+00  0.36909927232E+03  0.36909927236E+03  0.50400001928E-02 0.  1.
        1   -1    0    0  501    0  0.00000000000E+00  0.00000000000E+00 -0.67735906177E+03  0.67735906179E+03  0.50400001928E-02 0. -1.
    10030    2    1    2    0    0  0.00000000000E+00  0.00000000000E+00 -0.30825978945E+03  0.10464583341E+04  0.10000254733E+04 0.  0.
        3    1    3    3  502    0 -0.30133424256E+02  0.33911009277E+03 -0.53734261693E+03  0.63611380777E+03  0.10100000352E+00 0. -1.
       -3    1    3    3    0  502  0.30133424256E+02 -0.33911009277E+03  0.22908282748E+03  0.41034452637E+03  0.10100000352E+00 0.  1.
</event>
<event>
 5   0  0.1414165E-04  0.1000267E+04  0.7818609E-02  0.9308252E-01
       -1   -1    0    0    0  501  0.00000000000E+00  0.00000000000E+00  0.19021512150E+03  0.19021512156E+03  0.50400001928E-02 0. -1.
        1   -1    0    0  501    0  0.00000000000E+00  0.00000000000E+00 -0.13150027655E+04  0.13150027655E+04  0.50400001928E-02 0.  1.
    10030    2    1    2    0    0  0.00000000000E+00  0.00000000000E+00 -0.11247876440E+04  0.15052178871E+04  0.10002667861E+04 0.  0.
        4    1    3    3  502    0 -0.14460946134E+03  0.35124899110E+03 -0.10519660151E+04  0.11184461810E+04  0.12699999809E+01 0.  1.
       -4    1    3    3    0  502  0.14460946134E+03 -0.35124899110E+03 -0.72821628913E+02  0.38677170604E+03  0.12699999809E+01 0. -1.
</event>
<event>
 5   0  0.9650500E-05  0.9991083E+03  0.7818609E-02  0.9309523E-01
        3   -1    0    0  501    0  0.00000000000E+00  0.00000000000E+00  0.11935373938E+04  0.11935373981E+04  0.10100000352E+00 0.  1.
       -3   -1    0    0    0  501  0.00000000000E+00  0.00000000000E+00 -0.20908796554E+03  0.20908798993E+03  0.10100000352E+00 0. -1.
    10030    2    1    2    0    0  0.00000000000E+00  0.00000000000E+00  0.98444942825E+03  0.14026253880E+04  0.99910825353E+03 0.  0.
        3    1    3    3  502    0  0.49567127767E+02 -0.11714743272E+02 -0.20543334491E+03  0.21165302919E+03  0.10100000352E+00 0. -1.
       -3    1    3    3    0  502 -0.49567127767E+02  0.11714743272E+02  0.11898827732E+04  0.11909723588E+04  0.10100000352E+00 0.  1.
</event>
<event>
 5   0  0.2403037E-04  0.9999271E+03  0.7818609E-02  0.9308625E-01
       -2   -1    0    0    0  501  0.00000000000E+00  0.00000000000E+00  0.30899655609E+03  0.30899655610E+03  0.25500000920E-02 0.  1.
        2   -1    0    0  501    0  0.00000000000E+00  0.00000000000E+00 -0.80895248230E+03  0.80895248231E+03  0.25500000920E-02 0. -1.
    10030    2    1    2    0    0  0.00000000000E+00  0.00000000000E+00 -0.49995592621E+03  0.11179490384E+04  0.99992705950E+03 0.  0.
        1    1    3    3  502    0 -0.35624299532E+03 -0.30141350446E+02 -0.64072278920E+03  0.73371879173E+03  0.50400001928E-02 0. -1.
       -1    1    3    3    0  502  0.35624299532E+03  0.30141350446E+02  0.14076686299E+03  0.38423024667E+03  0.50400001928E-02 0.  1.
</event>
<event>
 5   0  0.2473312E-04  0.9995525E+03  0.7818609E-02  0.9309036E-01
        2   -1    0    0  501    0  0.00000000000E+00  0.00000000000E+00  0.61806140548E+03  0.61806140548E+03  0.25500000920E-02 0. -1.
       -2   -1    0    0    0  501  0.00000000000E+00  0.00000000000E+00 -0.40412864787E+03  0.40412864788E+03  0.25500000920E-02 0.  1.
    10030    2    1    2    0    0  0.00000000000E+00  0.00000000000E+00  0.21393275761E+03  0.10221900534E+04  0.99955254009E+03 0.  0.
        5    1    3    3  502    0  0.34208014473E+03 -0.36003512370E+03  0.16399780140E+03  0.52303105508E+03  0.46999998093E+01 0. -1.
       -5    1    3    3    0  502 -0.34208014473E+03  0.36003512370E+03  0.49934956203E+02  0.49915899828E+03  0.46999998093E+01 0.  1.
</event>
<event>
 5   0  0.2503680E-04  0.9996278E+03  0.7818609E-02  0.9308953E-01
       -2   -1    0    0    0  501  0.00000000000E+00  0.00000000000E+00  0.11147096270E+03  0.11147096273E+03  0.25500000920E-02 0.  1.
        2   -1    0    0  501    0  0.00000000000E+00  0.00000000000E+00 -0.22410672564E+04  0.22410672564E+04  0.25500000920E-02 0. -1.
    10030    2    1    2    0    0  0.00000000000E+00  0.00000000000E+00 -0.21295962937E+04  0.23525382191E+04  0.99962777988E+03 0.  0.
        2    1    3    3  502    0  0.14257439323E+03  0.47653385571E+03 -0.94945800743E+03  0.10718593570E+04  0.25500000920E-02 0.  1.
       -2    1    3    3    0  502 -0.14257439323E+03 -0.47653385571E+03 -0.11801382862E+04  0.12806788621E+04  0.25500000920E-02 0. -1.
</event>
<event>
 5   0  0.2484904E-04  0.1000838E+04  0.7818609E-02  0.9307626E-01
       -2   -1    0    0    0  501  0.00000000000E+00  0.00000000000E+00  0.16948348742E+03  0.16948348744E+03  0.25500000920E-02 0.  1.
        2   -1    0    0  501    0  0.00000000000E+00  0.00000000000E+00 -0.14775434290E+04  0.14775434290E+04  0.25500000920E-02 0. -1.
    10030    2    1    2    0    0  0.00000000000E+00  0.00000000000E+00 -0.13080599416E+04  0.16470269164E+04  0.10008380752E+04 0.  0.
        3    1    3    3  502    0  0.43025224727E+03 -0.19821954369E+03 -0.38862000129E+03  0.61272628423E+03  0.10100000352E+00 0.  1.
       -3    1    3    3    0  502 -0.43025224727E+03  0.19821954369E+03 -0.91943994027E+03  0.10343006322E+04  0.10100000352E+00 0. -1.
</event>
<event>
 5   0  0.1461334E-04  0.1000111E+04  0.7818609E-02  0.9308424E-01
       -1   -1    0    0    0  501  0.00000000000E+00  0.00000000000E+00  0.27176679027E+03  0.27176679032E+03  0.50400001928E-02 0. -1.
        1   -1    0    0  501    0  0.00000000000E+00  0.00000000000E+00 -0.92010974974E+03  0.92010974975E+03  0.50400001928E-02 0.  1.
    10030    2    1    2    0    0  0.00000000000E+00  0.00000000000E+00 -0.64834295947E+03  0.11918765401E+04  0.10001105407E+04 0.  0.
        2    1    3    3  502    0 -0.33032853913E+03  0.20506871363E+03  0.50584706336E+02  0.39208281472E+03  0.25500000920E-02 0. -1.
       -2    1    3    3    0  502  0.33032853913E+03 -0.20506871363E+03 -0.69892766580E+03  0.79979372535E+03  0.25500000920E-02 0.  1.
</event>
<event>
 5   0  0.1453863E-04  0.1000160E+04  0.7818609E-02  0.9308369E-01
        1   -1    0    0  501    0  0.00000000000E+00  0.00000000000E+00  0.10568756292E+04  0.10568756292E+04  0.50400001928E-02 0. -1.
       -1   -1    0    0    0  501  0.00000000000E+00  0.00000000000E+00 -0.23662213482E+03  0.23662213487E+03  0.50400001928E-02 0.  1.
    10030    2    1    2    0    0  0.00000000000E+00  0.00000000000E+00  0.82025349436E+03  0.12934977641E+04  0.10001603225E+04 0.  0.
        1    1    3    3  502    0 -0.38236940254E+03 -0.19855638479E+03  0.81801164187E+02  0.43854581109E+03  0.50400001928E-02 0.  1.
       -1    1    3    3    0  502  0.38236940254E+03  0.19855638479E+03  0.73845233018E+03  0.85495195298E+03  0.50400001928E-02 0. -1.
</event>
<event>
 5   0  0.2484904E-04  0.9989226E+03  0.7818609E-02  0.9309727E-01
        2   -1    0    0  501    0  0.00000000000E+00  0.00000000000E+00  0.19071202320E+04  0.19071202320E+04  0.25500000920E-02 0.  1.
       -2   -1    0    0    0  501  0.00000000000E+00  0.00000000000E+00 -0.13080538337E+03  0.13080538340E+03  0.25500000920E-02 0. -1.
    10030    2    1    2    0    0  0.00000000000E+00  0.00000000000E+00  0.17763148486E+04  0.20379256154E+04  0.99892260584E+03 0.  0.
        3    1    3    3  502    0 -0.32203000982E+03  0.95608887356E+02  0.16422230972E+04  0.16762282356E+04  0.10100000352E+00 0.  1.
       -3    1    3    3    0  502  0.32203000982E+03 -0.95608887356E+02  0.13409175142E+03  0.36169737982E+03  0.10100000352E+00 0. -1.
</event>
<event>
 5   0  0.2473312E-04  0.9998652E+03  0.7818609E-02  0.9308693E-01
       -2   -1    0    0    0  501  0.00000000000E+00  0.00000000000E+00  0.32980616301E+03  0.32980616302E+03  0.25500000920E-02 0.  1.
        2   -1    0    0  501    0  0.00000000000E+00  0.00000000000E+00 -0.75781672569E+03  0.75781672569E+03  0.25500000920E-02 0. -1.
    10030    2    1    2    0    0  0.00000000000E+00  0.00000000000E+00 -0.42801056268E+03  0.10876228887E+04  0.99986524406E+03 0.  0.
        5    1    3    3  502    0  0.82071118016E+02 -0.43023009680E+03 -0.47614854329E+03  0.64697227907E+03  0.46999998093E+01 0. -1.
       -5    1    3    3    0  502 -0.82071118016E+02  0.43023009680E+03  0.48137980611E+02  0.44065060964E+03  0.46999998093E+01 0.  1.
</event>
<event>
 5   0  0.1506454E-04  0.9999617E+03  0.7818609E-02  0.9308587E-01
       -1   -1    0    0    0  501  0.00000000000E+00  0.00000000000E+00  0.36662066582E+03  0.36662066586E+03  0.50400001928E-02 0.  1.
        1   -1    0    0  501    0  0.00000000000E+00  0.00000000000E+00 -0.68185154807E+03  0.68185154808E+03  0.50400001928E-02 0. -1.
    10030    2    1    2    0    0  0.00000000000E+00  0.00000000000E+00 -0.31523088224E+03  0.10484722139E+04  0.99996173641E+03 0.  0.
        3    1    3    3  502    0  0.42820967311E+03  0.32766798412E+02  0.11081942542E+03  0.44352919010E+03  0.10100000352E+00 0.  1.
       -3    1    3    3    0  502 -0.42820967311E+03 -0.32766798412E+02 -0.42605030767E+03  0.60494302384E+03  0.10100000352E+00 0. -1.
</event>
<event>
 5   0  0.1461334E-04  0.9964883E+03  0.7818609E-02  0.9312405E-01
        1   -1    0    0  501    0  0.00000000000E+00  0.00000000000E+00  0.34425274310E+03  0.34425274313E+03  0.50400001928E-02 0. -1.
       -1   -1    0    0    0  501  0.00000000000E+00  0.00000000000E+00 -0.72111906483E+03  0.72111906485E+03  0.50400001928E-02 0.  1.
    10030    2    1    2    0    0  0.00000000000E+00  0.00000000000E+00 -0.37686632173E+03  0.10653718080E+04  0.99648826625E+03 0.  0.
        2    1    3    3  502    0  0.35446474914E+03 -0.33446731666E+03 -0.77668519453E+02  0.49350384316E+03  0.25500000920E-02 0. -1.
       -2    1    3    3    0  502 -0.35446474914E+03  0.33446731666E+03 -0.29919780228E+03  0.57186796482E+03  0.25500000920E-02 0.  1.
</event>
<event>
 5   0  0.1461334E-04  0.1000081E+04  0.7818609E-02  0.9308456E-01
        1   -1    0    0  501    0  0.00000000000E+00  0.00000000000E+00  0.46386762213E+03  0.46386762215E+03  0.50400001928E-02 0. -1.
       -1   -1    0    0    0  501  0.00000000000E+00  0.00000000000E+00 -0.53903388171E+03  0.53903388173E+03  0.50400001928E-02 0.  1.
    10030    2    1    2    0    0  0.00000000000E+00  0.00000000000E+00 -0.75166259583E+02  0.10029015039E+04  0.10000807267E+04 0.  0.
        2    1    3    3  502    0  0.11444793787E+03 -0.11569016949E+03  0.43656949276E+03  0.46591358406E+03  0.25500000920E-02 0. -1.
       -2    1    3    3    0  502 -0.11444793787E+03  0.11569016949E+03 -0.51173575234E+03  0.53698791982E+03  0.25500000920E-02 0.  1.
</event>
<event>
 5   0  0.2353916E-04  0.9994956E+03  0.7818609E-02  0.9309098E-01
        2   -1    0    0  501    0  0.00000000000E+00  0.00000000000E+00  0.17308448562E+04  0.17308448562E+04  0.25500000920E-02 0. -1.
       -2   -1    0    0    0  501  0.00000000000E+00  0.00000000000E+00 -0.14429245560E+03  0.14429245562E+03  0.25500000920E-02 0.  1.
    10030    2    1    2    0    0  0.00000000000E+00  0.00000000000E+00  0.15865524006E+04  0.18751373119E+04  0.99949558196E+03 0.  0.
        4    1    3    3  502    0  0.16601715268E+03  0.60596586746E+01 -0.90970060034E+02  0.18940849814E+03  0.12699999809E+01 0.  1.
       -4    1    3    3    0  502 -0.16601715268E+03 -0.60596586746E+01  0.16775224607E+04  0.16857288137E+04  0.12699999809E+01 0. -1.
</event>
<event>
 5   0  0.1430675E-04  0.9997000E+03  0.7818609E-02  0.9308874E-01
        1   -1    0    0  501    0  0.00000000000E+00  0.00000000000E+00  0.28224056450E+03  0.28224056454E+03  0.50400001928E-02 0. -1.
       -1   -1    0    0    0  501  0.00000000000E+00  0.00000000000E+00 -0.88523787943E+03  0.88523787944E+03  0.50400001928E-02 0.  1.
    10030    2    1    2    0    0  0.00000000000E+00  0.00000000000E+00 -0.60299731493E+03  0.11674784440E+04  0.99970003269E+03 0.  0.
        5    1    3    3  502    0 -0.10403566759E+03 -0.22770427110E+03  0.20372097905E+03  0.32279557387E+03  0.46999998093E+01 0. -1.
       -5    1    3    3    0  502  0.10403566759E+03  0.22770427110E+03 -0.80671829399E+03  0.84468287011E+03  0.46999998093E+01 0.  1.
</event>
<event>
 5   0  0.2473312E-04  0.9998780E+03  0.7818609E-02  0.9308679E-01
       -2   -1    0    0    0  501  0.00000000000E+00  0.00000000000E+00  0.25577832427E+03  0.25577832428E+03  0.25500000920E-02 0.  1.
        2   -1    0    0  501    0  0.00000000000E+00  0.00000000000E+00 -0.97717037861E+03  0.97717037861E+03  0.25500000920E-02 0. -1.
    10030    2    1    2    0    0  0.00000000000E+00  0.00000000000E+00 -0.72139205434E+03  0.12329487029E+04  0.99987799651E+03 0.  0.
        5    1    3    3  502    0 -0.44530159263E+02  0.14458897307E+02  0.25304173107E+03  0.25737949113E+03  0.46999998093E+01 0.  1.
       -5    1    3    3    0  502  0.44530159263E+02 -0.14458897307E+02 -0.97443378541E+03  0.97556921176E+03  0.46999998093E+01 0. -1.
</event>
<event>
 5   0  0.1461334E-04  0.1000509E+04  0.7818609E-02  0.9307986E-01
        1   -1    0    0  501    0  0.00000000000E+00  0.00000000000E+00  0.61064873990E+03  0.61064873992E+03  0.50400001928E-02 0. -1.
       -1   -1    0    0    0  501  0.00000000000E+00  0.00000000000E+00 -0.40981789301E+03  0.40981789304E+03  0.50400001928E-02 0.  1.
    10030    2    1    2    0    0  0.00000000000E+00  0.00000000000E+00  0.20083084689E+03  0.10204666330E+04  0.10005094302E+04 0.  0.
        2    1    3    3  502    0  0.18054886207E+03 -0.40042350544E+03 -0.14377170926E+03  0.46217656766E+03  0.25500000920E-02 0. -1.
       -2    1    3    3    0  502 -0.18054886207E+03  0.40042350544E+03  0.34460255615E+03  0.55829006530E+03  0.25500000920E-02 0.  1.
</event>
<event>
 5   0  0.2403037E-04  0.1000190E+04  0.7818609E-02  0.9308336E-01
       -2   -1    0    0    0  501  0.00000000000E+00  0.00000000000E+00  0.24217129230E+03  0.24217129232E+03  0.25500000920E-02 0.  1.
        2   -1    0    0  501    0  0.00000000000E+00  0.00000000000E+00 -0.10327196108E+04  0.10327196108E+04  0.25500000920E-02 0. -1.
    10030    2    1    2    0    0  0.00000000000E+00  0.00000000000E+00 -0.79054831847E+03  0.12748909031E+04  0.10001900674E+04 0.  0.
        1    1    3    3  502    0  0.87909152941E+02  0.72275461979E+02  0.22544606696E+03  0.25254245328E+03  0.50400001928E-02 0.  1.
       -1    1    3    3    0  502 -0.87909152941E+02 -0.72275461979E+02 -0.10159943854E+04  0.10223484498E+04  0.50400001928E-02 0. -1.
</event>
<event>
 5   0  0.1430675E-04  0.1000236E+04  0.7818609E-02  0.9308286E-01
        1   -1    0    0  501    0  0.00000000000E+00  0.00000000000E+00  0.18785303046E+04  0.18785303046E+04  0.50400001928E-02 0.  1.
       -1   -1    0    0    0  501  0.00000000000E+00  0.00000000000E+00 -0.13314562291E+03  0.13314562301E+03  0.50400001928E-02 0. -1.
    10030    2    1    2    0    0  0.00000000000E+00  0.00000000000E+00  0.17453846817E+04  0.20116759276E+04  0.10002361474E+04 0.  0.
        5    1    3    3  502    0 -0.48625121860E+03 -0.45519060384E+02  0.10891536830E+04  0.11936457044E+04  0.46999998093E+01 0. -1.
       -5    1    3    3    0  502  0.48625121860E+03  0.45519060384E+02  0.65623099869E+03  0.81803022321E+03  0.46999998093E+01 0.  1.
</event>
<event>
 5   0  0.9650500E-05  0.9999737E+03  0.7818609E-02  0.9308574E-01
        4   -1    0    0  501    0  0.00000000000E+00  0.00000000000E+00  0.10009435183E+04  0.10009443240E+04  0.12699999809E+01 0. -1.
       -4   -1    0    0    0  501  0.00000000000E+00  0.00000000000E+00 -0.24974870800E+03  0.24975193702E+03  0.12699999809E+01 0.  1.
    10030    2    1    2    0    0  0.00000000000E+00  0.00000000000E+00  0.75119481033E+03  0.12506962610E+04  0.99997374680E+03 0.  0.
        4    1    3    3  502    0 -0.18183455075E+03 -0.23335105060E+03 -0.12853912141E+03  0.32255299611E+03  0.12699999809E+01 0.  1.
       -4    1    3    3    0  502  0.18183455075E+03  0.23335105060E+03  0.87973393174E+03  0.92814326492E+03  0.12699999809E+01 0. -1.
</event>
<event>
 5   0  0.2503680E-04  0.9971969E+03  0.7818609E-02  0.9311625E-01
       -2   -1    0    0    0  501  0.00000000000E+00  0.00000000000E+00  0.51975704757E+03  0.51975704758E+03  0.25500000920E-02 0.  1.
        2   -1    0    0  501    0  0.00000000000E+00  0.00000000000E+00 -0.47830122136E+03  0.47830122137E+03  0.25500000920E-02 0. -1.
    10030    2    1    2    0    0  0.00000000000E+00  0.00000000000E+00  0.41455826210E+02  0.99805826895E+03  0.99719693275E+03 0.  0.
        2    1    3    3  502    0  0.47899233357E+03 -0.11327718019E+03  0.10038972405E+03  0.50233800560E+03  0.25500000920E-02 0.  1.
       -2    1    3    3    0  502 -0.47899233357E+03  0.11327718019E+03 -0.58933897839E+02  0.49572026335E+03  0.25500000920E-02 0. -1.
</event>
<event>
 5   0  0.2503680E-04  0.9998328E+03  0.7818609E-02  0.9308728E-01
       -2   -1    0    0    0  501  0.00000000000E+00  0.00000000000E+00  0.33442592359E+03  0.33442592360E+03  0.25500000920E-02 0.  1.
        2   -1    0    0  501    0  0.00000000000E+00  0.00000000000E+00 -0.74729977490E+03  0.74729977491E+03  0.25500000920E-02 0. -1.
    10030    2    1    2    0    0  0.00000000000E+00  0.00000000000E+00 -0.41287385131E+03  0.10817256985E+04  0.99983282088E+03 0.  0.
        2    1    3    3  502    0 -0.16812324571E+03 -0.78184738337E+02 -0.70872379156E+03  0.73257606553E+03  0.25500000920E-02 0. -1.
       -2    1    3    3    0  502  0.16812324571E+03  0.78184738337E+02  0.29584994025E+03  0.34914963298E+03  0.25500000920E-02 0.  1.
</event>
<event>
 5   0  0.2353916E-04  0.9999661E+03  0.7818609E-02  0.9308582E-01
       -2   -1    0    0    0  501  0.00000000000E+00  0.00000000000E+00  0.59153559388E+03  0.59153559389E+03  0.25500000920E-02 0.  1.
        2   -1    0    0  501    0  0.00000000000E+00  0.00000000000E+00 -0.42260017616E+03  0.42260017617E+03  0.25500000920E-02 0. -1.
    10030    2    1    2    0    0  0.00000000000E+00  0.00000000000E+00  0.16893541772E+03  0.10141357701E+04  0.99996609180E+03 0.  0.
        4    1    3    3  502    0  0.33209585064E+03  0.31435608805E+03  0.28950580136E+03  0.54122326819E+03  0.12699999809E+01 0.  1.
       -4    1    3    3    0  502 -0.33209585064E+03 -0.31435608805E+03 -0.12057038363E+03  0.47291250186E+03  0.12699999809E+01 0. -1.
</event>
<event>
 5   0  0.2503680E-04  0.1000258E+04  0.7818609E-02  0.9308261E-01
       -2   -1    0    0    0  501  0.00000000000E+00  0.00000000000E+00  0.17656619318E+03  0.17656619319E+03  0.25500000920E-02 0. -1.
        2   -1    0    0  501    0  0.00000000000E+00  0.00000000000E+00 -0.14166315317E+04  0.14166315317E+04  0.25500000920E-02 0.  1.
    10030    2    1    2    0    0  0.00000000000E+00  0.00000000000E+00 -0.12400653386E+04  0.15931977249E+04  0.10002584400E+04 0.  0.
        2    1    3    3  502    0 -0.43908088288E+03 -0.14425985752E+03 -0.92444367111E+03  0.10335371446E+04  0.25500000920E-02 0.  1.
       -2    1    3    3    0  502  0.43908088288E+03  0.14425985752E+03 -0.31562166744E+03  0.55966058032E+03  0.25500000920E-02 0. -1.
</event>
<event>
 5   0  0.2503680E-04  0.9999917E+03  0.7818609E-02  0.9308554E-01
       -2   -1    0    0    0  501  0.00000000000E+00  0.00000000000E+00  0.22085128066E+03  0.22085128068E+03  0.25500000920E-02 0. -1.
        2   -1    0    0  501    0  0.00000000000E+00  0.00000000000E+00 -0.11319647583E+04  0.11319647583E+04  0.25500000920E-02 0.  1.
    10030    2    1    2    0    0  0.00000000000E+00  0.00000000000E+00 -0.91111347763E+03  0.13528160390E+04  0.99999173306E+03 0.  0.
        2    1    3    3  502    0 -0.27076987637E+03  0.34236671588E+03 -0.12566496642E+03  0.45422789201E+03  0.25500000920E-02 0. -1.
       -2    1    3    3    0  502  0.27076987637E+03 -0.34236671588E+03 -0.78544851121E+03  0.89858814696E+03  0.25500000920E-02 0.  1.
</event>
<event>
 5   0  0.2484904E-04  0.9998595E+03  0.7818609E-02  0.9308699E-01
        2   -1    0    0  501    0  0.00000000000E+00  0.00000000000E+00  0.87851774139E+03  0.87851774139E+03  0.25500000920E-02 0. -1.
       -2   -1    0    0    0  501  0.00000000000E+00  0.00000000000E+00 -0.28449026249E+03  0.28449026250E+03  0.25500000920E-02 0.  1.
    10030    2    1    2    0    0  0.00000000000E+00  0.00000000000E+00  0.59402747890E+03  0.11630080039E+04  0.99985947584E+03 0.  0.
        3    1    3    3  502    0  0.62730006654E+02 -0.17770071058E+02 -0.27952390488E+03  0.28702691992E+03  0.10100000352E+00 0.  1.
       -3    1    3    3    0  502 -0.62730006654E+02  0.17770071058E+02  0.87355138378E+03  0.87598108397E+03  0.10100000352E+00 0. -1.
</event>
<event>
 5   0  0.1461334E-04  0.9996056E+03  0.7818609E-02  0.9308978E-01
       -1   -1    0    0    0  501  0.00000000000E+00  0.00000000000E+00  0.65168037987E+03  0.65168037988E+03  0.50400001928E-02 0.  1.
        1   -1    0    0  501    0  0.00000000000E+00  0.00000000000E+00 -0.38332106164E+03  0.38332106168E+03  0.50400001928E-02 0. -1.
    10030    2    1    2    0    0  0.00000000000E+00  0.00000000000E+00  0.26835931822E+03  0.10350014416E+04  0.99960555239E+03 0.  0.
        2    1    3    3  502    0  0.11522234182E+03 -0.46511147176E+03 -0.12972248619E+02  0.47934658491E+03  0.25500000920E-02 0.  1.
       -2    1    3    3    0  502 -0.11522234182E+03  0.46511147176E+03  0.28133156684E+03  0.55565485666E+03  0.25500000920E-02 0. -1.
</event>
<event>
 5   0  0.1453863E-04  0.1000135E+04  0.7818609E-02  0.9308397E-01
       -1   -1    0    0    0  501  0.00000000000E+00  0.00000000000E+00  0.16347172801E+03  0.16347172809E+03  0.50400001928E-02 0. -1.
        1   -1    0    0  501    0  0.00000000000E+00  0.00000000000E+00 -0.15297299809E+04  0.15297299810E+04  0.50400001928E-02 0.  1.
    10030    2    1    2    0    0  0.00000000000E+00  0.00000000000E+00 -0.13662582529E+04  0.16932017090E+04  0.10001351978E+04 0.  0.
        1    1    3    3  502    0 -0.42706485756E+03 -0.63948395888E+02 -0.11100598614E+04  0.11910947426E+04  0.50400001928E-02 0.  1.
       -1    1    3    3    0  502  0.42706485756E+03  0.63948395888E+02 -0.25619839151E+03  0.50210696643E+03  0.50400001928E-02 0. -1.
</event>
<event>
 5   0  0.1506454E-04  0.1000225E+04  0.7818609E-02  0.9308298E-01
        1   -1    0    0  501    0  0.00000000000E+00  0.00000000000E+00  0.67980669217E+03  0.67980669219E+03  0.50400001928E-02 0.  1.
       -1   -1    0    0    0  501  0.00000000000E+00  0.00000000000E+00 -0.36791717487E+03  0.36791717490E+03  0.50400001928E-02 0. -1.
    10030    2    1    2    0    0  0.00000000000E+00  0.00000000000E+00  0.31188951730E+03  0.10477238671E+04  0.10002250900E+04 0.  0.
        3    1    3    3  502    0  0.63082867424E+02  0.40469147170E+03 -0.14466408759E+03  0.43437580949E+03  0.10100000352E+00 0. -1.
       -3    1    3    3    0  502 -0.63082867424E+02 -0.40469147170E+03  0.45655360489E+03  0.61334805760E+03  0.10100000352E+00 0.  1.
</event>
<event>
 5   0  0.9650500E-05  0.9977442E+03  0.7818609E-02  0.9311022E-01
       -3   -1    0    0    0  501  0.00000000000E+00  0.00000000000E+00  0.13841051139E+04  0.13841051176E+04  0.10100000352E+00 0.  1.
        3   -1    0    0  501    0  0.00000000000E+00  0.00000000000E+00 -0.17980810930E+03  0.17980813766E+03  0.10100000352E+00 0. -1.
    10030    2    1    2    0    0  0.00000000000E+00  0.00000000000E+00  0.12042970046E+04  0.15639132553E+04  0.99774415291E+03 0.  0.
        3    1    3    3  502    0 -0.17672533957E+03  0.19750373661E+03 -0.60335274257E+02  0.27180862227E+03  0.10100000352E+00 0. -1.
       -3    1    3    3    0  502  0.17672533957E+03 -0.19750373661E+03  0.12646322789E+04  0.12921046330E+04  0.10100000352E+00 0.  1.
</event>
<event>
 5   0  0.1461334E-04  0.9998849E+03  0.7818609E-02  0.9308671E-01
        1   -1    0    0  501    0  0.00000000000E+00  0.00000000000E+00  0.76648192728E+03  0.76648192730E+03  0.50400001928E-02 0. -1.
       -1   -1    0    0    0  501  0.00000000000E+00  0.00000000000E+00 -0.32609044825E+03  0.32609044829E+03  0.50400001928E-02 0.  1.
    10030    2    1    2    0    0  0.00000000000E+00  0.00000000000E+00  0.44039147903E+03  0.10925723756E+04  0.99988486393E+03 0.  0.
        2    1    3    3  502    0  0.55462525854E+02  0.35695316718E+03 -0.15745880610E+03  0.39406209023E+03  0.25500000920E-02 0.  1.
       -2    1    3    3    0  502 -0.55462525854E+02 -0.35695316718E+03  0.59785028512E+03  0.69851028536E+03  0.25500000920E-02 0. -1.
</event>
<event>
 5   0  0.1453863E-04  0.9998743E+03  0.7818609E-02  0.9308683E-01
       -1   -1    0    0    0  501  0.00000000000E+00  0.00000000000E+00  0.22045490727E+03  0.22045490732E+03  0.50400001928E-02 0.  1.
        1   -1    0    0  501    0  0.00000000000E+00  0.00000000000E+00 -0.11337337910E+04  0.11337337910E+04  0.50400001928E-02 0. -1.
    10030    2    1    2    0    0  0.00000000000E+00  0.00000000000E+00 -0.91327888371E+03  0.13541886983E+04  0.99987434771E+03 0.  0.
        1    1    3    3  502    0  0.36382577391E+03  0.15916100186E+03 -0.45316036550E+02  0.39969358447E+03  0.50400001928E-02 0.  1.
       -1    1    3    3    0  502 -0.36382577391E+03 -0.15916100186E+03 -0.86796284716E+03  0.95449511384E+03  0.50400001928E-02 0. -1.
</event>
<event>
 5   0  0.2353916E-04  0.9991536E+03  0.7818609E-02  0.9309474E-01
       -2   -1    0    0    0  501  0.00000000000E+00  0.00000000000E+00  0.37199390036E+03  0.37199390036E+03  0.25500000920E-02 0.  1.
        2   -1    0    0  501    0  0.00000000000E+00  0.00000000000E+00 -0.67091688318E+03  0.67091688319E+03  0.25500000920E-02 0. -1.
    10030    2    1    2    0    0  0.00000000000E+00  0.00000000000E+00 -0.29892298283E+03  0.10429107835E+04  0.99915361821E+03 0.  0.
        4    1    3    3  502    0 -0.29643909741E+03  0.36370253594E+03  0.29571895876E+02  0.47014017383E+03  0.12699999809E+01 0.  1.
       -4    1    3    3    0  502  0.29643909741E+03 -0.36370253594E+03 -0.32849487870E+03  0.57277060972E+03  0.12699999809E+01 0. -1.
</event>
<event>
 5   0  0.2353916E-04  0.1001045E+04  0.7818609E-02  0.9307399E-01
        2   -1    0    0  501    0  0.00000000000E+00  0.00000000000E+00  0.21698881960E+04  0.21698881960E+04  0.25500000920E-02 0. -1.
       -2   -1    0    0    0  501  0.00000000000E+00  0.00000000000E+00 -0.11545432157E+03  0.11545432160E+03  0.25500000920E-02 0.  1.
    10030    2    1    2    0    0  0.00000000000E+00  0.00000000000E+00  0.20544338744E+04  0.22853425176E+04  0.10010453927E+04 0.  0.
        4    1    3    3  502    0 -0.21051844350E+03 -0.37563582200E+03  0.16097111227E+04  0.16663108345E+04  0.12699999809E+01 0. -1.
       -4    1    3    3    0  502  0.21051844350E+03  0.37563582200E+03  0.44472275171E+03  0.61903168305E+03  0.12699999809E+01 0.  1.
</event>
<event>
 5   0  0.2503680E-04  0.1000177E+04  0.7818609E-02  0.9308351E-01
       -2   -1    0    0    0  501  0.00000000000E+00  0.00000000000E+00  0.24325687199E+03  0.24325687201E+03  0.25500000920E-02 0. -1.
        2   -1    0    0  501    0  0.00000000000E+00  0.00000000000E+00 -0.10280842592E+04  0.10280842592E+04  0.25500000920E-02 0.  1.
    10030    2    1    2    0    0  0.00000000000E+00  0.00000000000E+00 -0.78482738716E+03  0.12713411312E+04  0.10001771064E+04 0.  0.
        2    1    3    3  502    0 -0.43150760092E+03 -0.22325745153E+03 -0.24176707692E+03  0.54267303122E+03  0.25500000920E-02 0. -1.
       -2    1    3    3    0  502  0.43150760092E+03  0.22325745153E+03 -0.54306031023E+03  0.72866809994E+03  0.25500000920E-02 0.  1.
</event>
<event>
 5   0  0.1430675E-04  0.1000106E+04  0.7818609E-02  0.9308429E-01
        1   -1    0    0  501    0  0.00000000000E+00  0.00000000000E+00  0.28517356541E+03  0.28517356545E+03  0.50400001928E-02 0. -1.
       -1   -1    0    0    0  501  0.00000000000E+00  0.00000000000E+00 -0.87684468632E+03  0.87684468634E+03  0.50400001928E-02 0.  1.
    10030    2    1    2    0    0  0.00000000000E+00  0.00000000000E+00 -0.59167112091E+03  0.11620182518E+04  0.10001058455E+04 0.  0.
        5    1    3    3  502    0  0.37829058374E+03  0.17554578589E+03  0.24710154532E+02  0.41779512973E+03  0.46999998093E+01 0. -1.
       -5    1    3    3    0  502 -0.37829058374E+03 -0.17554578589E+03 -0.61638127544E+03  0.74422312206E+03  0.46999998093E+01 0.  1.
</event>
<event>
 5   0  0.1414165E-04  0.9997992E+03  0.7818609E-02  0.9308765E-01
        1   -1    0    0  501    0  0.00000000000E+00  0.00000000000E+00  0.60226028705E+03  0.60226028707E+03  0.50400001928E-02 0. -1.
       -1   -1    0    0    0  501  0.00000000000E+00  0.00000000000E+00 -0.41493619938E+03  0.41493619942E+03  0.50400001928E-02 0.  1.
    10030    2    1    2    0    0  0.00000000000E+00  0.00000000000E+00  0.18732408766E+03  0.10171964865E+04  0.99979916898E+03 0.  0.
        4    1    3    3  502    0  0.88055635478E+02  0.42191623311E+03  0.35130939159E+03  0.55604586521E+03  0.12699999809E+01 0. -1.
       -4    1    3    3    0  502 -0.88055635478E+02 -0.42191623311E+03 -0.16398530393E+03  0.46115062128E+03  0.12699999809E+01 0.  1.
</event>
<event>
 5   0  0.1506454E-04  0.9997243E+03  0.7818609E-02  0.9308847E-01
        1   -1    0    0  501    0  0.00000000000E+00  0.00000000000E+00  0.62998813173E+03  0.62998813175E+03  0.50400001928E-02 0.  1.
       -1   -1    0    0    0  501  0.00000000000E+00  0.00000000000E+00 -0.39661412494E+03  0.39661412498E+03  0.50400001928E-02 0. -1.
    10030    2    1    2    0    0  0.00000000000E+00  0.00000000000E+00  0.23337400678E+03  0.10266022567E+04  0.99972434524E+03 0.  0.
        3    1    3    3  502    0  0.94097974787E+02  0.10150391879E+03  0.60991778716E+03  0.62542560844E+03  0.10100000352E+00 0.  1.
       -3    1    3    3    0  502 -0.94097974787E+02 -0.10150391879E+03 -0.37654378038E+03  0.40117664829E+03  0.10100000352E+00 0. -1.
</event>
<event>
 5   0  0.9650500E-05  0.9999840E+03  0.7818609E-02  0.9308562E-01
        3   -1    0    0  501    0  0.00000000000E+00  0.00000000000E+00  0.92436375020E+03  0.92436375572E+03  0.10100000352E+00 0. -1.
       -3   -1    0    0    0  501  0.00000000000E+00  0.00000000000E+00 -0.27044761711E+03  0.27044763597E+03  0.10100000352E+00 0.  1.
    10030    2    1    2    0    0  0.00000000000E+00  0.00000000000E+00  0.65391613310E+03  0.11948113917E+04  0.99998397616E+03 0.  0.
        1    1    3    3  502    0  0.34442739560E+03  0.15509844769E+03  0.71835622672E+03  0.81161655220E+03  0.50400001928E-02 0. -1.
       -1    1    3    3    0  502 -0.34442739560E+03 -0.15509844769E+03 -0.64440093625E+02  0.38319483949E+03  0.50400001928E-02 0.  1.
</event>
<event>
 5   0  0.1414165E-04  0.9985090E+03  0.7818609E-02  0.9310182E-01
        1   -1    0    0  501    0  0.00000000000E+00  0.00000000000E+00  0.12984849169E+04  0.12984849169E+04  0.50400001928E-02 0.  1.
       -1   -1    0    0    0  501  0.00000000000E+00  0.00000000000E+00 -0.19195837232E+03  0.19195837239E+03  0.50400001928E-02 0. -1.
    10030    2    1    2    0    0  0.00000000000E+00  0.00000000000E+00  0.11065265446E+04  0.14904432893E+04  0.99850899082E+03 0.  0.
        4    1    3    3  502    0 -0.62367350811E+02  0.15035572116E+03  0.12577601419E+04  0.12682502579E+04  0.12699999809E+01 0.  1.
       -4    1    3    3    0  502  0.62367350811E+02 -0.15035572116E+03 -0.15123359731E+03  0.22219303137E+03  0.12699999809E+01 0. -1.
</event>
<event>
 5   0  0.1461334E-04  0.9998388E+03  0.7818609E-02  0.9308722E-01
        1   -1    0    0  501    0  0.00000000000E+00  0.00000000000E+00  0.81123440948E+03  0.81123440949E+03  0.50400001928E-02 0.  1.
       -1   -1    0    0    0  501  0.00000000000E+00  0.00000000000E+00 -0.30807296189E+03  0.30807296193E+03  0.50400001928E-02 0. -1.
    10030    2    1    2    0    0  0.00000000000E+00  0.00000000000E+00  0.50316144758E+03  0.11193073714E+04  0.99983876170E+03 0.  0.
        2    1    3    3  502    0 -0.12597885431E+03 -0.12723559091E+03 -0.27094534796E+03  0.32476291185E+03  0.25500000920E-02 0. -1.
       -2    1    3    3    0  502  0.12597885431E+03  0.12723559091E+03  0.77410679554E+03  0.79454445957E+03  0.25500000920E-02 0.  1.
</event>
<event>
 5   0  0.2403037E-04  0.1001088E+04  0.7818609E-02  0.9307353E-01
        2   -1    0    0  501    0  0.00000000000E+00  0.00000000000E+00  0.15471551374E+04  0.15471551374E+04  0.25500000920E-02 0.  1.
       -2   -1    0    0    0  501  0.00000000000E+00  0.00000000000E+00 -0.16193854782E+03  0.16193854784E+03  0.25500000920E-02 0. -1.
    10030    2    1    2    0    0  0.00000000000E+00  0.00000000000E+00  0.13852165896E+04  0.17090936853E+04  0.10010875211E+04 0.  0.
        1    1    3    3  502    0  0.30539093780E+03 -0.73930335414E+02  0.13578060689E+04  0.13936881431E+04  0.50400001928E-02 0.  1.
       -1    1    3    3    0  502 -0.30539093780E+03  0.73930335414E+02  0.27410520719E+02  0.31540554221E+03  0.50400001928E-02 0. -1.
</event>
<event>
 5   0  0.2503680E-04  0.9997658E+03  0.7818609E-02  0.9308802E-01
        2   -1    0    0  501    0  0.00000000000E+00  0.00000000000E+00  0.12573556271E+04  0.12573556271E+04  0.25500000920E-02 0. -1.
       -2   -1    0    0    0  501  0.00000000000E+00  0.00000000000E+00 -0.19873686014E+03  0.19873686016E+03  0.25500000920E-02 0.  1.
    10030    2    1    2    0    0  0.00000000000E+00  0.00000000000E+00  0.10586187670E+04  0.14560924873E+04  0.99976579142E+03 0.  0.
        2    1    3    3  502    0 -0.19257541649E+03  0.21962092312E+02 -0.14178146878E+03  0.24014497586E+03  0.25500000920E-02 0. -1.
       -2    1    3    3    0  502  0.19257541649E+03 -0.21962092312E+02  0.12004002357E+04  0.12159475114E+04  0.25500000920E-02 0.  1.
</event>
<event>
 5   0  0.2484904E-04  0.1000172E+04  0.7818609E-02  0.9308357E-01
        2   -1    0    0  501    0  0.00000000000E+00  0.00000000000E+00  0.70453594146E+03  0.70453594147E+03  0.25500000920E-02 0.  1.
       -2   -1    0    0    0  501  0.00000000000E+00  0.00000000000E+00 -0.35496527291E+03  0.35496527292E+03  0.25500000920E-02 0. -1.
    10030    2    1    2    0    0  0.00000000000E+00  0.00000000000E+00  0.34957066855E+03  0.10595012144E+04  0.10001715708E+04 0.  0.
        3    1    3    3  502    0 -0.55997236633E+02 -0.23436281145E+03  0.63898507680E+03  0.68290816108E+03  0.10100000352E+00 0.  1.
       -3    1    3    3    0  502  0.55997236633E+02  0.23436281145E+03 -0.28941440825E+03  0.37659305331E+03  0.10100000352E+00 0. -1.
</event>
<event>
 5   0  0.2473312E-04  0.9996510E+03  0.7818609E-02  0.9308928E-01
       -2   -1    0    0    0  501  0.00000000000E+00  0.00000000000E+00  0.12413256318E+03  0.12413256321E+03  0.25500000920E-02 0. -1.
        2   -1    0    0  501    0  0.00000000000E+00  0.00000000000E+00 -0.20125703402E+04  0.20125703402E+04  0.25500000920E-02 0.  1.
    10030    2    1    2    0    0  0.00000000000E+00  0.00000000000E+00 -0.18884377770E+04  0.21367029034E+04  0.99965096899E+03 0.  0.
        5    1    3    3  502    0  0.24299294886E+02 -0.31515234423E+03 -0.11668663174E+03  0.33697079374E+03  0.46999998093E+01 0. -1.
       -5    1    3    3    0  502 -0.24299294886E+02  0.31515234423E+03 -0.17717511453E+04  0.17997321097E+04  0.46999998093E+01 0.  1.
</event>
<event>
 5   0  0.9650500E-05  0.1000593E+04  0.7818609E-02  0.9307895E-01
       -3   -1    0    0    0  501  0.00000000000E+00  0.00000000000E+00  0.40966092445E+03  0.40966093691E+03  0.10100000352E+00 0.  1.
        3   -1    0    0  501    0  0.00000000000E+00  0.00000000000E+00 -0.61098420380E+03  0.61098421215E+03  0.10100000352E+00 0. -1.
    10030    2    1    2    0    0  0.00000000000E+00  0.00000000000E+00 -0.20132327934E+03  0.10206451491E+04  0.10005925532E+04 0.  0.
        5    1    3    3  502    0 -0.13923024975E+03  0.35523147100E+03  0.22939651282E+03  0.44521827290E+03  0.46999998093E+01 0.  1.
       -5    1    3    3    0  502  0.13923024975E+03 -0.35523147100E+03 -0.43071979216E+03  0.57542687615E+03  0.46999998093E+01 0. -1.
</event>
<event>
 5   0  0.1430675E-04  0.9991833E+03  0.7818609E-02  0.9309441E-01
        1   -1    0    0  501    0  0.00000000000E+00  0.00000000000E+00  0.66184175840E+03  0.66184175842E+03  0.50400001928E-02 0.  1.
       -1   -1    0    0    0  501  0.00000000000E+00  0.00000000000E+00 -0.37711703341E+03  0.37711703345E+03  0.50400001928E-02 0. -1.
    10030    2    1    2    0    0  0.00000000000E+00  0.00000000000E+00  0.28472472498E+03  0.10389587919E+04  0.99918326756E+03 0.  0.
        5    1    3    3  502    0 -0.41601255310E+03 -0.23378658548E+00 -0.14524036693E+03  0.44066240273E+03  0.46999998093E+01 0. -1.
       -5    1    3    3    0  502  0.41601255310E+03  0.23378658548E+00  0.42996509191E+03  0.59829638914E+03  0.46999998093E+01 0.  1.
</event>
<event>
 5   0  0.1461334E-04  0.1000186E+04  0.7818609E-02  0.9308341E-01
       -1   -1    0    0    0  501  0.00000000000E+00  0.00000000000E+00  0.19739472090E+03  0.19739472096E+03  0.50400001928E-02 0. -1.
        1   -1    0    0  501    0  0.00000000000E+00  0.00000000000E+00 -0.12669679261E+04  0.12669679261E+04  0.50400001928E-02 0.  1.
    10030    2    1    2    0    0  0.00000000000E+00  0.00000000000E+00 -0.10695732052E+04  0.14643626471E+04  0.10001855432E+04 0.  0.
        2    1    3    3  502    0  0.32635685460E+02 -0.19085894055E+03  0.14028566695E+03  0.23910728034E+03  0.25500000920E-02 0. -1.
       -2    1    3    3    0  502 -0.32635685460E+02  0.19085894055E+03 -0.12098588721E+04  0.12252553667E+04  0.25500000920E-02 0.  1.
</event>
<event>
 5   0  0.1506454E-04  0.1000040E+04  0.7818609E-02  0.9308501E-01
       -1   -1    0    0    0  501  0.00000000000E+00  0.00000000000E+00  0.11745001785E+03  0.11745001796E+03  0.50400001928E-02 0.  1.
        1   -1    0    0  501    0  0.00000000000E+00  0.00000000000E+00 -0.21287354803E+04  0.21287354804E+04  0.50400001928E-02 0. -1.
    10030    2    1    2    0    0  0.00000000000E+00  0.00000000000E+00 -0.20112854625E+04  0.22461854983E+04  0.10000400398E+04 0.  0.
        3    1    3    3  502    0  0.39258541931E+03 -0.56551273558E+02 -0.16894991695E+04  0.17354333211E+04  0.10100000352E+00 0. -1.
       -3    1    3    3    0  502 -0.39258541931E+03  0.56551273558E+02 -0.32178629302E+03  0.51075217726E+03  0.10100000352E+00 0.  1.
</event>
<event>
 5   0  0.2503680E-04  0.9997045E+03  0.7818609E-02  0.9308869E-01
       -2   -1    0    0    0  501  0.00000000000E+00  0.00000000000E+00  0.60389195498E+03  0.60389195498E+03  0.25500000920E-02 0.  1.
        2   -1    0    0  501    0  0.00000000000E+00  0.00000000000E+00 -0.41373671001E+03  0.41373671001E+03  0.25500000920E-02 0. -1.
    10030    2    1    2    0    0  0.00000000000E+00  0.00000000000E+00  0.19015524497E+03  0.10176286650E+04  0.99970449765E+03 0.  0.
        2    1    3    3  502    0 -0.24374982122E+03  0.42078382098E+03  0.21282030232E+03  0.53081586301E+03  0.25500000920E-02 0. -1.
       -2    1    3    3    0  502  0.24374982122E+03 -0.42078382098E+03 -0.22665057349E+02  0.48681280198E+03  0.25500000920E-02 0.  1.
</event>
<event>
 5   0  0.2403037E-04  0.9986614E+03  0.7818609E-02  0.9310014E-01
        2   -1    0    0  501    0  0.00000000000E+00  0.00000000000E+00  0.54117307541E+03  0.54117307542E+03  0.25500000920E-02 0. -1.
       -2   -1    0    0    0  501  0.00000000000E+00  0.00000000000E+00 -0.46072344771E+03  0.46072344771E+03  0.25500000920E-02 0.  1.
    10030    2    1    2    0    0  0.00000000000E+00  0.00000000000E+00  0.80449627707E+02  0.10018965231E+04  0.99866135425E+03 0.  0.
        1    1    3    3  502    0  0.47046401566E+02  0.39605577549E+03 -0.26117742728E+03  0.47674646275E+03  0.50400001928E-02 0.  1.
       -1    1    3    3    0  502 -0.47046401566E+02 -0.39605577549E+03  0.34162705499E+03  0.52515006038E+03  0.50400001928E-02 0. -1.
</event>
<event>
 5   0  0.2403037E-04  0.9997499E+03  0.7818609E-02  0.9308819E-01
        2   -1    0    0  501    0  0.00000000000E+00  0.00000000000E+00  0.16018178761E+04  0.16018178761E+04  0.25500000920E-02 0.  1.
       -2   -1    0    0    0  501  0.00000000000E+00  0.00000000000E+00 -0.15599460592E+03  0.15599460595E+03  0.25500000920E-02 0. -1.
    10030    2    1    2    0    0  0.00000000000E+00  0.00000000000E+00  0.14458232701E+04  0.17578124820E+04  0.99974986543E+03 0.  0.
        1    1    3    3  502    0 -0.10983707164E+03  0.18513405348E+03 -0.70323542297E+02  0.22646015255E+03  0.50400001928E-02 0. -1.
       -1    1    3    3    0  502  0.10983707164E+03 -0.18513405348E+03  0.15161468124E+04  0.15313523295E+04  0.50400001928E-02 0.  1.
</event>
<event>
 5   0  0.2484904E-04  0.1003944E+04  0.7818609E-02  0.9304229E-01
       -2   -1    0    0    0  501  0.00000000000E+00  0.00000000000E+00  0.71851816143E+03  0.71851816143E+03  0.25500000920E-02 0. -1.
        2   -1    0    0  501    0  0.00000000000E+00  0.00000000000E+00 -0.35068856548E+03  0.35068856549E+03  0.25500000920E-02 0.  1.
    10030    2    1    2    0    0  0.00000000000E+00  0.00000000000E+00  0.36782959595E+03  0.10692067269E+04  0.10039444274E+04 0.  0.
        3    1    3    3  502    0 -0.49599332943E+02  0.42287125813E+02 -0.34616271443E+03  0.35224555341E+03  0.10100000352E+00 0.  1.
       -3    1    3    3    0  502  0.49599332943E+02 -0.42287125813E+02  0.71399231038E+03  0.71696117351E+03  0.10100000352E+00 0. -1.
</event>
<event>
 5   0  0.1414165E-04  0.1001326E+04  0.7818609E-02  0.9307092E-01
       -1   -1    0    0    0  501  0.00000000000E+00  0.00000000000E+00  0.64078149920E+03  0.64078149922E+03  0.50400001928E-02 0. -1.
        1   -1    0    0  501    0  0.00000000000E+00  0.00000000000E+00 -0.39118358364E+03  0.39118358367E+03  0.50400001928E-02 0.  1.
    10030    2    1    2    0    0  0.00000000000E+00  0.00000000000E+00  0.24959791557E+03  0.10319650829E+04  0.10013255279E+04 0.  0.
        4    1    3    3  502    0  0.21588602528E+03 -0.12094669166E+03  0.57334840458E+03  0.62447168396E+03  0.12699999809E+01 0. -1.
       -4    1    3    3    0  502 -0.21588602528E+03  0.12094669166E+03 -0.32375048901E+03  0.40749339893E+03  0.12699999809E+01 0.  1.
</event>
<event>
 5   0  0.2403037E-04  0.9998821E+03  0.7818609E-02  0.9308674E-01
       -2   -1    0    0    0  501  0.00000000000E+00  0.00000000000E+00  0.17653777397E+03  0.17653777399E+03  0.25500000920E-02 0.  1.
        2   -1    0    0  501    0  0.00000000000E+00  0.00000000000E+00 -0.14157935857E+04  0.14157935858E+04  0.25500000920E-02 0. -1.
    10030    2    1    2    0    0  0.00000000000E+00  0.00000000000E+00 -0.12392558118E+04  0.15923313597E+04  0.99988208913E+03 0.  0.
        1    1    3    3  502    0 -0.36657652944E+03  0.33835794610E+03 -0.56737491910E+03  0.75549900759E+03  0.50400001928E-02 0.  1.
       -1    1    3    3    0  502  0.36657652944E+03 -0.33835794610E+03 -0.67188089268E+03  0.83683235215E+03  0.50400001928E-02 0. -1.
</event>
<event>
 5   0  0.1461334E-04  0.1000340E+04  0.7818609E-02  0.9308172E-01
        1   -1    0    0  501    0  0.00000000000E+00  0.00000000000E+00  0.11619866946E+04  0.11619866946E+04  0.50400001928E-02 0.  1.
       -1   -1    0    0    0  501  0.00000000000E+00  0.00000000000E+00 -0.21529494587E+03  0.21529494593E+03  0.50400001928E-02 0. -1.
    10030    2    1    2    0    0  0.00000000000E+00  0.00000000000E+00  0.94669174876E+03  0.13772816406E+04  0.10003396675E+04 0.  0.
        2    1    3    3  502    0  0.11091103335E+03  0.22176471285E+03  0.10714111384E+04  0.10997284541E+04  0.25500000920E-02 0.  1.
       -2    1    3    3    0  502 -0.11091103335E+03 -0.22176471285E+03 -0.12471938964E+03  0.27755318651E+03  0.25500000920E-02 0. -1.
</event>
<event>
 5   0  0.2473312E-04  0.1000267E+04  0.7818609E-02  0.9308252E-01
       -2   -1    0    0    0  501  0.00000000000E+00  0.00000000000E+00  0.23398056713E+03  0.23398056714E+03  0.25500000920E-02 0.  1.
        2   -1    0    0  501    0  0.00000000000E+00  0.00000000000E+00 -0.10690351747E+04  0.10690351747E+04  0.25500000920E-02 0. -1.
    10030    2    1    2    0    0  0.00000000000E+00  0.00000000000E+00 -0.83505460759E+03  0.13030157419E+04  0.10002668773E+04 0.  0.
        5    1    3    3  502    0 -0.31392303104E+03 -0.38455825735E+03 -0.49653649955E+03  0.70214194298E+03  0.46999998093E+01 0. -1.
       -5    1    3    3    0  502  0.31392303104E+03  0.38455825735E+03 -0.33851810804E+03  0.60087379888E+03  0.46999998093E+01 0.  1.
</event>
<event>
 5   0  0.2484904E-04  0.9994580E+03  0.7818609E-02  0.9309139E-01
        2   -1    0    0  501    0  0.00000000000E+00  0.00000000000E+00  0.51939952136E+03  0.51939952137E+03  0.25500000920E-02 0. -1.
       -2   -1    0    0    0  501  0.00000000000E+00  0.00000000000E+00 -0.48080342261E+03  0.48080342262E+03  0.25500000920E-02 0.  1.
    10030    2    1    2    0    0  0.00000000000E+00  0.00000000000E+00  0.38596098748E+02  0.10002029440E+04  0.99945798827E+03 0.  0.
        3    1    3    3  502    0  0.39329600710E+03 -0.29699449757E+03  0.10207352438E+03  0.50329563416E+03  0.10100000352E+00 0. -1.
       -3    1    3    3    0  502 -0.39329600710E+03  0.29699449757E+03 -0.63477425632E+02  0.49690730982E+03  0.10100000352E+00 0.  1.
</event>
<event>
 5   0  0.1461334E-04  0.1000063E+04  0.7818609E-02  0.9308476E-01
        1   -1    0    0  501    0  0.00000000000E+00  0.00000000000E+00  0.54528568425E+03  0.54528568427E+03  0.50400001928E-02 0.  1.
       -1   -1    0    0    0  501  0.00000000000E+00  0.00000000000E+00 -0.45853308235E+03  0.45853308238E+03  0.50400001928E-02 0. -1.
    10030    2    1    2    0    0  0.00000000000E+00  0.00000000000E+00  0.86752601898E+02  0.10038187667E+04  0.10000630492E+04 0.  0.
        2    1    3    3  502    0  0.33693609278E+03  0.15506069005E+03 -0.29323632441E+03  0.47281845372E+03  0.25500000920E-02 0. -1.
       -2    1    3    3    0  502 -0.33693609278E+03 -0.15506069005E+03  0.37998892631E+03  0.53100031293E+03  0.25500000920E-02 0.  1.
</event>
<event>
 5   0  0.1461334E-04  0.1000579E+04  0.7818609E-02  0.9307910E-01
        1   -1    0    0  501    0  0.00000000000E+00  0.00000000000E+00  0.10503297154E+04  0.10503297154E+04  0.50400001928E-02 0.  1.
       -1   -1    0    0    0  501  0.00000000000E+00  0.00000000000E+00 -0.23829613426E+03  0.23829613431E+03  0.50400001928E-02 0. -1.
    10030    2    1    2    0    0  0.00000000000E+00  0.00000000000E+00  0.81203358110E+03  0.12886258497E+04  0.10005788543E+04 0.  0.
        2    1    3    3  502    0 -0.17626633912E+03 -0.17287623056E+03 -0.15437175196E+03  0.29118147470E+03  0.25500000920E-02 0. -1.
       -2    1    3    3    0  502  0.17626633912E+03  0.17287623056E+03  0.96640533306E+03  0.99744437498E+03  0.25500000920E-02 0.  1.
</event>
<event>
 5   0  0.9650500E-05  0.9999839E+03  0.7818609E-02  0.9308562E-01
        3   -1    0    0  501    0  0.00000000000E+00  0.00000000000E+00  0.28412902876E+03  0.28412904671E+03  0.10100000352E+00 0.  1.
       -3   -1    0    0    0  501  0.00000000000E+00  0.00000000000E+00 -0.87985355961E+03  0.87985356540E+03  0.10100000352E+00 0. -1.
    10030    2    1    2    0    0  0.00000000000E+00  0.00000000000E+00 -0.59572453085E+03  0.11639826121E+04  0.99998390219E+03 0.  0.
        3    1    3    3  502    0 -0.16584413218E+03  0.30010212773E+03  0.12572289206E+03  0.36520106659E+03  0.10100000352E+00 0.  1.
       -3    1    3    3    0  502  0.16584413218E+03 -0.30010212773E+03 -0.72144742291E+03  0.79878154552E+03  0.10100000352E+00 0. -1.
</event>
<event>
 5   0  0.1430675E-04  0.1000145E+04  0.7818609E-02  0.9308386E-01
        1   -1    0    0  501    0  0.00000000000E+00  0.00000000000E+00  0.24934476524E+03  0.24934476529E+03  0.50400001928E-02 0. -1.
       -1   -1    0    0    0  501  0.00000000000E+00  0.00000000000E+00 -0.10029176892E+04  0.10029176892E+04  0.50400001928E-02 0.  1.
    10030    2    1    2    0    0  0.00000000000E+00  0.00000000000E+00 -0.75357292397E+03  0.12522624545E+04  0.10001445412E+04 0.  0.
        5    1    3    3  502    0 -0.47300149454E+03 -0.16219583198E+03 -0.37239808722E+03  0.62349043866E+03  0.46999998093E+01 0. -1.
       -5    1    3    3    0  502  0.47300149454E+03  0.16219583198E+03 -0.38117483675E+03  0.62877201585E+03  0.46999998093E+01 0.  1.
</event>
<event>
 5   0  0.2503680E-04  0.9998293E+03  0.7818609E-02  0.9308732E-01
        2   -1    0    0  501    0  0.00000000000E+00  0.00000000000E+00  0.22242221147E+04  0.22242221147E+04  0.25500000920E-02 0. -1.
       -2   -1    0    0    0  501  0.00000000000E+00  0.00000000000E+00 -0.11236048406E+03  0.11236048409E+03  0.25500000920E-02 0.  1.
    10030    2    1    2    0    0  0.00000000000E+00  0.00000000000E+00  0.21118616307E+04  0.23365825988E+04  0.99982933243E+03 0.  0.
        2    1    3    3  502    0 -0.41806004724E+03 -0.22522992195E+03  0.14210683877E+04  0.14983117444E+04  0.25500000920E-02 0. -1.
       -2    1    3    3    0  502  0.41806004724E+03  0.22522992195E+03  0.69079324295E+03  0.83827085441E+03  0.25500000920E-02 0.  1.
</event>
<event>
 5   0  0.2503680E-04  0.1000044E+04  0.7818609E-02  0.9308497E-01
       -2   -1    0    0    0  501  0.00000000000E+00  0.00000000000E+00  0.30345271521E+03  0.30345271522E+03  0.25500000920E-02 0.  1.
        2   -1    0    0  501    0  0.00000000000E+00  0.00000000000E+00 -0.82392400188E+03  0.82392400189E+03  0.25500000920E-02 0. -1.
    10030    2    1    2    0    0  0.00000000000E+00  0.00000000000E+00 -0.52047128667E+03  0.11273767171E+04  0.10000439501E+04 0.  0.
        2    1    3    3  502    0  0.24595050059E+03  0.59952023097E+00 -0.75101797371E+03  0.79026578125E+03  0.25500000920E-02 0. -1.
       -2    1    3    3    0  502 -0.24595050059E+03 -0.59952023097E+00  0.23054668704E+03  0.33711093586E+03  0.25500000920E-02 0.  1.
</event>
<event>
 5   0  0.1506454E-04  0.1000645E+04  0.7818609E-02  0.9307838E-01
        1   -1    0    0  501    0  0.00000000000E+00  0.00000000000E+00  0.16802072695E+04  0.16802072695E+04  0.50400001928E-02 0.  1.
       -1   -1    0    0    0  501  0.00000000000E+00  0.00000000000E+00 -0.14898313060E+03  0.14898313069E+03  0.50400001928E-02 0. -1.
    10030    2    1    2    0    0  0.00000000000E+00  0.00000000000E+00  0.15312241389E+04  0.18291904002E+04  0.10006448704E+04 0.  0.
        3    1    3    3  502    0  0.16007823546E+03  0.20687441926E+03  0.15452551725E+04  0.15672382158E+04  0.10100000352E+00 0.  1.
       -3    1    3    3    0  502 -0.16007823546E+03 -0.20687441926E+03 -0.14031033557E+02  0.26195218441E+03  0.10100000352E+00 0. -1.
</event>
<event>
 5   0  0.2353916E-04  0.9953064E+03  0.7818609E-02  0.9313708E-01
       -2   -1    0    0    0  501  0.00000000000E+00  0.00000000000E+00  0.39730954192E+03  0.39730954193E+03  0.25500000920E-02 0. -1.
        2   -1    0    0  501    0  0.00000000000E+00  0.00000000000E+00 -0.62333940655E+03  0.62333940655E+03  0.25500000920E-02 0.  1.
    10030    2    1    2    0    0  0.00000000000E+00  0.00000000000E+00 -0.22602986463E+03  0.10206489485E+04  0.99530637310E+03 0.  0.
        4    1    3    3  502    0 -0.81193701250E+01  0.19613614310E+03 -0.58195703992E+03  0.61417499136E+03  0.12699999809E+01 0.  1.
       -4    1    3    3    0  502  0.81193701250E+01 -0.19613614310E+03  0.35592717529E+03  0.40647395711E+03  0.12699999809E+01 0. -1.
</event>
<event>
 5   0  0.1453863E-04  0.9997048E+03  0.7818609E-02  0.9308869E-01
        1   -1    0    0  501    0  0.00000000000E+00  0.00000000000E+00  0.14177592748E+04  0.14177592748E+04  0.50400001928E-02 0.  1.
       -1   -1    0    0    0  501  0.00000000000E+00  0.00000000000E+00 -0.17623049644E+03  0.17623049651E+03  0.50400001928E-02 0. -1.
    10030    2    1    2    0    0  0.00000000000E+00  0.00000000000E+00  0.12415287784E+04  0.15939897714E+04  0.99970479823E+03 0.  0.
        1    1    3    3  502    0 -0.61243997980E+02  0.45154697816E+03  0.94833549345E+03  0.10521338836E+04  0.50400001928E-02 0.  1.
       -1    1    3    3    0  502  0.61243997980E+02 -0.45154697816E+03  0.29319328494E+03  0.54185588779E+03  0.50400001928E-02 0. -1.
</event>
<event>
 5   0  0.2503680E-04  0.9998870E+03  0.7818609E-02  0.9308669E-01
       -2   -1    0    0    0  501  0.00000000000E+00  0.00000000000E+00  0.38488189879E+03  0.38488189880E+03  0.25500000920E-02 0.  1.
        2   -1    0    0  501    0  0.00000000000E+00  0.00000000000E+00 -0.64940306263E+03  0.64940306263E+03  0.25500000920E-02 0. -1.
    10030    2    1    2    0    0  0.00000000000E+00  0.00000000000E+00 -0.26452116384E+03  0.10342849614E+04  0.99988696127E+03 0.  0.
        2    1    3    3  502    0 -0.42219039038E+03  0.72880781588E+02 -0.39878150980E+03  0.58530592567E+03  0.25500000920E-02 0. -1.
       -2    1    3    3    0  502  0.42219039038E+03 -0.72880781588E+02  0.13426034596E+03  0.44897903576E+03  0.25500000920E-02 0.  1.
</event>
<event>
 5   0  0.1506454E-04  0.9996477E+03  0.7818609E-02  0.9308931E-01
       -1   -1    0    0    0  501  0.00000000000E+00  0.00000000000E+00  0.30914712536E+03  0.30914712540E+03  0.50400001928E-02 0.  1.
        1   -1    0    0  501    0  0.00000000000E+00  0.00000000000E+00 -0.80810677146E+03  0.80810677148E+03  0.50400001928E-02 0. -1.
    10030    2    1    2    0    0  0.00000000000E+00  0.00000000000E+00 -0.49895964611E+03  0.11172538969E+04  0.99964770877E+03 0.  0.
        3    1    3    3  502    0  0.30990044551E+03 -0.38884786412E+03 -0.19267816359E+03  0.53325962953E+03  0.10100000352E+00 0.  1.
       -3    1    3    3    0  502 -0.30990044551E+03  0.38884786412E+03 -0.30628148252E+03  0.58399426735E+03  0.10100000352E+00 0. -1.
</event>
<event>
 5   0  0.9650500E-05  0.1000614E+04  0.7818609E-02  0.9307871E-01
       -3   -1    0    0    0  501  0.00000000000E+00  0.00000000000E+00  0.69411099576E+03  0.69411100311E+03  0.10100000352E+00 0. -1.
        3   -1    0    0  501    0  0.00000000000E+00  0.00000000000E+00 -0.36061558016E+03  0.36061559430E+03  0.10100000352E+00 0.  1.
    10030    2    1    2    0    0  0.00000000000E+00  0.00000000000E+00  0.33349541560E+03  0.10547265974E+04  0.10006143128E+04 0.  0.
        5    1    3    3  502    0  0.34268792266E+02 -0.14867075839E+03  0.66896723238E+03  0.68616076289E+03  0.46999998093E+01 0. -1.
       -5    1    3    3    0  502 -0.34268792266E+02  0.14867075839E+03 -0.33547181678E+03  0.36856583452E+03  0.46999998093E+01 0.  1.
</event>
<event>
 5   0  0.2403037E-04  0.9990646E+03  0.7818609E-02  0.9309571E-01
       -2   -1    0    0    0  501  0.00000000000E+00  0.00000000000E+00  0.24317092307E+03  0.24317092308E+03  0.25500000920E-02 0. -1.
        2   -1    0    0  501    0  0.00000000000E+00  0.00000000000E+00 -0.10261610297E+04  0.10261610297E+04  0.25500000920E-02 0.  1.
    10030    2    1    2    0    0  0.00000000000E+00  0.00000000000E+00 -0.78299010659E+03  0.12693319527E+04  0.99906461214E+03 0.  0.
        1    1    3    3  502    0 -0.29254765499E+03 -0.18874081641E+03  0.63637372929E+02  0.35391657418E+03  0.50400001928E-02 0. -1.
       -1    1    3    3    0  502  0.29254765499E+03  0.18874081641E+03 -0.84662747952E+03  0.91541537857E+03  0.50400001928E-02 0.  1.
</event>
<event>
 5   0  0.2473312E-04  0.1000018E+04  0.7818609E-02  0.9308525E-01
        2   -1    0    0  501    0  0.00000000000E+00  0.00000000000E+00  0.12514939520E+04  0.12514939520E+04  0.25500000920E-02 0.  1.
       -2   -1    0    0    0  501  0.00000000000E+00  0.00000000000E+00 -0.19976855656E+03  0.19976855658E+03  0.25500000920E-02 0. -1.
    10030    2    1    2    0    0  0.00000000000E+00  0.00000000000E+00  0.10517253954E+04  0.14512625086E+04  0.10000182805E+04 0.  0.
        5    1    3    3  502    0  0.39598878780E+02 -0.27055223360E+03  0.11333405586E+04  0.11658685578E+04  0.46999998093E+01 0.  1.
       -5    1    3    3    0  502 -0.39598878780E+02  0.27055223360E+03 -0.81615163135E+02  0.28539395081E+03  0.46999998093E+01 0. -1.
</event>
<event>
 5   0  0.1453863E-04  0.9996578E+03  0.7818609E-02  0.9308920E-01
       -1   -1    0    0    0  501  0.00000000000E+00  0.00000000000E+00  0.29661270957E+03  0.29661270961E+03  0.50400001928E-02 0. -1.
        1   -1    0    0  501    0  0.00000000000E+00  0.00000000000E+00 -0.84227320696E+03  0.84227320697E+03  0.50400001928E-02 0.  1.
    10030    2    1    2    0    0  0.00000000000E+00  0.00000000000E+00 -0.54566049739E+03  0.11388859166E+04  0.99965781775E+03 0.  0.
        1    1    3    3  502    0 -0.36332197238E+03  0.92155621735E+02 -0.64953867105E+03  0.74993066309E+03  0.50400001928E-02 0.  1.
       -1    1    3    3    0  502  0.36332197238E+03 -0.92155621735E+02  0.10387817366E+03  0.38895525349E+03  0.50400001928E-02 0. -1.
</event>
<event>
 5   0  0.1461334E-04  0.9998316E+03  0.7818609E-02  0.9308730E-01
        1   -1    0    0  501    0  0.00000000000E+00  0.00000000000E+00  0.62064234359E+03  0.62064234361E+03  0.50400001928E-02 0. -1.
       -1   -1    0    0    0  501  0.00000000000E+00  0.00000000000E+00 -0.40267282386E+03  0.40267282389E+03  0.50400001928E-02 0.  1.
    10030    2    1    2    0    0  0.00000000000E+00  0.00000000000E+00  0.21796951973E+03  0.10233151675E+04  0.99983159608E+03 0.  0.
        2    1    3    3  502    0  0.42193715819E+03 -0.44863063431E+02  0.37952669545E+03  0.56928391202E+03  0.25500000920E-02 0. -1.
       -2    1    3    3    0  502 -0.42193715819E+03  0.44863063431E+02 -0.16155717571E+03  0.45403125548E+03  0.25500000920E-02 0.  1.
</event>
<event>
 5   0  0.1414165E-04  0.9973457E+03  0.7818609E-02  0.9311461E-01
       -1   -1    0    0    0  501  0.00000000000E+00  0.00000000000E+00  0.20208725486E+03  0.20208725493E+03  0.50400001928E-02 0. -1.
        1   -1    0    0  501    0  0.00000000000E+00  0.00000000000E+00 -0.12305307815E+04  0.12305307815E+04  0.50400001928E-02 0.  1.
    10030    2    1    2    0    0  0.00000000000E+00  0.00000000000E+00 -0.10284435267E+04  0.14326180365E+04  0.99734565265E+03 0.  0.
        4    1    3    3  502    0  0.48371340113E+03  0.30282415549E+02 -0.34561821695E+03  0.59527241152E+03  0.12699999809E+01 0. -1.
       -4    1    3    3    0  502 -0.48371340113E+03 -0.30282415549E+02 -0.68282530971E+03  0.83734562494E+03  0.12699999809E+01 0.  1.
</event>
<event>
 5   0  0.2503680E-04  0.9998250E+03  0.7818609E-02  0.9308737E-01
       -2   -1    0    0    0  501  0.00000000000E+00  0.00000000000E+00  0.19729138255E+03  0.19729138257E+03  0.25500000920E-02 0.  1.
        2   -1    0    0  501    0  0.00000000000E+00  0.00000000000E+00 -0.12667176884E+04  0.12667176884E+04  0.25500000920E-02 0. -1.
    10030    2    1    2    0    0  0.00000000000E+00  0.00000000000E+00 -0.10694263059E+04  0.14640090710E+04  0.99982495281E+03 0.  0.
        2    1    3    3  502    0 -0.99877685599E+02  0.17406069551E+03 -0.12051481415E+04  0.12217424937E+04  0.25500000920E-02 0. -1.
       -2    1    3    3    0  502  0.99877685599E+02 -0.17406069551E+03  0.13572183567E+03  0.24226657732E+03  0.25500000920E-02 0.  1.
</event>
<event>
 5   0  0.2503680E-04  0.1000247E+04  0.7818609E-02  0.9308274E-01
       -2   -1    0    0    0  501  0.00000000000E+00  0.00000000000E+00  0.35701173943E+03  0.35701173944E+03  0.25500000920E-02 0. -1.
        2   -1    0    0  501    0  0.00000000000E+00  0.00000000000E+00 -0.70060312468E+03  0.70060312469E+03  0.25500000920E-02 0.  1.
    10030    2    1    2    0    0  0.00000000000E+00  0.00000000000E+00 -0.34359138525E+03  0.10576148641E+04  0.10002470499E+04 0.  0.
        2    1    3    3  502    0 -0.25934042981E+03 -0.42670856989E+03 -0.14215435185E+03  0.51917773634E+03  0.25500000920E-02 0.  1.
       -2    1    3    3    0  502  0.25934042981E+03  0.42670856989E+03 -0.20143703340E+03  0.53843712779E+03  0.25500000920E-02 0. -1.
</event>
<event>
 5   0  0.2353916E-04  0.1000000E+04  0.7818609E-02  0.9308544E-01
        2   -1    0    0  501    0  0.00000000000E+00  0.00000000000E+00  0.11924672736E+04  0.11924672736E+04  0.25500000920E-02 0. -1.
       -2   -1    0    0    0  501  0.00000000000E+00  0.00000000000E+00 -0.20964954777E+03  0.20964954779E+03  0.25500000920E-02 0.  1.
    10030    2    1    2    0    0  0.00000000000E+00  0.00000000000E+00  0.98281772579E+03  0.14021168214E+04  0.10000004493E+04 0.  0.
        4    1    3    3  502    0 -0.13101377226E+03  0.17092907841E+03  0.11240993315E+04  0.11445445725E+04  0.12699999809E+01 0. -1.
       -4    1    3    3    0  502  0.13101377226E+03 -0.17092907841E+03 -0.14128160574E+03  0.25757224887E+03  0.12699999809E+01 0.  1.
</event>
<event>
 5   0  0.2473312E-04  0.9999517E+03  0.7818609E-02  0.9308598E-01
       -2   -1    0    0    0  501  0.00000000000E+00  0.00000000000E+00  0.25123678428E+03  0.25123678429E+03  0.25500000920E-02 0.  1.
        2   -1    0    0  501    0  0.00000000000E+00  0.00000000000E+00 -0.99498105394E+03  0.99498105394E+03  0.25500000920E-02 0. -1.
    10030    2    1    2    0    0  0.00000000000E+00  0.00000000000E+00 -0.74374426966E+03  0.12462178382E+04  0.99995167967E+03 0.  0.
        5    1    3    3  502    0  0.68614363995E+01  0.34936259769E+03  0.73752786456E+02  0.35715944266E+03  0.46999998093E+01 0.  1.
       -5    1    3    3    0  502 -0.68614363995E+01 -0.34936259769E+03 -0.81749705611E+03  0.88905839557E+03  0.46999998093E+01 0. -1.
</event>
<event>
 5   0  0.2503680E-04  0.1000457E+04  0.7818609E-02  0.9308044E-01
        2   -1    0    0  501    0  0.00000000000E+00  0.00000000000E+00  0.51225217575E+03  0.51225217575E+03  0.25500000920E-02 0.  1.
       -2   -1    0    0    0  501  0.00000000000E+00  0.00000000000E+00 -0.48848701246E+03  0.48848701246E+03  0.25500000920E-02 0. -1.
    10030    2    1    2    0    0  0.00000000000E+00  0.00000000000E+00  0.23765163292E+02  0.10007391882E+04  0.10004569655E+04 0.  0.
        2    1    3    3  502    0 -0.38363594390E+02 -0.32760102097E+03 -0.36430108014E+03  0.49143613147E+03  0.25500000920E-02 0. -1.
       -2    1    3    3    0  502  0.38363594390E+02  0.32760102097E+03  0.38806624343E+03  0.50930305675E+03  0.25500000920E-02 0.  1.
</event>
<event>
 5   0  0.2403037E-04  0.9997053E+03  0.7818609E-02  0.9308868E-01
       -2   -1    0    0    0  501  0.00000000000E+00  0.00000000000E+00  0.22021315027E+03  0.22021315028E+03  0.25500000920E-02 0.  1.
        2   -1    0    0  501    0  0.00000000000E+00  0.00000000000E+00 -0.11345946248E+04  0.11345946249E+04  0.25500000920E-02 0. -1.
    10030    2    1    2    0    0  0.00000000000E+00  0.00000000000E+00 -0.91438147458E+03  0.13548077751E+04  0.99970526982E+03 0.  0.
        1    1    3    3  502    0  0.67587303045E+02 -0.26198882073E+03 -0.10267752624E+04  0.10618256096E+04  0.50400001928E-02 0. -1.
       -1    1    3    3    0  502 -0.67587303045E+02  0.26198882073E+03  0.11239378786E+03  0.29298216549E+03  0.50400001928E-02 0.  1.
</event>
<event>
 5   0  0.2353916E-04  0.1000116E+04  0.7818609E-02  0.9308418E-01
        2   -1    0    0  501    0  0.00000000000E+00  0.00000000000E+00  0.86645027355E+03  0.86645027356E+03  0.25500000920E-02 0. -1.
       -2   -1    0    0    0  501  0.00000000000E+00  0.00000000000E+00 -0.28860055265E+03  0.28860055266E+03  0.25500000920E-02 0.  1.
    10030    2    1    2    0    0  0.00000000000E+00  0.00000000000E+00  0.57784972090E+03  0.11550508262E+04  0.10001160489E+04 0.  0.
        4    1    3    3  502    0 -0.43422223625E+03 -0.36977567447E+02  0.57215069038E+03  0.71921785041E+03  0.12699999809E+01 0. -1.
       -4    1    3    3    0  502  0.43422223625E+03  0.36977567447E+02  0.56990305172E+01  0.43583297580E+03  0.12699999809E+01 0.  1.
</event>
<event>
 5   0  0.2353916E-04  0.1000846E+04  0.7818609E-02  0.9307617E-01
        2   -1    0    0  501    0  0.00000000000E+00  0.00000000000E+00  0.49946464309E+03  0.49946464310E+03  0.25500000920E-02 0. -1.
       -2   -1    0    0    0  501  0.00000000000E+00  0.00000000000E+00 -0.50138327009E+03  0.50138327009E+03  0.25500000920E-02 0.  1.
    10030    2    1    2    0    0  0.00000000000E+00  0.00000000000E+00 -0.19186269955E+01  0.10008479132E+04  0.10008460742E+04 0.  0.
        4    1    3    3  502    0 -0.27653929909E+03  0.97619188918E+02 -0.40644509301E+03  0.50120127346E+03  0.12699999809E+01 0.  1.
       -4    1    3    3    0  502  0.27653929909E+03 -0.97619188918E+02  0.40452646602E+03  0.49964663973E+03  0.12699999809E+01 0. -1.
</event>
<event>
 5   0  0.2473312E-04  0.1000950E+04  0.7818609E-02  0.9307503E-01
       -2   -1    0    0    0  501  0.00000000000E+00  0.00000000000E+00  0.53726662994E+03  0.53726662995E+03  0.25500000920E-02 0.  1.
        2   -1    0    0  501    0  0.00000000000E+00  0.00000000000E+00 -0.46620283804E+03  0.46620283805E+03  0.25500000920E-02 0. -1.
    10030    2    1    2    0    0  0.00000000000E+00  0.00000000000E+00  0.71063791905E+02  0.10034694680E+04  0.10009500041E+04 0.  0.
        5    1    3    3  502    0  0.91755267497E+02  0.32364640589E+03  0.40698728439E+03  0.52804049543E+03  0.46999998093E+01 0.  1.
       -5    1    3    3    0  502 -0.91755267497E+02 -0.32364640589E+03 -0.33592349248E+03  0.47542897257E+03  0.46999998093E+01 0. -1.
</event>
<event>
 5   0  0.1461334E-04  0.1000314E+04  0.7818609E-02  0.9308200E-01
        1   -1    0    0  501    0  0.00000000000E+00  0.00000000000E+00  0.21914899364E+03  0.21914899370E+03  0.50400001928E-02 0.  1.
       -1   -1    0    0    0  501  0.00000000000E+00  0.00000000000E+00 -0.11414933044E+04  0.11414933044E+04  0.50400001928E-02 0. -1.
    10030    2    1    2    0    0  0.00000000000E+00  0.00000000000E+00 -0.92234431074E+03  0.13606422981E+04  0.10003141686E+04 0.  0.
        2    1    3    3  502    0  0.35894972331E+03 -0.29819057004E+03 -0.21635390788E+03  0.51436517512E+03  0.25500000920E-02 0.  1.
       -2    1    3    3    0  502 -0.35894972331E+03  0.29819057004E+03 -0.70599040287E+03  0.84627712297E+03  0.25500000920E-02 0. -1.
</event>
<event>
 5   0  0.2473312E-04  0.1000045E+04  0.7818609E-02  0.9308496E-01
        2   -1    0    0  501    0  0.00000000000E+00  0.00000000000E+00  0.17381094093E+04  0.17381094093E+04  0.25500000920E-02 0.  1.
       -2   -1    0    0    0  501  0.00000000000E+00  0.00000000000E+00 -0.14384724687E+03  0.14384724689E+03  0.25500000920E-02 0. -1.
    10030    2    1    2    0    0  0.00000000000E+00  0.00000000000E+00  0.15942621624E+04  0.18819566562E+04  0.10000445056E+04 0.  0.
        5    1    3    3  502    0 -0.18406617909E+03 -0.83718023458E+02 -0.63424309593E+02  0.21197593916E+03  0.46999998093E+01 0. -1.
       -5    1    3    3    0  502  0.18406617909E+03  0.83718023458E+02  0.16576864720E+04  0.16699807170E+04  0.46999998093E+01 0.  1.
</event>
<event>
 5   0  0.2484904E-04  0.9989797E+03  0.7818609E-02  0.9309665E-01
       -2   -1    0    0    0  501  0.00000000000E+00  0.00000000000E+00  0.30935393509E+03  0.30935393510E+03  0.25500000920E-02 0. -1.
        2   -1    0    0  501    0  0.00000000000E+00  0.00000000000E+00 -0.80648753449E+03  0.80648753449E+03  0.25500000920E-02 0.  1.
    10030    2    1    2    0    0  0.00000000000E+00  0.00000000000E+00 -0.49713359940E+03  0.11158414696E+04  0.99897966426E+03 0.  0.
        3    1    3    3  502    0  0.57042110425E+02  0.13859044105E+03  0.28364743856E+03  0.32080678346E+03  0.10100000352E+00 0. -1.
       -3    1    3    3    0  502 -0.57042110425E+02 -0.13859044105E+03 -0.78078103796E+03  0.79503468613E+03  0.10100000352E+00 0.  1.
</event>
<event>
 5   0  0.2473312E-04  0.9986825E+03  0.7818609E-02  0.9309991E-01
        2   -1    0    0  501    0  0.00000000000E+00  0.00000000000E+00  0.67842337639E+03  0.67842337640E+03  0.25500000920E-02 0.  1.
       -2   -1    0    0    0  501  0.00000000000E+00  0.00000000000E+00 -0.36753109121E+03  0.36753109122E+03  0.25500000920E-02 0. -1.
    10030    2    1    2    0    0  0.00000000000E+00  0.00000000000E+00  0.31089228519E+03  0.10459544676E+04  0.99868249976E+03 0.  0.
        5    1    3    3  502    0  0.42716652895E+03  0.18882244486E+03 -0.29533484463E+02  0.46799516647E+03  0.46999998093E+01 0. -1.
       -5    1    3    3    0  502 -0.42716652895E+03 -0.18882244486E+03  0.34042576965E+03  0.57795930114E+03  0.46999998093E+01 0.  1.
</event>
<event>
 5   0  0.1414165E-04  0.9998619E+03  0.7818609E-02  0.9308696E-01
       -1   -1    0    0    0  501  0.00000000000E+00  0.00000000000E+00  0.26078537613E+03  0.26078537618E+03  0.50400001928E-02 0.  1.
        1   -1    0    0  501    0  0.00000000000E+00  0.00000000000E+00 -0.95837789723E+03  0.95837789724E+03  0.50400001928E-02 0. -1.
    10030    2    1    2    0    0  0.00000000000E+00  0.00000000000E+00 -0.69759252109E+03  0.12191632734E+04  0.99986187134E+03 0.  0.
        4    1    3    3  502    0 -0.42708982833E+03  0.29899361920E+01 -0.66562234267E+03  0.79086621950E+03  0.12699999809E+01 0. -1.
       -4    1    3    3    0  502  0.42708982833E+03 -0.29899361920E+01 -0.31970178421E+02  0.42829705392E+03  0.12699999809E+01 0.  1.
</event>
<event>
 5   0  0.1430675E-04  0.1006535E+04  0.7818609E-02  0.9301407E-01
        1   -1    0    0  501    0  0.00000000000E+00  0.00000000000E+00  0.88437744900E+03  0.88437744901E+03  0.50400001928E-02 0. -1.
       -1   -1    0    0    0  501  0.00000000000E+00  0.00000000000E+00 -0.28639129005E+03  0.28639129010E+03  0.50400001928E-02 0.  1.
    10030    2    1    2    0    0  0.00000000000E+00  0.00000000000E+00  0.59798615894E+03  0.11707687391E+04  0.10065346463E+04 0.  0.
        5    1    3    3  502    0  0.11416584068E+03 -0.42678752598E+03  0.18685369681E+02  0.44221336994E+03  0.46999998093E+01 0.  1.
       -5    1    3    3    0  502 -0.11416584068E+03  0.42678752598E+03  0.57930078926E+03  0.72855536917E+03  0.46999998093E+01 0. -1.
</event>
<event>
 5   0  0.1430675E-04  0.1000389E+04  0.7818609E-02  0.9308118E-01
       -1   -1    0    0    0  501  0.00000000000E+00  0.00000000000E+00  0.88324931451E+03  0.88324931452E+03  0.50400001928E-02 0.  1.
        1   -1    0    0  501    0  0.00000000000E+00  0.00000000000E+00 -0.28326611837E+03  0.28326611841E+03  0.50400001928E-02 0. -1.
    10030    2    1    2    0    0  0.00000000000E+00  0.00000000000E+00  0.59998319614E+03  0.11665154329E+04  0.10003891341E+04 0.  0.
        5    1    3    3  502    0  0.25743486409E+03 -0.41847995390E+03  0.40921824457E+03  0.63943712963E+03  0.46999998093E+01 0.  1.
       -5    1    3    3    0  502 -0.25743486409E+03  0.41847995390E+03  0.19076495157E+03  0.52707830330E+03  0.46999998093E+01 0. -1.
</event>
<event>
 5   0  0.9650500E-05  0.9970606E+03  0.7818609E-02  0.9311775E-01
        3   -1    0    0  501    0  0.00000000000E+00  0.00000000000E+00  0.38414516007E+03  0.38414517335E+03  0.10100000352E+00 0. -1.
       -3   -1    0    0    0  501  0.00000000000E+00  0.00000000000E+00 -0.64697529402E+03  0.64697530190E+03  0.10100000352E+00 0.  1.
    10030    2    1    2    0    0  0.00000000000E+00  0.00000000000E+00 -0.26283013394E+03  0.10311204753E+04  0.99706055743E+03 0.  0.
        1    1    3    3  502    0 -0.29097167776E+03 -0.16042693041E+03  0.25294091391E+03  0.41758882075E+03  0.50400001928E-02 0. -1.
       -1    1    3    3    0  502  0.29097167776E+03  0.16042693041E+03 -0.51577104785E+03  0.61353165451E+03  0.50400001928E-02 0.  1.
</event>
<event>
 5   0  0.2403037E-04  0.9998614E+03  0.7818609E-02  0.9308697E-01
       -2   -1    0    0    0  501  0.00000000000E+00  0.00000000000E+00  0.28404847633E+03  0.28404847635E+03  0.25500000920E-02 0. -1.
        2   -1    0    0  501    0  0.00000000000E+00  0.00000000000E+00 -0.87988753796E+03  0.87988753796E+03  0.25500000920E-02 0.  1.
    10030    2    1    2    0    0  0.00000000000E+00  0.00000000000E+00 -0.59583906162E+03  0.11639360143E+04  0.99986141942E+03 0.  0.
        1    1    3    3  502    0 -0.26580658100E+03  0.40642138715E+03 -0.15969439530E+03  0.51120815951E+03  0.50400001928E-02 0.  1.
       -1    1    3    3    0  502  0.26580658100E+03 -0.40642138715E+03 -0.43614466632E+03  0.65272785479E+03  0.50400001928E-02 0. -1.
</event>
<event>
 5   0  0.2403037E-04  0.1000027E+04  0.7818609E-02  0.9308515E-01
       -2   -1    0    0    0  501  0.00000000000E+00  0.00000000000E+00  0.34008481954E+03  0.34008481955E+03  0.25500000920E-02 0. -1.
        2   -1    0    0  501    0  0.00000000000E+00  0.00000000000E+00 -0.73515071676E+03  0.73515071677E+03  0.25500000920E-02 0.  1.
    10030    2    1    2    0    0  0.00000000000E+00  0.00000000000E+00 -0.39506589722E+03  0.10752355363E+04  0.10000271973E+04 0.  0.
        1    1    3    3  502    0 -0.10953881633E+02  0.32302104832E+03 -0.60773649900E+03  0.68833584639E+03  0.50400001928E-02 0.  1.
       -1    1    3    3    0  502  0.10953881633E+02 -0.32302104832E+03  0.21267060178E+03  0.38689968993E+03  0.50400001928E-02 0. -1.
</event>
<event>
 5   0  0.1414165E-04  0.9998122E+03  0.7818609E-02  0.9308751E-01
       -1   -1    0    0    0  501  0.00000000000E+00  0.00000000000E+00  0.76382535955E+03  0.76382535957E+03  0.50400001928E-02 0. -1.
        1   -1    0    0  501    0  0.00000000000E+00  0.00000000000E+00 -0.32717703578E+03  0.32717703582E+03  0.50400001928E-02 0.  1.
    10030    2    1    2    0    0  0.00000000000E+00  0.00000000000E+00  0.43664832377E+03  0.10910023954E+04  0.99981221641E+03 0.  0.
        4    1    3    3  502    0  0.23263221445E+03  0.10662940851E+03  0.68692995652E+03  0.73304976367E+03  0.12699999809E+01 0. -1.
       -4    1    3    3    0  502 -0.23263221445E+03 -0.10662940851E+03 -0.25028163275E+03  0.35795263171E+03  0.12699999809E+01 0.  1.
</event>
<event>
 5   0  0.2503680E-04  0.9999359E+03  0.7818609E-02  0.9308615E-01
        2   -1    0    0  501    0  0.00000000000E+00  0.00000000000E+00  0.84282869197E+03  0.84282869197E+03  0.25500000920E-02 0.  1.
       -2   -1    0    0    0  501  0.00000000000E+00  0.00000000000E+00 -0.29658216869E+03  0.29658216870E+03  0.25500000920E-02 0. -1.
    10030    2    1    2    0    0  0.00000000000E+00  0.00000000000E+00  0.54624652328E+03  0.11394108607E+04  0.99993592055E+03 0.  0.
        2    1    3    3  502    0  0.16902187405E+03 -0.44185261748E+03  0.45744453320E+03  0.65807114391E+03  0.25500000920E-02 0.  1.
       -2    1    3    3    0  502 -0.16902187405E+03  0.44185261748E+03  0.88801990079E+02  0.48133971676E+03  0.25500000920E-02 0. -1.
</event>
<event>
 5   0  0.1430675E-04  0.1000135E+04  0.7818609E-02  0.9308397E-01
       -1   -1    0    0    0  501  0.00000000000E+00  0.00000000000E+00  0.24865144605E+03  0.24865144610E+03  0.50400001928E-02 0. -1.
        1   -1    0    0  501    0  0.00000000000E+00  0.00000000000E+00 -0.10056947096E+04  0.10056947096E+04  0.50400001928E-02 0.  1.
    10030    2    1    2    0    0  0.00000000000E+00  0.00000000000E+00 -0.75704326350E+03  0.12543461557E+04  0.10001348786E+04 0.  0.
        5    1    3    3  502    0  0.32367910809E+03 -0.11309376600E+03  0.77983269800E+02  0.35165586202E+03  0.46999998093E+01 0. -1.
       -5    1    3    3    0  502 -0.32367910809E+03  0.11309376600E+03 -0.83502653330E+03  0.90269029365E+03  0.46999998093E+01 0.  1.
</event>
<event>
 5   0  0.2473312E-04  0.1000653E+04  0.7818609E-02  0.9307829E-01
        2   -1    0    0  501    0  0.00000000000E+00  0.00000000000E+00  0.24451253842E+03  0.24451253844E+03  0.25500000920E-02 0.  1.
       -2   -1    0    0    0  501  0.00000000000E+00  0.00000000000E+00 -0.10237784043E+04  0.10237784043E+04  0.25500000920E-02 0. -1.
    10030    2    1    2    0    0  0.00000000000E+00  0.00000000000E+00 -0.77926586588E+03  0.12682909427E+04  0.10006530996E+04 0.  0.
        5    1    3    3  502    0  0.43459992986E+03 -0.24217044112E+03 -0.45647217765E+03  0.67521297422E+03  0.46999998093E+01 0.  1.
       -5    1    3    3    0  502 -0.43459992986E+03  0.24217044112E+03 -0.32279368823E+03  0.59307796852E+03  0.46999998093E+01 0. -1.
</event>
<event>
 5   0  0.2473312E-04  0.1000550E+04  0.7818609E-02  0.9307942E-01
        2   -1    0    0  501    0  0.00000000000E+00  0.00000000000E+00  0.36507983256E+03  0.36507983257E+03  0.25500000920E-02 0. -1.
       -2   -1    0    0    0  501  0.00000000000E+00  0.00000000000E+00 -0.68553510030E+03  0.68553510030E+03  0.25500000920E-02 0.  1.
    10030    2    1    2    0    0  0.00000000000E+00  0.00000000000E+00 -0.32045526774E+03  0.10506149329E+04  0.10005499281E+04 0.  0.
        5    1    3    3  502    0  0.23885720581E+03  0.37323672503E+03  0.83540625711E+02  0.45095403737E+03  0.46999998093E+01 0. -1.
       -5    1    3    3    0  502 -0.23885720581E+03 -0.37323672503E+03 -0.40399589345E+03  0.59966089550E+03  0.46999998093E+01 0.  1.
</event>
<event>
 5   0  0.1453863E-04  0.1000213E+04  0.7818609E-02  0.9308311E-01
        1   -1    0    0  501    0  0.00000000000E+00  0.00000000000E+00  0.88642042598E+03  0.88642042600E+03  0.50400001928E-02 0. -1.
       -1   -1    0    0    0  501  0.00000000000E+00  0.00000000000E+00 -0.28215335601E+03  0.28215335606E+03  0.50400001928E-02 0.  1.
    10030    2    1    2    0    0  0.00000000000E+00  0.00000000000E+00  0.60426706997E+03  0.11685737821E+04  0.10002129734E+04 0.  0.
        1    1    3    3  502    0 -0.27107202502E+02  0.47311765110E+03  0.48881484907E+03  0.68081940991E+03  0.50400001928E-02 0. -1.
       -1    1    3    3    0  502  0.27107202502E+02 -0.47311765110E+03  0.11545222090E+03  0.48775437214E+03  0.50400001928E-02 0.  1.
</event>
<event>
 5   0  0.1414165E-04  0.9998662E+03  0.7818609E-02  0.9308692E-01
        1   -1    0    0  501    0  0.00000000000E+00  0.00000000000E+00  0.12615323470E+04  0.12615323470E+04  0.50400001928E-02 0. -1.
       -1   -1    0    0    0  501  0.00000000000E+00  0.00000000000E+00 -0.19811864550E+03  0.19811864557E+03  0.50400001928E-02 0.  1.
    10030    2    1    2    0    0  0.00000000000E+00  0.00000000000E+00  0.10634137015E+04  0.14596509926E+04  0.99986615085E+03 0.  0.
        4    1    3    3  502    0 -0.28620503848E+03 -0.38990666708E+03  0.71631211234E+03  0.86431775886E+03  0.12699999809E+01 0. -1.
       -4    1    3    3    0  502  0.28620503848E+03  0.38990666708E+03  0.34710158919E+03  0.59533323375E+03  0.12699999809E+01 0.  1.
</event>
<event>
 5   0  0.2484904E-04  0.1000140E+04  0.7818609E-02  0.9308392E-01
        2   -1    0    0  501    0  0.00000000000E+00  0.00000000000E+00  0.18947219391E+04  0.18947219391E+04  0.25500000920E-02 0.  1.
       -2   -1    0    0    0  501  0.00000000000E+00  0.00000000000E+00 -0.13198231595E+03  0.13198231598E+03  0.25500000920E-02 0. -1.
    10030    2    1    2    0    0  0.00000000000E+00  0.00000000000E+00  0.17627396231E+04  0.20267042551E+04  0.10001395695E+04 0.  0.
        3    1    3    3  502    0 -0.79077050826E+02  0.49194211334E+03  0.96757151618E+03  0.10883266385E+04  0.10100000352E+00 0.  1.
       -3    1    3    3    0  502  0.79077050826E+02 -0.49194211334E+03  0.79516810696E+03  0.93837761662E+03  0.10100000352E+00 0. -1.
</event>
<event>
 5   0  0.2403037E-04  0.1002098E+04  0.7818609E-02  0.9306247E-01
        2   -1    0    0  501    0  0.00000000000E+00  0.00000000000E+00  0.77751139045E+03  0.77751139046E+03  0.25500000920E-02 0. -1.
       -2   -1    0    0    0  501  0.00000000000E+00  0.00000000000E+00 -0.32288931863E+03  0.32288931864E+03  0.25500000920E-02 0.  1.
    10030    2    1    2    0    0  0.00000000000E+00  0.00000000000E+00  0.45462207182E+03  0.11004007091E+04  0.10020980453E+04 0.  0.
        1    1    3    3  502    0 -0.36513977524E+03 -0.59148290860E+02 -0.14381409974E+03  0.39687286514E+03  0.50400001928E-02 0.  1.
       -1    1    3    3    0  502  0.36513977524E+03  0.59148290860E+02  0.59843617156E+03  0.70352784396E+03  0.50400001928E-02 0. -1.
</event>
<event>
 5   0  0.2473312E-04  0.9997447E+03  0.7818609E-02  0.9308825E-01
       -2   -1    0    0    0  501  0.00000000000E+00  0.00000000000E+00  0.28352830256E+03  0.28352830257E+03  0.25500000920E-02 0. -1.
        2   -1    0    0  501    0  0.00000000000E+00  0.00000000000E+00 -0.88129603117E+03  0.88129603118E+03  0.25500000920E-02 0.  1.
    10030    2    1    2    0    0  0.00000000000E+00  0.00000000000E+00 -0.59776772861E+03  0.11648243337E+04  0.99974470297E+03 0.  0.
        5    1    3    3  502    0 -0.28930293048E+03  0.31664984469E+03  0.18491934039E+00  0.42893523278E+03  0.46999998093E+01 0. -1.
       -5    1    3    3    0  502  0.28930293048E+03 -0.31664984469E+03 -0.59795264795E+03  0.73588910097E+03  0.46999998093E+01 0.  1.
</event>
<event>
 5   0  0.2473312E-04  0.9982549E+03  0.7818609E-02  0.9310461E-01
        2   -1    0    0  501    0  0.00000000000E+00  0.00000000000E+00  0.11962666266E+04  0.11962666266E+04  0.25500000920E-02 0. -1.
       -2   -1    0    0    0  501  0.00000000000E+00  0.00000000000E+00 -0.20825475760E+03  0.20825475761E+03  0.25500000920E-02 0.  1.
    10030    2    1    2    0    0  0.00000000000E+00  0.00000000000E+00  0.98801186900E+03  0.14045213842E+04  0.99825491004E+03 0.  0.
        5    1    3    3  502    0  0.37757362581E+03 -0.20079662305E+03  0.85608038736E+03  0.95696230143E+03  0.46999998093E+01 0. -1.
       -5    1    3    3    0  502 -0.37757362581E+03  0.20079662305E+03  0.13193148164E+03  0.44755908278E+03  0.46999998093E+01 0.  1.
</event>
<event>
 5   0  0.2484904E-04  0.9999596E+03  0.7818609E-02  0.9308589E-01
        2   -1    0    0  501    0  0.00000000000E+00  0.00000000000E+00  0.12896861232E+04  0.12896861232E+04  0.25500000920E-02 0.  1.
       -2   -1    0    0    0  501  0.00000000000E+00  0.00000000000E+00 -0.19382996740E+03  0.19382996742E+03  0.25500000920E-02 0. -1.
    10030    2    1    2    0    0  0.00000000000E+00  0.00000000000E+00  0.10958561558E+04  0.14835160906E+04  0.99995963765E+03 0.  0.
        3    1    3    3  502    0 -0.72867961193E+02 -0.41460359376E+03  0.94814707832E+03  0.10373951861E+04  0.10100000352E+00 0.  1.
       -3    1    3    3    0  502  0.72867961193E+02  0.41460359376E+03  0.14770907750E+03  0.44612090458E+03  0.10100000352E+00 0. -1.
</event>
<event>
 5   0  0.2353916E-04  0.1000259E+04  0.7818609E-02  0.9308261E-01
       -2   -1    0    0    0  501  0.00000000000E+00  0.00000000000E+00  0.34034948468E+03  0.34034948469E+03  0.25500000920E-02 0. -1.
        2   -1    0    0  501    0  0.00000000000E+00  0.00000000000E+00 -0.73491939116E+03  0.73491939117E+03  0.25500000920E-02 0.  1.
    10030    2    1    2    0    0  0.00000000000E+00  0.00000000000E+00 -0.39456990649E+03  0.10752688759E+04  0.10002588386E+04 0.  0.
        4    1    3    3  502    0  0.48351243838E+03  0.93947718627E+02 -0.10408028238E+03  0.50343298460E+03  0.12699999809E+01 0.  1.
       -4    1    3    3    0  502 -0.48351243838E+03 -0.93947718627E+02 -0.29048962411E+03  0.57183589125E+03  0.12699999809E+01 0. -1.
</event>
<event>
 5   0  0.1430675E-04  0.9999948E+03  0.7818609E-02  0.9308550E-01
       -1   -1    0    0    0  501  0.00000000000E+00  0.00000000000E+00  0.23590285272E+03  0.23590285277E+03  0.50400001928E-02 0.  1.
        1   -1    0    0  501    0  0.00000000000E+00  0.00000000000E+00 -0.10597473577E+04  0.10597473577E+04  0.50400001928E-02 0. -1.
    10030    2    1    2    0    0  0.00000000000E+00  0.00000000000E+00 -0.82384450500E+03  0.12956502105E+04  0.99999484977E+03 0.  0.
        5    1    3    3  502    0 -0.12692275289E+03 -0.42198294995E+03 -0.71797258896E+03  0.84242846803E+03  0.46999998093E+01 0. -1.
       -5    1    3    3    0  502  0.12692275289E+03  0.42198294995E+03 -0.10587191604E+03  0.45322174247E+03  0.46999998093E+01 0.  1.
</event>
<event>
 5   0  0.2484904E-04  0.9998074E+03  0.7818609E-02  0.9308756E-01
        2   -1    0    0  501    0  0.00000000000E+00  0.00000000000E+00  0.47294990664E+03  0.47294990664E+03  0.25500000920E-02 0.  1.
       -2   -1    0    0    0  501  0.00000000000E+00  0.00000000000E+00 -0.52839365440E+03  0.52839365441E+03  0.25500000920E-02 0. -1.
    10030    2    1    2    0    0  0.00000000000E+00  0.00000000000E+00 -0.55443747768E+02  0.10013435611E+04  0.99980744051E+03 0.  0.
        3    1    3    3  502    0 -0.34957616529E+03  0.33379097048E+03 -0.15552597350E+03  0.50774821117E+03  0.10100000352E+00 0. -1.
       -3    1    3    3    0  502  0.34957616529E+03 -0.33379097048E+03  0.10008222573E+03  0.49359534988E+03  0.10100000352E+00 0.  1.
</event>
<event>
 5   0  0.2353916E-04  0.1000249E+04  0.7818609E-02  0.9308272E-01
        2   -1    0    0  501    0  0.00000000000E+00  0.00000000000E+00  0.69301038654E+03  0.69301038654E+03  0.25500000920E-02 0.  1.
       -2   -1    0    0    0  501  0.00000000000E+00  0.00000000000E+00 -0.36092468616E+03  0.36092468617E+03  0.25500000920E-02 0. -1.
    10030    2    1    2    0    0  0.00000000000E+00  0.00000000000E+00  0.33208570038E+03  0.10539350727E+04  0.10002490815E+04 0.  0.
        4    1    3    3  502    0 -0.26039546237E+03 -0.39237365467E+03 -0.11400317289E+02  0.47105675012E+03  0.12699999809E+01 0. -1.
       -4    1    3    3    0  502  0.26039546237E+03  0.39237365467E+03  0.34348601767E+03  0.58287832258E+03  0.12699999809E+01 0.  1.
</event>
<event>
 5   0  0.2403037E-04  0.9994527E+03  0.7818609E-02  0.9309145E-01
        2   -1    0    0  501    0  0.00000000000E+00  0.00000000000E+00  0.55413866091E+03  0.55413866091E+03  0.25500000920E-02 0. -1.
       -2   -1    0    0    0  501  0.00000000000E+00  0.00000000000E+00 -0.45065693343E+03  0.45065693344E+03  0.25500000920E-02 0.  1.
    10030    2    1    2    0    0  0.00000000000E+00  0.00000000000E+00  0.10348172747E+03  0.10047955944E+04  0.99945270949E+03 0.  0.
        1    1    3    3  502    0 -0.24466001344E+03  0.22104596650E+03  0.42925670020E+03  0.54127733758E+03  0.50400001928E-02 0. -1.
       -1    1    3    3    0  502  0.24466001344E+03 -0.22104596650E+03 -0.32577497273E+03  0.46351825677E+03  0.50400001928E-02 0.  1.
</event>
<event>
 5   0  0.1414165E-04  0.1005902E+04  0.7818609E-02  0.9302095E-01
       -1   -1    0    0    0  501  0.00000000000E+00  0.00000000000E+00  0.23548696824E+03  0.23548696829E+03  0.50400001928E-02 0.  1.
        1   -1    0    0  501    0  0.00000000000E+00  0.00000000000E+00 -0.10741985075E+04  0.10741985075E+04  0.50400001928E-02 0. -1.
    10030    2    1    2    0    0  0.00000000000E+00  0.00000000000E+00 -0.83871153923E+03  0.13096854758E+04  0.10059020824E+04 0.  0.
        4    1    3    3  502    0  0.43978996883E+02 -0.19972684234E+03 -0.10176151840E+04  0.10379630241E+04  0.12699999809E+01 0. -1.
       -4    1    3    3    0  502 -0.43978996883E+02  0.19972684234E+03  0.17890364480E+03  0.27172245167E+03  0.12699999809E+01 0.  1.
</event>
<event>
 5   0  0.2484904E-04  0.1000585E+04  0.7818609E-02  0.9307904E-01
       -2   -1    0    0    0  501  0.00000000000E+00  0.00000000000E+00  0.91378097124E+02  0.91378097160E+02  0.25500000920E-02 0. -1.
        2   -1    0    0  501    0  0.00000000000E+00  0.00000000000E+00 -0.27390846293E+04  0.27390846293E+04  0.25500000920E-02 0.  1.
    10030    2    1    2    0    0  0.00000000000E+00  0.00000000000E+00 -0.26477065322E+04  0.28304627265E+04  0.10005845119E+04 0.  0.
        3    1    3    3  502    0  0.28100162190E+03 -0.37887806077E+02 -0.24898407224E+04  0.25059338041E+04  0.10100000352E+00 0.  1.
       -3    1    3    3    0  502 -0.28100162190E+03  0.37887806077E+02 -0.15786580979E+03  0.32452892238E+03  0.10100000352E+00 0. -1.
</event>
<event>
 5   0  0.2473312E-04  0.1000150E+04  0.7818609E-02  0.9308380E-01
        2   -1    0    0  501    0  0.00000000000E+00  0.00000000000E+00  0.72040180698E+03  0.72040180698E+03  0.25500000920E-02 0. -1.
       -2   -1    0    0    0  501  0.00000000000E+00  0.00000000000E+00 -0.34713280564E+03  0.34713280565E+03  0.25500000920E-02 0.  1.
    10030    2    1    2    0    0  0.00000000000E+00  0.00000000000E+00  0.37326900134E+03  0.10675346126E+04  0.10001501896E+04 0.  0.
        5    1    3    3  502    0  0.14235985454E+03 -0.29005119206E+03  0.59399827545E+03  0.67620415810E+03  0.46999998093E+01 0. -1.
       -5    1    3    3    0  502 -0.14235985454E+03  0.29005119206E+03 -0.22072927411E+03  0.39133045453E+03  0.46999998093E+01 0.  1.
</event>
<event>
 5   0  0.1453863E-04  0.1000400E+04  0.7818609E-02  0.9308107E-01
        1   -1    0    0  501    0  0.00000000000E+00  0.00000000000E+00  0.84298888010E+03  0.84298888012E+03  0.50400001928E-02 0.  1.
       -1   -1    0    0    0  501  0.00000000000E+00  0.00000000000E+00 -0.29680089093E+03  0.29680089097E+03  0.50400001928E-02 0. -1.
    10030    2    1    2    0    0  0.00000000000E+00  0.00000000000E+00  0.54618798917E+03  0.11397897711E+04  0.10003996215E+04 0.  0.
        1    1    3    3  502    0  0.41129327869E+03 -0.18606427723E+03  0.51856115159E+03  0.68752290458E+03  0.50400001928E-02 0.  1.
       -1    1    3    3    0  502 -0.41129327869E+03  0.18606427723E+03  0.27626837577E+02  0.45226686651E+03  0.50400001928E-02 0. -1.
</event>
<event>
 5   0  0.9650500E-05  0.1000300E+04  0.7818609E-02  0.9308216E-01
        3   -1    0    0  501    0  0.00000000000E+00  0.00000000000E+00  0.30146697180E+03  0.30146698872E+03  0.10100000352E+00 0. -1.
       -3   -1    0    0    0  501  0.00000000000E+00  0.00000000000E+00 -0.82977614010E+03  0.82977614625E+03  0.10100000352E+00 0.  1.
    10030    2    1    2    0    0  0.00000000000E+00  0.00000000000E+00 -0.52830916830E+03  0.11312431350E+04  0.10003001815E+04 0.  0.
        4    1    3    3  502    0 -0.10163554880E+03 -0.63962424176E+02 -0.81322842858E+03  0.82204809253E+03  0.12699999809E+01 0.  1.
       -4    1    3    3    0  502  0.10163554880E+03  0.63962424176E+02  0.28491926028E+03  0.30919504243E+03  0.12699999809E+01 0. -1.
</event>
<event>
 5   0  0.1414165E-04  0.1000031E+04  0.7818609E-02  0.9308511E-01
       -1   -1    0    0    0  501  0.00000000000E+00  0.00000000000E+00  0.10392209572E+03  0.10392209584E+03  0.50400001928E-02 0.  1.
        1   -1    0    0  501    0  0.00000000000E+00  0.00000000000E+00 -0.24057973889E+04  0.24057973889E+04  0.50400001928E-02 0. -1.
    10030    2    1    2    0    0  0.00000000000E+00  0.00000000000E+00 -0.23018752931E+04  0.25097194847E+04  0.10000310129E+04 0.  0.
        4    1    3    3  502    0 -0.32295672952E+03  0.19031802509E+03 -0.32050828150E+03  0.49320297163E+03  0.12699999809E+01 0.  1.
       -4    1    3    3    0  502  0.32295672952E+03 -0.19031802509E+03 -0.19813670116E+04  0.20165165131E+04  0.12699999809E+01 0. -1.
</event>
<event>
 5   0  0.2353916E-04  0.1000015E+04  0.7818609E-02  0.9308528E-01
        2   -1    0    0  501    0  0.00000000000E+00  0.00000000000E+00  0.10082490776E+04  0.10082490776E+04  0.25500000920E-02 0.  1.
       -2   -1    0    0    0  501  0.00000000000E+00  0.00000000000E+00 -0.24796219675E+03  0.24796219676E+03  0.25500000920E-02 0. -1.
    10030    2    1    2    0    0  0.00000000000E+00  0.00000000000E+00  0.76028688082E+03  0.12562112743E+04  0.10000153122E+04 0.  0.
        4    1    3    3  502    0  0.48761440162E+03 -0.98971096773E+02  0.44223238357E+03  0.66568324046E+03  0.12699999809E+01 0.  1.
       -4    1    3    3    0  502 -0.48761440162E+03  0.98971096773E+02  0.31805449725E+03  0.59052803387E+03  0.12699999809E+01 0. -1.
</event>
<event>
 5   0  0.1506454E-04  0.9997413E+03  0.7818609E-02  0.9308829E-01
       -1   -1    0    0    0  501  0.00000000000E+00  0.00000000000E+00  0.20883561314E+03  0.20883561320E+03  0.50400001928E-02 0. -1.
        1   -1    0    0  501    0  0.00000000000E+00  0.00000000000E+00 -0.11964945645E+04  0.11964945645E+04  0.50400001928E-02 0.  1.
    10030    2    1    2    0    0  0.00000000000E+00  0.00000000000E+00 -0.98765895138E+03  0.14053301777E+04  0.99974131865E+03 0.  0.
        3    1    3    3  502    0 -0.30611792257E+03  0.22991491079E+03 -0.42031489468E+02  0.38514374593E+03  0.10100000352E+00 0. -1.
       -3    1    3    3    0  502  0.30611792257E+03 -0.22991491079E+03 -0.94562746191E+03  0.10201864318E+04  0.10100000352E+00 0.  1.
</event>
<event>
 5   0  0.2473312E-04  0.9996377E+03  0.7818609E-02  0.9308942E-01
        2   -1    0    0  501    0  0.00000000000E+00  0.00000000000E+00  0.84597168166E+03  0.84597168166E+03  0.25500000920E-02 0. -1.
       -2   -1    0    0    0  501  0.00000000000E+00  0.00000000000E+00 -0.29530404596E+03  0.29530404597E+03  0.25500000920E-02 0.  1.
    10030    2    1    2    0    0  0.00000000000E+00  0.00000000000E+00  0.55066763571E+03  0.11412757276E+04  0.99963765509E+03 0.  0.
        5    1    3    3  502    0  0.18891093617E+03  0.34482070353E+03 -0.76943716534E+02  0.40066330615E+03  0.46999998093E+01 0. -1.
       -5    1    3    3    0  502 -0.18891093617E+03 -0.34482070353E+03  0.62761135224E+03  0.74061242148E+03  0.46999998093E+01 0.  1.
</event>
<event>
 5   0  0.2503680E-04  0.1001902E+04  0.7818609E-02  0.9306461E-01
       -2   -1    0    0    0  501  0.00000000000E+00  0.00000000000E+00  0.42727889224E+03  0.42727889224E+03  0.25500000920E-02 0.  1.
        2   -1    0    0  501    0  0.00000000000E+00  0.00000000000E+00 -0.58732564150E+03  0.58732564150E+03  0.25500000920E-02 0. -1.
    10030    2    1    2    0    0  0.00000000000E+00  0.00000000000E+00 -0.16004674926E+03  0.10146045337E+04  0.10019018904E+04 0.  0.
        2    1    3    3  502    0 -0.35983117372E+03 -0.28452770027E+03  0.12381793101E+03  0.47514773055E+03  0.25500000920E-02 0.  1.
       -2    1    3    3    0  502  0.35983117372E+03  0.28452770027E+03 -0.28386468027E+03  0.53945680319E+03  0.25500000920E-02 0. -1.
</event>
<event>
 5   0  0.2473312E-04  0.9998128E+03  0.7818609E-02  0.9308750E-01
        2   -1    0    0  501    0  0.00000000000E+00  0.00000000000E+00  0.62188837960E+03  0.62188837961E+03  0.25500000920E-02 0.  1.
       -2   -1    0    0    0  501  0.00000000000E+00  0.00000000000E+00 -0.40185092501E+03  0.40185092501E+03  0.25500000920E-02 0. -1.
    10030    2    1    2    0    0  0.00000000000E+00  0.00000000000E+00  0.22003745460E+03  0.10237393046E+04  0.99981282368E+03 0.  0.
        5    1    3    3  502    0 -0.70099779460E+02 -0.36940737482E+03 -0.22727063223E+03  0.43937434828E+03  0.46999998093E+01 0. -1.
       -5    1    3    3    0  502  0.70099779460E+02  0.36940737482E+03  0.44730808683E+03  0.58436495634E+03  0.46999998093E+01 0.  1.
</event>
<event>
 5   0  0.1506454E-04  0.9999157E+03  0.7818609E-02  0.9308637E-01
        1   -1    0    0  501    0  0.00000000000E+00  0.00000000000E+00  0.20420373839E+04  0.20420373839E+04  0.50400001928E-02 0.  1.
       -1   -1    0    0    0  501  0.00000000000E+00  0.00000000000E+00 -0.12240610948E+03  0.12240610959E+03  0.50400001928E-02 0. -1.
    10030    2    1    2    0    0  0.00000000000E+00  0.00000000000E+00  0.19196312744E+04  0.21644434935E+04  0.99991569986E+03 0.  0.
        3    1    3    3  502    0  0.11161730824E+03  0.48717593180E+03  0.98711306230E+03  0.11064316608E+04  0.10100000352E+00 0.  1.
       -3    1    3    3    0  502 -0.11161730824E+03 -0.48717593180E+03  0.93251821214E+03  0.10580118327E+04  0.10100000352E+00 0. -1.
</event>
<event>
 5   0  0.1461334E-04  0.9999866E+03  0.7818609E-02  0.9308559E-01
       -1   -1    0    0    0  501  0.00000000000E+00  0.00000000000E+00  0.75747844438E+03  0.75747844440E+03  0.50400001928E-02 0.  1.
        1   -1    0    0  501    0  0.00000000000E+00  0.00000000000E+00 -0.33003356151E+03  0.33003356155E+03  0.50400001928E-02 0. -1.
    10030    2    1    2    0    0  0.00000000000E+00  0.00000000000E+00  0.42744488288E+03  0.10875120059E+04  0.99998661750E+03 0.  0.
        2    1    3    3  502    0  0.27829065862E+03 -0.18240264452E+02  0.66503274403E+03  0.72114280733E+03  0.25500000920E-02 0.  1.
       -2    1    3    3    0  502 -0.27829065862E+03  0.18240264452E+02 -0.23758786116E+03  0.36636919862E+03  0.25500000920E-02 0. -1.
</event>
<event>
 5   0  0.2484904E-04  0.1000301E+04  0.7818609E-02  0.9308215E-01
       -2   -1    0    0    0  501  0.00000000000E+00  0.00000000000E+00  0.26912480832E+03  0.26912480833E+03  0.25500000920E-02 0. -1.
        2   -1    0    0  501    0  0.00000000000E+00  0.00000000000E+00 -0.92949568726E+03  0.92949568726E+03  0.25500000920E-02 0.  1.
    10030    2    1    2    0    0  0.00000000000E+00  0.00000000000E+00 -0.66037087894E+03  0.11986204956E+04  0.10003006522E+04 0.  0.
        3    1    3    3  502    0  0.29549761187E+03  0.39859813990E+03 -0.25486620257E+03  0.55781368499E+03  0.10100000352E+00 0. -1.
       -3    1    3    3    0  502 -0.29549761187E+03 -0.39859813990E+03 -0.40550467637E+03  0.64080681060E+03  0.10100000352E+00 0.  1.
</event>
<event>
 5   0  0.1461334E-04  0.9997632E+03  0.7818609E-02  0.9308805E-01
        1   -1    0    0  501    0  0.00000000000E+00  0.00000000000E+00  0.74646952730E+03  0.74646952732E+03  0.50400001928E-02 0.  1.
       -1   -1    0    0    0  501  0.00000000000E+00  0.00000000000E+00 -0.33475124614E+03  0.33475124618E+03  0.50400001928E-02 0. -1.
    10030    2    1    2    0    0  0.00000000000E+00  0.00000000000E+00  0.41171828116E+03  0.10812207735E+04  0.99976318096E+03 0.  0.
        2    1    3    3  502    0 -0.48931513912E+03  0.72241297219E+02  0.28409630683E+03  0.57040233341E+03  0.25500000920E-02 0. -1.
       -2    1    3    3    0  502  0.48931513912E+03 -0.72241297219E+02  0.12762197433E+03  0.51081844009E+03  0.25500000920E-02 0.  1.
</event>
<event>
 5   0  0.2353916E-04  0.1000089E+04  0.7818609E-02  0.9308448E-01
       -2   -1    0    0    0  501  0.00000000000E+00  0.00000000000E+00  0.24823861742E+03  0.24823861743E+03  0.25500000920E-02 0.  1.
        2   -1    0    0  501    0  0.00000000000E+00  0.00000000000E+00 -0.10072739770E+04  0.10072739770E+04  0.25500000920E-02 0. -1.
    10030    2    1    2    0    0  0.00000000000E+00  0.00000000000E+00 -0.75903535958E+03  0.12555125944E+04  0.10000885949E+04 0.  0.
        4    1    3    3  502    0 -0.22539276846E+01 -0.43350672487E+03 -0.66649276447E+02  0.43860791107E+03  0.12699999809E+01 0.  1.
       -4    1    3    3    0  502  0.22539276846E+01  0.43350672487E+03 -0.69238608313E+03  0.81690468337E+03  0.12699999809E+01 0. -1.
</event>
<event>
 5   0  0.1414165E-04  0.1000024E+04  0.7818609E-02  0.9308518E-01
       -1   -1    0    0    0  501  0.00000000000E+00  0.00000000000E+00  0.25044686086E+03  0.25044686091E+03  0.50400001928E-02 0.  1.
        1   -1    0    0  501    0  0.00000000000E+00  0.00000000000E+00 -0.99826457224E+03  0.99826457226E+03  0.50400001928E-02 0. -1.
    10030    2    1    2    0    0  0.00000000000E+00  0.00000000000E+00 -0.74781771138E+03  0.12487114332E+04  0.10000244566E+04 0.  0.
        4    1    3    3  502    0 -0.39241824729E+03  0.19867847040E+03 -0.76981570331E+02  0.44653442250E+03  0.12699999809E+01 0.  1.
       -4    1    3    3    0  502  0.39241824729E+03 -0.19867847040E+03 -0.67083614105E+03  0.80217701067E+03  0.12699999809E+01 0. -1.
</event>
<event>
 5   0  0.1453863E-04  0.9999501E+03  0.7818609E-02  0.9308600E-01
       -1   -1    0    0    0  501  0.00000000000E+00  0.00000000000E+00  0.45240093548E+03  0.45240093551E+03  0.50400001928E-02 0.  1.
        1   -1    0    0  501    0  0.00000000000E+00  0.00000000000E+00 -0.55255199350E+03  0.55255199353E+03  0.50400001928E-02 0. -1.
    10030    2    1    2    0    0  0.00000000000E+00  0.00000000000E+00 -0.10015105802E+03  0.10049529290E+04  0.99995007633E+03 0.  0.
        1    1    3    3  502    0 -0.22357876979E+03  0.20354903013E+00 -0.49951256926E+03  0.54726621914E+03  0.50400001928E-02 0. -1.
       -1    1    3    3    0  502  0.22357876979E+03 -0.20354903013E+00  0.39936151124E+03  0.45768670990E+03  0.50400001928E-02 0.  1.
</event>
<event>
 5   0  0.1430675E-04  0.9997528E+03  0.7818609E-02  0.9308816E-01
       -1   -1    0    0    0  501  0.00000000000E+00  0.00000000000E+00  0.25338015163E+03  0.25338015168E+03  0.50400001928E-02 0.  1.
        1   -1    0    0  501    0  0.00000000000E+00  0.00000000000E+00 -0.98617199224E+03  0.98617199226E+03  0.50400001928E-02 0. -1.
    10030    2    1    2    0    0  0.00000000000E+00  0.00000000000E+00 -0.73279184062E+03  0.12395521439E+04  0.99975278737E+03 0.  0.
        5    1    3    3  502    0 -0.23573167448E+03 -0.32759939307E+03 -0.76680807130E+00  0.40362539896E+03  0.46999998093E+01 0.  1.
       -5    1    3    3    0  502  0.23573167448E+03  0.32759939307E+03 -0.73202503254E+03  0.83592674497E+03  0.46999998093E+01 0. -1.
</event>
<event>
 5   0  0.1506454E-04  0.1001000E+04  0.7818609E-02  0.9307448E-01
       -1   -1    0    0    0  501  0.00000000000E+00  0.00000000000E+00  0.34918471406E+03  0.34918471410E+03  0.50400001928E-02 0. -1.
        1   -1    0    0  501    0  0.00000000000E+00  0.00000000000E+00 -0.71738672338E+03  0.71738672340E+03  0.50400001928E-02 0.  1.
    10030    2    1    2    0    0  0.00000000000E+00  0.00000000000E+00 -0.36820200931E+03  0.10665714375E+04  0.10010004554E+04 0.  0.
        3    1    3    3  502    0 -0.16048096159E+02  0.11248134098E+03  0.33526145144E+03  0.35399130566E+03  0.10100000352E+00 0. -1.
       -3    1    3    3    0  502  0.16048096159E+02 -0.11248134098E+03 -0.70346346076E+03  0.71258013183E+03  0.10100000352E+00 0.  1.
</event>
<event>
 5   0  0.2503680E-04  0.1000394E+04  0.7818609E-02  0.9308113E-01
       -2   -1    0    0    0  501  0.00000000000E+00  0.00000000000E+00  0.68502129780E+03  0.68502129780E+03  0.25500000920E-02 0.  1.
        2   -1    0    0  501    0  0.00000000000E+00  0.00000000000E+00 -0.36523981211E+03  0.36523981212E+03  0.25500000920E-02 0. -1.
    10030    2    1    2    0    0  0.00000000000E+00  0.00000000000E+00  0.31978148569E+03  0.10502611099E+04  0.10003940226E+04 0.  0.
        2    1    3    3  502    0  0.10875922269E+03 -0.24117303476E+02 -0.35205047992E+03  0.36925567465E+03  0.25500000920E-02 0. -1.
       -2    1    3    3    0  502 -0.10875922269E+03  0.24117303476E+02  0.67183196560E+03  0.68100543527E+03  0.25500000920E-02 0.  1.
</event>
<event>
 5   0  0.1414165E-04  0.9999282E+03  0.7818609E-02  0.9308624E-01
       -1   -1    0    0    0  501  0.00000000000E+00  0.00000000000E+00  0.36329840494E+03  0.36329840498E+03  0.50400001928E-02 0.  1.
        1   -1    0    0  501    0  0.00000000000E+00  0.00000000000E+00 -0.68804067410E+03  0.68804067412E+03  0.50400001928E-02 0. -1.
    10030    2    1    2    0    0  0.00000000000E+00  0.00000000000E+00 -0.32474226916E+03  0.10513390791E+04  0.99992815635E+03 0.  0.
        4    1    3    3  502    0 -0.88510209708E+02 -0.48487659975E+03 -0.25048377184E+03  0.55288616103E+03  0.12699999809E+01 0. -1.
       -4    1    3    3    0  502  0.88510209708E+02  0.48487659975E+03 -0.74258497312E+02  0.49845291806E+03  0.12699999809E+01 0.  1.
</event>
<event>
 5   0  0.2484904E-04  0.9999719E+03  0.7818609E-02  0.9308576E-01
       -2   -1    0    0    0  501  0.00000000000E+00  0.00000000000E+00  0.12815095535E+03  0.12815095537E+03  0.25500000920E-02 0.  1.
        2   -1    0    0  501    0  0.00000000000E+00  0.00000000000E+00 -0.19507146738E+04  0.19507146738E+04  0.25500000920E-02 0. -1.
    10030    2    1    2    0    0  0.00000000000E+00  0.00000000000E+00 -0.18225637184E+04  0.20788656292E+04  0.99997189776E+03 0.  0.
        3    1    3    3  502    0  0.26551421232E+03 -0.11716011109E+03 -0.17576916038E+04  0.17814892850E+04  0.10100000352E+00 0. -1.
       -3    1    3    3    0  502 -0.26551421232E+03  0.11716011109E+03 -0.64872114666E+02  0.29737634411E+03  0.10100000352E+00 0.  1.
</event>
<event>
 5   0  0.9650500E-05  0.9993616E+03  0.7818609E-02  0.9309245E-01
        3   -1    0    0  501    0  0.00000000000E+00  0.00000000000E+00  0.14318270427E+03  0.14318273990E+03  0.10100000352E+00 0.  1.
       -3   -1    0    0    0  501  0.00000000000E+00  0.00000000000E+00 -0.17437921895E+04  0.17437921924E+04  0.10100000352E+00 0. -1.
    10030    2    1    2    0    0  0.00000000000E+00  0.00000000000E+00 -0.16006094852E+04  0.18869749323E+04  0.99936163175E+03 0.  0.
        4    1    3    3  502    0  0.12469485720E+03 -0.49626375359E+02 -0.17091212811E+04  0.17143829067E+04  0.12699999809E+01 0. -1.
       -4    1    3    3    0  502 -0.12469485720E+03  0.49626375359E+02  0.10851179588E+03  0.17259202557E+03  0.12699999809E+01 0.  1.
</event>
<event>
 5   0  0.2353916E-04  0.9998209E+03  0.7818609E-02  0.9308741E-01
       -2   -1    0    0    0  501  0.00000000000E+00  0.00000000000E+00  0.30910046698E+03  0.30910046699E+03  0.25500000920E-02 0. -1.
        2   -1    0    0  501    0  0.00000000000E+00  0.00000000000E+00 -0.80850884044E+03  0.80850884044E+03  0.25500000920E-02 0.  1.
    10030    2    1    2    0    0  0.00000000000E+00  0.00000000000E+00 -0.49940837346E+03  0.11176093074E+04  0.99982090425E+03 0.  0.
        4    1    3    3  502    0  0.25578246531E+03  0.39943667463E+03 -0.42621377785E+03  0.63767869961E+03  0.12699999809E+01 0.  1.
       -4    1    3    3    0  502 -0.25578246531E+03 -0.39943667463E+03 -0.73194595605E+02  0.47993060783E+03  0.12699999809E+01 0. -1.
</event>
<event>
 5   0  0.1453863E-04  0.9996178E+03  0.7818609E-02  0.9308964E-01
       -1   -1    0    0    0  501  0.00000000000E+00  0.00000000000E+00  0.25038018415E+03  0.25038018421E+03  0.50400001928E-02 0. -1.
        1   -1    0    0  501    0  0.00000000000E+00  0.00000000000E+00 -0.99771853314E+03  0.99771853316E+03  0.50400001928E-02 0.  1.
    10030    2    1    2    0    0  0.00000000000E+00  0.00000000000E+00 -0.74733834899E+03  0.12480987174E+04  0.99961782718E+03 0.  0.
        1    1    3    3  502    0  0.81506471042E+02 -0.30455051012E+03  0.11057007406E+03  0.33409588345E+03  0.50400001928E-02 0. -1.
       -1    1    3    3    0  502 -0.81506471042E+02  0.30455051012E+03 -0.85790842305E+03  0.91400283391E+03  0.50400001928E-02 0.  1.
</event>
<event>
 5   0  0.2473312E-04  0.1000191E+04  0.7818609E-02  0.9308336E-01
        2   -1    0    0  501    0  0.00000000000E+00  0.00000000000E+00  0.11847815259E+04  0.11847815259E+04  0.25500000920E-02 0. -1.
       -2   -1    0    0    0  501  0.00000000000E+00  0.00000000000E+00 -0.21108983534E+03  0.21108983536E+03  0.25500000920E-02 0.  1.
    10030    2    1    2    0    0  0.00000000000E+00  0.00000000000E+00  0.97369169059E+03  0.13958713613E+04  0.10001906563E+04 0.  0.
        5    1    3    3  502    0 -0.43078062747E+03  0.10575517147E+02  0.13270992144E+03  0.45090775532E+03  0.46999998093E+01 0.  1.
       -5    1    3    3    0  502  0.43078062747E+03 -0.10575517147E+02  0.84098176915E+03  0.94496360596E+03  0.46999998093E+01 0. -1.
</event>
<event>
 5   0  0.9650500E-05  0.1000412E+04  0.7818609E-02  0.9308093E-01
       -3   -1    0    0    0  501  0.00000000000E+00  0.00000000000E+00  0.13304472551E+04  0.13304472590E+04  0.10100000352E+00 0. -1.
        3   -1    0    0  501    0  0.00000000000E+00  0.00000000000E+00 -0.18806170148E+03  0.18806172860E+03  0.10100000352E+00 0.  1.
    10030    2    1    2    0    0  0.00000000000E+00  0.00000000000E+00  0.11423855537E+04  0.15185089876E+04  0.10004123111E+04 0.  0.
        4    1    3    3  502    0 -0.34142336395E+03  0.36492305080E+03  0.53843185516E+03  0.73460820987E+03  0.12699999809E+01 0. -1.
       -4    1    3    3    0  502  0.34142336395E+03 -0.36492305080E+03  0.60395369849E+03  0.78390077770E+03  0.12699999809E+01 0.  1.
</event>
<event>
 5   0  0.2403037E-04  0.9999128E+03  0.7818609E-02  0.9308640E-01
        2   -1    0    0  501    0  0.00000000000E+00  0.00000000000E+00  0.43808956077E+03  0.43808956077E+03  0.25500000920E-02 0.  1.
       -2   -1    0    0    0  501  0.00000000000E+00  0.00000000000E+00 -0.57056007318E+03  0.57056007318E+03  0.25500000920E-02 0. -1.
    10030    2    1    2    0    0  0.00000000000E+00  0.00000000000E+00 -0.13247051241E+03  0.10086496340E+04  0.99991281991E+03 0.  0.
        1    1    3    3  502    0  0.36261375448E+03  0.16599093419E+03 -0.37039043945E+03  0.54427089104E+03  0.50400001928E-02 0. -1.
       -1    1    3    3    0  502 -0.36261375448E+03 -0.16599093419E+03  0.23791992704E+03  0.46437874292E+03  0.50400001928E-02 0.  1.
</event>
<event>
 5   0  0.2484904E-04  0.1000124E+04  0.7818609E-02  0.9308409E-01
        2   -1    0    0  501    0  0.00000000000E+00  0.00000000000E+00  0.72058189011E+03  0.72058189012E+03  0.25500000920E-02 0. -1.
       -2   -1    0    0    0  501  0.00000000000E+00  0.00000000000E+00 -0.34702799250E+03  0.34702799251E+03  0.25500000920E-02 0.  1.
    10030    2    1    2    0    0  0.00000000000E+00  0.00000000000E+00  0.37355389761E+03  0.10676098826E+04  0.10001241658E+04 0.  0.
        3    1    3    3  502    0 -0.13125303485E+03  0.15758514415E+03 -0.30006954144E+03  0.36345863137E+03  0.10100000352E+00 0.  1.
       -3    1    3    3    0  502  0.13125303485E+03 -0.15758514415E+03  0.67362343905E+03  0.70415125126E+03  0.10100000352E+00 0. -1.
</event>
<event>
 5   0  0.1414165E-04  0.1002236E+04  0.7818609E-02  0.9306096E-01
        1   -1    0    0  501    0  0.00000000000E+00  0.00000000000E+00  0.53961368323E+03  0.53961368325E+03  0.50400001928E-02 0.  1.
       -1   -1    0    0    0  501  0.00000000000E+00  0.00000000000E+00 -0.46536880565E+03  0.46536880568E+03  0.50400001928E-02 0. -1.
    10030    2    1    2    0    0  0.00000000000E+00  0.00000000000E+00  0.74244877580E+02  0.10049824889E+04  0.10022362502E+04 0.  0.
        4    1    3    3  502    0  0.46582126314E+03 -0.18250909800E+03  0.65814517683E+02  0.50461092308E+03  0.12699999809E+01 0.  1.
       -4    1    3    3    0  502 -0.46582126314E+03  0.18250909800E+03  0.84303598963E+01  0.50037156586E+03  0.12699999809E+01 0. -1.
</event>
<event>
 5   0  0.9650500E-05  0.1000055E+04  0.7818609E-02  0.9308484E-01
       -4   -1    0    0    0  501  0.00000000000E+00  0.00000000000E+00  0.16515224048E+03  0.16515712348E+03  0.12699999809E+01 0.  1.
        4   -1    0    0  501    0  0.00000000000E+00  0.00000000000E+00 -0.15138947507E+04  0.15138952834E+04  0.12699999809E+01 0. -1.
    10030    2    1    2    0    0  0.00000000000E+00  0.00000000000E+00 -0.13487425102E+04  0.16790524069E+04  0.10000553116E+04 0.  0.
        1    1    3    3  502    0 -0.68767213307E+02  0.47920504295E+03 -0.46425797954E+03  0.67074725076E+03  0.50400001928E-02 0. -1.
       -1    1    3    3    0  502  0.68767213307E+02 -0.47920504295E+03 -0.88448453071E+03  0.10083051561E+04  0.50400001928E-02 0.  1.
</event>
<event>
 5   0  0.2403037E-04  0.9995120E+03  0.7818609E-02  0.9309080E-01
       -2   -1    0    0    0  501  0.00000000000E+00  0.00000000000E+00  0.54828762551E+03  0.54828762551E+03  0.25500000920E-02 0. -1.
        2   -1    0    0  501    0  0.00000000000E+00  0.00000000000E+00 -0.45552011688E+03  0.45552011689E+03  0.25500000920E-02 0.  1.
    10030    2    1    2    0    0  0.00000000000E+00  0.00000000000E+00  0.92767508626E+02  0.10038077424E+04  0.99951196744E+03 0.  0.
        1    1    3    3  502    0  0.49977213141E+02 -0.16511558773E+03 -0.42466852527E+03  0.45837128566E+03  0.50400001928E-02 0.  1.
       -1    1    3    3    0  502 -0.49977213141E+02  0.16511558773E+03  0.51743603389E+03  0.54543645674E+03  0.50400001928E-02 0. -1.
</event>
<event>
 5   0  0.2484904E-04  0.9969062E+03  0.7818609E-02  0.9311945E-01
       -2   -1    0    0    0  501  0.00000000000E+00  0.00000000000E+00  0.47880376483E+03  0.47880376484E+03  0.25500000920E-02 0.  1.
        2   -1    0    0  501    0  0.00000000000E+00  0.00000000000E+00 -0.51890877734E+03  0.51890877734E+03  0.25500000920E-02 0. -1.
    10030    2    1    2    0    0  0.00000000000E+00  0.00000000000E+00 -0.40105012502E+02  0.99771254218E+03  0.99690616650E+03 0.  0.
        3    1    3    3  502    0  0.12774071707E+03  0.24983653095E+03 -0.43235598530E+03  0.51542961811E+03  0.10100000352E+00 0. -1.
       -3    1    3    3    0  502 -0.12774071707E+03 -0.24983653095E+03  0.39225097280E+03  0.48228292408E+03  0.10100000352E+00 0.  1.
</event>
<event>
 5   0  0.1430675E-04  0.9998484E+03  0.7818609E-02  0.9308711E-01
        1   -1    0    0  501    0  0.00000000000E+00  0.00000000000E+00  0.42601774495E+03  0.42601774498E+03  0.50400001928E-02 0. -1.
       -1   -1    0    0    0  501  0.00000000000E+00  0.00000000000E+00 -0.58665204515E+03  0.58665204517E+03  0.50400001928E-02 0.  1.
    10030    2    1    2    0    0  0.00000000000E+00  0.00000000000E+00 -0.16063430019E+03  0.10126697901E+04  0.99984835124E+03 0.  0.
        5    1    3    3  502    0  0.16572665393E+03  0.38385436981E+03  0.19722711785E+03  0.46230955761E+03  0.46999998093E+01 0. -1.
       -5    1    3    3    0  502 -0.16572665393E+03 -0.38385436981E+03 -0.35786141804E+03  0.55036023254E+03  0.46999998093E+01 0.  1.
</event>
<event>
 5   0  0.2484904E-04  0.1001464E+04  0.7818609E-02  0.9306940E-01
        2   -1    0    0  501    0  0.00000000000E+00  0.00000000000E+00  0.81627777399E+03  0.81627777399E+03  0.25500000920E-02 0. -1.
       -2   -1    0    0    0  501  0.00000000000E+00  0.00000000000E+00 -0.30716596175E+03  0.30716596176E+03  0.25500000920E-02 0.  1.
    10030    2    1    2    0    0  0.00000000000E+00  0.00000000000E+00  0.50911181224E+03  0.11234437357E+04  0.10014644227E+04 0.  0.
        3    1    3    3  502    0 -0.38238786034E+03 -0.15493784863E+03 -0.63740211229E+02  0.41747938561E+03  0.10100000352E+00 0.  1.
       -3    1    3    3    0  502  0.38238786034E+03  0.15493784863E+03  0.57285202347E+03  0.70596435014E+03  0.10100000352E+00 0. -1.
</event>
<event>
 5   0  0.1461334E-04  0.9999138E+03  0.7818609E-02  0.9308639E-01
        1   -1    0    0  501    0  0.00000000000E+00  0.00000000000E+00  0.24299167578E+03  0.24299167583E+03  0.50400001928E-02 0.  1.
       -1   -1    0    0    0  501  0.00000000000E+00  0.00000000000E+00 -0.10286644351E+04  0.10286644351E+04  0.50400001928E-02 0. -1.
    10030    2    1    2    0    0  0.00000000000E+00  0.00000000000E+00 -0.78567275933E+03  0.12716561109E+04  0.99991378616E+03 0.  0.
        2    1    3    3  502    0  0.10705361405E+03  0.28440163714E+03 -0.89773239357E+03  0.94777012928E+03  0.25500000920E-02 0. -1.
       -2    1    3    3    0  502 -0.10705361405E+03 -0.28440163714E+03  0.11205963424E+03  0.32388598167E+03  0.25500000920E-02 0.  1.
</event>
<event>
 5   0  0.1414165E-04  0.1001102E+04  0.7818609E-02  0.9307337E-01
       -1   -1    0    0    0  501  0.00000000000E+00  0.00000000000E+00  0.28518905219E+03  0.28518905223E+03  0.50400001928E-02 0.  1.
        1   -1    0    0  501    0  0.00000000000E+00  0.00000000000E+00 -0.87854435379E+03  0.87854435380E+03  0.50400001928E-02 0. -1.
    10030    2    1    2    0    0  0.00000000000E+00  0.00000000000E+00 -0.59335530160E+03  0.11637334060E+04  0.10011018561E+04 0.  0.
        4    1    3    3  502    0  0.19455864807E+03 -0.15012295710E+03 -0.80359180532E+03  0.84032813369E+03  0.12699999809E+01 0. -1.
       -4    1    3    3    0  502 -0.19455864807E+03  0.15012295710E+03  0.21023650372E+03  0.32340527235E+03  0.12699999809E+01 0.  1.
</event>
<event>
 5   0  0.2484904E-04  0.1000001E+04  0.7818609E-02  0.9308544E-01
       -2   -1    0    0    0  501  0.00000000000E+00  0.00000000000E+00  0.24747045940E+03  0.24747045941E+03  0.25500000920E-02 0. -1.
        2   -1    0    0  501    0  0.00000000000E+00  0.00000000000E+00 -0.10102228785E+04  0.10102228785E+04  0.25500000920E-02 0.  1.
    10030    2    1    2    0    0  0.00000000000E+00  0.00000000000E+00 -0.76275241912E+03  0.12576933379E+04  0.10000006397E+04 0.  0.
        3    1    3    3  502    0 -0.38260696657E+03 -0.30447043654E+03 -0.51274321552E+03  0.70851672729E+03  0.10100000352E+00 0.  1.
       -3    1    3    3    0  502  0.38260696657E+03  0.30447043654E+03 -0.25000920360E+03  0.54917661064E+03  0.10100000352E+00 0. -1.
</event>
<event>
 5   0  0.1506454E-04  0.9978249E+03  0.7818609E-02  0.9310934E-01
       -1   -1    0    0    0  501  0.00000000000E+00  0.00000000000E+00  0.36494864757E+03  0.36494864760E+03  0.50400001928E-02 0.  1.
        1   -1    0    0  501    0  0.00000000000E+00  0.00000000000E+00 -0.68205110366E+03  0.68205110367E+03  0.50400001928E-02 0. -1.
    10030    2    1    2    0    0  0.00000000000E+00  0.00000000000E+00 -0.31710245609E+03  0.10469997513E+04  0.99782489021E+03 0.  0.
        3    1    3    3  502    0  0.39797838079E+03 -0.80607422814E+01  0.15704004070E+03  0.42791745901E+03  0.10100000352E+00 0.  1.
       -3    1    3    3    0  502 -0.39797838079E+03  0.80607422814E+01 -0.47414249679E+03  0.61908229227E+03  0.10100000352E+00 0. -1.
</event>
<event>
 5   0  0.1453863E-04  0.9982279E+03  0.7818609E-02  0.9310491E-01
        1   -1    0    0  501    0  0.00000000000E+00  0.00000000000E+00  0.17452662675E+04  0.17452662675E+04  0.50400001928E-02 0. -1.
       -1   -1    0    0    0  501  0.00000000000E+00  0.00000000000E+00 -0.14273738997E+03  0.14273739006E+03  0.50400001928E-02 0.  1.
    10030    2    1    2    0    0  0.00000000000E+00  0.00000000000E+00  0.16025288775E+04  0.18880036575E+04  0.99822793372E+03 0.  0.
        1    1    3    3  502    0 -0.19466780247E+03  0.22421188728E+03  0.42483849195E+02  0.29995233152E+03  0.50400001928E-02 0.  1.
       -1    1    3    3    0  502  0.19466780247E+03 -0.22421188728E+03  0.15600450283E+04  0.15880513260E+04  0.50400001928E-02 0. -1.
</event>
<event>
 5   0  0.1414165E-04  0.9999249E+03  0.7818609E-02  0.9308627E-01
       -1   -1    0    0    0  501  0.00000000000E+00  0.00000000000E+00  0.30854333002E+03  0.30854333006E+03  0.50400001928E-02 0. -1.
        1   -1    0    0  501    0  0.00000000000E+00  0.00000000000E+00 -0.81013728426E+03  0.81013728427E+03  0.50400001928E-02 0.  1.
    10030    2    1    2    0    0  0.00000000000E+00  0.00000000000E+00 -0.50159395424E+03  0.11186806143E+04  0.99992490815E+03 0.  0.
        4    1    3    3  502    0 -0.39121357280E+03  0.18966008990E+03 -0.52697968476E+03  0.68317509490E+03  0.12699999809E+01 0.  1.
       -4    1    3    3    0  502  0.39121357280E+03 -0.18966008990E+03  0.25385730521E+02  0.43550551943E+03  0.12699999809E+01 0. -1.
</event>
<event>
 5   0  0.2503680E-04  0.9994507E+03  0.7818609E-02  0.9309147E-01
        2   -1    0    0  501    0  0.00000000000E+00  0.00000000000E+00  0.37390848984E+03  0.37390848985E+03  0.25500000920E-02 0.  1.
       -2   -1    0    0    0  501  0.00000000000E+00  0.00000000000E+00 -0.66787843240E+03  0.66787843240E+03  0.25500000920E-02 0. -1.
    10030    2    1    2    0    0  0.00000000000E+00  0.00000000000E+00 -0.29396994256E+03  0.10417869223E+04  0.99945068125E+03 0.  0.
        2    1    3    3  502    0 -0.40109311434E+03 -0.17209753668E+03 -0.40067088076E+03  0.59247818795E+03  0.25500000920E-02 0.  1.
       -2    1    3    3    0  502  0.40109311434E+03  0.17209753668E+03  0.10670093820E+03  0.44930873430E+03  0.25500000920E-02 0. -1.
</event>
<event>
 5   0  0.2503680E-04  0.1000131E+04  0.7818609E-02  0.9308401E-01
       -2   -1    0    0    0  501  0.00000000000E+00  0.00000000000E+00  0.19263597076E+03  0.19263597078E+03  0.25500000920E-02 0.  1.
        2   -1    0    0  501    0  0.00000000000E+00  0.00000000000E+00 -0.12981258447E+04  0.12981258447E+04  0.25500000920E-02 0. -1.
    10030    2    1    2    0    0  0.00000000000E+00  0.00000000000E+00 -0.11054898739E+04  0.14907618155E+04  0.10001314559E+04 0.  0.
        2    1    3    3  502    0 -0.17624364469E+03  0.38504781229E+02  0.14244273214E+03  0.22985728706E+03  0.25500000920E-02 0.  1.
       -2    1    3    3    0  502  0.17624364469E+03 -0.38504781229E+02 -0.12479326061E+04  0.12609045284E+04  0.25500000920E-02 0. -1.
</event>
<event>
 5   0  0.2503680E-04  0.1000865E+04  0.7818609E-02  0.9307597E-01
       -2   -1    0    0    0  501  0.00000000000E+00  0.00000000000E+00  0.35994172148E+03  0.35994172149E+03  0.25500000920E-02 0.  1.
        2   -1    0    0  501    0  0.00000000000E+00  0.00000000000E+00 -0.69575856008E+03  0.69575856008E+03  0.25500000920E-02 0. -1.
    10030    2    1    2    0    0  0.00000000000E+00  0.00000000000E+00 -0.33581683860E+03  0.10557002816E+04  0.10008646939E+04 0.  0.
        2    1    3    3  502    0 -0.56619041004E+02  0.11270032901E+03  0.34290260363E+03  0.36536184194E+03  0.25500000920E-02 0.  1.
       -2    1    3    3    0  502  0.56619041004E+02 -0.11270032901E+03 -0.67871944223E+03  0.69033843963E+03  0.25500000920E-02 0. -1.
</event>
<event>
 5   0  0.9650500E-05  0.9999971E+03  0.7818609E-02  0.9308548E-01
        4   -1    0    0  501    0  0.00000000000E+00  0.00000000000E+00  0.25107961269E+03  0.25108282460E+03  0.12699999809E+01 0.  1.
       -4   -1    0    0    0  501  0.00000000000E+00  0.00000000000E+00 -0.99568429049E+03  0.99568510044E+03  0.12699999809E+01 0. -1.
    10030    2    1    2    0    0  0.00000000000E+00  0.00000000000E+00 -0.74460467780E+03  0.12467679250E+04  0.99999706634E+03 0.  0.
        5    1    3    3  502    0  0.23291672392E+03  0.44099900969E+03 -0.41631384098E+03  0.64966886259E+03  0.46999998093E+01 0.  1.
       -5    1    3    3    0  502 -0.23291672392E+03 -0.44099900969E+03 -0.32829083682E+03  0.59709906244E+03  0.46999998093E+01 0. -1.
</event>
<event>
 5   0  0.1414165E-04  0.9996868E+03  0.7818609E-02  0.9308888E-01
       -1   -1    0    0    0  501  0.00000000000E+00  0.00000000000E+00  0.20281039442E+03  0.20281039448E+03  0.50400001928E-02 0. -1.
        1   -1    0    0  501    0  0.00000000000E+00  0.00000000000E+00 -0.12319064691E+04  0.12319064692E+04  0.50400001928E-02 0.  1.
    10030    2    1    2    0    0  0.00000000000E+00  0.00000000000E+00 -0.10290960747E+04  0.14347168636E+04  0.99968682485E+03 0.  0.
        4    1    3    3  502    0  0.26354942163E+03 -0.10562129232E+03 -0.11049365800E+04  0.11408332980E+04  0.12699999809E+01 0.  1.
       -4    1    3    3    0  502 -0.26354942163E+03  0.10562129232E+03  0.75840505266E+02  0.29388356567E+03  0.12699999809E+01 0. -1.
</event>
<event>
 5   0  0.1506454E-04  0.1000282E+04  0.7818609E-02  0.9308235E-01
       -1   -1    0    0    0  501  0.00000000000E+00  0.00000000000E+00  0.12234172362E+03  0.12234172373E+03  0.50400001928E-02 0. -1.
        1   -1    0    0  501    0  0.00000000000E+00  0.00000000000E+00 -0.20446103995E+04  0.20446103996E+04  0.50400001928E-02 0.  1.
    10030    2    1    2    0    0  0.00000000000E+00  0.00000000000E+00 -0.19222686759E+04  0.21669521233E+04  0.10002822812E+04 0.  0.
        3    1    3    3  502    0 -0.56967227890E+01  0.38292328320E+03 -0.16580042470E+04  0.17016582462E+04  0.10100000352E+00 0.  1.
       -3    1    3    3    0  502  0.56967227890E+01 -0.38292328320E+03 -0.26426442887E+03  0.46529387707E+03  0.10100000352E+00 0. -1.
</event>
<event>
 5   0  0.2473312E-04  0.9999043E+03  0.7818609E-02  0.9308650E-01
        2   -1    0    0  501    0  0.00000000000E+00  0.00000000000E+00  0.34205119269E+03  0.34205119270E+03  0.25500000920E-02 0. -1.
       -2   -1    0    0    0  501  0.00000000000E+00  0.00000000000E+00 -0.73074482943E+03  0.73074482944E+03  0.25500000920E-02 0.  1.
    10030    2    1    2    0    0  0.00000000000E+00  0.00000000000E+00 -0.38869363674E+03  0.10727960221E+04  0.99990427636E+03 0.  0.
        5    1    3    3  502    0 -0.11208681703E+03 -0.28672767224E+03 -0.61695703324E+03  0.68951742795E+03  0.46999998093E+01 0.  1.
       -5    1    3    3    0  502  0.11208681703E+03  0.28672767224E+03  0.22826339651E+03  0.38327859419E+03  0.46999998093E+01 0. -1.
</event>
<event>
 5   0  0.1461334E-04  0.1000303E+04  0.7818609E-02  0.9308212E-01
       -1   -1    0    0    0  501  0.00000000000E+00  0.00000000000E+00  0.24758290226E+03  0.24758290231E+03  0.50400001928E-02 0. -1.
        1   -1    0    0  501    0  0.00000000000E+00  0.00000000000E+00 -0.10103752530E+04  0.10103752530E+04  0.50400001928E-02 0.  1.
    10030    2    1    2    0    0  0.00000000000E+00  0.00000000000E+00 -0.76279235073E+03  0.12579581553E+04  0.10003032291E+04 0.  0.
        2    1    3    3  502    0 -0.43246306640E+03  0.13367649237E+03 -0.11386040102E+03  0.46675250330E+03  0.25500000920E-02 0.  1.
       -2    1    3    3    0  502  0.43246306640E+03 -0.13367649237E+03 -0.64893194971E+03  0.79120565201E+03  0.25500000920E-02 0. -1.
</event>
<event>
 5   0  0.2473312E-04  0.9999653E+03  0.7818609E-02  0.9308583E-01
       -2   -1    0    0    0  501  0.00000000000E+00  0.00000000000E+00  0.51970058986E+03  0.51970058987E+03  0.25500000920E-02 0. -1.
        2   -1    0    0  501    0  0.00000000000E+00  0.00000000000E+00 -0.48101285537E+03  0.48101285538E+03  0.25500000920E-02 0.  1.
    10030    2    1    2    0    0  0.00000000000E+00  0.00000000000E+00  0.38687734489E+02  0.10007134452E+04  0.99996532874E+03 0.  0.
        5    1    3    3  502    0  0.47454179186E+03  0.32933878982E+02 -0.13467391211E+03  0.49440237177E+03  0.46999998093E+01 0.  1.
       -5    1    3    3    0  502 -0.47454179186E+03 -0.32933878982E+02  0.17336164660E+03  0.50631107347E+03  0.46999998093E+01 0. -1.
</event>
<event>
 5   0  0.1414165E-04  0.9990035E+03  0.7818609E-02  0.9309638E-01
        1   -1    0    0  501    0  0.00000000000E+00  0.00000000000E+00  0.68503109628E+03  0.68503109630E+03  0.50400001928E-02 0. -1.
       -1   -1    0    0    0  501  0.00000000000E+00  0.00000000000E+00 -0.36421993078E+03  0.36421993081E+03  0.50400001928E-02 0.  1.
    10030    2    1    2    0    0  0.00000000000E+00  0.00000000000E+00  0.32081116550E+03  0.10492510271E+04  0.99900346044E+03 0.  0.
        4    1    3    3  502    0 -0.36887186371E+03  0.11604435286E+03 -0.17167393597E+03  0.42309135758E+03  0.12699999809E+01 0.  1.
       -4    1    3    3    0  502  0.36887186371E+03 -0.11604435286E+03  0.49248510147E+03  0.62615966953E+03  0.12699999809E+01 0. -1.
</event>
<event>
 5   0  0.1430675E-04  0.1000735E+04  0.7818609E-02  0.9307739E-01
        1   -1    0    0  501    0  0.00000000000E+00  0.00000000000E+00  0.60084874058E+03  0.60084874060E+03  0.50400001928E-02 0.  1.
       -1   -1    0    0    0  501  0.00000000000E+00  0.00000000000E+00 -0.41668993267E+03  0.41668993270E+03  0.50400001928E-02 0. -1.
    10030    2    1    2    0    0  0.00000000000E+00  0.00000000000E+00  0.18415880791E+03  0.10175386733E+04  0.10007349725E+04 0.  0.
        5    1    3    3  502    0 -0.97809748944E+02  0.97529912011E+02 -0.39689755955E+03  0.42027204701E+03  0.46999998093E+01 0. -1.
       -5    1    3    3    0  502  0.97809748944E+02 -0.97529912011E+02  0.58105636746E+03  0.59726662630E+03  0.46999998093E+01 0.  1.
</event>
<event>
 5   0  0.1506454E-04  0.1001258E+04  0.7818609E-02  0.9307166E-01
        1   -1    0    0  501    0  0.00000000000E+00  0.00000000000E+00  0.42796345207E+03  0.42796345210E+03  0.50400001928E-02 0. -1.
       -1   -1    0    0    0  501  0.00000000000E+00  0.00000000000E+00 -0.58563276079E+03  0.58563276081E+03  0.50400001928E-02 0.  1.
    10030    2    1    2    0    0  0.00000000000E+00  0.00000000000E+00 -0.15766930873E+03  0.10135962129E+04  0.10012580446E+04 0.  0.
        3    1    3    3  502    0  0.36491011773E+03  0.31466961420E+03  0.58681276334E+02  0.48540690407E+03  0.10100000352E+00 0.  1.
       -3    1    3    3    0  502 -0.36491011773E+03 -0.31466961420E+03 -0.21635058506E+03  0.52818930885E+03  0.10100000352E+00 0. -1.
</event>
<event>
 5   0  0.1453863E-04  0.9996517E+03  0.7818609E-02  0.9308927E-01
        1   -1    0    0  501    0  0.00000000000E+00  0.00000000000E+00  0.66634624387E+03  0.66634624389E+03  0.50400001928E-02 0.  1.
       -1   -1    0    0    0  501  0.00000000000E+00  0.00000000000E+00 -0.37491903047E+03  0.37491903050E+03  0.50400001928E-02 0. -1.
    10030    2    1    2    0    0  0.00000000000E+00  0.00000000000E+00  0.29142721340E+03  0.10412652744E+04  0.99965171482E+03 0.  0.
        1    1    3    3  502    0 -0.69004973390E+02  0.26433335763E+03 -0.29026974027E+03  0.39861050218E+03  0.50400001928E-02 0. -1.
       -1    1    3    3    0  502  0.69004973390E+02 -0.26433335763E+03  0.58169695367E+03  0.64265477221E+03  0.50400001928E-02 0.  1.
</event>
<event>
 5   0  0.2353916E-04  0.1001273E+04  0.7818609E-02  0.9307150E-01
       -2   -1    0    0    0  501  0.00000000000E+00  0.00000000000E+00  0.13617523222E+04  0.13617523222E+04  0.25500000920E-02 0. -1.
        2   -1    0    0  501    0  0.00000000000E+00  0.00000000000E+00 -0.18405457095E+03  0.18405457097E+03  0.25500000920E-02 0.  1.
    10030    2    1    2    0    0  0.00000000000E+00  0.00000000000E+00  0.11776977513E+04  0.15458068932E+04  0.10012726690E+04 0.  0.
        4    1    3    3  502    0 -0.42772415022E+03 -0.20581745603E+03  0.83453984999E+03  0.96008705231E+03  0.12699999809E+01 0.  1.
       -4    1    3    3    0  502  0.42772415022E+03  0.20581745603E+03  0.34315790127E+03  0.58571984087E+03  0.12699999809E+01 0. -1.
</event>
<event>
 5   0  0.2503680E-04  0.9996159E+03  0.7818609E-02  0.9308966E-01
       -2   -1    0    0    0  501  0.00000000000E+00  0.00000000000E+00  0.13230091837E+03  0.13230091839E+03  0.25500000920E-02 0. -1.
        2   -1    0    0  501    0  0.00000000000E+00  0.00000000000E+00 -0.18881802400E+04  0.18881802400E+04  0.25500000920E-02 0.  1.
    10030    2    1    2    0    0  0.00000000000E+00  0.00000000000E+00 -0.17558793217E+04  0.20204811584E+04  0.99961588589E+03 0.  0.
        2    1    3    3  502    0  0.40427068010E+03  0.25327082993E+03 -0.11792839035E+04  0.12721208359E+04  0.25500000920E-02 0. -1.
       -2    1    3    3    0  502 -0.40427068010E+03 -0.25327082993E+03 -0.57659541817E+03  0.74836032253E+03  0.25500000920E-02 0.  1.
</event>
<event>
 5   0  0.1506454E-04  0.9999146E+03  0.7818609E-02  0.9308638E-01
        1   -1    0    0  501    0  0.00000000000E+00  0.00000000000E+00  0.41829526669E+03  0.41829526672E+03  0.50400001928E-02 0.  1.
       -1   -1    0    0    0  501  0.00000000000E+00  0.00000000000E+00 -0.59756188293E+03  0.59756188295E+03  0.50400001928E-02 0. -1.
    10030    2    1    2    0    0  0.00000000000E+00  0.00000000000E+00 -0.17926661624E+03  0.10158571497E+04  0.99991461078E+03 0.  0.
        3    1    3    3  502    0  0.47364044123E+03  0.15851463451E+03 -0.11223983124E+03  0.51191791025E+03  0.10100000352E+00 0. -1.
       -3    1    3    3    0  502 -0.47364044123E+03 -0.15851463451E+03 -0.67026785000E+02  0.50393923942E+03  0.10100000352E+00 0.  1.
</event>
<event>
 5   0  0.2484904E-04  0.9994904E+03  0.7818609E-02  0.9309104E-01
       -2   -1    0    0    0  501  0.00000000000E+00  0.00000000000E+00  0.76015316550E+03  0.76015316551E+03  0.25500000920E-02 0. -1.
        2   -1    0    0  501    0  0.00000000000E+00  0.00000000000E+00 -0.32854597069E+03  0.32854597070E+03  0.25500000920E-02 0.  1.
    10030    2    1    2    0    0  0.00000000000E+00  0.00000000000E+00  0.43160719481E+03  0.10886991362E+04  0.99949038943E+03 0.  0.
        3    1    3    3  502    0  0.43362806058E+02 -0.43026625281E+03  0.48863051227E+03  0.65250989953E+03  0.10100000352E+00 0. -1.
       -3    1    3    3    0  502 -0.43362806058E+02  0.43026625281E+03 -0.57023317462E+02  0.43618923668E+03  0.10100000352E+00 0.  1.
</event>
<event>
 5   0  0.1453863E-04  0.9995968E+03  0.7818609E-02  0.9308987E-01
       -1   -1    0    0    0  501  0.00000000000E+00  0.00000000000E+00  0.72489726654E+03  0.72489726656E+03  0.50400001928E-02 0. -1.
        1   -1    0    0  501    0  0.00000000000E+00  0.00000000000E+00 -0.34459843170E+03  0.34459843174E+03  0.50400001928E-02 0.  1.
    10030    2    1    2    0    0  0.00000000000E+00  0.00000000000E+00  0.38029883483E+03  0.10694956983E+04  0.99959684118E+03 0.  0.
        1    1    3    3  502    0  0.34912196069E+03  0.35560381454E+03  0.14929214295E+03  0.52021953090E+03  0.50400001928E-02 0. -1.
       -1    1    3    3    0  502 -0.34912196069E+03 -0.35560381454E+03  0.23100669189E+03  0.54927616740E+03  0.50400001928E-02 0.  1.
</event>
<event>
 5   0  0.1414165E-04  0.1000486E+04  0.7818609E-02  0.9308012E-01
       -1   -1    0    0    0  501  0.00000000000E+00  0.00000000000E+00  0.17437056038E+03  0.17437056045E+03  0.50400001928E-02 0.  1.
        1   -1    0    0  501    0  0.00000000000E+00  0.00000000000E+00 -0.14351224090E+04  0.14351224090E+04  0.50400001928E-02 0. -1.
    10030    2    1    2    0    0  0.00000000000E+00  0.00000000000E+00 -0.12607518486E+04  0.16094929694E+04  0.10004860793E+04 0.  0.
        4    1    3    3  502    0  0.28861743525E+03 -0.34487851644E+03 -0.98282784155E+03  0.10808299561E+04  0.12699999809E+01 0. -1.
       -4    1    3    3    0  502 -0.28861743525E+03  0.34487851644E+03 -0.27792400702E+03  0.52866301328E+03  0.12699999809E+01 0.  1.
</event>
<event>
 5   0  0.1430675E-04  0.9954748E+03  0.7818609E-02  0.9313522E-01
       -1   -1    0    0    0  501  0.00000000000E+00  0.00000000000E+00  0.97549744543E+03  0.97549744545E+03  0.50400001928E-02 0.  1.
        1   -1    0    0  501    0  0.00000000000E+00  0.00000000000E+00 -0.25396530642E+03  0.25396530647E+03  0.50400001928E-02 0. -1.
    10030    2    1    2    0    0  0.00000000000E+00  0.00000000000E+00  0.72153213901E+03  0.12294627519E+04  0.99547477654E+03 0.  0.
        5    1    3    3  502    0 -0.59437978834E+01 -0.34840114483E+03 -0.78158374075E+02  0.35714073961E+03  0.46999998093E+01 0. -1.
       -5    1    3    3    0  502  0.59437978834E+01  0.34840114483E+03  0.79969051308E+03  0.87232201231E+03  0.46999998093E+01 0.  1.
</event>
<event>
 5   0  0.2484904E-04  0.1000044E+04  0.7818609E-02  0.9308496E-01
        2   -1    0    0  501    0  0.00000000000E+00  0.00000000000E+00  0.94240483250E+03  0.94240483250E+03  0.25500000920E-02 0.  1.
       -2   -1    0    0    0  501  0.00000000000E+00  0.00000000000E+00 -0.26530229399E+03  0.26530229400E+03  0.25500000920E-02 0. -1.
    10030    2    1    2    0    0  0.00000000000E+00  0.00000000000E+00  0.67710253851E+03  0.12077071265E+04  0.10000443269E+04 0.  0.
        3    1    3    3  502    0 -0.31289626330E+03  0.35720561197E+03  0.14943783335E+03  0.49782687457E+03  0.10100000352E+00 0. -1.
       -3    1    3    3    0  502  0.31289626330E+03 -0.35720561197E+03  0.52766470516E+03  0.70988025193E+03  0.10100000352E+00 0.  1.
</event>
<event>
 5   0  0.1414165E-04  0.9994442E+03  0.7818609E-02  0.9309155E-01
       -1   -1    0    0    0  501  0.00000000000E+00  0.00000000000E+00  0.25338619112E+03  0.25338619117E+03  0.50400001928E-02 0.  1.
        1   -1    0    0  501    0  0.00000000000E+00  0.00000000000E+00 -0.98553973416E+03  0.98553973417E+03  0.50400001928E-02 0. -1.
    10030    2    1    2    0    0  0.00000000000E+00  0.00000000000E+00 -0.73215354304E+03  0.12389259253E+04  0.99944416448E+03 0.  0.
        4    1    3    3  502    0  0.21828142248E+03  0.32868603703E+03  0.14061326269E+02  0.39481720344E+03  0.12699999809E+01 0.  1.
       -4    1    3    3    0  502 -0.21828142248E+03 -0.32868603703E+03 -0.74621486931E+03  0.84410872191E+03  0.12699999809E+01 0. -1.
</event>
<event>
 5   0  0.2403037E-04  0.9998339E+03  0.7818609E-02  0.9308727E-01
       -2   -1    0    0    0  501  0.00000000000E+00  0.00000000000E+00  0.18602026724E+03  0.18602026726E+03  0.25500000920E-02 0. -1.
        2   -1    0    0  501    0  0.00000000000E+00  0.00000000000E+00 -0.13434932487E+04  0.13434932487E+04  0.25500000920E-02 0.  1.
    10030    2    1    2    0    0  0.00000000000E+00  0.00000000000E+00 -0.11574729815E+04  0.15295135160E+04  0.99983393257E+03 0.  0.
        1    1    3    3  502    0 -0.45339566624E+03  0.19357750031E+03 -0.45187554663E+03  0.66875360818E+03  0.50400001928E-02 0.  1.
       -1    1    3    3    0  502  0.45339566624E+03 -0.19357750031E+03 -0.70559743486E+03  0.86075990781E+03  0.50400001928E-02 0. -1.
</event>
<event>
 5   0  0.1414165E-04  0.9997496E+03  0.7818609E-02  0.9308820E-01
       -1   -1    0    0    0  501  0.00000000000E+00  0.00000000000E+00  0.24115814392E+03  0.24115814397E+03  0.50400001928E-02 0. -1.
        1   -1    0    0  501    0  0.00000000000E+00  0.00000000000E+00 -0.10361449581E+04  0.10361449581E+04  0.50400001928E-02 0.  1.
    10030    2    1    2    0    0  0.00000000000E+00  0.00000000000E+00 -0.79498681417E+03  0.12773031021E+04  0.99974955857E+03 0.  0.
        4    1    3    3  502    0  0.10833854358E+03 -0.22145508692E+03  0.15807961070E+03  0.29286579139E+03  0.12699999809E+01 0. -1.
       -4    1    3    3    0  502 -0.10833854358E+03  0.22145508692E+03 -0.95306642487E+03  0.98443731069E+03  0.12699999809E+01 0.  1.
</event>
<event>
 5   0  0.1430675E-04  0.9997447E+03  0.7818609E-02  0.9308825E-01
        1   -1    0    0  501    0  0.00000000000E+00  0.00000000000E+00  0.55303158570E+03  0.55303158573E+03  0.50400001928E-02 0.  1.
       -1   -1    0    0    0  501  0.00000000000E+00  0.00000000000E+00 -0.45182293855E+03  0.45182293857E+03  0.50400001928E-02 0. -1.
    10030    2    1    2    0    0  0.00000000000E+00  0.00000000000E+00  0.10120864716E+03  0.10048545243E+04  0.99974467978E+03 0.  0.
        5    1    3    3  502    0 -0.14480230837E+03 -0.40019310312E+03 -0.21289594566E+03  0.47588759384E+03  0.46999998093E+01 0. -1.
       -5    1    3    3    0  502  0.14480230837E+03  0.40019310312E+03  0.31410459282E+03  0.52896693046E+03  0.46999998093E+01 0.  1.
</event>
<event>
 5   0  0.9650500E-05  0.1000018E+04  0.7818609E-02  0.9308525E-01
        3   -1    0    0  501    0  0.00000000000E+00  0.00000000000E+00  0.77067162337E+03  0.77067162999E+03  0.10100000352E+00 0. -1.
       -3   -1    0    0    0  501  0.00000000000E+00  0.00000000000E+00 -0.32440436159E+03  0.32440437731E+03  0.10100000352E+00 0.  1.
    10030    2    1    2    0    0  0.00000000000E+00  0.00000000000E+00  0.44626726178E+03  0.10950760073E+04  0.10000184962E+04 0.  0.
        3    1    3    3  502    0 -0.55226387963E+02  0.31468428216E+03 -0.19804748469E+03  0.37589754955E+03  0.10100000352E+00 0.  1.
       -3    1    3    3    0  502  0.55226387963E+02 -0.31468428216E+03  0.64431474648E+03  0.71917845775E+03  0.10100000352E+00 0. -1.
</event>
<event>
 5   0  0.1461334E-04  0.1000360E+04  0.7818609E-02  0.9308150E-01
       -1   -1    0    0    0  501  0.00000000000E+00  0.00000000000E+00  0.26850344520E+03  0.26850344525E+03  0.50400001928E-02 0. -1.
        1   -1    0    0  501    0  0.00000000000E+00  0.00000000000E+00 -0.93175650490E+03  0.93175650492E+03  0.50400001928E-02 0.  1.
    10030    2    1    2    0    0  0.00000000000E+00  0.00000000000E+00 -0.66325305970E+03  0.12002599502E+04  0.10003595987E+04 0.  0.
        2    1    3    3  502    0 -0.34927884369E+03 -0.35508542831E+03 -0.38658940985E+03  0.63050197768E+03  0.25500000920E-02 0. -1.
       -2    1    3    3    0  502  0.34927884369E+03  0.35508542831E+03 -0.27666364986E+03  0.56975797248E+03  0.25500000920E-02 0.  1.
</event>
<event>
 5   0  0.1461334E-04  0.9998271E+03  0.7818609E-02  0.9308734E-01
       -1   -1    0    0    0  501  0.00000000000E+00  0.00000000000E+00  0.50531586691E+03  0.50531586694E+03  0.50400001928E-02 0.  1.
        1   -1    0    0  501    0  0.00000000000E+00  0.00000000000E+00 -0.49456895100E+03  0.49456895103E+03  0.50400001928E-02 0. -1.
    10030    2    1    2    0    0  0.00000000000E+00  0.00000000000E+00  0.10746915910E+02  0.99988481796E+03  0.99982706154E+03 0.  0.
        2    1    3    3  502    0 -0.14829447582E+03 -0.29167494792E+03 -0.37260076808E+03  0.49587988383E+03  0.25500000920E-02 0. -1.
       -2    1    3    3    0  502  0.14829447582E+03  0.29167494792E+03  0.38334768399E+03  0.50400493413E+03  0.25500000920E-02 0.  1.
</event>
<event>
 5   0  0.9650500E-05  0.1000087E+04  0.7818609E-02  0.9308449E-01
       -3   -1    0    0    0  501  0.00000000000E+00  0.00000000000E+00  0.14562097443E+04  0.14562097478E+04  0.10100000352E+00 0. -1.
        3   -1    0    0  501    0  0.00000000000E+00  0.00000000000E+00 -0.17170855143E+03  0.17170858113E+03  0.10100000352E+00 0.  1.
    10030    2    1    2    0    0  0.00000000000E+00  0.00000000000E+00  0.12845011929E+04  0.16279183290E+04  0.10000873818E+04 0.  0.
        5    1    3    3  502    0  0.28636127112E+03  0.29454843581E+03  0.11062668489E+04  0.11800889753E+04  0.46999998093E+01 0. -1.
       -5    1    3    3    0  502 -0.28636127112E+03 -0.29454843581E+03  0.17823434401E+03  0.44782935368E+03  0.46999998093E+01 0.  1.
</event>
<event>
 5   0  0.1430675E-04  0.1005055E+04  0.7818609E-02  0.9303018E-01
        1   -1    0    0  501    0  0.00000000000E+00  0.00000000000E+00  0.11722728606E+04  0.11722728606E+04  0.50400001928E-02 0. -1.
       -1   -1    0    0    0  501  0.00000000000E+00  0.00000000000E+00 -0.21542244245E+03  0.21542244251E+03  0.50400001928E-02 0.  1.
    10030    2    1    2    0    0  0.00000000000E+00  0.00000000000E+00  0.95685041819E+03  0.13876953032E+04  0.10050549893E+04 0.  0.
        5    1    3    3  502    0 -0.13123492407E+03 -0.70651426907E+02  0.11410214476E+04  0.11507242343E+04  0.46999998093E+01 0. -1.
       -5    1    3    3    0  502  0.13123492407E+03  0.70651426907E+02 -0.18417102942E+03  0.23697106889E+03  0.46999998093E+01 0.  1.
</event>
<event>
 5   0  0.2503680E-04  0.1000739E+04  0.7818609E-02  0.9307735E-01
       -2   -1    0    0    0  501  0.00000000000E+00  0.00000000000E+00  0.28452745434E+03  0.28452745435E+03  0.25500000920E-02 0. -1.
        2   -1    0    0  501    0  0.00000000000E+00  0.00000000000E+00 -0.87994918765E+03  0.87994918765E+03  0.25500000920E-02 0.  1.
    10030    2    1    2    0    0  0.00000000000E+00  0.00000000000E+00 -0.59542173331E+03  0.11644766420E+04  0.10007391315E+04 0.  0.
        2    1    3    3  502    0 -0.46007889500E+03 -0.37449626677E+02 -0.72995331006E+02  0.46733647677E+03  0.25500000920E-02 0. -1.
       -2    1    3    3    0  502  0.46007889500E+03  0.37449626677E+02 -0.52242640230E+03  0.69714016524E+03  0.25500000920E-02 0.  1.
</event>
<event>
 5   0  0.1414165E-04  0.9991423E+03  0.7818609E-02  0.9309486E-01
        1   -1    0    0  501    0  0.00000000000E+00  0.00000000000E+00  0.94437239204E+03  0.94437239205E+03  0.50400001928E-02 0. -1.
       -1   -1    0    0    0  501  0.00000000000E+00  0.00000000000E+00 -0.26427217666E+03  0.26427217671E+03  0.50400001928E-02 0.  1.
    10030    2    1    2    0    0  0.00000000000E+00  0.00000000000E+00  0.68010021538E+03  0.12086445688E+04  0.99914232752E+03 0.  0.
        4    1    3    3  502    0 -0.11401907877E+03 -0.18615803385E+03 -0.20351938854E+03  0.29845756533E+03  0.12699999809E+01 0.  1.
       -4    1    3    3    0  502  0.11401907877E+03  0.18615803385E+03  0.88361960391E+03  0.91018700343E+03  0.12699999809E+01 0. -1.
</event>
<event>
 5   0  0.1453863E-04  0.9998570E+03  0.7818609E-02  0.9308702E-01
       -1   -1    0    0    0  501  0.00000000000E+00  0.00000000000E+00  0.29793804800E+03  0.29793804804E+03  0.50400001928E-02 0.  1.
        1   -1    0    0  501    0  0.00000000000E+00  0.00000000000E+00 -0.83886072925E+03  0.83886072926E+03  0.50400001928E-02 0. -1.
    10030    2    1    2    0    0  0.00000000000E+00  0.00000000000E+00 -0.54092268125E+03  0.11367987773E+04  0.99985704628E+03 0.  0.
        1    1    3    3  502    0 -0.10308523374E+03 -0.28985210102E+02  0.28474589043E+03  0.30421526912E+03  0.50400001928E-02 0.  1.
       -1    1    3    3    0  502  0.10308523374E+03  0.28985210102E+02 -0.82566857168E+03  0.83258350819E+03  0.50400001928E-02 0. -1.
</event>
<event>
 5   0  0.1453863E-04  0.1001330E+04  0.7818609E-02  0.9307087E-01
       -1   -1    0    0    0  501  0.00000000000E+00  0.00000000000E+00  0.48645222451E+03  0.48645222454E+03  0.50400001928E-02 0.  1.
        1   -1    0    0  501    0  0.00000000000E+00  0.00000000000E+00 -0.51529324884E+03  0.51529324887E+03  0.50400001928E-02 0. -1.
    10030    2    1    2    0    0  0.00000000000E+00  0.00000000000E+00 -0.28841024334E+02  0.10017454734E+04  0.10013302097E+04 0.  0.
        1    1    3    3  502    0 -0.26669229008E+03 -0.26421063778E+03  0.31697734988E+03  0.49133153681E+03  0.50400001928E-02 0.  1.
       -1    1    3    3    0  502  0.26669229008E+03  0.26421063778E+03 -0.34581837421E+03  0.51041393659E+03  0.50400001928E-02 0. -1.
</event>
<event>
 5   0  0.9650500E-05  0.9996998E+03  0.7818609E-02  0.9308874E-01
        3   -1    0    0  501    0  0.00000000000E+00  0.00000000000E+00  0.28206964980E+03  0.28206966788E+03  0.10100000352E+00 0.  1.
       -3   -1    0    0    0  501  0.00000000000E+00  0.00000000000E+00 -0.88577389163E+03  0.88577389739E+03  0.10100000352E+00 0. -1.
    10030    2    1    2    0    0  0.00000000000E+00  0.00000000000E+00 -0.60370424183E+03  0.11678435653E+04  0.99969984562E+03 0.  0.
        1    1    3    3  502    0  0.19582490850E+03  0.94889416348E+01  0.23527909039E+03  0.30625754718E+03  0.50400001928E-02 0.  1.
       -1    1    3    3    0  502 -0.19582490850E+03 -0.94889416348E+01 -0.83898333222E+03  0.86158601809E+03  0.50400001928E-02 0. -1.
</event>
<event>
 5   0  0.2353916E-04  0.1001935E+04  0.7818609E-02  0.9306425E-01
       -2   -1    0    0    0  501  0.00000000000E+00  0.00000000000E+00  0.42965739392E+03  0.42965739392E+03  0.25500000920E-02 0.  1.
        2   -1    0    0  501    0  0.00000000000E+00  0.00000000000E+00 -0.58411316263E+03  0.58411316264E+03  0.25500000920E-02 0. -1.
    10030    2    1    2    0    0  0.00000000000E+00  0.00000000000E+00 -0.15445576872E+03  0.10137705566E+04  0.10019352059E+04 0.  0.
        4    1    3    3  502    0 -0.10290103056E+03 -0.41726760111E+03 -0.33769061497E+03  0.54656878558E+03  0.12699999809E+01 0.  1.
       -4    1    3    3    0  502  0.10290103056E+03  0.41726760111E+03  0.18323484625E+03  0.46720177098E+03  0.12699999809E+01 0. -1.
</event>
<event>
 5   0  0.1453863E-04  0.9998463E+03  0.7818609E-02  0.9308713E-01
       -1   -1    0    0    0  501  0.00000000000E+00  0.00000000000E+00  0.16179152031E+03  0.16179152039E+03  0.50400001928E-02 0. -1.
        1   -1    0    0  501    0  0.00000000000E+00  0.00000000000E+00 -0.15447235671E+04  0.15447235671E+04  0.50400001928E-02 0.  1.
    10030    2    1    2    0    0  0.00000000000E+00  0.00000000000E+00 -0.13829320468E+04  0.17065150875E+04  0.99984633711E+03 0.  0.
        1    1    3    3  502    0 -0.37498923139E+03 -0.32023390877E+03 -0.83175953450E+03  0.96694912134E+03  0.50400001928E-02 0.  1.
       -1    1    3    3    0  502  0.37498923139E+03  0.32023390877E+03 -0.55117251230E+03  0.73956596618E+03  0.50400001928E-02 0. -1.
</event>
<event>
 5   0  0.2353916E-04  0.1000635E+04  0.7818609E-02  0.9307849E-01
       -2   -1    0    0    0  501  0.00000000000E+00  0.00000000000E+00  0.12993102160E+03  0.12993102163E+03  0.25500000920E-02 0.  1.
        2   -1    0    0  501    0  0.00000000000E+00  0.00000000000E+00 -0.19265403272E+04  0.19265403272E+04  0.25500000920E-02 0. -1.
    10030    2    1    2    0    0  0.00000000000E+00  0.00000000000E+00 -0.17966093056E+04  0.20564713488E+04  0.10006345045E+04 0.  0.
        4    1    3    3  502    0  0.40725861063E+03  0.27704964604E+03 -0.10786408460E+04  0.11857840317E+04  0.12699999809E+01 0.  1.
       -4    1    3    3    0  502 -0.40725861063E+03 -0.27704964604E+03 -0.71796845953E+03  0.87068731706E+03  0.12699999809E+01 0. -1.
</event>
<event>
 5   0  0.2484904E-04  0.9988322E+03  0.7818609E-02  0.9309827E-01
       -2   -1    0    0    0  501  0.00000000000E+00  0.00000000000E+00  0.13962537528E+03  0.13962537530E+03  0.25500000920E-02 0.  1.
        2   -1    0    0  501    0  0.00000000000E+00  0.00000000000E+00 -0.17863259510E+04  0.17863259510E+04  0.25500000920E-02 0. -1.
    10030    2    1    2    0    0  0.00000000000E+00  0.00000000000E+00 -0.16467005757E+04  0.19259513263E+04  0.99883218070E+03 0.  0.
        3    1    3    3  502    0 -0.36156814042E+03  0.32216511466E+03 -0.58802623134E+03  0.76177210517E+03  0.10100000352E+00 0.  1.
       -3    1    3    3    0  502  0.36156814042E+03 -0.32216511466E+03 -0.10586743443E+04  0.11641792211E+04  0.10100000352E+00 0. -1.
</event>
<event>
 5   0  0.2403037E-04  0.1000190E+04  0.7818609E-02  0.9308337E-01
        2   -1    0    0  501    0  0.00000000000E+00  0.00000000000E+00  0.50161503930E+03  0.50161503931E+03  0.25500000920E-02 0. -1.
       -2   -1    0    0    0  501  0.00000000000E+00  0.00000000000E+00 -0.49857936846E+03  0.49857936846E+03  0.25500000920E-02 0.  1.
    10030    2    1    2    0    0  0.00000000000E+00  0.00000000000E+00  0.30356708414E+01  0.10001944078E+04  0.10001898010E+04 0.  0.
        1    1    3    3  502    0 -0.11414346048E+03  0.29751373269E+03  0.38694373907E+03  0.50126700264E+03  0.50400001928E-02 0. -1.
       -1    1    3    3    0  502  0.11414346048E+03 -0.29751373269E+03 -0.38390806823E+03  0.49892740513E+03  0.50400001928E-02 0.  1.
</event>
<event>
 5   0  0.2353916E-04  0.9998177E+03  0.7818609E-02  0.9308745E-01
        2   -1    0    0  501    0  0.00000000000E+00  0.00000000000E+00  0.28803735897E+04  0.28803735897E+04  0.25500000920E-02 0.  1.
       -2   -1    0    0    0  501  0.00000000000E+00  0.00000000000E+00 -0.86762651989E+02  0.86762652027E+02  0.25500000920E-02 0. -1.
    10030    2    1    2    0    0  0.00000000000E+00  0.00000000000E+00  0.27936109377E+04  0.29671362417E+04  0.99981768621E+03 0.  0.
        4    1    3    3  502    0 -0.30467118371E+03  0.24019728734E+03  0.46121974409E+03  0.60269771218E+03  0.12699999809E+01 0. -1.
       -4    1    3    3    0  502  0.30467118371E+03 -0.24019728734E+03  0.23323911936E+04  0.23644385295E+04  0.12699999809E+01 0.  1.
</event>
<event>
 5   0  0.1453863E-04  0.1000053E+04  0.7818609E-02  0.9308487E-01
        1   -1    0    0  501    0  0.00000000000E+00  0.00000000000E+00  0.62925614648E+03  0.62925614650E+03  0.50400001928E-02 0. -1.
       -1   -1    0    0    0  501  0.00000000000E+00  0.00000000000E+00 -0.39733648864E+03  0.39733648867E+03  0.50400001928E-02 0.  1.
    10030    2    1    2    0    0  0.00000000000E+00  0.00000000000E+00  0.23191965785E+03  0.10265926352E+04  0.10000528541E+04 0.  0.
        1    1    3    3  502    0  0.33161348959E+02 -0.36376452351E+03  0.46649243490E+03  0.59248586099E+03  0.50400001928E-02 0. -1.
       -1    1    3    3    0  502 -0.33161348959E+02  0.36376452351E+03 -0.23457277706E+03  0.43410677418E+03  0.50400001928E-02 0.  1.
</event>
<event>
 5   0  0.2484904E-04  0.1000413E+04  0.7818609E-02  0.9308092E-01
       -2   -1    0    0    0  501  0.00000000000E+00  0.00000000000E+00  0.22882147706E+03  0.22882147708E+03  0.25500000920E-02 0.  1.
        2   -1    0    0  501    0  0.00000000000E+00  0.00000000000E+00 -0.10934582510E+04  0.10934582510E+04  0.25500000920E-02 0. -1.
    10030    2    1    2    0    0  0.00000000000E+00  0.00000000000E+00 -0.86463677389E+03  0.13222797280E+04  0.10004133788E+04 0.  0.
        3    1    3    3  502    0  0.30292486388E+03  0.19948398471E+02  0.93135556019E+02  0.31754630175E+03  0.10100000352E+00 0.  1.
       -3    1    3    3    0  502 -0.30292486388E+03 -0.19948398471E+02 -0.95777232991E+03  0.10047334263E+04  0.10100000352E+00 0. -1.
</event>
<event>
 5   0  0.1453863E-04  0.9999980E+03  0.7818609E-02  0.9308547E-01
       -1   -1    0    0    0  501  0.00000000000E+00  0.00000000000E+00  0.11694145745E+04  0.11694145745E+04  0.50400001928E-02 0.  1.
        1   -1    0    0  501    0  0.00000000000E+00  0.00000000000E+00 -0.21378134815E+03  0.21378134821E+03  0.50400001928E-02 0. -1.
    10030    2    1    2    0    0  0.00000000000E+00  0.00000000000E+00  0.95563322631E+03  0.13831959227E+04  0.99999804864E+03 0.  0.
        1    1    3    3  502    0 -0.10701970411E+03 -0.18263246674E+03 -0.14874517020E+03  0.25871405192E+03  0.50400001928E-02 0. -1.
       -1    1    3    3    0  502  0.10701970411E+03  0.18263246674E+03  0.11043783965E+04  0.11244818708E+04  0.50400001928E-02 0.  1.
</event>
<event>
 5   0  0.2353916E-04  0.9999811E+03  0.7818609E-02  0.9308565E-01
        2   -1    0    0  501    0  0.00000000000E+00  0.00000000000E+00  0.73126320476E+03  0.73126320476E+03  0.25500000920E-02 0. -1.
       -2   -1    0    0    0  501  0.00000000000E+00  0.00000000000E+00 -0.34186126740E+03  0.34186126741E+03  0.25500000920E-02 0.  1.
    10030    2    1    2    0    0  0.00000000000E+00  0.00000000000E+00  0.38940193736E+03  0.10731244722E+04  0.99998113179E+03 0.  0.
        4    1    3    3  502    0  0.31110779372E+03  0.93986257487E+02  0.60245003660E+03  0.68452109931E+03  0.12699999809E+01 0. -1.
       -4    1    3    3    0  502 -0.31110779372E+03 -0.93986257487E+02 -0.21304809924E+03  0.38860337286E+03  0.12699999809E+01 0.  1.
</event>
<event>
 5   0  0.2503680E-04  0.9997604E+03  0.7818609E-02  0.9308808E-01
       -2   -1    0    0    0  501  0.00000000000E+00  0.00000000000E+00  0.58096530900E+03  0.58096530900E+03  0.25500000920E-02 0. -1.
        2   -1    0    0  501    0  0.00000000000E+00  0.00000000000E+00 -0.43011209783E+03  0.43011209784E+03  0.25500000920E-02 0.  1.
    10030    2    1    2    0    0  0.00000000000E+00  0.00000000000E+00  0.15085321117E+03  0.10110774068E+04  0.99976038694E+03 0.  0.
        2    1    3    3  502    0  0.29459851573E+03  0.21149934147E+03  0.42335579813E+03  0.55744989795E+03  0.25500000920E-02 0. -1.
       -2    1    3    3    0  502 -0.29459851573E+03 -0.21149934147E+03 -0.27250258696E+03  0.45362750889E+03  0.25500000920E-02 0.  1.
</event>
<event>
 5   0  0.2403037E-04  0.1000021E+04  0.7818609E-02  0.9308522E-01
        2   -1    0    0  501    0  0.00000000000E+00  0.00000000000E+00  0.95886212897E+03  0.95886212897E+03  0.25500000920E-02 0. -1.
       -2   -1    0    0    0  501  0.00000000000E+00  0.00000000000E+00 -0.26073647494E+03  0.26073647496E+03  0.25500000920E-02 0.  1.
    10030    2    1    2    0    0  0.00000000000E+00  0.00000000000E+00  0.69812565402E+03  0.12195986039E+04  0.10000206627E+04 0.  0.
        1    1    3    3  502    0  0.22412750959E+03  0.44181636855E+03  0.26656801717E+03  0.56257741856E+03  0.50400001928E-02 0.  1.
       -1    1    3    3    0  502 -0.22412750959E+03 -0.44181636855E+03  0.43155763685E+03  0.65702118536E+03  0.50400001928E-02 0. -1.
</event>
<event>
 5   0  0.2403037E-04  0.9999602E+03  0.7818609E-02  0.9308588E-01
       -2   -1    0    0    0  501  0.00000000000E+00  0.00000000000E+00  0.38283877756E+03  0.38283877757E+03  0.25500000920E-02 0. -1.
        2   -1    0    0  501    0  0.00000000000E+00  0.00000000000E+00 -0.65296444716E+03  0.65296444717E+03  0.25500000920E-02 0.  1.
    10030    2    1    2    0    0  0.00000000000E+00  0.00000000000E+00 -0.27012566961E+03  0.10358032247E+04  0.99996022070E+03 0.  0.
        1    1    3    3  502    0 -0.13260366659E+03  0.42424278263E+02  0.36235453434E+03  0.38818083461E+03  0.50400001928E-02 0. -1.
       -1    1    3    3    0  502  0.13260366659E+03 -0.42424278263E+02 -0.63248020394E+03  0.64762239012E+03  0.50400001928E-02 0.  1.
</event>
<event>
 5   0  0.9650500E-05  0.9997530E+03  0.7818609E-02  0.9308816E-01
       -3   -1    0    0    0  501  0.00000000000E+00  0.00000000000E+00  0.54615364034E+03  0.54615364968E+03  0.10100000352E+00 0. -1.
        3   -1    0    0  501    0  0.00000000000E+00  0.00000000000E+00 -0.45752050364E+03  0.45752051479E+03  0.10100000352E+00 0.  1.
    10030    2    1    2    0    0  0.00000000000E+00  0.00000000000E+00  0.88633136697E+02  0.10036741645E+04  0.99975296724E+03 0.  0.
        1    1    3    3  502    0 -0.52037043598E+02  0.20277896871E+03  0.50002351802E+03  0.54207995965E+03  0.50400001928E-02 0. -1.
       -1    1    3    3    0  502  0.52037043598E+02 -0.20277896871E+03 -0.41139038132E+03  0.46159420482E+03  0.50400001928E-02 0.  1.
</event>
<event>
 5   0  0.2503680E-04  0.9969808E+03  0.7818609E-02  0.9311862E-01
       -2   -1    0    0    0  501  0.00000000000E+00  0.00000000000E+00  0.27105146003E+03  0.27105146004E+03  0.25500000920E-02 0. -1.
        2   -1    0    0  501    0  0.00000000000E+00  0.00000000000E+00 -0.91677297798E+03  0.91677297798E+03  0.25500000920E-02 0.  1.
    10030    2    1    2    0    0  0.00000000000E+00  0.00000000000E+00 -0.64572151795E+03  0.11878244380E+04  0.99698075047E+03 0.  0.
        2    1    3    3  502    0 -0.31418004025E+03  0.18529990957E+02  0.13771300699E+03  0.34353650542E+03  0.25500000920E-02 0. -1.
       -2    1    3    3    0  502  0.31418004025E+03 -0.18529990957E+02 -0.78343452494E+03  0.84428793260E+03  0.25500000920E-02 0.  1.
</event>
<event>
 5   0  0.1461334E-04  0.1000531E+04  0.7818609E-02  0.9307962E-01
       -1   -1    0    0    0  501  0.00000000000E+00  0.00000000000E+00  0.45133905501E+03  0.45133905504E+03  0.50400001928E-02 0.  1.
        1   -1    0    0  501    0  0.00000000000E+00  0.00000000000E+00 -0.55449583559E+03  0.55449583562E+03  0.50400001928E-02 0. -1.
    10030    2    1    2    0    0  0.00000000000E+00  0.00000000000E+00 -0.10315678059E+03  0.10058348907E+04  0.10005311119E+04 0.  0.
        2    1    3    3  502    0  0.95843254033E+02 -0.30453755455E+03 -0.43876490449E+03  0.54262666069E+03  0.25500000920E-02 0. -1.
       -2    1    3    3    0  502 -0.95843254033E+02  0.30453755455E+03  0.33560812390E+03  0.46320822997E+03  0.25500000920E-02 0.  1.
</event>
<event>
 5   0  0.1461334E-04  0.1001691E+04  0.7818609E-02  0.9306692E-01
       -1   -1    0    0    0  501  0.00000000000E+00  0.00000000000E+00  0.31309958762E+03  0.31309958766E+03  0.50400001928E-02 0. -1.
        1   -1    0    0  501    0  0.00000000000E+00  0.00000000000E+00 -0.80117102004E+03  0.80117102005E+03  0.50400001928E-02 0.  1.
    10030    2    1    2    0    0  0.00000000000E+00  0.00000000000E+00 -0.48807143242E+03  0.11142706077E+04  0.10016912019E+04 0.  0.
        2    1    3    3  502    0 -0.36727770392E+03  0.97620395201E+02 -0.60692648122E+03  0.71608826758E+03  0.25500000920E-02 0.  1.
       -2    1    3    3    0  502  0.36727770392E+03 -0.97620395201E+02  0.11885504880E+03  0.39818234013E+03  0.25500000920E-02 0. -1.
</event>
<event>
 5   0  0.1414165E-04  0.1000583E+04  0.7818609E-02  0.9307905E-01
        1   -1    0    0  501    0  0.00000000000E+00  0.00000000000E+00  0.95120802883E+03  0.95120802884E+03  0.50400001928E-02 0. -1.
       -1   -1    0    0    0  501  0.00000000000E+00  0.00000000000E+00 -0.26313047904E+03  0.26313047909E+03  0.50400001928E-02 0.  1.
    10030    2    1    2    0    0  0.00000000000E+00  0.00000000000E+00  0.68807754979E+03  0.12143385079E+04  0.10005834784E+04 0.  0.
        4    1    3    3  502    0  0.36987935314E+03  0.26589949841E+03  0.93028639602E+02  0.46494001744E+03  0.12699999809E+01 0.  1.
       -4    1    3    3    0  502 -0.36987935314E+03 -0.26589949841E+03  0.59504891019E+03  0.74939849049E+03  0.12699999809E+01 0. -1.
</event>
<event>
 5   0  0.1430675E-04  0.1000672E+04  0.7818609E-02  0.9307808E-01
        1   -1    0    0  501    0  0.00000000000E+00  0.00000000000E+00  0.18383448708E+04  0.18383448708E+04  0.50400001928E-02 0. -1.
       -1   -1    0    0    0  501  0.00000000000E+00  0.00000000000E+00 -0.13617474651E+03  0.13617474660E+03  0.50400001928E-02 0.  1.
    10030    2    1    2    0    0  0.00000000000E+00  0.00000000000E+00  0.17021701243E+04  0.19745196174E+04  0.10006720679E+04 0.  0.
        5    1    3    3  502    0  0.22884196699E+03 -0.28606248999E+03  0.17871040136E+03  0.40762714776E+03  0.46999998093E+01 0.  1.
       -5    1    3    3    0  502 -0.22884196699E+03  0.28606248999E+03  0.15234597229E+04  0.15668924696E+04  0.46999998093E+01 0. -1.
</event>
<event>
 5   0  0.1430675E-04  0.9999955E+03  0.7818609E-02  0.9308550E-01
       -1   -1    0    0    0  501  0.00000000000E+00  0.00000000000E+00  0.33259969474E+03  0.33259969478E+03  0.50400001928E-02 0. -1.
        1   -1    0    0  501    0  0.00000000000E+00  0.00000000000E+00 -0.75164759057E+03  0.75164759058E+03  0.50400001928E-02 0.  1.
    10030    2    1    2    0    0  0.00000000000E+00  0.00000000000E+00 -0.41904789582E+03  0.10842472854E+04  0.99999551840E+03 0.  0.
        5    1    3    3  502    0 -0.20848841043E+03 -0.51006608480E+02  0.28008112362E+03  0.35289745989E+03  0.46999998093E+01 0. -1.
       -5    1    3    3    0  502  0.20848841043E+03  0.51006608480E+02 -0.69912901944E+03  0.73134982547E+03  0.46999998093E+01 0.  1.
</event>
<event>
 5   0  0.2484904E-04  0.9996147E+03  0.7818609E-02  0.9308967E-01
        2   -1    0    0  501    0  0.00000000000E+00  0.00000000000E+00  0.62653593643E+03  0.62653593643E+03  0.25500000920E-02 0. -1.
       -2   -1    0    0    0  501  0.00000000000E+00  0.00000000000E+00 -0.39871200030E+03  0.39871200031E+03  0.25500000920E-02 0.  1.
    10030    2    1    2    0    0  0.00000000000E+00  0.00000000000E+00  0.22782393613E+03  0.10252479367E+04  0.99961471873E+03 0.  0.
        3    1    3    3  502    0 -0.18419422137E+03  0.11502250243E+03 -0.34779799196E+03  0.41002578048E+03  0.10100000352E+00 0.  1.
       -3    1    3    3    0  502  0.18419422137E+03 -0.11502250243E+03  0.57562192808E+03  0.61522215625E+03  0.10100000352E+00 0. -1.
</event>
<event>
 5   0  0.2484904E-04  0.9992647E+03  0.7818609E-02  0.9309352E-01
       -2   -1    0    0    0  501  0.00000000000E+00  0.00000000000E+00  0.21495138229E+03  0.21495138230E+03  0.25500000920E-02 0. -1.
        2   -1    0    0  501    0  0.00000000000E+00  0.00000000000E+00 -0.11613439551E+04  0.11613439551E+04  0.25500000920E-02 0.  1.
    10030    2    1    2    0    0  0.00000000000E+00  0.00000000000E+00 -0.94639257282E+03  0.13762953374E+04  0.99926470662E+03 0.  0.
        3    1    3    3  502    0  0.13716929180E+03  0.37523978697E+03 -0.88641663140E+03  0.97229356008E+03  0.10100000352E+00 0.  1.
       -3    1    3    3    0  502 -0.13716929180E+03 -0.37523978697E+03 -0.59975941418E+02  0.40400177734E+03  0.10100000352E+00 0. -1.
</event>
<event>
 5   0  0.1430675E-04  0.9978772E+03  0.7818609E-02  0.9310876E-01
        1   -1    0    0  501    0  0.00000000000E+00  0.00000000000E+00  0.23465888642E+03  0.23465888647E+03  0.50400001928E-02 0. -1.
       -1   -1    0    0    0  501  0.00000000000E+00  0.00000000000E+00 -0.10608579457E+04  0.10608579457E+04  0.50400001928E-02 0.  1.
    10030    2    1    2    0    0  0.00000000000E+00  0.00000000000E+00 -0.82619905929E+03  0.12955168322E+04  0.99787723539E+03 0.  0.
        5    1    3    3  502    0 -0.27818280857E+03  0.41059655524E+03 -0.34267558484E+03  0.60284645856E+03  0.46999998093E+01 0. -1.
       -5    1    3    3    0  502  0.27818280857E+03 -0.41059655524E+03 -0.48352347444E+03  0.69267037362E+03  0.46999998093E+01 0.  1.
</event>
<event>
 5   0  0.2403037E-04  0.1001057E+04  0.7818609E-02  0.9307386E-01
       -2   -1    0    0    0  501  0.00000000000E+00  0.00000000000E+00  0.15191119017E+03  0.15191119019E+03  0.25500000920E-02 0.  1.
        2   -1    0    0  501    0  0.00000000000E+00  0.00000000000E+00 -0.16491802179E+04  0.16491802179E+04  0.25500000920E-02 0. -1.
    10030    2    1    2    0    0  0.00000000000E+00  0.00000000000E+00 -0.14972690277E+04  0.18010914081E+04  0.10010573005E+04 0.  0.
        1    1    3    3  502    0 -0.18543241917E+03 -0.46482740049E+03 -0.76464986123E+03  0.91385945563E+03  0.50400001928E-02 0. -1.
       -1    1    3    3    0  502  0.18543241917E+03  0.46482740049E+03 -0.73261916648E+03  0.88723195244E+03  0.50400001928E-02 0.  1.
</event>
<event>
 5   0  0.1461334E-04  0.1000403E+04  0.7818609E-02  0.9308103E-01
       -1   -1    0    0    0  501  0.00000000000E+00  0.00000000000E+00  0.33663166933E+03  0.33663166937E+03  0.50400001928E-02 0. -1.
        1   -1    0    0  501    0  0.00000000000E+00  0.00000000000E+00 -0.74325034088E+03  0.74325034090E+03  0.50400001928E-02 0.  1.
    10030    2    1    2    0    0  0.00000000000E+00  0.00000000000E+00 -0.40661867154E+03  0.10798820103E+04  0.10004031248E+04 0.  0.
        2    1    3    3  502    0 -0.14490893704E+03 -0.46933186330E+03 -0.10129957974E+03  0.50153026110E+03  0.25500000920E-02 0.  1.
       -2    1    3    3    0  502  0.14490893704E+03  0.46933186330E+03 -0.30531909180E+03  0.57835174917E+03  0.25500000920E-02 0. -1.
</event>
<event>
 5   0  0.2484904E-04  0.1000068E+04  0.7818609E-02  0.9308470E-01
       -2   -1    0    0    0  501  0.00000000000E+00  0.00000000000E+00  0.77113613857E+03  0.77113613857E+03  0.25500000920E-02 0.  1.
        2   -1    0    0  501    0  0.00000000000E+00  0.00000000000E+00 -0.32424099966E+03  0.32424099967E+03  0.25500000920E-02 0. -1.
    10030    2    1    2    0    0  0.00000000000E+00  0.00000000000E+00  0.44689513891E+03  0.10953771382E+04  0.10000679026E+04 0.  0.
        3    1    3    3  502    0 -0.32640763049E+03  0.38110750796E+02  0.63624678257E+03  0.71610358825E+03  0.10100000352E+00 0.  1.
       -3    1    3    3    0  502  0.32640763049E+03 -0.38110750796E+02 -0.18935164366E+03  0.37927354999E+03  0.10100000352E+00 0. -1.
</event>
<event>
 5   0  0.2353916E-04  0.9981476E+03  0.7818609E-02  0.9310579E-01
        2   -1    0    0  501    0  0.00000000000E+00  0.00000000000E+00  0.61425292089E+03  0.61425292089E+03  0.25500000920E-02 0. -1.
       -2   -1    0    0    0  501  0.00000000000E+00  0.00000000000E+00 -0.40549200429E+03  0.40549200430E+03  0.25500000920E-02 0.  1.
    10030    2    1    2    0    0  0.00000000000E+00  0.00000000000E+00  0.20876091659E+03  0.10197449252E+04  0.99814758035E+03 0.  0.
        4    1    3    3  502    0  0.26663318974E+03 -0.29839826283E+03 -0.20029754028E+03  0.44749916053E+03  0.12699999809E+01 0.  1.
       -4    1    3    3    0  502 -0.26663318974E+03  0.29839826283E+03  0.40905845688E+03  0.57224576466E+03  0.12699999809E+01 0. -1.
</event>
<event>
 5   0  0.2473312E-04  0.1000087E+04  0.7818609E-02  0.9308450E-01
        2   -1    0    0  501    0  0.00000000000E+00  0.00000000000E+00  0.48336459715E+03  0.48336459716E+03  0.25500000920E-02 0.  1.
       -2   -1    0    0    0  501  0.00000000000E+00  0.00000000000E+00 -0.51729747959E+03  0.51729747960E+03  0.25500000920E-02 0. -1.
    10030    2    1    2    0    0  0.00000000000E+00  0.00000000000E+00 -0.33932882437E+02  0.10006620768E+04  0.10000865719E+04 0.  0.
        5    1    3    3  502    0 -0.16351040723E+03  0.31952926648E+03 -0.36528541489E+03  0.51214268495E+03  0.46999998093E+01 0. -1.
       -5    1    3    3    0  502  0.16351040723E+03 -0.31952926648E+03  0.33135253246E+03  0.48851939181E+03  0.46999998093E+01 0.  1.
</event>
<event>
 5   0  0.1453863E-04  0.9997284E+03  0.7818609E-02  0.9308843E-01
       -1   -1    0    0    0  501  0.00000000000E+00  0.00000000000E+00  0.47508023356E+03  0.47508023358E+03  0.50400001928E-02 0.  1.
        1   -1    0    0  501    0  0.00000000000E+00  0.00000000000E+00 -0.52594107972E+03  0.52594107975E+03  0.50400001928E-02 0. -1.
    10030    2    1    2    0    0  0.00000000000E+00  0.00000000000E+00 -0.50860846167E+02  0.10010213133E+04  0.99972838515E+03 0.  0.
        1    1    3    3  502    0  0.25904218989E+03  0.39718151469E+03 -0.18377475121E+03  0.50855596640E+03  0.50400001928E-02 0. -1.
       -1    1    3    3    0  502 -0.25904218989E+03 -0.39718151469E+03  0.13291390504E+03  0.49246534693E+03  0.50400001928E-02 0.  1.
</event>
<event>
 5   0  0.1453863E-04  0.9951621E+03  0.7818609E-02  0.9313867E-01
       -1   -1    0    0    0  501  0.00000000000E+00  0.00000000000E+00  0.62321425305E+03  0.62321425307E+03  0.50400001928E-02 0. -1.
        1   -1    0    0  501    0  0.00000000000E+00  0.00000000000E+00 -0.39727410233E+03  0.39727410236E+03  0.50400001928E-02 0.  1.
    10030    2    1    2    0    0  0.00000000000E+00  0.00000000000E+00  0.22594015073E+03  0.10204883554E+04  0.99516206312E+03 0.  0.
        1    1    3    3  502    0  0.20219601341E+03  0.31870848013E+03  0.44545702155E+03  0.58385810024E+03  0.50400001928E-02 0. -1.
       -1    1    3    3    0  502 -0.20219601341E+03 -0.31870848013E+03 -0.21951687083E+03  0.43663025519E+03  0.50400001928E-02 0.  1.
</event>
<event>
 5   0  0.1414165E-04  0.1000228E+04  0.7818609E-02  0.9308295E-01
       -1   -1    0    0    0  501  0.00000000000E+00  0.00000000000E+00  0.24887099707E+03  0.24887099712E+03  0.50400001928E-02 0. -1.
        1   -1    0    0  501    0  0.00000000000E+00  0.00000000000E+00 -0.10049938120E+04  0.10049938120E+04  0.50400001928E-02 0.  1.
    10030    2    1    2    0    0  0.00000000000E+00  0.00000000000E+00 -0.75612281491E+03  0.12538648091E+04  0.10002275983E+04 0.  0.
        4    1    3    3  502    0  0.89497011761E+02  0.46267525320E+03 -0.58795304892E+03  0.75350415106E+03  0.12699999809E+01 0. -1.
       -4    1    3    3    0  502 -0.89497011761E+02 -0.46267525320E+03 -0.16816976599E+03  0.50036065806E+03  0.12699999809E+01 0.  1.
</event>
<event>
 5   0  0.1430675E-04  0.9993538E+03  0.7818609E-02  0.9309254E-01
        1   -1    0    0  501    0  0.00000000000E+00  0.00000000000E+00  0.82190339896E+03  0.82190339898E+03  0.50400001928E-02 0.  1.
       -1   -1    0    0    0  501  0.00000000000E+00  0.00000000000E+00 -0.30377901728E+03  0.30377901732E+03  0.50400001928E-02 0. -1.
    10030    2    1    2    0    0  0.00000000000E+00  0.00000000000E+00  0.51812438169E+03  0.11256824163E+04  0.99935380495E+03 0.  0.
        5    1    3    3  502    0  0.25515971200E+03  0.39369848321E+03  0.65431171207E+02  0.47371753448E+03  0.46999998093E+01 0. -1.
       -5    1    3    3    0  502 -0.25515971200E+03 -0.39369848321E+03  0.45269321048E+03  0.65196488182E+03  0.46999998093E+01 0.  1.
</event>
<event>
 5   0  0.2484904E-04  0.9995101E+03  0.7818609E-02  0.9309082E-01
        2   -1    0    0  501    0  0.00000000000E+00  0.00000000000E+00  0.19836948411E+04  0.19836948411E+04  0.25500000920E-02 0. -1.
       -2   -1    0    0    0  501  0.00000000000E+00  0.00000000000E+00 -0.12590398774E+03  0.12590398777E+03  0.25500000920E-02 0.  1.
    10030    2    1    2    0    0  0.00000000000E+00  0.00000000000E+00  0.18577908533E+04  0.21095988289E+04  0.99951006195E+03 0.  0.
        3    1    3    3  502    0 -0.42917392228E+03  0.20793099491E+03  0.12442887264E+04  0.13325464341E+04  0.10100000352E+00 0.  1.
       -3    1    3    3    0  502  0.42917392228E+03 -0.20793099491E+03  0.61350212691E+03  0.77705239471E+03  0.10100000352E+00 0. -1.
</event>
<event>
 5   0  0.1461334E-04  0.9993275E+03  0.7818609E-02  0.9309283E-01
        1   -1    0    0  501    0  0.00000000000E+00  0.00000000000E+00  0.13721448206E+04  0.13721448206E+04  0.50400001928E-02 0.  1.
       -1   -1    0    0    0  501  0.00000000000E+00  0.00000000000E+00 -0.18195153289E+03  0.18195153296E+03  0.50400001928E-02 0. -1.
    10030    2    1    2    0    0  0.00000000000E+00  0.00000000000E+00  0.11901932877E+04  0.15540963535E+04  0.99932748087E+03 0.  0.
        2    1    3    3  502    0 -0.24573162607E+03 -0.22834305636E+03  0.11710018808E+04  0.12181009763E+04  0.25500000920E-02 0. -1.
       -2    1    3    3    0  502  0.24573162607E+03  0.22834305636E+03  0.19191406837E+02  0.33599537726E+03  0.25500000920E-02 0.  1.
</event>
<event>
 5   0  0.1414165E-04  0.9998397E+03  0.7818609E-02  0.9308721E-01
        1   -1    0    0  501    0  0.00000000000E+00  0.00000000000E+00  0.45645770648E+03  0.45645770651E+03  0.50400001928E-02 0.  1.
       -1   -1    0    0    0  501  0.00000000000E+00  0.00000000000E+00 -0.54752033108E+03  0.54752033111E+03  0.50400001928E-02 0. -1.
    10030    2    1    2    0    0  0.00000000000E+00  0.00000000000E+00 -0.91062624605E+02  0.10039780376E+04  0.99983973636E+03 0.  0.
        4    1    3    3  502    0  0.11989093238E+03  0.15854966375E+03 -0.50613066549E+03  0.54376621355E+03  0.12699999809E+01 0. -1.
       -4    1    3    3    0  502 -0.11989093238E+03 -0.15854966375E+03  0.41506804089E+03  0.46021182406E+03  0.12699999809E+01 0.  1.
</event>
<event>
 5   0  0.1506454E-04  0.9999847E+03  0.7818609E-02  0.9308562E-01
        1   -1    0    0  501    0  0.00000000000E+00  0.00000000000E+00  0.32040674046E+03  0.32040674050E+03  0.50400001928E-02 0. -1.
       -1   -1    0    0    0  501  0.00000000000E+00  0.00000000000E+00 -0.78023439924E+03  0.78023439926E+03  0.50400001928E-02 0.  1.
    10030    2    1    2    0    0  0.00000000000E+00  0.00000000000E+00 -0.45982765878E+03  0.11006411398E+04  0.99998472126E+03 0.  0.
        3    1    3    3  502    0 -0.18964612724E+03 -0.37024854154E+03 -0.53522038456E+03  0.67787204275E+03  0.10100000352E+00 0.  1.
       -3    1    3    3    0  502  0.18964612724E+03  0.37024854154E+03  0.75392725778E+02  0.42276909701E+03  0.10100000352E+00 0. -1.
</event>
<event>
 5   0  0.1414165E-04  0.1000120E+04  0.7818609E-02  0.9308413E-01
       -1   -1    0    0    0  501  0.00000000000E+00  0.00000000000E+00  0.43456103589E+03  0.43456103592E+03  0.50400001928E-02 0.  1.
        1   -1    0    0  501    0  0.00000000000E+00  0.00000000000E+00 -0.57543181333E+03  0.57543181336E+03  0.50400001928E-02 0. -1.
    10030    2    1    2    0    0  0.00000000000E+00  0.00000000000E+00 -0.14087077745E+03  0.10099928493E+04  0.10001204826E+04 0.  0.
        4    1    3    3  502    0  0.16845119658E+03  0.27954173091E+03 -0.45304097714E+03  0.55836110611E+03  0.12699999809E+01 0. -1.
       -4    1    3    3    0  502 -0.16845119658E+03 -0.27954173091E+03  0.31217019970E+03  0.45163174316E+03  0.12699999809E+01 0.  1.
</event>
<event>
 5   0  0.2503680E-04  0.1000039E+04  0.7818609E-02  0.9308502E-01
       -2   -1    0    0    0  501  0.00000000000E+00  0.00000000000E+00  0.14033518457E+03  0.14033518460E+03  0.25500000920E-02 0. -1.
        2   -1    0    0  501    0  0.00000000000E+00  0.00000000000E+00 -0.17815890250E+04  0.17815890250E+04  0.25500000920E-02 0.  1.
    10030    2    1    2    0    0  0.00000000000E+00  0.00000000000E+00 -0.16412538404E+04  0.19219242096E+04  0.10000392486E+04 0.  0.
        2    1    3    3  502    0 -0.38095840543E+03 -0.47589511435E+02 -0.20495836248E+03  0.43520339914E+03  0.25500000920E-02 0. -1.
       -2    1    3    3    0  502  0.38095840543E+03  0.47589511435E+02 -0.14362954779E+04  0.14867208104E+04  0.25500000920E-02 0.  1.
</event>
<event>
 5   0  0.2473312E-04  0.9998304E+03  0.7818609E-02  0.9308731E-01
        2   -1    0    0  501    0  0.00000000000E+00  0.00000000000E+00  0.99180813078E+03  0.99180813078E+03  0.25500000920E-02 0.  1.
       -2   -1    0    0    0  501  0.00000000000E+00  0.00000000000E+00 -0.25197941100E+03  0.25197941102E+03  0.25500000920E-02 0. -1.
    10030    2    1    2    0    0  0.00000000000E+00  0.00000000000E+00  0.73982871977E+03  0.12437875418E+04  0.99983044289E+03 0.  0.
        5    1    3    3  502    0  0.48759822511E+03  0.60093975608E+01  0.50678244243E+03  0.70330553527E+03  0.46999998093E+01 0.  1.
       -5    1    3    3    0  502 -0.48759822511E+03 -0.60093975608E+01  0.23304627734E+03  0.54048200652E+03  0.46999998093E+01 0. -1.
</event>
<event>
 5   0  0.2484904E-04  0.1000730E+04  0.7818609E-02  0.9307745E-01
       -2   -1    0    0    0  501  0.00000000000E+00  0.00000000000E+00  0.17034793328E+03  0.17034793330E+03  0.25500000920E-02 0.  1.
        2   -1    0    0  501    0  0.00000000000E+00  0.00000000000E+00 -0.14697265808E+04  0.14697265808E+04  0.25500000920E-02 0. -1.
    10030    2    1    2    0    0  0.00000000000E+00  0.00000000000E+00 -0.12993786476E+04  0.16400745142E+04  0.10007295050E+04 0.  0.
        3    1    3    3  502    0 -0.44256367146E+02  0.36560866757E+03 -0.12048232531E+04  0.12598521362E+04  0.10100000352E+00 0. -1.
       -3    1    3    3    0  502  0.44256367146E+02 -0.36560866757E+03 -0.94555394486E+02  0.38022237791E+03  0.10100000352E+00 0.  1.
</event>
<event>
 5   0  0.2473312E-04  0.1001206E+04  0.7818609E-02  0.9307223E-01
        2   -1    0    0  501    0  0.00000000000E+00  0.00000000000E+00  0.93874332095E+03  0.93874332095E+03  0.25500000920E-02 0.  1.
       -2   -1    0    0    0  501  0.00000000000E+00  0.00000000000E+00 -0.26695643449E+03  0.26695643450E+03  0.25500000920E-02 0. -1.
    10030    2    1    2    0    0  0.00000000000E+00  0.00000000000E+00  0.67178688646E+03  0.12056997555E+04  0.10012064120E+04 0.  0.
        5    1    3    3  502    0 -0.26551716532E+03  0.20098583005E+03 -0.11419022224E+03  0.35207409138E+03  0.46999998093E+01 0. -1.
       -5    1    3    3    0  502  0.26551716532E+03 -0.20098583005E+03  0.78597710870E+03  0.85362566408E+03  0.46999998093E+01 0.  1.
</event>
<event>
 5   0  0.1414165E-04  0.1000224E+04  0.7818609E-02  0.9308299E-01
        1   -1    0    0  501    0  0.00000000000E+00  0.00000000000E+00  0.54929811705E+03  0.54929811708E+03  0.50400001928E-02 0. -1.
       -1   -1    0    0    0  501  0.00000000000E+00  0.00000000000E+00 -0.45533062550E+03  0.45533062553E+03  0.50400001928E-02 0.  1.
    10030    2    1    2    0    0  0.00000000000E+00  0.00000000000E+00  0.93967491556E+02  0.10046287426E+04  0.10002244853E+04 0.  0.
        4    1    3    3  502    0 -0.20406921451E+03  0.39980887555E+03 -0.17448492264E+03  0.48159940034E+03  0.12699999809E+01 0.  1.
       -4    1    3    3    0  502  0.20406921451E+03 -0.39980887555E+03  0.26845241420E+03  0.52302934226E+03  0.12699999809E+01 0. -1.
</event>
<event>
 5   0  0.1506454E-04  0.9999538E+03  0.7818609E-02  0.9308595E-01
       -1   -1    0    0    0  501  0.00000000000E+00  0.00000000000E+00  0.60124686589E+03  0.60124686591E+03  0.50400001928E-02 0. -1.
        1   -1    0    0  501    0  0.00000000000E+00  0.00000000000E+00 -0.41576417274E+03  0.41576417277E+03  0.50400001928E-02 0.  1.
    10030    2    1    2    0    0  0.00000000000E+00  0.00000000000E+00  0.18548269315E+03  0.10170110387E+04  0.99995381061E+03 0.  0.
        3    1    3    3  502    0 -0.77696415321E+02 -0.68920425911E+02  0.59015460989E+03  0.59922385786E+03  0.10100000352E+00 0. -1.
       -3    1    3    3    0  502  0.77696415321E+02  0.68920425911E+02 -0.40467191674E+03  0.41778718082E+03  0.10100000352E+00 0.  1.
</event>
<event>
 5   0  0.1506454E-04  0.1000209E+04  0.7818609E-02  0.9308316E-01
       -1   -1    0    0    0  501  0.00000000000E+00  0.00000000000E+00  0.30462485874E+03  0.30462485878E+03  0.50400001928E-02 0.  1.
        1   -1    0    0  501    0  0.00000000000E+00  0.00000000000E+00 -0.82102442578E+03  0.82102442580E+03  0.50400001928E-02 0. -1.
    10030    2    1    2    0    0  0.00000000000E+00  0.00000000000E+00 -0.51639956704E+03  0.11256492846E+04  0.10002088777E+04 0.  0.
        3    1    3    3  502    0 -0.15836131654E+03  0.15776483508E+03  0.24527233544E+03  0.33185324843E+03  0.10100000352E+00 0.  1.
       -3    1    3    3    0  502  0.15836131654E+03 -0.15776483508E+03 -0.76167190248E+03  0.79379603614E+03  0.10100000352E+00 0. -1.
</event>
<event>
 5   0  0.1430675E-04  0.9995829E+03  0.7818609E-02  0.9309002E-01
       -1   -1    0    0    0  501  0.00000000000E+00  0.00000000000E+00  0.10680623412E+04  0.10680623413E+04  0.50400001928E-02 0. -1.
        1   -1    0    0  501    0  0.00000000000E+00  0.00000000000E+00 -0.23387350253E+03  0.23387350258E+03  0.50400001928E-02 0.  1.
    10030    2    1    2    0    0  0.00000000000E+00  0.00000000000E+00  0.83418883871E+03  0.13019358438E+04  0.99958287442E+03 0.  0.
        5    1    3    3  502    0  0.32946304381E+03  0.16877222739E+03  0.85442383706E+03  0.93117782690E+03  0.46999998093E+01 0. -1.
       -5    1    3    3    0  502 -0.32946304381E+03 -0.16877222739E+03 -0.20234998345E+02  0.37075801694E+03  0.46999998093E+01 0.  1.
</event>
<event>
 5   0  0.2503680E-04  0.9998978E+03  0.7818609E-02  0.9308657E-01
       -2   -1    0    0    0  501  0.00000000000E+00  0.00000000000E+00  0.56222147895E+03  0.56222147896E+03  0.25500000920E-02 0. -1.
        2   -1    0    0  501    0  0.00000000000E+00  0.00000000000E+00 -0.44457369720E+03  0.44457369721E+03  0.25500000920E-02 0.  1.
    10030    2    1    2    0    0  0.00000000000E+00  0.00000000000E+00  0.11764778175E+03  0.10067951762E+04  0.99989775788E+03 0.  0.
        2    1    3    3  502    0 -0.46067743968E+02 -0.48369208270E+03 -0.59753545376E+02  0.48954137118E+03  0.25500000920E-02 0.  1.
       -2    1    3    3    0  502  0.46067743968E+02  0.48369208270E+03  0.17740132712E+03  0.51725380499E+03  0.25500000920E-02 0. -1.
</event>
<event>
 5   0  0.2484904E-04  0.9997243E+03  0.7818609E-02  0.9308847E-01
        2   -1    0    0  501    0  0.00000000000E+00  0.00000000000E+00  0.17531667953E+04  0.17531667953E+04  0.25500000920E-02 0. -1.
       -2   -1    0    0    0  501  0.00000000000E+00  0.00000000000E+00 -0.14252048925E+03  0.14252048927E+03  0.25500000920E-02 0.  1.
    10030    2    1    2    0    0  0.00000000000E+00  0.00000000000E+00  0.16106463060E+04  0.18956872846E+04  0.99972434085E+03 0.  0.
        3    1    3    3  502    0 -0.44961089891E+02  0.37658529133E+03  0.14227548610E+04  0.14724365473E+04  0.10100000352E+00 0. -1.
       -3    1    3    3    0  502  0.44961089891E+02 -0.37658529133E+03  0.18789144507E+03  0.42325073725E+03  0.10100000352E+00 0.  1.
</event>
<event>
 5   0  0.2484904E-04  0.9998828E+03  0.7818609E-02  0.9308673E-01
        2   -1    0    0  501    0  0.00000000000E+00  0.00000000000E+00  0.85957529655E+03  0.85957529655E+03  0.25500000920E-02 0. -1.
       -2   -1    0    0    0  501  0.00000000000E+00  0.00000000000E+00 -0.29077312408E+03  0.29077312409E+03  0.25500000920E-02 0.  1.
    10030    2    1    2    0    0  0.00000000000E+00  0.00000000000E+00  0.56880217247E+03  0.11503484206E+04  0.99988278186E+03 0.  0.
        3    1    3    3  502    0  0.12878752516E+03 -0.30492493123E+02  0.83905498737E+03  0.84942880856E+03  0.10100000352E+00 0. -1.
       -3    1    3    3    0  502 -0.12878752516E+03  0.30492493123E+02 -0.27025281490E+03  0.30091961208E+03  0.10100000352E+00 0.  1.
</event>
<event>
 5   0  0.1461334E-04  0.9999224E+03  0.7818609E-02  0.9308630E-01
       -1   -1    0    0    0  501  0.00000000000E+00  0.00000000000E+00  0.44013901958E+03  0.44013901961E+03  0.50400001928E-02 0. -1.
        1   -1    0    0  501    0  0.00000000000E+00  0.00000000000E+00 -0.56791416843E+03  0.56791416845E+03  0.50400001928E-02 0.  1.
    10030    2    1    2    0    0  0.00000000000E+00  0.00000000000E+00 -0.12777514885E+03  0.10080531881E+04  0.99992236763E+03 0.  0.
        2    1    3    3  502    0  0.95427432766E+01  0.43768612982E+03  0.17953175742E+03  0.47317212948E+03  0.25500000920E-02 0. -1.
       -2    1    3    3    0  502 -0.95427432766E+01 -0.43768612982E+03 -0.30730690627E+03  0.53488105858E+03  0.25500000920E-02 0.  1.
</event>
<event>
 5   0  0.2353916E-04  0.1000133E+04  0.7818609E-02  0.9308399E-01
       -2   -1    0    0    0  501  0.00000000000E+00  0.00000000000E+00  0.16136443724E+03  0.16136443726E+03  0.25500000920E-02 0. -1.
        2   -1    0    0  501    0  0.00000000000E+00  0.00000000000E+00 -0.15497004899E+04  0.15497004899E+04  0.25500000920E-02 0.  1.
    10030    2    1    2    0    0  0.00000000000E+00  0.00000000000E+00 -0.13883360526E+04  0.17110649271E+04  0.10001330860E+04 0.  0.
        4    1    3    3  502    0  0.17210144606E+03  0.12754352448E+03 -0.14672292440E+04  0.14827843828E+04  0.12699999809E+01 0.  1.
       -4    1    3    3    0  502 -0.17210144606E+03 -0.12754352448E+03  0.78893191409E+02  0.22828054434E+03  0.12699999809E+01 0. -1.
</event>
<event>
 5   0  0.2403037E-04  0.9991143E+03  0.7818609E-02  0.9309517E-01
        2   -1    0    0  501    0  0.00000000000E+00  0.00000000000E+00  0.58360180047E+03  0.58360180047E+03  0.25500000920E-02 0. -1.
       -2   -1    0    0    0  501  0.00000000000E+00  0.00000000000E+00 -0.42761583386E+03  0.42761583387E+03  0.25500000920E-02 0.  1.
    10030    2    1    2    0    0  0.00000000000E+00  0.00000000000E+00  0.15598596661E+03  0.10112176343E+04  0.99911434892E+03 0.  0.
        1    1    3    3  502    0  0.44264633604E+03 -0.22744462605E+03  0.33985993588E+02  0.49882049328E+03  0.50400001928E-02 0. -1.
       -1    1    3    3    0  502 -0.44264633604E+03  0.22744462605E+03  0.12199997302E+03  0.51239714106E+03  0.50400001928E-02 0.  1.
</event>
<event>
 5   0  0.2484904E-04  0.9998209E+03  0.7818609E-02  0.9308741E-01
        2   -1    0    0  501    0  0.00000000000E+00  0.00000000000E+00  0.83758696757E+03  0.83758696757E+03  0.25500000920E-02 0.  1.
       -2   -1    0    0    0  501  0.00000000000E+00  0.00000000000E+00 -0.29836959337E+03  0.29836959339E+03  0.25500000920E-02 0. -1.
    10030    2    1    2    0    0  0.00000000000E+00  0.00000000000E+00  0.53921737419E+03  0.11359565610E+04  0.99982094985E+03 0.  0.
        3    1    3    3  502    0 -0.46438602804E+03 -0.18012228741E+03  0.31797296775E+03  0.59093590167E+03  0.10100000352E+00 0. -1.
       -3    1    3    3    0  502  0.46438602804E+03  0.18012228741E+03  0.22124440645E+03  0.54502065929E+03  0.10100000352E+00 0.  1.
</event>
<event>
 5   0  0.9650500E-05  0.1000174E+04  0.7818609E-02  0.9308354E-01
       -3   -1    0    0    0  501  0.00000000000E+00  0.00000000000E+00  0.24529862705E+03  0.24529864784E+03  0.10100000352E+00 0. -1.
        3   -1    0    0  501    0  0.00000000000E+00  0.00000000000E+00 -0.10195200501E+04  0.10195200551E+04  0.10100000352E+00 0.  1.
    10030    2    1    2    0    0  0.00000000000E+00  0.00000000000E+00 -0.77422142303E+03  0.12648187029E+04  0.10001737546E+04 0.  0.
        1    1    3    3  502    0  0.36857187065E+03  0.16553498508E+03 -0.75977030540E+03  0.86052191844E+03  0.50400001928E-02 0.  1.
       -1    1    3    3    0  502 -0.36857187065E+03 -0.16553498508E+03 -0.14451117625E+02  0.40429678448E+03  0.50400001928E-02 0. -1.
</event>
<event>
 5   0  0.2484904E-04  0.1000457E+04  0.7818609E-02  0.9308044E-01
        2   -1    0    0  501    0  0.00000000000E+00  0.00000000000E+00  0.10382177859E+04  0.10382177859E+04  0.25500000920E-02 0.  1.
       -2   -1    0    0    0  501  0.00000000000E+00  0.00000000000E+00 -0.24101720679E+03  0.24101720681E+03  0.25500000920E-02 0. -1.
    10030    2    1    2    0    0  0.00000000000E+00  0.00000000000E+00  0.79720057906E+03  0.12792349927E+04  0.10004565974E+04 0.  0.
        3    1    3    3  502    0 -0.41445954997E+03  0.17241346644E+02  0.75606129965E+03  0.86238198127E+03  0.10100000352E+00 0.  1.
       -3    1    3    3    0  502  0.41445954997E+03 -0.17241346644E+02  0.41139279410E+02  0.41685301139E+03  0.10100000352E+00 0. -1.
</event>
<event>
 5   0  0.2473312E-04  0.1000996E+04  0.7818609E-02  0.9307453E-01
       -2   -1    0    0    0  501  0.00000000000E+00  0.00000000000E+00  0.51721945259E+03  0.51721945260E+03  0.25500000920E-02 0.  1.
        2   -1    0    0  501    0  0.00000000000E+00  0.00000000000E+00 -0.48431685544E+03  0.48431685545E+03  0.25500000920E-02 0. -1.
    10030    2    1    2    0    0  0.00000000000E+00  0.00000000000E+00  0.32902597152E+02  0.10015363080E+04  0.10009957020E+04 0.  0.
        5    1    3    3  502    0 -0.34022381467E+03 -0.39639101520E+02 -0.34864645293E+03  0.48877391663E+03  0.46999998093E+01 0. -1.
       -5    1    3    3    0  502  0.34022381467E+03  0.39639101520E+02  0.38154905008E+03  0.51276239142E+03  0.46999998093E+01 0.  1.
</event>
<event>
 5   0  0.1506454E-04  0.1000024E+04  0.7818609E-02  0.9308519E-01
       -1   -1    0    0    0  501  0.00000000000E+00  0.00000000000E+00  0.19534835681E+03  0.19534835688E+03  0.50400001928E-02 0. -1.
        1   -1    0    0  501    0  0.00000000000E+00  0.00000000000E+00 -0.12798254244E+04  0.12798254244E+04  0.50400001928E-02 0.  1.
    10030    2    1    2    0    0  0.00000000000E+00  0.00000000000E+00 -0.10844770676E+04  0.14751737813E+04  0.10000235872E+04 0.  0.
        3    1    3    3  502    0 -0.48203427341E+02  0.73840646855E+02  0.18378730979E+03  0.20384748459E+03  0.10100000352E+00 0. -1.
       -3    1    3    3    0  502  0.48203427341E+02 -0.73840646855E+02 -0.12682643774E+04  0.12713262967E+04  0.10100000352E+00 0.  1.
</event>
<event>
 5   0  0.9650500E-05  0.1000054E+04  0.7818609E-02  0.9308486E-01
       -3   -1    0    0    0  501  0.00000000000E+00  0.00000000000E+00  0.10255802563E+04  0.10255802612E+04  0.10100000352E+00 0. -1.
        3   -1    0    0  501    0  0.00000000000E+00  0.00000000000E+00 -0.24379073063E+03  0.24379075155E+03  0.10100000352E+00 0.  1.
    10030    2    1    2    0    0  0.00000000000E+00  0.00000000000E+00  0.78178952563E+03  0.12693710128E+04  0.10000539514E+04 0.  0.
        4    1    3    3  502    0  0.21958323809E+03 -0.38473120531E+03  0.96508327574E+02  0.45337663039E+03  0.12699999809E+01 0.  1.
       -4    1    3    3    0  502 -0.21958323809E+03  0.38473120531E+03  0.68528119806E+03  0.81599438239E+03  0.12699999809E+01 0. -1.
</event>
<event>
 5   0  0.1461334E-04  0.1000317E+04  0.7818609E-02  0.9308197E-01
        1   -1    0    0  501    0  0.00000000000E+00  0.00000000000E+00  0.10100491873E+04  0.10100491874E+04  0.50400001928E-02 0.  1.
       -1   -1    0    0    0  501  0.00000000000E+00  0.00000000000E+00 -0.24766961900E+03  0.24766961905E+03  0.50400001928E-02 0. -1.
    10030    2    1    2    0    0  0.00000000000E+00  0.00000000000E+00  0.76237956835E+03  0.12577188064E+04  0.10003169447E+04 0.  0.
        2    1    3    3  502    0 -0.33498741195E+03 -0.25199650790E+03  0.72423250718E+03  0.83679838111E+03  0.25500000920E-02 0.  1.
       -2    1    3    3    0  502  0.33498741195E+03  0.25199650790E+03  0.38147061169E+02  0.42092042531E+03  0.25500000920E-02 0. -1.
</event>
<event>
 5   0  0.1414165E-04  0.9999726E+03  0.7818609E-02  0.9308575E-01
       -1   -1    0    0    0  501  0.00000000000E+00  0.00000000000E+00  0.94849926727E+03  0.94849926729E+03  0.50400001928E-02 0.  1.
        1   -1    0    0  501    0  0.00000000000E+00  0.00000000000E+00 -0.26355980435E+03  0.26355980439E+03  0.50400001928E-02 0. -1.
    10030    2    1    2    0    0  0.00000000000E+00  0.00000000000E+00  0.68493946293E+03  0.12120590717E+04  0.99997256231E+03 0.  0.
        4    1    3    3  502    0  0.15254307448E+03 -0.25472835824E+03  0.83006954644E+03  0.88157415507E+03  0.12699999809E+01 0.  1.
       -4    1    3    3    0  502 -0.15254307448E+03  0.25472835824E+03 -0.14513008351E+03  0.33048491661E+03  0.12699999809E+01 0. -1.
</event>
<event>
 5   0  0.2484904E-04  0.9999729E+03  0.7818609E-02  0.9308575E-01
        2   -1    0    0  501    0  0.00000000000E+00  0.00000000000E+00  0.98170745232E+03  0.98170745232E+03  0.25500000920E-02 0.  1.
       -2   -1    0    0    0  501  0.00000000000E+00  0.00000000000E+00 -0.25464455522E+03  0.25464455524E+03  0.25500000920E-02 0. -1.
    10030    2    1    2    0    0  0.00000000000E+00  0.00000000000E+00  0.72706289709E+03  0.12363520076E+04  0.99997291476E+03 0.  0.
        3    1    3    3  502    0  0.28676870104E+03  0.31543600929E+02 -0.14135480121E+03  0.32126698660E+03  0.10100000352E+00 0. -1.
       -3    1    3    3    0  502 -0.28676870104E+03 -0.31543600929E+02  0.86841769830E+03  0.91508502095E+03  0.10100000352E+00 0.  1.
</event>
<event>
 5   0  0.2484904E-04  0.9996066E+03  0.7818609E-02  0.9308976E-01
       -2   -1    0    0    0  501  0.00000000000E+00  0.00000000000E+00  0.11662263098E+04  0.11662263098E+04  0.25500000920E-02 0. -1.
        2   -1    0    0  501    0  0.00000000000E+00  0.00000000000E+00 -0.21419799581E+03  0.21419799582E+03  0.25500000920E-02 0.  1.
    10030    2    1    2    0    0  0.00000000000E+00  0.00000000000E+00  0.95202831401E+03  0.13804243056E+04  0.99960659909E+03 0.  0.
        3    1    3    3  502    0  0.34586706876E+03  0.34511641656E+03  0.62133734450E+03  0.79043625682E+03  0.10100000352E+00 0. -1.
       -3    1    3    3    0  502 -0.34586706876E+03 -0.34511641656E+03  0.33069096952E+03  0.58998804882E+03  0.10100000352E+00 0.  1.
</event>
<event>
 5   0  0.2403037E-04  0.1000310E+04  0.7818609E-02  0.9308205E-01
        2   -1    0    0  501    0  0.00000000000E+00  0.00000000000E+00  0.39480980083E+03  0.39480980084E+03  0.25500000920E-02 0.  1.
       -2   -1    0    0    0  501  0.00000000000E+00  0.00000000000E+00 -0.63360909890E+03  0.63360909890E+03  0.25500000920E-02 0. -1.
    10030    2    1    2    0    0  0.00000000000E+00  0.00000000000E+00 -0.23879929807E+03  0.10284188997E+04  0.10003101162E+04 0.  0.
        1    1    3    3  502    0  0.99323395716E+02  0.12394673298E+03 -0.60699137917E+03  0.62742845326E+03  0.50400001928E-02 0. -1.
       -1    1    3    3    0  502 -0.99323395716E+02 -0.12394673298E+03  0.36819208110E+03  0.40099044647E+03  0.50400001928E-02 0.  1.
</event>
<event>
 5   0  0.1453863E-04  0.9997548E+03  0.7818609E-02  0.9308814E-01
        1   -1    0    0  501    0  0.00000000000E+00  0.00000000000E+00  0.51910431609E+03  0.51910431612E+03  0.50400001928E-02 0.  1.
       -1   -1    0    0    0  501  0.00000000000E+00  0.00000000000E+00 -0.48136258838E+03  0.48136258841E+03  0.50400001928E-02 0. -1.
    10030    2    1    2    0    0  0.00000000000E+00  0.00000000000E+00  0.37741727716E+02  0.10004669045E+04  0.99975476445E+03 0.  0.
        1    1    3    3  502    0 -0.13270756115E+03  0.64092370156E+02 -0.45912853500E+03  0.48220134837E+03  0.50400001928E-02 0. -1.
       -1    1    3    3    0  502  0.13270756115E+03 -0.64092370156E+02  0.49687026271E+03  0.51826555615E+03  0.50400001928E-02 0.  1.
</event>
<event>
 5   0  0.2503680E-04  0.1000333E+04  0.7818609E-02  0.9308179E-01
       -2   -1    0    0    0  501  0.00000000000E+00  0.00000000000E+00  0.35507798484E+03  0.35507798485E+03  0.25500000920E-02 0. -1.
        2   -1    0    0  501    0  0.00000000000E+00  0.00000000000E+00 -0.70453997682E+03  0.70453997682E+03  0.25500000920E-02 0.  1.
    10030    2    1    2    0    0  0.00000000000E+00  0.00000000000E+00 -0.34946199198E+03  0.10596179617E+04  0.10003332149E+04 0.  0.
        2    1    3    3  502    0  0.32509163423E+02 -0.49273071668E+03 -0.90479596681E+02  0.50202287028E+03  0.25500000920E-02 0. -1.
       -2    1    3    3    0  502 -0.32509163423E+02  0.49273071668E+03 -0.25898239530E+03  0.55759509139E+03  0.25500000920E-02 0.  1.
</event>
<event>
 5   0  0.2484904E-04  0.9996497E+03  0.7818609E-02  0.9308929E-01
        2   -1    0    0  501    0  0.00000000000E+00  0.00000000000E+00  0.16753502274E+04  0.16753502274E+04  0.25500000920E-02 0. -1.
       -2   -1    0    0    0  501  0.00000000000E+00  0.00000000000E+00 -0.14911800675E+03  0.14911800677E+03  0.25500000920E-02 0.  1.
    10030    2    1    2    0    0  0.00000000000E+00  0.00000000000E+00  0.15262322206E+04  0.18244682341E+04  0.99964971170E+03 0.  0.
        3    1    3    3  502    0 -0.15145782927E+03  0.17917468090E+02 -0.10561277952E+03  0.18551166839E+03  0.10100000352E+00 0.  1.
       -3    1    3    3    0  502  0.15145782927E+03 -0.17917468090E+02  0.16318450001E+04  0.16389565657E+04  0.10100000352E+00 0. -1.
</event>
<event>
 5   0  0.1453863E-04  0.1000091E+04  0.7818609E-02  0.9308445E-01
        1   -1    0    0  501    0  0.00000000000E+00  0.00000000000E+00  0.51355690328E+03  0.51355690330E+03  0.50400001928E-02 0. -1.
       -1   -1    0    0    0  501  0.00000000000E+00  0.00000000000E+00 -0.48688945587E+03  0.48688945589E+03  0.50400001928E-02 0.  1.
    10030    2    1    2    0    0  0.00000000000E+00  0.00000000000E+00  0.26667447410E+02  0.10004463592E+04  0.10000908783E+04 0.  0.
        1    1    3    3  502    0  0.11818652797E+03  0.26424351451E+02 -0.47199760596E+03  0.48728640633E+03  0.50400001928E-02 0.  1.
       -1    1    3    3    0  502 -0.11818652797E+03 -0.26424351451E+02  0.49866505337E+03  0.51315995286E+03  0.50400001928E-02 0. -1.
</event>
<event>
 5   0  0.2353916E-04  0.9999945E+03  0.7818609E-02  0.9308551E-01
        2   -1    0    0  501    0  0.00000000000E+00  0.00000000000E+00  0.19502502902E+04  0.19502502902E+04  0.25500000920E-02 0. -1.
       -2   -1    0    0    0  501  0.00000000000E+00  0.00000000000E+00 -0.12818726319E+03  0.12818726322E+03  0.25500000920E-02 0.  1.
    10030    2    1    2    0    0  0.00000000000E+00  0.00000000000E+00  0.18220630270E+04  0.20784375534E+04  0.99999449453E+03 0.  0.
        4    1    3    3  502    0 -0.80115915167E+02  0.13689314622E+02  0.19364247512E+04  0.19381301265E+04  0.12699999809E+01 0. -1.
       -4    1    3    3    0  502  0.80115915167E+02 -0.13689314622E+02 -0.11436172419E+03  0.14030742695E+03  0.12699999809E+01 0.  1.
</event>
<event>
 5   0  0.1430675E-04  0.1000183E+04  0.7818609E-02  0.9308344E-01
       -1   -1    0    0    0  501  0.00000000000E+00  0.00000000000E+00  0.19437380651E+03  0.19437380657E+03  0.50400001928E-02 0.  1.
        1   -1    0    0  501    0  0.00000000000E+00  0.00000000000E+00 -0.12866520118E+04  0.12866520118E+04  0.50400001928E-02 0. -1.
    10030    2    1    2    0    0  0.00000000000E+00  0.00000000000E+00 -0.10922782053E+04  0.14810258184E+04  0.10001828818E+04 0.  0.
        5    1    3    3  502    0  0.23526864260E+03  0.35780355435E+03 -0.92854861230E+03  0.10225455164E+04  0.46999998093E+01 0. -1.
       -5    1    3    3    0  502 -0.23526864260E+03 -0.35780355435E+03 -0.16372959300E+03  0.45848030199E+03  0.46999998093E+01 0.  1.
</event>
<event>
 5   0  0.2473312E-04  0.1000944E+04  0.7818609E-02  0.9307510E-01
        2   -1    0    0  501    0  0.00000000000E+00  0.00000000000E+00  0.27621963737E+04  0.27621963737E+04  0.25500000920E-02 0.  1.
       -2   -1    0    0    0  501  0.00000000000E+00  0.00000000000E+00 -0.90678726241E+02  0.90678726277E+02  0.25500000920E-02 0. -1.
    10030    2    1    2    0    0  0.00000000000E+00  0.00000000000E+00  0.26715176475E+04  0.28528751000E+04  0.10009444517E+04 0.  0.
        5    1    3    3  502    0  0.47981858511E+03  0.18107887157E+02  0.17377921847E+04  0.18029136245E+04  0.46999998093E+01 0.  1.
       -5    1    3    3    0  502 -0.47981858511E+03 -0.18107887157E+02  0.93372546278E+03  0.10499614755E+04  0.46999998093E+01 0. -1.
</event>
<event>
 5   0  0.2353916E-04  0.9992968E+03  0.7818609E-02  0.9309316E-01
       -2   -1    0    0    0  501  0.00000000000E+00  0.00000000000E+00  0.82945777803E+03  0.82945777804E+03  0.25500000920E-02 0.  1.
        2   -1    0    0  501    0  0.00000000000E+00  0.00000000000E+00 -0.30097799519E+03  0.30097799520E+03  0.25500000920E-02 0. -1.
    10030    2    1    2    0    0  0.00000000000E+00  0.00000000000E+00  0.52847978284E+03  0.11304357732E+04  0.99929683104E+03 0.  0.
        4    1    3    3  502    0 -0.15388418597E+02 -0.48629835067E+03  0.13563707562E+03  0.50509594977E+03  0.12699999809E+01 0. -1.
       -4    1    3    3    0  502  0.15388418597E+02  0.48629835067E+03  0.39284270723E+03  0.62533982347E+03  0.12699999809E+01 0.  1.
</event>
<event>
 5   0  0.2484904E-04  0.1001551E+04  0.7818609E-02  0.9306845E-01
       -2   -1    0    0    0  501  0.00000000000E+00  0.00000000000E+00  0.10735146373E+03  0.10735146376E+03  0.25500000920E-02 0. -1.
        2   -1    0    0  501    0  0.00000000000E+00  0.00000000000E+00 -0.23360310334E+04  0.23360310334E+04  0.25500000920E-02 0.  1.
    10030    2    1    2    0    0  0.00000000000E+00  0.00000000000E+00 -0.22286795697E+04  0.24433824972E+04  0.10015514980E+04 0.  0.
        3    1    3    3  502    0 -0.34587585534E+03  0.25765228978E+03 -0.17351755485E+04  0.17879734349E+04  0.10100000352E+00 0.  1.
       -3    1    3    3    0  502  0.34587585534E+03 -0.25765228978E+03 -0.49350402117E+03  0.65540906222E+03  0.10100000352E+00 0. -1.
</event>
<event>
 5   0  0.2484904E-04  0.9999057E+03  0.7818609E-02  0.9308648E-01
        2   -1    0    0  501    0  0.00000000000E+00  0.00000000000E+00  0.56916703389E+03  0.56916703390E+03  0.25500000920E-02 0. -1.
       -2   -1    0    0    0  501  0.00000000000E+00  0.00000000000E+00 -0.43915553481E+03  0.43915553481E+03  0.25500000920E-02 0.  1.
    10030    2    1    2    0    0  0.00000000000E+00  0.00000000000E+00  0.13001149908E+03  0.10083225687E+04  0.99990570189E+03 0.  0.
        3    1    3    3  502    0  0.12566498391E+03 -0.70180388041E+02 -0.41781033382E+03  0.44190775089E+03  0.10100000352E+00 0.  1.
       -3    1    3    3    0  502 -0.12566498391E+03  0.70180388041E+02  0.54782183290E+03  0.56641481783E+03  0.10100000352E+00 0. -1.
</event>
<event>
 5   0  0.2353916E-04  0.9998396E+03  0.7818609E-02  0.9308721E-01
       -2   -1    0    0    0  501  0.00000000000E+00  0.00000000000E+00  0.15754961343E+03  0.15754961345E+03  0.25500000920E-02 0. -1.
        2   -1    0    0  501    0  0.00000000000E+00  0.00000000000E+00 -0.15862927400E+04  0.15862927400E+04  0.25500000920E-02 0.  1.
    10030    2    1    2    0    0  0.00000000000E+00  0.00000000000E+00 -0.14287431266E+04  0.17438423534E+04  0.99983960311E+03 0.  0.
        4    1    3    3  502    0 -0.12635857236E+03 -0.46345100131E+03 -0.47292007345E+03  0.67409815917E+03  0.12699999809E+01 0. -1.
       -4    1    3    3    0  502  0.12635857236E+03  0.46345100131E+03 -0.95582305311E+03  0.10697441943E+04  0.12699999809E+01 0.  1.
</event>
<event>
 5   0  0.2484904E-04  0.1000115E+04  0.7818609E-02  0.9308418E-01
       -2   -1    0    0    0  501  0.00000000000E+00  0.00000000000E+00  0.43844772234E+03  0.43844772235E+03  0.25500000920E-02 0. -1.
        2   -1    0    0  501    0  0.00000000000E+00  0.00000000000E+00 -0.57032484034E+03  0.57032484034E+03  0.25500000920E-02 0.  1.
    10030    2    1    2    0    0  0.00000000000E+00  0.00000000000E+00 -0.13187711799E+03  0.10087725627E+04  0.10001152479E+04 0.  0.
        3    1    3    3  502    0  0.37335727471E+03  0.32690125863E+03 -0.12809609575E+03  0.51251215343E+03  0.10100000352E+00 0.  1.
       -3    1    3    3    0  502 -0.37335727471E+03 -0.32690125863E+03 -0.37810222387E+01  0.49626040926E+03  0.10100000352E+00 0. -1.
</event>
<event>
 5   0  0.9650500E-05  0.9988748E+03  0.7818609E-02  0.9309780E-01
       -3   -1    0    0    0  501  0.00000000000E+00  0.00000000000E+00  0.42525112029E+03  0.42525113228E+03  0.10100000352E+00 0. -1.
        3   -1    0    0  501    0  0.00000000000E+00  0.00000000000E+00 -0.58656569772E+03  0.58656570641E+03  0.10100000352E+00 0.  1.
    10030    2    1    2    0    0  0.00000000000E+00  0.00000000000E+00 -0.16131457743E+03  0.10118168387E+04  0.99887482808E+03 0.  0.
        1    1    3    3  502    0 -0.42786443427E+03  0.17212347591E+03  0.11351162855E+03  0.47495195011E+03  0.50400001928E-02 0. -1.
       -1    1    3    3    0  502  0.42786443427E+03 -0.17212347591E+03 -0.27482620598E+03  0.53686488858E+03  0.50400001928E-02 0.  1.
</event>
<event>
 5   0  0.1430675E-04  0.9998805E+03  0.7818609E-02  0.9308676E-01
        1   -1    0    0  501    0  0.00000000000E+00  0.00000000000E+00  0.74306123758E+03  0.74306123760E+03  0.50400001928E-02 0.  1.
       -1   -1    0    0    0  501  0.00000000000E+00  0.00000000000E+00 -0.33636561536E+03  0.33636561539E+03  0.50400001928E-02 0. -1.
    10030    2    1    2    0    0  0.00000000000E+00  0.00000000000E+00  0.40669562222E+03  0.10794268530E+04  0.99988049377E+03 0.  0.
        5    1    3    3  502    0 -0.61100450948E+02 -0.48811757493E+03  0.29945938153E+03  0.57592537993E+03  0.46999998093E+01 0.  1.
       -5    1    3    3    0  502  0.61100450948E+02  0.48811757493E+03  0.10723624070E+03  0.50350147306E+03  0.46999998093E+01 0. -1.
</event>
<event>
 5   0  0.2403037E-04  0.9999832E+03  0.7818609E-02  0.9308563E-01
        2   -1    0    0  501    0  0.00000000000E+00  0.00000000000E+00  0.11130169064E+04  0.11130169064E+04  0.25500000920E-02 0. -1.
       -2   -1    0    0    0  501  0.00000000000E+00  0.00000000000E+00 -0.22460721031E+03  0.22460721033E+03  0.25500000920E-02 0.  1.
    10030    2    1    2    0    0  0.00000000000E+00  0.00000000000E+00  0.88840969605E+03  0.13376241167E+04  0.99998324462E+03 0.  0.
        1    1    3    3  502    0 -0.40689372908E+03 -0.19074101222E+03  0.15099778818E+03  0.47407275030E+03  0.50400001928E-02 0.  1.
       -1    1    3    3    0  502  0.40689372908E+03  0.19074101222E+03  0.73741190787E+03  0.86355136640E+03  0.50400001928E-02 0. -1.
</event>
<event>
 5   0  0.1453863E-04  0.9999014E+03  0.7818609E-02  0.9308653E-01
        1   -1    0    0  501    0  0.00000000000E+00  0.00000000000E+00  0.58448194483E+03  0.58448194485E+03  0.50400001928E-02 0. -1.
       -1   -1    0    0    0  501  0.00000000000E+00  0.00000000000E+00 -0.42764487204E+03  0.42764487207E+03  0.50400001928E-02 0.  1.
    10030    2    1    2    0    0  0.00000000000E+00  0.00000000000E+00  0.15683707279E+03  0.10121268169E+04  0.99990140820E+03 0.  0.
        1    1    3    3  502    0  0.79686375223E+02 -0.27375516371E+03 -0.33728371983E+03  0.44164704884E+03  0.50400001928E-02 0.  1.
       -1    1    3    3    0  502 -0.79686375223E+02  0.27375516371E+03  0.49412079262E+03  0.57047976808E+03  0.50400001928E-02 0. -1.
</event>
<event>
 5   0  0.2353916E-04  0.9998304E+03  0.7818609E-02  0.9308731E-01
       -2   -1    0    0    0  501  0.00000000000E+00  0.00000000000E+00  0.48685569410E+03  0.48685569411E+03  0.25500000920E-02 0. -1.
        2   -1    0    0  501    0  0.00000000000E+00  0.00000000000E+00 -0.51332506367E+03  0.51332506368E+03  0.25500000920E-02 0.  1.
    10030    2    1    2    0    0  0.00000000000E+00  0.00000000000E+00 -0.26469369569E+02  0.10001807578E+04  0.99983044598E+03 0.  0.
        4    1    3    3  502    0  0.29941175093E+02 -0.80710700026E+02 -0.50585308484E+03  0.51312732085E+03  0.12699999809E+01 0.  1.
       -4    1    3    3    0  502 -0.29941175093E+02  0.80710700026E+02  0.47938371527E+03  0.48705343693E+03  0.12699999809E+01 0. -1.
</event>
<event>
 5   0  0.2353916E-04  0.1000437E+04  0.7818609E-02  0.9308066E-01
        2   -1    0    0  501    0  0.00000000000E+00  0.00000000000E+00  0.13922330119E+04  0.13922330119E+04  0.25500000920E-02 0.  1.
       -2   -1    0    0    0  501  0.00000000000E+00  0.00000000000E+00 -0.17972456047E+03  0.17972456049E+03  0.25500000920E-02 0. -1.
    10030    2    1    2    0    0  0.00000000000E+00  0.00000000000E+00  0.12125084514E+04  0.15719575724E+04  0.10004368369E+04 0.  0.
        4    1    3    3  502    0  0.36471109496E+02  0.41641844141E+03  0.10379462013E+04  0.11189586185E+04  0.12699999809E+01 0.  1.
       -4    1    3    3    0  502 -0.36471109496E+02 -0.41641844141E+03  0.17456225012E+03  0.45299895391E+03  0.12699999809E+01 0. -1.
</event>
<event>
 5   0  0.1430675E-04  0.9999581E+03  0.7818609E-02  0.9308591E-01
        1   -1    0    0  501    0  0.00000000000E+00  0.00000000000E+00  0.92012986385E+03  0.92012986386E+03  0.50400001928E-02 0. -1.
       -1   -1    0    0    0  501  0.00000000000E+00  0.00000000000E+00 -0.27167801970E+03  0.27167801975E+03  0.50400001928E-02 0.  1.
    10030    2    1    2    0    0  0.00000000000E+00  0.00000000000E+00  0.64845184415E+03  0.11918078836E+04  0.99995811776E+03 0.  0.
        5    1    3    3  502    0  0.17909183510E+02  0.48792691385E+03  0.45239113696E+03  0.66563747109E+03  0.46999998093E+01 0. -1.
       -5    1    3    3    0  502 -0.17909183510E+02 -0.48792691385E+03  0.19606070719E+03  0.52617041253E+03  0.46999998093E+01 0.  1.
</event>
<event>
 5   0  0.2353916E-04  0.9999940E+03  0.7818609E-02  0.9308551E-01
       -2   -1    0    0    0  501  0.00000000000E+00  0.00000000000E+00  0.21587567688E+03  0.21587567690E+03  0.25500000920E-02 0. -1.
        2   -1    0    0  501    0  0.00000000000E+00  0.00000000000E+00 -0.11580600526E+04  0.11580600526E+04  0.25500000920E-02 0.  1.
    10030    2    1    2    0    0  0.00000000000E+00  0.00000000000E+00 -0.94218437572E+03  0.13739357295E+04  0.99999399546E+03 0.  0.
        4    1    3    3  502    0 -0.14217213397E+03  0.20791739875E+03 -0.10645227919E+04  0.10939163349E+04  0.12699999809E+01 0.  1.
       -4    1    3    3    0  502  0.14217213397E+03 -0.20791739875E+03  0.12233841618E+03  0.28001939461E+03  0.12699999809E+01 0. -1.
</event>
<event>
 5   0  0.2403037E-04  0.1000575E+04  0.7818609E-02  0.9307915E-01
        2   -1    0    0  501    0  0.00000000000E+00  0.00000000000E+00  0.51328491709E+03  0.51328491709E+03  0.25500000920E-02 0.  1.
       -2   -1    0    0    0  501  0.00000000000E+00  0.00000000000E+00 -0.48761901846E+03  0.48761901847E+03  0.25500000920E-02 0. -1.
    10030    2    1    2    0    0  0.00000000000E+00  0.00000000000E+00  0.25665898623E+02  0.10009039356E+04  0.10005748097E+04 0.  0.
        1    1    3    3  502    0 -0.79903020801E+02  0.41896617035E+03 -0.24873029209E+03  0.49374477502E+03  0.50400001928E-02 0. -1.
       -1    1    3    3    0  502  0.79903020801E+02 -0.41896617035E+03  0.27439619071E+03  0.50715916055E+03  0.50400001928E-02 0.  1.
</event>
<event>
 5   0  0.1414165E-04  0.1001450E+04  0.7818609E-02  0.9306956E-01
       -1   -1    0    0    0  501  0.00000000000E+00  0.00000000000E+00  0.38543952064E+03  0.38543952067E+03  0.50400001928E-02 0. -1.
        1   -1    0    0  501    0  0.00000000000E+00  0.00000000000E+00 -0.65049235977E+03  0.65049235979E+03  0.50400001928E-02 0.  1.
    10030    2    1    2    0    0  0.00000000000E+00  0.00000000000E+00 -0.26505283913E+03  0.10359318805E+04  0.10014498756E+04 0.  0.
        4    1    3    3  502    0 -0.43719858573E+03 -0.24149879472E+03 -0.16923898460E+03  0.52735919260E+03  0.12699999809E+01 0. -1.
       -4    1    3    3    0  502  0.43719858573E+03  0.24149879472E+03 -0.95813854526E+02  0.50857268786E+03  0.12699999809E+01 0.  1.
</event>
<event>
 5   0  0.9650500E-05  0.9998753E+03  0.7818609E-02  0.9308682E-01
       -3   -1    0    0    0  501  0.00000000000E+00  0.00000000000E+00  0.28487032650E+03  0.28487034441E+03  0.10100000352E+00 0. -1.
        3   -1    0    0  501    0  0.00000000000E+00  0.00000000000E+00 -0.87737343437E+03  0.87737344019E+03  0.10100000352E+00 0.  1.
    10030    2    1    2    0    0  0.00000000000E+00  0.00000000000E+00 -0.59250310787E+03  0.11622437846E+04  0.99987533322E+03 0.  0.
        2    1    3    3  502    0 -0.48577503488E+03  0.43121023092E+02 -0.42411887194E+03  0.64630768577E+03  0.25500000920E-02 0. -1.
       -2    1    3    3    0  502  0.48577503488E+03 -0.43121023092E+02 -0.16838423593E+03  0.51593609882E+03  0.25500000920E-02 0.  1.
</event>
<event>
 5   0  0.1506454E-04  0.9988857E+03  0.7818609E-02  0.9309768E-01
        1   -1    0    0  501    0  0.00000000000E+00  0.00000000000E+00  0.14481210952E+04  0.14481210953E+04  0.50400001928E-02 0.  1.
       -1   -1    0    0    0  501  0.00000000000E+00  0.00000000000E+00 -0.17225297903E+03  0.17225297910E+03  0.50400001928E-02 0. -1.
    10030    2    1    2    0    0  0.00000000000E+00  0.00000000000E+00  0.12758681162E+04  0.16203740744E+04  0.99888572462E+03 0.  0.
        3    1    3    3  502    0  0.12781697968E+03  0.44457096772E+03  0.94341561262E+03  0.10507204928E+04  0.10100000352E+00 0.  1.
       -3    1    3    3    0  502 -0.12781697968E+03 -0.44457096772E+03  0.33245250360E+03  0.56965358156E+03  0.10100000352E+00 0. -1.
</event>
<event>
 5   0  0.2353916E-04  0.9995178E+03  0.7818609E-02  0.9309074E-01
       -2   -1    0    0    0  501  0.00000000000E+00  0.00000000000E+00  0.90197618510E+02  0.90197618546E+02  0.25500000920E-02 0. -1.
        2   -1    0    0  501    0  0.00000000000E+00  0.00000000000E+00 -0.27690193126E+04  0.27690193126E+04  0.25500000920E-02 0.  1.
    10030    2    1    2    0    0  0.00000000000E+00  0.00000000000E+00 -0.26788216941E+04  0.28592169311E+04  0.99951777904E+03 0.  0.
        4    1    3    3  502    0  0.82989523395E+02 -0.35590949279E+03 -0.36429355778E+03  0.51601379554E+03  0.12699999809E+01 0. -1.
       -4    1    3    3    0  502 -0.82989523395E+02  0.35590949279E+03 -0.23145281363E+04  0.23432031356E+04  0.12699999809E+01 0.  1.
</event>
<event>
 5   0  0.2403037E-04  0.1000411E+04  0.7818609E-02  0.9308094E-01
       -2   -1    0    0    0  501  0.00000000000E+00  0.00000000000E+00  0.24367835079E+03  0.24367835080E+03  0.25500000920E-02 0.  1.
        2   -1    0    0  501    0  0.00000000000E+00  0.00000000000E+00 -0.10267856584E+04  0.10267856585E+04  0.25500000920E-02 0. -1.
    10030    2    1    2    0    0  0.00000000000E+00  0.00000000000E+00 -0.78310730766E+03  0.12704640093E+04  0.10004107874E+04 0.  0.
        1    1    3    3  502    0 -0.37070127903E+03 -0.51482513823E+01 -0.81799622957E+03  0.89808895683E+03  0.50400001928E-02 0. -1.
       -1    1    3    3    0  502  0.37070127903E+03  0.51482513823E+01  0.34888921907E+02  0.37237505242E+03  0.50400001928E-02 0.  1.
</event>
<event>
 5   0  0.2503680E-04  0.9999599E+03  0.7818609E-02  0.9308589E-01
       -2   -1    0    0    0  501  0.00000000000E+00  0.00000000000E+00  0.33783561479E+03  0.33783561480E+03  0.25500000920E-02 0. -1.
        2   -1    0    0  501    0  0.00000000000E+00  0.00000000000E+00 -0.73994547228E+03  0.73994547229E+03  0.25500000920E-02 0.  1.
    10030    2    1    2    0    0  0.00000000000E+00  0.00000000000E+00 -0.40210985749E+03  0.10777810871E+04  0.99995986629E+03 0.  0.
        2    1    3    3  502    0 -0.33612621779E+03  0.34432852501E+03 -0.34740492555E+03  0.59349233334E+03  0.25500000920E-02 0.  1.
       -2    1    3    3    0  502  0.33612621779E+03 -0.34432852501E+03 -0.54704931940E+02  0.48428875375E+03  0.25500000920E-02 0. -1.
</event>
<event>
 5   0  0.2473312E-04  0.1000473E+04  0.7818609E-02  0.9308026E-01
       -2   -1    0    0    0  501  0.00000000000E+00  0.00000000000E+00  0.14820984643E+04  0.14820984643E+04  0.25500000920E-02 0.  1.
        2   -1    0    0  501    0  0.00000000000E+00  0.00000000000E+00 -0.16883927935E+03  0.16883927937E+03  0.25500000920E-02 0. -1.
    10030    2    1    2    0    0  0.00000000000E+00  0.00000000000E+00  0.13132591849E+04  0.16509377437E+04  0.10004727615E+04 0.  0.
        5    1    3    3  502    0 -0.35899276493E+03  0.27149844226E+03  0.29650509431E+03  0.53900331203E+03  0.46999998093E+01 0. -1.
       -5    1    3    3    0  502  0.35899276493E+03 -0.27149844226E+03  0.10167540906E+04  0.11119344316E+04  0.46999998093E+01 0.  1.
</event>
<event>
 5   0  0.2503680E-04  0.9999801E+03  0.7818609E-02  0.9308567E-01
        2   -1    0    0  501    0  0.00000000000E+00  0.00000000000E+00  0.42876638356E+03  0.42876638357E+03  0.25500000920E-02 0.  1.
       -2   -1    0    0    0  501  0.00000000000E+00  0.00000000000E+00 -0.58304494444E+03  0.58304494444E+03  0.25500000920E-02 0. -1.
    10030    2    1    2    0    0  0.00000000000E+00  0.00000000000E+00 -0.15427856087E+03  0.10118113280E+04  0.99998014438E+03 0.  0.
        2    1    3    3  502    0  0.31296281252E+02  0.15285065382E+03 -0.55778294729E+03  0.57919305580E+03  0.25500000920E-02 0. -1.
       -2    1    3    3    0  502 -0.31296281252E+02 -0.15285065382E+03  0.40350438641E+03  0.43261827222E+03  0.25500000920E-02 0.  1.
</event>
<event>
 5   0  0.1506454E-04  0.9996497E+03  0.7818609E-02  0.9308929E-01
        1   -1    0    0  501    0  0.00000000000E+00  0.00000000000E+00  0.39862252492E+03  0.39862252495E+03  0.50400001928E-02 0.  1.
       -1   -1    0    0    0  501  0.00000000000E+00  0.00000000000E+00 -0.62672048372E+03  0.62672048374E+03  0.50400001928E-02 0. -1.
    10030    2    1    2    0    0  0.00000000000E+00  0.00000000000E+00 -0.22809795880E+03  0.10253430087E+04  0.99964974199E+03 0.  0.
        3    1    3    3  502    0  0.39129076249E+03  0.28439875524E+03 -0.24311549968E+03  0.54138366172E+03  0.10100000352E+00 0.  1.
       -3    1    3    3    0  502 -0.39129076249E+03 -0.28439875524E+03  0.15017540889E+02  0.48395934697E+03  0.10100000352E+00 0. -1.
</event>
<event>
 5   0  0.2403037E-04  0.9997617E+03  0.7818609E-02  0.9308806E-01
       -2   -1    0    0    0  501  0.00000000000E+00  0.00000000000E+00  0.30045808327E+03  0.30045808328E+03  0.25500000920E-02 0. -1.
        2   -1    0    0  501    0  0.00000000000E+00  0.00000000000E+00 -0.83166633360E+03  0.83166633360E+03  0.25500000920E-02 0.  1.
    10030    2    1    2    0    0  0.00000000000E+00  0.00000000000E+00 -0.53120825033E+03  0.11321244169E+04  0.99976171664E+03 0.  0.
        1    1    3    3  502    0 -0.45732809571E+03 -0.19220533423E+02 -0.38101480647E+02  0.45931485811E+03  0.50400001928E-02 0. -1.
       -1    1    3    3    0  502  0.45732809571E+03  0.19220533423E+02 -0.49310676968E+03  0.67280955876E+03  0.50400001928E-02 0.  1.
</event>
<event>
 5   0  0.1461334E-04  0.9999287E+03  0.7818609E-02  0.9308623E-01
       -1   -1    0    0    0  501  0.00000000000E+00  0.00000000000E+00  0.23718263159E+03  0.23718263164E+03  0.50400001928E-02 0.  1.
        1   -1    0    0  501    0  0.00000000000E+00  0.00000000000E+00 -0.10538897632E+04  0.10538897632E+04  0.50400001928E-02 0. -1.
    10030    2    1    2    0    0  0.00000000000E+00  0.00000000000E+00 -0.81670713158E+03  0.12910723948E+04  0.99992869241E+03 0.  0.
        2    1    3    3  502    0 -0.28709497669E+03 -0.39622473022E+03 -0.27575414987E+03  0.56165640178E+03  0.25500000920E-02 0.  1.
       -2    1    3    3    0  502  0.28709497669E+03  0.39622473022E+03 -0.54095298171E+03  0.72941599305E+03  0.25500000920E-02 0. -1.
</event>
<event>
 5   0  0.1414165E-04  0.1000105E+04  0.7818609E-02  0.9308430E-01
       -1   -1    0    0    0  501  0.00000000000E+00  0.00000000000E+00  0.57268946675E+03  0.57268946677E+03  0.50400001928E-02 0. -1.
        1   -1    0    0  501    0  0.00000000000E+00  0.00000000000E+00 -0.43662801279E+03  0.43662801282E+03  0.50400001928E-02 0.  1.
    10030    2    1    2    0    0  0.00000000000E+00  0.00000000000E+00  0.13606145396E+03  0.10093174796E+04  0.10001045222E+04 0.  0.
        4    1    3    3  502    0 -0.77158942653E+02 -0.20162971448E+03 -0.38717043230E+03  0.44329516210E+03  0.12699999809E+01 0.  1.
       -4    1    3    3    0  502  0.77158942653E+02  0.20162971448E+03  0.52323188627E+03  0.56602231749E+03  0.12699999809E+01 0. -1.
</event>
<event>
 5   0  0.2484904E-04  0.9999599E+03  0.7818609E-02  0.9308589E-01
        2   -1    0    0  501    0  0.00000000000E+00  0.00000000000E+00  0.42892942594E+03  0.42892942594E+03  0.25500000920E-02 0.  1.
       -2   -1    0    0    0  501  0.00000000000E+00  0.00000000000E+00 -0.58279973735E+03  0.58279973736E+03  0.25500000920E-02 0. -1.
    10030    2    1    2    0    0  0.00000000000E+00  0.00000000000E+00 -0.15387031142E+03  0.10117291633E+04  0.99995991277E+03 0.  0.
        3    1    3    3  502    0 -0.31137766167E+03  0.16463288355E+03 -0.43596362266E+03  0.56046795182E+03  0.10100000352E+00 0. -1.
       -3    1    3    3    0  502  0.31137766167E+03 -0.16463288355E+03  0.28209331124E+03  0.45126121148E+03  0.10100000352E+00 0.  1.
</event>
<event>
 5   0  0.2473312E-04  0.9995028E+03  0.7818609E-02  0.9309090E-01
       -2   -1    0    0    0  501  0.00000000000E+00  0.00000000000E+00  0.39695277360E+03  0.39695277361E+03  0.25500000920E-02 0.  1.
        2   -1    0    0  501    0  0.00000000000E+00  0.00000000000E+00 -0.62917174651E+03  0.62917174651E+03  0.25500000920E-02 0. -1.
    10030    2    1    2    0    0  0.00000000000E+00  0.00000000000E+00 -0.23221897291E+03  0.10261245201E+04  0.99950281611E+03 0.  0.
        5    1    3    3  502    0  0.36294292503E+03  0.25610974552E+03 -0.35113851892E+03  0.56625093205E+03  0.46999998093E+01 0. -1.
       -5    1    3    3    0  502 -0.36294292503E+03 -0.25610974552E+03  0.11891954602E+03  0.45987358807E+03  0.46999998093E+01 0.  1.
</event>
<event>
 5   0  0.9650500E-05  0.1000136E+04  0.7818609E-02  0.9308396E-01
       -3   -1    0    0    0  501  0.00000000000E+00  0.00000000000E+00  0.23279584091E+03  0.23279586282E+03  0.10100000352E+00 0.  1.
        3   -1    0    0  501    0  0.00000000000E+00  0.00000000000E+00 -0.10741936372E+04  0.10741936420E+04  0.10100000352E+00 0. -1.
    10030    2    1    2    0    0  0.00000000000E+00  0.00000000000E+00 -0.84139779629E+03  0.13069895048E+04  0.10001356478E+04 0.  0.
        1    1    3    3  502    0  0.45081153446E+03 -0.21631379950E+03 -0.41191997728E+03  0.64784316556E+03  0.50400001928E-02 0.  1.
       -1    1    3    3    0  502 -0.45081153446E+03  0.21631379950E+03 -0.42947781901E+03  0.65914633921E+03  0.50400001928E-02 0. -1.
</event>
<event>
 5   0  0.9650500E-05  0.1000967E+04  0.7818609E-02  0.9307485E-01
        3   -1    0    0  501    0  0.00000000000E+00  0.00000000000E+00  0.37261399426E+03  0.37261400795E+03  0.10100000352E+00 0. -1.
       -3   -1    0    0    0  501  0.00000000000E+00  0.00000000000E+00 -0.67223335722E+03  0.67223336481E+03  0.10100000352E+00 0.  1.
    10030    2    1    2    0    0  0.00000000000E+00  0.00000000000E+00 -0.29961936296E+03  0.10448473728E+04  0.10009666676E+04 0.  0.
        2    1    3    3  502    0  0.96327437343E+02  0.14205798631E+03  0.34093214526E+03  0.38169906253E+03  0.25500000920E-02 0. -1.
       -2    1    3    3    0  502 -0.96327437343E+02 -0.14205798631E+03 -0.64055150822E+03  0.66314831022E+03  0.25500000920E-02 0.  1.
</event>
<event>
 5   0  0.2473312E-04  0.1000065E+04  0.7818609E-02  0.9308474E-01
        2   -1    0    0  501    0  0.00000000000E+00  0.00000000000E+00  0.99256452344E+03  0.99256452344E+03  0.25500000920E-02 0. -1.
       -2   -1    0    0    0  501  0.00000000000E+00  0.00000000000E+00 -0.25190553995E+03  0.25190553996E+03  0.25500000920E-02 0.  1.
    10030    2    1    2    0    0  0.00000000000E+00  0.00000000000E+00  0.74065898349E+03  0.12444700634E+04  0.10000650023E+04 0.  0.
        5    1    3    3  502    0  0.44733218990E+02 -0.24170961617E+03  0.91215461940E+03  0.94470775328E+03  0.46999998093E+01 0. -1.
       -5    1    3    3    0  502 -0.44733218990E+02  0.24170961617E+03 -0.17149563591E+03  0.29976231012E+03  0.46999998093E+01 0.  1.
</event>
<event>
 5   0  0.2403037E-04  0.1000468E+04  0.7818609E-02  0.9308032E-01
        2   -1    0    0  501    0  0.00000000000E+00  0.00000000000E+00  0.24535572719E+03  0.24535572721E+03  0.25500000920E-02 0. -1.
       -2   -1    0    0    0  501  0.00000000000E+00  0.00000000000E+00 -0.10198824750E+04  0.10198824750E+04  0.25500000920E-02 0.  1.
    10030    2    1    2    0    0  0.00000000000E+00  0.00000000000E+00 -0.77452674783E+03  0.12652382022E+04  0.10004679032E+04 0.  0.
        1    1    3    3  502    0  0.49423636973E+03 -0.61960725388E+02 -0.32896213414E+03  0.59692948192E+03  0.50400001928E-02 0. -1.
       -1    1    3    3    0  502 -0.49423636973E+03  0.61960725388E+02 -0.44556461369E+03  0.66830872032E+03  0.50400001928E-02 0.  1.
</event>
<event>
 5   0  0.1414165E-04  0.1000112E+04  0.7818609E-02  0.9308422E-01
       -1   -1    0    0    0  501  0.00000000000E+00  0.00000000000E+00  0.35619805744E+03  0.35619805748E+03  0.50400001928E-02 0.  1.
        1   -1    0    0  501    0  0.00000000000E+00  0.00000000000E+00 -0.70201402257E+03  0.70201402259E+03  0.50400001928E-02 0. -1.
    10030    2    1    2    0    0  0.00000000000E+00  0.00000000000E+00 -0.34581596513E+03  0.10582120801E+04  0.10001120561E+04 0.  0.
        4    1    3    3  502    0  0.36069036496E+03 -0.18148368035E+03  0.13922162828E+03  0.42710436698E+03  0.12699999809E+01 0.  1.
       -4    1    3    3    0  502 -0.36069036496E+03  0.18148368035E+03 -0.48503759341E+03  0.63110771310E+03  0.12699999809E+01 0. -1.
</event>
<event>
 5   0  0.1430675E-04  0.1002785E+04  0.7818609E-02  0.9305495E-01
       -1   -1    0    0    0  501  0.00000000000E+00  0.00000000000E+00  0.33963712611E+03  0.33963712615E+03  0.50400001928E-02 0. -1.
        1   -1    0    0  501    0  0.00000000000E+00  0.00000000000E+00 -0.74018607952E+03  0.74018607954E+03  0.50400001928E-02 0.  1.
    10030    2    1    2    0    0  0.00000000000E+00  0.00000000000E+00 -0.40054895341E+03  0.10798232057E+04  0.10027854663E+04 0.  0.
        5    1    3    3  502    0  0.19979863333E+03 -0.45707109222E+03 -0.25453512904E+03  0.56003901573E+03  0.46999998093E+01 0. -1.
       -5    1    3    3    0  502 -0.19979863333E+03  0.45707109222E+03 -0.14601382437E+03  0.51978418996E+03  0.46999998093E+01 0.  1.
</event>
<event>
 5   0  0.2473312E-04  0.9990885E+03  0.7818609E-02  0.9309545E-01
       -2   -1    0    0    0  501  0.00000000000E+00  0.00000000000E+00  0.82809034196E+03  0.82809034196E+03  0.25500000920E-02 0.  1.
        2   -1    0    0  501    0  0.00000000000E+00  0.00000000000E+00 -0.30134930756E+03  0.30134930757E+03  0.25500000920E-02 0. -1.
    10030    2    1    2    0    0  0.00000000000E+00  0.00000000000E+00  0.52674103439E+03  0.11294396495E+04  0.99908848688E+03 0.  0.
        5    1    3    3  502    0  0.37998364540E+03  0.32406628305E+03  0.27553736806E+03  0.57039412495E+03  0.46999998093E+01 0.  1.
       -5    1    3    3    0  502 -0.37998364540E+03 -0.32406628305E+03  0.25120366633E+03  0.55904552459E+03  0.46999998093E+01 0. -1.
</event>
<event>
 5   0  0.2503680E-04  0.9932027E+03  0.7818609E-02  0.9316031E-01
        2   -1    0    0  501    0  0.00000000000E+00  0.00000000000E+00  0.22306107678E+04  0.22306107678E+04  0.25500000920E-02 0. -1.
       -2   -1    0    0    0  501  0.00000000000E+00  0.00000000000E+00 -0.11055846985E+03  0.11055846988E+03  0.25500000920E-02 0.  1.
    10030    2    1    2    0    0  0.00000000000E+00  0.00000000000E+00  0.21200522980E+04  0.23411692377E+04  0.99320272525E+03 0.  0.
        2    1    3    3  502    0 -0.37364326431E+03 -0.28311814368E+03  0.14462586195E+04  0.15203385040E+04  0.25500000920E-02 0.  1.
       -2    1    3    3    0  502  0.37364326431E+03  0.28311814368E+03  0.67379367849E+03  0.82083073373E+03  0.25500000920E-02 0. -1.
</event>
<event>
 5   0  0.2484904E-04  0.1000733E+04  0.7818609E-02  0.9307742E-01
        2   -1    0    0  501    0  0.00000000000E+00  0.00000000000E+00  0.14371313208E+04  0.14371313208E+04  0.25500000920E-02 0. -1.
       -2   -1    0    0    0  501  0.00000000000E+00  0.00000000000E+00 -0.17421264419E+03  0.17421264421E+03  0.25500000920E-02 0.  1.
    10030    2    1    2    0    0  0.00000000000E+00  0.00000000000E+00  0.12629186766E+04  0.16113439651E+04  0.10007326266E+04 0.  0.
        3    1    3    3  502    0  0.20457999444E+03 -0.45639100127E+03  0.60753784992E+03  0.78692310263E+03  0.10100000352E+00 0. -1.
       -3    1    3    3    0  502 -0.20457999444E+03  0.45639100127E+03  0.65538082672E+03  0.82442086242E+03  0.10100000352E+00 0.  1.
</event>
<event>
 5   0  0.1453863E-04  0.1000173E+04  0.7818609E-02  0.9308355E-01
       -1   -1    0    0    0  501  0.00000000000E+00  0.00000000000E+00  0.16931565910E+03  0.16931565918E+03  0.50400001928E-02 0.  1.
        1   -1    0    0  501    0  0.00000000000E+00  0.00000000000E+00 -0.14770424407E+04  0.14770424407E+04  0.50400001928E-02 0. -1.
    10030    2    1    2    0    0  0.00000000000E+00  0.00000000000E+00 -0.13077267816E+04  0.16463580999E+04  0.10001728140E+04 0.  0.
        1    1    3    3  502    0  0.37782562672E+03  0.30115098354E+03 -0.86621515394E+03  0.99185322102E+03  0.50400001928E-02 0. -1.
       -1    1    3    3    0  502 -0.37782562672E+03 -0.30115098354E+03 -0.44151162769E+03  0.65450487890E+03  0.50400001928E-02 0.  1.
</event>
<event>
 5   0  0.2484904E-04  0.9999549E+03  0.7818609E-02  0.9308594E-01
        2   -1    0    0  501    0  0.00000000000E+00  0.00000000000E+00  0.11872004841E+04  0.11872004841E+04  0.25500000920E-02 0. -1.
       -2   -1    0    0    0  501  0.00000000000E+00  0.00000000000E+00 -0.21056041875E+03  0.21056041877E+03  0.25500000920E-02 0.  1.
    10030    2    1    2    0    0  0.00000000000E+00  0.00000000000E+00  0.97664006539E+03  0.13977609029E+04  0.99995486118E+03 0.  0.
        3    1    3    3  502    0  0.34803893829E+03  0.35233326621E+03  0.39241272286E+03  0.63186833147E+03  0.10100000352E+00 0. -1.
       -3    1    3    3    0  502 -0.34803893829E+03 -0.35233326621E+03  0.58422734253E+03  0.76589257145E+03  0.10100000352E+00 0.  1.
</event>
<event>
 5   0  0.2473312E-04  0.1000728E+04  0.7818609E-02  0.9307747E-01
       -2   -1    0    0    0  501  0.00000000000E+00  0.00000000000E+00  0.20062766942E+03  0.20062766944E+03  0.25500000920E-02 0. -1.
        2   -1    0    0  501    0  0.00000000000E+00  0.00000000000E+00 -0.12479035182E+04  0.12479035182E+04  0.25500000920E-02 0.  1.
    10030    2    1    2    0    0  0.00000000000E+00  0.00000000000E+00 -0.10472758488E+04  0.14485311876E+04  0.10007276843E+04 0.  0.
        5    1    3    3  502    0  0.12643165529E+03 -0.23548744100E+03 -0.11358758731E+04  0.11669084744E+04  0.46999998093E+01 0.  1.
       -5    1    3    3    0  502 -0.12643165529E+03  0.23548744100E+03  0.88600024352E+02  0.28162271330E+03  0.46999998093E+01 0. -1.
</event>
<event>
 5   0  0.1414165E-04  0.1001101E+04  0.7818609E-02  0.9307338E-01
       -1   -1    0    0    0  501  0.00000000000E+00  0.00000000000E+00  0.17663733215E+03  0.17663733223E+03  0.50400001928E-02 0. -1.
        1   -1    0    0  501    0  0.00000000000E+00  0.00000000000E+00 -0.14184471076E+04  0.14184471076E+04  0.50400001928E-02 0.  1.
    10030    2    1    2    0    0  0.00000000000E+00  0.00000000000E+00 -0.12418097754E+04  0.15950844398E+04  0.10011008200E+04 0.  0.
        4    1    3    3  502    0 -0.18528427013E+03  0.45702285794E+03 -0.48431504419E+03  0.69120389782E+03  0.12699999809E+01 0. -1.
       -4    1    3    3    0  502  0.18528427013E+03 -0.45702285794E+03 -0.75749473121E+03  0.90388054197E+03  0.12699999809E+01 0.  1.
</event>
<event>
 5   0  0.1461334E-04  0.9996729E+03  0.7818609E-02  0.9308904E-01
       -1   -1    0    0    0  501  0.00000000000E+00  0.00000000000E+00  0.14252175538E+03  0.14252175547E+03  0.50400001928E-02 0. -1.
        1   -1    0    0  501    0  0.00000000000E+00  0.00000000000E+00 -0.17529709261E+04  0.17529709261E+04  0.50400001928E-02 0.  1.
    10030    2    1    2    0    0  0.00000000000E+00  0.00000000000E+00 -0.16104491707E+04  0.18954926816E+04  0.99967293372E+03 0.  0.
        2    1    3    3  502    0  0.91626708348E+02  0.26880436443E+03 -0.15851362783E+04  0.16103751925E+04  0.25500000920E-02 0.  1.
       -2    1    3    3    0  502 -0.91626708348E+02 -0.26880436443E+03 -0.25312892442E+02  0.28511748903E+03  0.25500000920E-02 0. -1.
</event>
<event>
 5   0  0.2353916E-04  0.1000030E+04  0.7818609E-02  0.9308512E-01
        2   -1    0    0  501    0  0.00000000000E+00  0.00000000000E+00  0.30719169045E+03  0.30719169046E+03  0.25500000920E-02 0. -1.
       -2   -1    0    0    0  501  0.00000000000E+00  0.00000000000E+00 -0.81387288528E+03  0.81387288528E+03  0.25500000920E-02 0.  1.
    10030    2    1    2    0    0  0.00000000000E+00  0.00000000000E+00 -0.50668119483E+03  0.11210645757E+04  0.10000299745E+04 0.  0.
        4    1    3    3  502    0 -0.12496701788E+03  0.23303763576E+03 -0.72907275255E+03  0.77554625049E+03  0.12699999809E+01 0.  1.
       -4    1    3    3    0  502  0.12496701788E+03 -0.23303763576E+03  0.22239155773E+03  0.34551832526E+03  0.12699999809E+01 0. -1.
</event>
<event>
 5   0  0.2353916E-04  0.1000262E+04  0.7818609E-02  0.9308258E-01
       -2   -1    0    0    0  501  0.00000000000E+00  0.00000000000E+00  0.40695488004E+03  0.40695488005E+03  0.25500000920E-02 0. -1.
        2   -1    0    0  501    0  0.00000000000E+00  0.00000000000E+00 -0.61464034585E+03  0.61464034586E+03  0.25500000920E-02 0.  1.
    10030    2    1    2    0    0  0.00000000000E+00  0.00000000000E+00 -0.20768546581E+03  0.10215952259E+04  0.10002617422E+04 0.  0.
        4    1    3    3  502    0  0.25191302481E+03  0.20520552356E+02  0.33692624164E+03  0.42119137022E+03  0.12699999809E+01 0. -1.
       -4    1    3    3    0  502 -0.25191302481E+03 -0.20520552356E+02 -0.54461170745E+03  0.60040385569E+03  0.12699999809E+01 0.  1.
</event>
<event>
 5   0  0.2503680E-04  0.1000126E+04  0.7818609E-02  0.9308406E-01
       -2   -1    0    0    0  501  0.00000000000E+00  0.00000000000E+00  0.36055139983E+03  0.36055139984E+03  0.25500000920E-02 0. -1.
        2   -1    0    0  501    0  0.00000000000E+00  0.00000000000E+00 -0.69355784577E+03  0.69355784577E+03  0.25500000920E-02 0.  1.
    10030    2    1    2    0    0  0.00000000000E+00  0.00000000000E+00 -0.33300644594E+03  0.10541092456E+04  0.10001264963E+04 0.  0.
        2    1    3    3  502    0 -0.27913936815E+03 -0.33566749433E+03 -0.42353464899E+03  0.60825410192E+03  0.25500000920E-02 0.  1.
       -2    1    3    3    0  502  0.27913936815E+03  0.33566749433E+03  0.90528203051E+02  0.44585514369E+03  0.25500000920E-02 0. -1.
</event>
<event>
 5   0  0.2403037E-04  0.1000217E+04  0.7818609E-02  0.9308306E-01
        2   -1    0    0  501    0  0.00000000000E+00  0.00000000000E+00  0.50750147767E+03  0.50750147767E+03  0.25500000920E-02 0.  1.
       -2   -1    0    0    0  501  0.00000000000E+00  0.00000000000E+00 -0.49282354696E+03  0.49282354696E+03  0.25500000920E-02 0. -1.
    10030    2    1    2    0    0  0.00000000000E+00  0.00000000000E+00  0.14677930708E+02  0.10003250246E+04  0.10002173330E+04 0.  0.
        1    1    3    3  502    0  0.32324083883E+03 -0.33915945235E+03 -0.16759385842E+03  0.49759569473E+03  0.50400001928E-02 0. -1.
       -1    1    3    3    0  502 -0.32324083883E+03  0.33915945235E+03  0.18227178913E+03  0.50272932990E+03  0.50400001928E-02 0.  1.
</event>
<event>
 5   0  0.2353916E-04  0.9998526E+03  0.7818609E-02  0.9308707E-01
       -2   -1    0    0    0  501  0.00000000000E+00  0.00000000000E+00  0.20683269149E+03  0.20683269151E+03  0.25500000920E-02 0. -1.
        2   -1    0    0  501    0  0.00000000000E+00  0.00000000000E+00 -0.12083500142E+04  0.12083500142E+04  0.25500000920E-02 0.  1.
    10030    2    1    2    0    0  0.00000000000E+00  0.00000000000E+00 -0.10015173227E+04  0.14151827057E+04  0.99985256055E+03 0.  0.
        4    1    3    3  502    0 -0.11546951200E+03  0.48482117127E+03 -0.55630076375E+03  0.74689820522E+03  0.12699999809E+01 0. -1.
       -4    1    3    3    0  502  0.11546951200E+03 -0.48482117127E+03 -0.44521655895E+03  0.66828450048E+03  0.12699999809E+01 0.  1.
</event>
<event>
 5   0  0.2484904E-04  0.9994541E+03  0.7818609E-02  0.9309144E-01
       -2   -1    0    0    0  501  0.00000000000E+00  0.00000000000E+00  0.48889749988E+03  0.48889749988E+03  0.25500000920E-02 0.  1.
        2   -1    0    0  501    0  0.00000000000E+00  0.00000000000E+00 -0.51079643600E+03  0.51079643600E+03  0.25500000920E-02 0. -1.
    10030    2    1    2    0    0  0.00000000000E+00  0.00000000000E+00 -0.21898936121E+02  0.99969393589E+03  0.99945405199E+03 0.  0.
        3    1    3    3  502    0 -0.44426707269E+02  0.22796365567E+03  0.43163377163E+03  0.49015189854E+03  0.10100000352E+00 0.  1.
       -3    1    3    3    0  502  0.44426707269E+02 -0.22796365567E+03 -0.45353270775E+03  0.50954203735E+03  0.10100000352E+00 0. -1.
</event>
<event>
 5   0  0.1453863E-04  0.9966841E+03  0.7818609E-02  0.9312189E-01
       -1   -1    0    0    0  501  0.00000000000E+00  0.00000000000E+00  0.39367949931E+03  0.39367949934E+03  0.50400001928E-02 0. -1.
        1   -1    0    0  501    0  0.00000000000E+00  0.00000000000E+00 -0.63082988843E+03  0.63082988845E+03  0.50400001928E-02 0.  1.
    10030    2    1    2    0    0  0.00000000000E+00  0.00000000000E+00 -0.23715038911E+03  0.10245093878E+04  0.99668409168E+03 0.  0.
        1    1    3    3  502    0 -0.42710061200E+03 -0.13225685804E+03  0.10765545979E+03  0.45988749419E+03  0.50400001928E-02 0. -1.
       -1    1    3    3    0  502  0.42710061200E+03  0.13225685804E+03 -0.34480584890E+03  0.56462189360E+03  0.50400001928E-02 0.  1.
</event>
<event>
 5   0  0.1453863E-04  0.1002470E+04  0.7818609E-02  0.9305839E-01
        1   -1    0    0  501    0  0.00000000000E+00  0.00000000000E+00  0.69904413337E+03  0.69904413338E+03  0.50400001928E-02 0. -1.
       -1   -1    0    0    0  501  0.00000000000E+00  0.00000000000E+00 -0.35940037849E+03  0.35940037852E+03  0.50400001928E-02 0.  1.
    10030    2    1    2    0    0  0.00000000000E+00  0.00000000000E+00  0.33964375488E+03  0.10584445119E+04  0.10024704008E+04 0.  0.
        1    1    3    3  502    0  0.17593749899E+03 -0.28318812468E+03 -0.22535886953E+03  0.40241289444E+03  0.50400001928E-02 0.  1.
       -1    1    3    3    0  502 -0.17593749899E+03  0.28318812468E+03  0.56500262441E+03  0.65603161747E+03  0.50400001928E-02 0. -1.
</event>
<event>
 5   0  0.1414165E-04  0.1000716E+04  0.7818609E-02  0.9307760E-01
        1   -1    0    0  501    0  0.00000000000E+00  0.00000000000E+00  0.33779914205E+03  0.33779914209E+03  0.50400001928E-02 0. -1.
       -1   -1    0    0    0  501  0.00000000000E+00  0.00000000000E+00 -0.74114468895E+03  0.74114468897E+03  0.50400001928E-02 0.  1.
    10030    2    1    2    0    0  0.00000000000E+00  0.00000000000E+00 -0.40334554691E+03  0.10789438311E+04  0.10007158240E+04 0.  0.
        4    1    3    3  502    0  0.91126051611E+02  0.48467915753E+03 -0.29276768348E+03  0.57352626131E+03  0.12699999809E+01 0. -1.
       -4    1    3    3    0  502 -0.91126051611E+02 -0.48467915753E+03 -0.11057786343E+03  0.50541756974E+03  0.12699999809E+01 0.  1.
</event>
<event>
 5   0  0.1453863E-04  0.1000132E+04  0.7818609E-02  0.9308401E-01
       -1   -1    0    0    0  501  0.00000000000E+00  0.00000000000E+00  0.53038613975E+03  0.53038613977E+03  0.50400001928E-02 0. -1.
        1   -1    0    0  501    0  0.00000000000E+00  0.00000000000E+00 -0.47147868840E+03  0.47147868843E+03  0.50400001928E-02 0.  1.
    10030    2    1    2    0    0  0.00000000000E+00  0.00000000000E+00  0.58907451345E+02  0.10018648282E+04  0.10001315144E+04 0.  0.
        1    1    3    3  502    0 -0.36376611091E+03 -0.31322181092E+03 -0.11090361237E+03  0.49267971091E+03  0.50400001928E-02 0.  1.
       -1    1    3    3    0  502  0.36376611091E+03  0.31322181092E+03  0.16981106372E+03  0.50918511729E+03  0.50400001928E-02 0. -1.
</event>
<event>
 5   0  0.2403037E-04  0.9998387E+03  0.7818609E-02  0.9308722E-01
        2   -1    0    0  501    0  0.00000000000E+00  0.00000000000E+00  0.12912051075E+04  0.12912051075E+04  0.25500000920E-02 0. -1.
       -2   -1    0    0    0  501  0.00000000000E+00  0.00000000000E+00 -0.19355510261E+03  0.19355510263E+03  0.25500000920E-02 0.  1.
    10030    2    1    2    0    0  0.00000000000E+00  0.00000000000E+00  0.10976500049E+04  0.14847602101E+04  0.99983866116E+03 0.  0.
        1    1    3    3  502    0 -0.56684970615E+02  0.44047941927E+03  0.20797296164E+03  0.49039581716E+03  0.50400001928E-02 0.  1.
       -1    1    3    3    0  502  0.56684970615E+02 -0.44047941927E+03  0.88967704323E+03  0.99436439295E+03  0.50400001928E-02 0. -1.
</event>
<event>
 5   0  0.2353916E-04  0.9998780E+03  0.7818609E-02  0.9308679E-01
        2   -1    0    0  501    0  0.00000000000E+00  0.00000000000E+00  0.94917505481E+03  0.94917505482E+03  0.25500000920E-02 0. -1.
       -2   -1    0    0    0  501  0.00000000000E+00  0.00000000000E+00 -0.26332237225E+03  0.26332237227E+03  0.25500000920E-02 0.  1.
    10030    2    1    2    0    0  0.00000000000E+00  0.00000000000E+00  0.68585268256E+03  0.12124974271E+04  0.99987804682E+03 0.  0.
        4    1    3    3  502    0 -0.49065345028E+03  0.93474164401E+02  0.31694100346E+03  0.59155003192E+03  0.12699999809E+01 0. -1.
       -4    1    3    3    0  502  0.49065345028E+03 -0.93474164401E+02  0.36891167910E+03  0.62094739517E+03  0.12699999809E+01 0.  1.
</event>
<event>
 5   0  0.2503680E-04  0.9985413E+03  0.7818609E-02  0.9310146E-01
       -2   -1    0    0    0  501  0.00000000000E+00  0.00000000000E+00  0.34896417254E+03  0.34896417255E+03  0.25500000920E-02 0.  1.
        2   -1    0    0  501    0  0.00000000000E+00  0.00000000000E+00 -0.71431740554E+03  0.71431740555E+03  0.25500000920E-02 0. -1.
    10030    2    1    2    0    0  0.00000000000E+00  0.00000000000E+00 -0.36535323300E+03  0.10632815781E+04  0.99854130082E+03 0.  0.
        2    1    3    3  502    0 -0.48567266218E+03  0.10406316807E+03 -0.23659664681E+03  0.55016820248E+03  0.25500000920E-02 0.  1.
       -2    1    3    3    0  502  0.48567266218E+03 -0.10406316807E+03 -0.12875658620E+03  0.51311337561E+03  0.25500000920E-02 0. -1.
</event>
<event>
 5   0  0.1430675E-04  0.9996239E+03  0.7818609E-02  0.9308957E-01
       -1   -1    0    0    0  501  0.00000000000E+00  0.00000000000E+00  0.91884088048E+02  0.91884088186E+02  0.50400001928E-02 0.  1.
        1   -1    0    0  501    0  0.00000000000E+00  0.00000000000E+00 -0.27187733342E+04  0.27187733342E+04  0.50400001928E-02 0. -1.
    10030    2    1    2    0    0  0.00000000000E+00  0.00000000000E+00 -0.26268892461E+04  0.28106574224E+04  0.99962394654E+03 0.  0.
        5    1    3    3  502    0 -0.36470412206E+03 -0.20520627610E+03 -0.54511452401E+03  0.68723405524E+03  0.46999998093E+01 0.  1.
       -5    1    3    3    0  502  0.36470412206E+03  0.20520627610E+03 -0.20817747221E+04  0.21234233671E+04  0.46999998093E+01 0. -1.
</event>
<event>
 5   0  0.1506454E-04  0.9994492E+03  0.7818609E-02  0.9309149E-01
        1   -1    0    0  501    0  0.00000000000E+00  0.00000000000E+00  0.18943467349E+04  0.18943467349E+04  0.50400001928E-02 0. -1.
       -1   -1    0    0    0  501  0.00000000000E+00  0.00000000000E+00 -0.13182626659E+03  0.13182626669E+03  0.50400001928E-02 0.  1.
    10030    2    1    2    0    0  0.00000000000E+00  0.00000000000E+00  0.17625204683E+04  0.20261730016E+04  0.99944916388E+03 0.  0.
        3    1    3    3  502    0 -0.75795167798E+02 -0.39065695911E+03  0.26847228843E+03  0.48003661008E+03  0.10100000352E+00 0.  1.
       -3    1    3    3    0  502  0.75795167798E+02  0.39065695911E+03  0.14940481799E+04  0.15461363915E+04  0.10100000352E+00 0. -1.
</event>
<event>
 5   0  0.2403037E-04  0.9998003E+03  0.7818609E-02  0.9308764E-01
       -2   -1    0    0    0  501  0.00000000000E+00  0.00000000000E+00  0.35099067534E+03  0.35099067535E+03  0.25500000920E-02 0. -1.
        2   -1    0    0  501    0  0.00000000000E+00  0.00000000000E+00 -0.71198522257E+03  0.71198522258E+03  0.25500000920E-02 0.  1.
    10030    2    1    2    0    0  0.00000000000E+00  0.00000000000E+00 -0.36099454723E+03  0.10629758979E+04  0.99980032829E+03 0.  0.
        1    1    3    3  502    0  0.17524843842E+03 -0.45027822938E+03 -0.44186451230E+02  0.48519577648E+03  0.50400001928E-02 0. -1.
       -1    1    3    3    0  502 -0.17524843842E+03  0.45027822938E+03 -0.31680809600E+03  0.57778012145E+03  0.50400001928E-02 0.  1.
</event>
<event>
 5   0  0.1414165E-04  0.9999009E+03  0.7818609E-02  0.9308653E-01
       -1   -1    0    0    0  501  0.00000000000E+00  0.00000000000E+00  0.29086263689E+03  0.29086263693E+03  0.50400001928E-02 0. -1.
        1   -1    0    0  501    0  0.00000000000E+00  0.00000000000E+00 -0.85934193572E+03  0.85934193574E+03  0.50400001928E-02 0.  1.
    10030    2    1    2    0    0  0.00000000000E+00  0.00000000000E+00 -0.56847929883E+03  0.11502045727E+04  0.99990091799E+03 0.  0.
        4    1    3    3  502    0  0.47764840175E+02  0.17386640754E+03  0.25215654283E+03  0.30999281059E+03  0.12699999809E+01 0. -1.
       -4    1    3    3    0  502 -0.47764840175E+02 -0.17386640754E+03 -0.82063584166E+03  0.84021176208E+03  0.12699999809E+01 0.  1.
</event>
<event>
 5   0  0.1453863E-04  0.9997093E+03  0.7818609E-02  0.9308864E-01
        1   -1    0    0  501    0  0.00000000000E+00  0.00000000000E+00  0.11758955306E+04  0.11758955306E+04  0.50400001928E-02 0.  1.
       -1   -1    0    0    0  501  0.00000000000E+00  0.00000000000E+00 -0.21248034397E+03  0.21248034403E+03  0.50400001928E-02 0. -1.
    10030    2    1    2    0    0  0.00000000000E+00  0.00000000000E+00  0.96341518663E+03  0.13883758746E+04  0.99970933148E+03 0.  0.
        1    1    3    3  502    0  0.15075465911E+03 -0.40781155207E+03  0.13921795014E+03  0.45652915231E+03  0.50400001928E-02 0. -1.
       -1    1    3    3    0  502 -0.15075465911E+03  0.40781155207E+03  0.82419723649E+03  0.93184672232E+03  0.50400001928E-02 0.  1.
</event>
<event>
 5   0  0.1453863E-04  0.1000212E+04  0.7818609E-02  0.9308312E-01
       -1   -1    0    0    0  501  0.00000000000E+00  0.00000000000E+00  0.18400951854E+03  0.18400951860E+03  0.50400001928E-02 0.  1.
        1   -1    0    0  501    0  0.00000000000E+00  0.00000000000E+00 -0.13592013104E+04  0.13592013104E+04  0.50400001928E-02 0. -1.
    10030    2    1    2    0    0  0.00000000000E+00  0.00000000000E+00 -0.11751917919E+04  0.15432108290E+04  0.10002119351E+04 0.  0.
        1    1    3    3  502    0 -0.31414507518E+02  0.11382552883E+03 -0.13373848295E+04  0.13425875408E+04  0.50400001928E-02 0. -1.
       -1    1    3    3    0  502  0.31414507518E+02 -0.11382552883E+03  0.16219303767E+03  0.20062328826E+03  0.50400001928E-02 0.  1.
</event>
<event>
 5   0  0.9650500E-05  0.1000176E+04  0.7818609E-02  0.9308351E-01
       -3   -1    0    0    0  501  0.00000000000E+00  0.00000000000E+00  0.77959225425E+03  0.77959226080E+03  0.10100000352E+00 0.  1.
        3   -1    0    0  501    0  0.00000000000E+00  0.00000000000E+00 -0.32079362330E+03  0.32079363920E+03  0.10100000352E+00 0. -1.
    10030    2    1    2    0    0  0.00000000000E+00  0.00000000000E+00  0.45879863095E+03  0.11003859000E+04  0.10001764570E+04 0.  0.
        1    1    3    3  502    0 -0.15981480474E+03  0.23781359139E+03 -0.22153459596E+03  0.36217903487E+03  0.50400001928E-02 0. -1.
       -1    1    3    3    0  502  0.15981480474E+03 -0.23781359139E+03  0.68033322691E+03  0.73820686513E+03  0.50400001928E-02 0.  1.
</event>
<event>
 5   0  0.1430675E-04  0.1000308E+04  0.7818609E-02  0.9308207E-01
        1   -1    0    0  501    0  0.00000000000E+00  0.00000000000E+00  0.11959591930E+04  0.11959591931E+04  0.50400001928E-02 0.  1.
       -1   -1    0    0    0  501  0.00000000000E+00  0.00000000000E+00 -0.20916589573E+03  0.20916589579E+03  0.50400001928E-02 0. -1.
    10030    2    1    2    0    0  0.00000000000E+00  0.00000000000E+00  0.98679329732E+03  0.14051250888E+04  0.10003077045E+04 0.  0.
        5    1    3    3  502    0  0.38181354162E+03  0.68536104647E+02  0.93682818867E+03  0.10139762933E+04  0.46999998093E+01 0.  1.
       -5    1    3    3    0  502 -0.38181354162E+03 -0.68536104647E+02  0.49965108647E+02  0.39114879558E+03  0.46999998093E+01 0. -1.
</event>
<event>
 5   0  0.1506454E-04  0.1000161E+04  0.7818609E-02  0.9308369E-01
       -1   -1    0    0    0  501  0.00000000000E+00  0.00000000000E+00  0.17998932591E+03  0.17998932598E+03  0.50400001928E-02 0.  1.
        1   -1    0    0  501    0  0.00000000000E+00  0.00000000000E+00 -0.13894174047E+04  0.13894174047E+04  0.50400001928E-02 0. -1.
    10030    2    1    2    0    0  0.00000000000E+00  0.00000000000E+00 -0.12094280788E+04  0.15694067307E+04  0.10001605914E+04 0.  0.
        3    1    3    3  502    0  0.30205873002E+03 -0.25029828722E+03 -0.11804433894E+03  0.40966228179E+03  0.10100000352E+00 0.  1.
       -3    1    3    3    0  502 -0.30205873002E+03  0.25029828722E+03 -0.10913837399E+04  0.11597444489E+04  0.10100000352E+00 0. -1.
</event>
<event>
 5   0  0.2353916E-04  0.9997724E+03  0.7818609E-02  0.9308795E-01
        2   -1    0    0  501    0  0.00000000000E+00  0.00000000000E+00  0.48380534854E+03  0.48380534855E+03  0.25500000920E-02 0. -1.
       -2   -1    0    0    0  501  0.00000000000E+00  0.00000000000E+00 -0.51650151186E+03  0.51650151187E+03  0.25500000920E-02 0.  1.
    10030    2    1    2    0    0  0.00000000000E+00  0.00000000000E+00 -0.32696163324E+02  0.10003068604E+04  0.99977236204E+03 0.  0.
        4    1    3    3  502    0 -0.32086404013E+03  0.29102597733E+03 -0.26595034728E+03  0.50831196312E+03  0.12699999809E+01 0.  1.
       -4    1    3    3    0  502  0.32086404013E+03 -0.29102597733E+03  0.23325418396E+03  0.49199489730E+03  0.12699999809E+01 0. -1.
</event>
<event>
 5   0  0.2403037E-04  0.9998766E+03  0.7818609E-02  0.9308680E-01
        2   -1    0    0  501    0  0.00000000000E+00  0.00000000000E+00  0.96445102788E+03  0.96445102788E+03  0.25500000920E-02 0. -1.
       -2   -1    0    0    0  501  0.00000000000E+00  0.00000000000E+00 -0.25915085742E+03  0.25915085743E+03  0.25500000920E-02 0.  1.
    10030    2    1    2    0    0  0.00000000000E+00  0.00000000000E+00  0.70530017046E+03  0.12236018853E+04  0.99987661404E+03 0.  0.
        1    1    3    3  502    0  0.28198725965E+03 -0.41268995153E+03  0.36539710908E+03  0.61914849434E+03  0.50400001928E-02 0.  1.
       -1    1    3    3    0  502 -0.28198725965E+03  0.41268995153E+03  0.33990306138E+03  0.60445339097E+03  0.50400001928E-02 0. -1.
</event>
<event>
 5   0  0.1414165E-04  0.9987120E+03  0.7818609E-02  0.9309959E-01
       -1   -1    0    0    0  501  0.00000000000E+00  0.00000000000E+00  0.89620069227E+03  0.89620069228E+03  0.50400001928E-02 0. -1.
        1   -1    0    0  501    0  0.00000000000E+00  0.00000000000E+00 -0.27823726452E+03  0.27823726457E+03  0.50400001928E-02 0.  1.
    10030    2    1    2    0    0  0.00000000000E+00  0.00000000000E+00  0.61796342774E+03  0.11744379568E+04  0.99871202880E+03 0.  0.
        4    1    3    3  502    0  0.39939121898E+03  0.29402553780E+03  0.24050881781E+03  0.55119004619E+03  0.12699999809E+01 0. -1.
       -4    1    3    3    0  502 -0.39939121898E+03 -0.29402553780E+03  0.37745460993E+03  0.62324791066E+03  0.12699999809E+01 0.  1.
</event>
<event>
 5   0  0.2473312E-04  0.1000017E+04  0.7818609E-02  0.9308526E-01
       -2   -1    0    0    0  501  0.00000000000E+00  0.00000000000E+00  0.25739053111E+03  0.25739053112E+03  0.25500000920E-02 0. -1.
        2   -1    0    0  501    0  0.00000000000E+00  0.00000000000E+00 -0.97131938899E+03  0.97131938899E+03  0.25500000920E-02 0.  1.
    10030    2    1    2    0    0  0.00000000000E+00  0.00000000000E+00 -0.71392885788E+03  0.12287099201E+04  0.10000168267E+04 0.  0.
        5    1    3    3  502    0 -0.17996662120E+02 -0.42452169090E+03 -0.68075092016E+03  0.80248766420E+03  0.46999998093E+01 0.  1.
       -5    1    3    3    0  502  0.17996662120E+02  0.42452169090E+03 -0.33177937719E+02  0.42622225592E+03  0.46999998093E+01 0. -1.
</event>
<event>
 5   0  0.1414165E-04  0.9999207E+03  0.7818609E-02  0.9308632E-01
        1   -1    0    0  501    0  0.00000000000E+00  0.00000000000E+00  0.91429373623E+03  0.91429373625E+03  0.50400001928E-02 0.  1.
       -1   -1    0    0    0  501  0.00000000000E+00  0.00000000000E+00 -0.27339171849E+03  0.27339171854E+03  0.50400001928E-02 0. -1.
    10030    2    1    2    0    0  0.00000000000E+00  0.00000000000E+00  0.64090201774E+03  0.11876854548E+04  0.99992066843E+03 0.  0.
        4    1    3    3  502    0 -0.47997035231E+03  0.76132719359E+02  0.18096403295E+03  0.51857239049E+03  0.12699999809E+01 0. -1.
       -4    1    3    3    0  502  0.47997035231E+03 -0.76132719359E+02  0.45993798479E+03  0.66911306429E+03  0.12699999809E+01 0.  1.
</event>
<event>
 5   0  0.1453863E-04  0.9999652E+03  0.7818609E-02  0.9308583E-01
        1   -1    0    0  501    0  0.00000000000E+00  0.00000000000E+00  0.40157207904E+03  0.40157207907E+03  0.50400001928E-02 0. -1.
       -1   -1    0    0    0  501  0.00000000000E+00  0.00000000000E+00 -0.62250986894E+03  0.62250986897E+03  0.50400001928E-02 0.  1.
    10030    2    1    2    0    0  0.00000000000E+00  0.00000000000E+00 -0.22093778991E+03  0.10240819480E+04  0.99996516403E+03 0.  0.
        1    1    3    3  502    0  0.20307444248E+03 -0.19999309806E+01  0.35742998645E+03  0.41109539544E+03  0.50400001928E-02 0. -1.
       -1    1    3    3    0  502 -0.20307444248E+03  0.19999309806E+01 -0.57836777636E+03  0.61298655260E+03  0.50400001928E-02 0.  1.
</event>
<event>
 5   0  0.1453863E-04  0.1000145E+04  0.7818609E-02  0.9308386E-01
        1   -1    0    0  501    0  0.00000000000E+00  0.00000000000E+00  0.52452792197E+03  0.52452792200E+03  0.50400001928E-02 0. -1.
       -1   -1    0    0    0  501  0.00000000000E+00  0.00000000000E+00 -0.47675726876E+03  0.47675726878E+03  0.50400001928E-02 0.  1.
    10030    2    1    2    0    0  0.00000000000E+00  0.00000000000E+00  0.47770653217E+02  0.10012851908E+04  0.10001449885E+04 0.  0.
        1    1    3    3  502    0 -0.67821521242E+02  0.29286667612E+03 -0.37619740277E+03  0.48155491338E+03  0.50400001928E-02 0.  1.
       -1    1    3    3    0  502  0.67821521242E+02 -0.29286667612E+03  0.42396805599E+03  0.51973027740E+03  0.50400001928E-02 0. -1.
</event>
<event>
 5   0  0.1506454E-04  0.9996117E+03  0.7818609E-02  0.9308971E-01
       -1   -1    0    0    0  501  0.00000000000E+00  0.00000000000E+00  0.52349675805E+03  0.52349675807E+03  0.50400001928E-02 0.  1.
        1   -1    0    0  501    0  0.00000000000E+00  0.00000000000E+00 -0.47718707483E+03  0.47718707485E+03  0.50400001928E-02 0. -1.
    10030    2    1    2    0    0  0.00000000000E+00  0.00000000000E+00  0.46309683224E+02  0.10006838329E+04  0.99961169797E+03 0.  0.
        3    1    3    3  502    0 -0.97379838217E+02 -0.18084947694E+03 -0.43298341362E+03  0.47923273351E+03  0.10100000352E+00 0. -1.
       -3    1    3    3    0  502  0.97379838217E+02  0.18084947694E+03  0.47929309684E+03  0.52145109941E+03  0.10100000352E+00 0.  1.
</event>
<event>
 5   0  0.2473312E-04  0.9997982E+03  0.7818609E-02  0.9308766E-01
        2   -1    0    0  501    0  0.00000000000E+00  0.00000000000E+00  0.70318156747E+03  0.70318156747E+03  0.25500000920E-02 0. -1.
       -2   -1    0    0    0  501  0.00000000000E+00  0.00000000000E+00 -0.35538350437E+03  0.35538350438E+03  0.25500000920E-02 0.  1.
    10030    2    1    2    0    0  0.00000000000E+00  0.00000000000E+00  0.34779806310E+03  0.10585650719E+04  0.99979823897E+03 0.  0.
        5    1    3    3  502    0 -0.22462639528E+03 -0.22234554743E+03 -0.23614024391E+03  0.39456161079E+03  0.46999998093E+01 0.  1.
       -5    1    3    3    0  502  0.22462639528E+03  0.22234554743E+03  0.58393830701E+03  0.66400346106E+03  0.46999998093E+01 0. -1.
</event>
<event>
 5   0  0.2403037E-04  0.9991144E+03  0.7818609E-02  0.9309517E-01
        2   -1    0    0  501    0  0.00000000000E+00  0.00000000000E+00  0.45356082037E+03  0.45356082037E+03  0.25500000920E-02 0. -1.
       -2   -1    0    0    0  501  0.00000000000E+00  0.00000000000E+00 -0.55021818412E+03  0.55021818412E+03  0.25500000920E-02 0.  1.
    10030    2    1    2    0    0  0.00000000000E+00  0.00000000000E+00 -0.96657363749E+02  0.10037790045E+04  0.99911442983E+03 0.  0.
        1    1    3    3  502    0  0.27014219043E+03  0.41302610818E+03  0.29428015245E+02  0.49440204004E+03  0.50400001928E-02 0. -1.
       -1    1    3    3    0  502 -0.27014219043E+03 -0.41302610818E+03 -0.12608537899E+03  0.50937696445E+03  0.50400001928E-02 0.  1.
</event>
<event>
 5   0  0.1414165E-04  0.1000051E+04  0.7818609E-02  0.9308489E-01
       -1   -1    0    0    0  501  0.00000000000E+00  0.00000000000E+00  0.25942420880E+03  0.25942420885E+03  0.50400001928E-02 0.  1.
        1   -1    0    0  501    0  0.00000000000E+00  0.00000000000E+00 -0.96376995298E+03  0.96376995300E+03  0.50400001928E-02 0. -1.
    10030    2    1    2    0    0  0.00000000000E+00  0.00000000000E+00 -0.70434574418E+03  0.12231941618E+04  0.10000505138E+04 0.  0.
        4    1    3    3  502    0 -0.39493921087E+03  0.28757118101E+03 -0.22186776169E+03  0.53656414436E+03  0.12699999809E+01 0. -1.
       -4    1    3    3    0  502  0.39493921087E+03 -0.28757118101E+03 -0.48247798249E+03  0.68663001749E+03  0.12699999809E+01 0.  1.
</event>
<event>
 5   0  0.1506454E-04  0.9999752E+03  0.7818609E-02  0.9308572E-01
        1   -1    0    0  501    0  0.00000000000E+00  0.00000000000E+00  0.28297418583E+03  0.28297418588E+03  0.50400001928E-02 0.  1.
       -1   -1    0    0    0  501  0.00000000000E+00  0.00000000000E+00 -0.88342901149E+03  0.88342901151E+03  0.50400001928E-02 0. -1.
    10030    2    1    2    0    0  0.00000000000E+00  0.00000000000E+00 -0.60045482566E+03  0.11664031974E+04  0.99997521030E+03 0.  0.
        3    1    3    3  502    0 -0.17861215769E+03 -0.31542915807E+03 -0.70191001637E+03  0.78998451752E+03  0.10100000352E+00 0. -1.
       -3    1    3    3    0  502  0.17861215769E+03  0.31542915807E+03  0.10145519071E+03  0.37641867987E+03  0.10100000352E+00 0.  1.
</event>
<event>
 5   0  0.2473312E-04  0.1002588E+04  0.7818609E-02  0.9305711E-01
        2   -1    0    0  501    0  0.00000000000E+00  0.00000000000E+00  0.39674560967E+03  0.39674560968E+03  0.25500000920E-02 0.  1.
       -2   -1    0    0    0  501  0.00000000000E+00  0.00000000000E+00 -0.63339284055E+03  0.63339284056E+03  0.25500000920E-02 0. -1.
    10030    2    1    2    0    0  0.00000000000E+00  0.00000000000E+00 -0.23664723088E+03  0.10301384502E+04  0.10025883077E+04 0.  0.
        5    1    3    3  502    0  0.80119540854E+02 -0.42092690813E+03  0.14896935069E+03  0.45366569218E+03  0.46999998093E+01 0.  1.
       -5    1    3    3    0  502 -0.80119540854E+02  0.42092690813E+03 -0.38561658157E+03  0.57647275807E+03  0.46999998093E+01 0. -1.
</event>
<event>
 5   0  0.1506454E-04  0.1000178E+04  0.7818609E-02  0.9308349E-01
       -1   -1    0    0    0  501  0.00000000000E+00  0.00000000000E+00  0.30282236854E+03  0.30282236858E+03  0.50400001928E-02 0. -1.
        1   -1    0    0  501    0  0.00000000000E+00  0.00000000000E+00 -0.82586069125E+03  0.82586069127E+03  0.50400001928E-02 0.  1.
    10030    2    1    2    0    0  0.00000000000E+00  0.00000000000E+00 -0.52303832272E+03  0.11286830598E+04  0.10001781654E+04 0.  0.
        3    1    3    3  502    0  0.54973717130E+02 -0.11465360570E+03 -0.80731438103E+03  0.81726622278E+03  0.10100000352E+00 0.  1.
       -3    1    3    3    0  502 -0.54973717130E+02  0.11465360570E+03  0.28427605831E+03  0.31141683707E+03  0.10100000352E+00 0. -1.
</event>
<event>
 5   0  0.1453863E-04  0.1000425E+04  0.7818609E-02  0.9308079E-01
        1   -1    0    0  501    0  0.00000000000E+00  0.00000000000E+00  0.20796359474E+03  0.20796359480E+03  0.50400001928E-02 0.  1.
       -1   -1    0    0    0  501  0.00000000000E+00  0.00000000000E+00 -0.12031554896E+04  0.12031554896E+04  0.50400001928E-02 0. -1.
    10030    2    1    2    0    0  0.00000000000E+00  0.00000000000E+00 -0.99519189484E+03  0.14111190844E+04  0.10004249911E+04 0.  0.
        1    1    3    3  502    0  0.43761664505E+03 -0.22155056650E+03 -0.63593879720E+03  0.80312585275E+03  0.50400001928E-02 0. -1.
       -1    1    3    3    0  502 -0.43761664505E+03  0.22155056650E+03 -0.35925309764E+03  0.60799323165E+03  0.50400001928E-02 0.  1.
</event>
<event>
 5   0  0.2353916E-04  0.1001029E+04  0.7818609E-02  0.9307417E-01
        2   -1    0    0  501    0  0.00000000000E+00  0.00000000000E+00  0.80418905903E+03  0.80418905904E+03  0.25500000920E-02 0.  1.
       -2   -1    0    0    0  501  0.00000000000E+00  0.00000000000E+00 -0.31151218311E+03  0.31151218312E+03  0.25500000920E-02 0. -1.
    10030    2    1    2    0    0  0.00000000000E+00  0.00000000000E+00  0.49267687592E+03  0.11157012422E+04  0.10010288496E+04 0.  0.
        4    1    3    3  502    0  0.61768581764E+02 -0.97643477804E+02  0.78912016766E+03  0.79753486341E+03  0.12699999809E+01 0.  1.
       -4    1    3    3    0  502 -0.61768581764E+02  0.97643477804E+02 -0.29644329174E+03  0.31816637875E+03  0.12699999809E+01 0. -1.
</event>
<event>
 5   0  0.2503680E-04  0.1000193E+04  0.7818609E-02  0.9308334E-01
       -2   -1    0    0    0  501  0.00000000000E+00  0.00000000000E+00  0.21355474146E+03  0.21355474148E+03  0.25500000920E-02 0.  1.
        2   -1    0    0  501    0  0.00000000000E+00  0.00000000000E+00 -0.11711111213E+04  0.11711111214E+04  0.25500000920E-02 0. -1.
    10030    2    1    2    0    0  0.00000000000E+00  0.00000000000E+00 -0.95755637989E+03  0.13846658628E+04  0.10001926470E+04 0.  0.
        2    1    3    3  502    0 -0.30647893968E+03  0.66712655950E+01 -0.10257866682E+04  0.10706129716E+04  0.25500000920E-02 0. -1.
       -2    1    3    3    0  502  0.30647893968E+03 -0.66712655950E+01  0.68230288311E+02  0.31405289125E+03  0.25500000920E-02 0.  1.
</event>
<event>
 5   0  0.1461334E-04  0.1000105E+04  0.7818609E-02  0.9308430E-01
       -1   -1    0    0    0  501  0.00000000000E+00  0.00000000000E+00  0.11577967948E+04  0.11577967948E+04  0.50400001928E-02 0. -1.
        1   -1    0    0  501    0  0.00000000000E+00  0.00000000000E+00 -0.21597261733E+03  0.21597261739E+03  0.50400001928E-02 0.  1.
    10030    2    1    2    0    0  0.00000000000E+00  0.00000000000E+00  0.94182417750E+03  0.13737694122E+04  0.10001048028E+04 0.  0.
        2    1    3    3  502    0  0.44344766058E+03  0.15296784294E+03  0.23296377832E+03  0.52375290993E+03  0.25500000920E-02 0.  1.
       -2    1    3    3    0  502 -0.44344766058E+03 -0.15296784294E+03  0.70886039918E+03  0.85001650230E+03  0.25500000920E-02 0. -1.
</event>
<event>
 5   0  0.2503680E-04  0.1000104E+04  0.7818609E-02  0.9308430E-01
        2   -1    0    0  501    0  0.00000000000E+00  0.00000000000E+00  0.86888514621E+03  0.86888514621E+03  0.25500000920E-02 0. -1.
       -2   -1    0    0    0  501  0.00000000000E+00  0.00000000000E+00 -0.28778509293E+03  0.28778509294E+03  0.25500000920E-02 0.  1.
    10030    2    1    2    0    0  0.00000000000E+00  0.00000000000E+00  0.58110005327E+03  0.11566702392E+04  0.10001043797E+04 0.  0.
        2    1    3    3  502    0  0.41520927675E+03  0.21617401567E+03  0.49392604177E+03  0.68050928230E+03  0.25500000920E-02 0. -1.
       -2    1    3    3    0  502 -0.41520927675E+03 -0.21617401567E+03  0.87174011506E+02  0.47616095686E+03  0.25500000920E-02 0.  1.
</event>
<event>
 5   0  0.1461334E-04  0.1000136E+04  0.7818609E-02  0.9308396E-01
       -1   -1    0    0    0  501  0.00000000000E+00  0.00000000000E+00  0.87641233336E+03  0.87641233337E+03  0.50400001928E-02 0.  1.
        1   -1    0    0  501    0  0.00000000000E+00  0.00000000000E+00 -0.28533120665E+03  0.28533120669E+03  0.50400001928E-02 0. -1.
    10030    2    1    2    0    0  0.00000000000E+00  0.00000000000E+00  0.59108112671E+03  0.11617435401E+04  0.10001355681E+04 0.  0.
        2    1    3    3  502    0 -0.26999101058E+03  0.28184202120E+03  0.65868758862E+03  0.76563660448E+03  0.25500000920E-02 0.  1.
       -2    1    3    3    0  502  0.26999101058E+03 -0.28184202120E+03 -0.67606461914E+02  0.39610693558E+03  0.25500000920E-02 0. -1.
</event>
<event>
 5   0  0.1430675E-04  0.9997916E+03  0.7818609E-02  0.9308773E-01
       -1   -1    0    0    0  501  0.00000000000E+00  0.00000000000E+00  0.53036117346E+03  0.53036117349E+03  0.50400001928E-02 0.  1.
        1   -1    0    0  501    0  0.00000000000E+00  0.00000000000E+00 -0.47118048406E+03  0.47118048409E+03  0.50400001928E-02 0. -1.
    10030    2    1    2    0    0  0.00000000000E+00  0.00000000000E+00  0.59180689402E+02  0.10015416576E+04  0.99979164722E+03 0.  0.
        5    1    3    3  502    0 -0.42247795086E+03  0.20161009741E+03 -0.14604336387E+03  0.49039270434E+03  0.46999998093E+01 0. -1.
       -5    1    3    3    0  502  0.42247795086E+03 -0.20161009741E+03  0.20522405327E+03  0.51114895323E+03  0.46999998093E+01 0.  1.
</event>
<event>
 5   0  0.1453863E-04  0.1000353E+04  0.7818609E-02  0.9308158E-01
        1   -1    0    0  501    0  0.00000000000E+00  0.00000000000E+00  0.12155990453E+04  0.12155990453E+04  0.50400001928E-02 0. -1.
       -1   -1    0    0    0  501  0.00000000000E+00  0.00000000000E+00 -0.20580511037E+03  0.20580511043E+03  0.50400001928E-02 0.  1.
    10030    2    1    2    0    0  0.00000000000E+00  0.00000000000E+00  0.10097939350E+04  0.14214041558E+04  0.10003529292E+04 0.  0.
        1    1    3    3  502    0  0.19379290282E+03  0.21271764206E+03 -0.76410296903E+02  0.29772977333E+03  0.50400001928E-02 0.  1.
       -1    1    3    3    0  502 -0.19379290282E+03 -0.21271764206E+03  0.10862042319E+04  0.11236743825E+04  0.50400001928E-02 0. -1.
</event>
<event>
 5   0  0.2503680E-04  0.1000357E+04  0.7818609E-02  0.9308153E-01
       -2   -1    0    0    0  501  0.00000000000E+00  0.00000000000E+00  0.13373299285E+03  0.13373299287E+03  0.25500000920E-02 0.  1.
        2   -1    0    0  501    0  0.00000000000E+00  0.00000000000E+00 -0.18707317509E+04  0.18707317509E+04  0.25500000920E-02 0. -1.
    10030    2    1    2    0    0  0.00000000000E+00  0.00000000000E+00 -0.17369987580E+04  0.20044647438E+04  0.10003570480E+04 0.  0.
        2    1    3    3  502    0 -0.26536509628E+03  0.94299653416E+02 -0.40227123173E+02  0.28448072062E+03  0.25500000920E-02 0.  1.
       -2    1    3    3    0  502  0.26536509628E+03 -0.94299653416E+02 -0.16967716349E+04  0.17199840231E+04  0.25500000920E-02 0. -1.
</event>
<event>
 5   0  0.2353916E-04  0.1000119E+04  0.7818609E-02  0.9308415E-01
       -2   -1    0    0    0  501  0.00000000000E+00  0.00000000000E+00  0.69972372499E+03  0.69972372500E+03  0.25500000920E-02 0.  1.
        2   -1    0    0  501    0  0.00000000000E+00  0.00000000000E+00 -0.35736874364E+03  0.35736874365E+03  0.25500000920E-02 0. -1.
    10030    2    1    2    0    0  0.00000000000E+00  0.00000000000E+00  0.34235498135E+03  0.10570924687E+04  0.10001187700E+04 0.  0.
        4    1    3    3  502    0 -0.63613789494E+02 -0.90567278599E+02 -0.34425905233E+03  0.36161451047E+03  0.12699999809E+01 0. -1.
       -4    1    3    3    0  502  0.63613789494E+02  0.90567278599E+02  0.68661403369E+03  0.69547795818E+03  0.12699999809E+01 0.  1.
</event>
<event>
 5   0  0.2403037E-04  0.1000099E+04  0.7818609E-02  0.9308436E-01
       -2   -1    0    0    0  501  0.00000000000E+00  0.00000000000E+00  0.40523926322E+03  0.40523926322E+03  0.25500000920E-02 0.  1.
        2   -1    0    0  501    0  0.00000000000E+00  0.00000000000E+00 -0.61704208938E+03  0.61704208938E+03  0.25500000920E-02 0. -1.
    10030    2    1    2    0    0  0.00000000000E+00  0.00000000000E+00 -0.21180282616E+03  0.10222813526E+04  0.10000993584E+04 0.  0.
        1    1    3    3  502    0  0.13881590886E+03 -0.47658030881E+03 -0.16766538974E+03  0.52393733427E+03  0.50400001928E-02 0. -1.
       -1    1    3    3    0  502 -0.13881590886E+03  0.47658030881E+03 -0.44137436424E+02  0.49834401834E+03  0.50400001928E-02 0.  1.
</event>
<event>
 5   0  0.2403037E-04  0.1000234E+04  0.7818609E-02  0.9308289E-01
        2   -1    0    0  501    0  0.00000000000E+00  0.00000000000E+00  0.81441827276E+03  0.81441827277E+03  0.25500000920E-02 0. -1.
       -2   -1    0    0    0  501  0.00000000000E+00  0.00000000000E+00 -0.30711099811E+03  0.30711099812E+03  0.25500000920E-02 0.  1.
    10030    2    1    2    0    0  0.00000000000E+00  0.00000000000E+00  0.50730727466E+03  0.11215292709E+04  0.10002335900E+04 0.  0.
        1    1    3    3  502    0 -0.36793279232E+03  0.11252860786E+03 -0.10459010901E+03  0.39871834442E+03  0.50400001928E-02 0.  1.
       -1    1    3    3    0  502  0.36793279232E+03 -0.11252860786E+03  0.61189738367E+03  0.72281092646E+03  0.50400001928E-02 0. -1.
</event>
<event>
 5   0  0.1461334E-04  0.1000040E+04  0.7818609E-02  0.9308501E-01
        1   -1    0    0  501    0  0.00000000000E+00  0.00000000000E+00  0.45955047193E+03  0.45955047196E+03  0.50400001928E-02 0.  1.
       -1   -1    0    0    0  501  0.00000000000E+00  0.00000000000E+00 -0.54405309927E+03  0.54405309929E+03  0.50400001928E-02 0. -1.
    10030    2    1    2    0    0  0.00000000000E+00  0.00000000000E+00 -0.84502627338E+02  0.10036035713E+04  0.10000397163E+04 0.  0.
        2    1    3    3  502    0  0.91351549881E+02 -0.34960377196E+03 -0.38910122015E+03  0.53100627356E+03  0.25500000920E-02 0. -1.
       -2    1    3    3    0  502 -0.91351549881E+02  0.34960377196E+03  0.30459859281E+03  0.47259729769E+03  0.25500000920E-02 0.  1.
</event>
<event>
 5   0  0.9650500E-05  0.1000647E+04  0.7818609E-02  0.9307835E-01
        4   -1    0    0  501    0  0.00000000000E+00  0.00000000000E+00  0.76248619862E+03  0.76248725627E+03  0.12699999809E+01 0.  1.
       -4   -1    0    0    0  501  0.00000000000E+00  0.00000000000E+00 -0.32829671244E+03  0.32829916890E+03  0.12699999809E+01 0. -1.
    10030    2    1    2    0    0  0.00000000000E+00  0.00000000000E+00  0.43418948617E+03  0.10907864252E+04  0.10006470484E+04 0.  0.
        2    1    3    3  502    0  0.26546895606E+03  0.36255935352E+03 -0.22724527190E+02  0.44993272341E+03  0.25500000920E-02 0. -1.
       -2    1    3    3    0  502 -0.26546895606E+03 -0.36255935352E+03  0.45691401336E+03  0.64085370177E+03  0.25500000920E-02 0.  1.
</event>
<event>
 5   0  0.2403037E-04  0.1000158E+04  0.7818609E-02  0.9308371E-01
        2   -1    0    0  501    0  0.00000000000E+00  0.00000000000E+00  0.92923469688E+03  0.92923469689E+03  0.25500000920E-02 0.  1.
       -2   -1    0    0    0  501  0.00000000000E+00  0.00000000000E+00 -0.26912381861E+03  0.26912381863E+03  0.25500000920E-02 0. -1.
    10030    2    1    2    0    0  0.00000000000E+00  0.00000000000E+00  0.66011087827E+03  0.11983585155E+04  0.10001583675E+04 0.  0.
        1    1    3    3  502    0 -0.24303485969E+03 -0.38496687338E+03  0.57797434417E+03  0.73574437080E+03  0.50400001928E-02 0.  1.
       -1    1    3    3    0  502  0.24303485969E+03  0.38496687338E+03  0.82136534099E+02  0.46261414471E+03  0.50400001928E-02 0. -1.
</event>
<event>
 5   0  0.2473312E-04  0.1000753E+04  0.7818609E-02  0.9307719E-01
       -2   -1    0    0    0  501  0.00000000000E+00  0.00000000000E+00  0.41363102297E+03  0.41363102297E+03  0.25500000920E-02 0. -1.
        2   -1    0    0  501    0  0.00000000000E+00  0.00000000000E+00 -0.60531395640E+03  0.60531395640E+03  0.25500000920E-02 0.  1.
    10030    2    1    2    0    0  0.00000000000E+00  0.00000000000E+00 -0.19168293343E+03  0.10189449794E+04  0.10007529785E+04 0.  0.
        5    1    3    3  502    0 -0.23255465122E+03 -0.93917006272E+02 -0.53666972622E+03  0.59240067093E+03  0.46999998093E+01 0.  1.
       -5    1    3    3    0  502  0.23255465122E+03  0.93917006272E+02  0.34498679279E+03  0.42654430845E+03  0.46999998093E+01 0. -1.
</event>
<event>
 5   0  0.2353916E-04  0.9993512E+03  0.7818609E-02  0.9309257E-01
       -2   -1    0    0    0  501  0.00000000000E+00  0.00000000000E+00  0.22642037846E+03  0.22642037847E+03  0.25500000920E-02 0.  1.
        2   -1    0    0  501    0  0.00000000000E+00  0.00000000000E+00 -0.11027086058E+04  0.11027086058E+04  0.25500000920E-02 0. -1.
    10030    2    1    2    0    0  0.00000000000E+00  0.00000000000E+00 -0.87628822738E+03  0.13291289843E+04  0.99935118927E+03 0.  0.
        4    1    3    3  502    0  0.38321853098E+03  0.44593302950E+02 -0.15823868308E+02  0.38613082350E+03  0.12699999809E+01 0.  1.
       -4    1    3    3    0  502 -0.38321853098E+03 -0.44593302950E+02 -0.86046435907E+03  0.94299816080E+03  0.12699999809E+01 0. -1.
</event>
<event>
 5   0  0.1453863E-04  0.9998430E+03  0.7818609E-02  0.9308717E-01
        1   -1    0    0  501    0  0.00000000000E+00  0.00000000000E+00  0.45115252916E+03  0.45115252919E+03  0.50400001928E-02 0.  1.
       -1   -1    0    0    0  501  0.00000000000E+00  0.00000000000E+00 -0.55396229443E+03  0.55396229445E+03  0.50400001928E-02 0. -1.
    10030    2    1    2    0    0  0.00000000000E+00  0.00000000000E+00 -0.10280976527E+03  0.10051148236E+04  0.99984296810E+03 0.  0.
        1    1    3    3  502    0  0.59189760404E+02  0.36447243978E+03  0.28738529044E+03  0.46790372117E+03  0.50400001928E-02 0.  1.
       -1    1    3    3    0  502 -0.59189760404E+02 -0.36447243978E+03 -0.39019505571E+03  0.53721110247E+03  0.50400001928E-02 0. -1.
</event>
<event>
 5   0  0.2484904E-04  0.9997258E+03  0.7818609E-02  0.9308846E-01
       -2   -1    0    0    0  501  0.00000000000E+00  0.00000000000E+00  0.49589359035E+03  0.49589359035E+03  0.25500000920E-02 0.  1.
        2   -1    0    0  501    0  0.00000000000E+00  0.00000000000E+00 -0.50386402397E+03  0.50386402398E+03  0.25500000920E-02 0. -1.
    10030    2    1    2    0    0  0.00000000000E+00  0.00000000000E+00 -0.79704336230E+01  0.99975761433E+03  0.99972584222E+03 0.  0.
        3    1    3    3  502    0  0.26978529868E+03 -0.34817749211E+03  0.23235099785E+03  0.49799464836E+03  0.10100000352E+00 0.  1.
       -3    1    3    3    0  502 -0.26978529868E+03  0.34817749211E+03 -0.24032143147E+03  0.50176296597E+03  0.10100000352E+00 0. -1.
</event>
<event>
 5   0  0.2403037E-04  0.1000857E+04  0.7818609E-02  0.9307606E-01
       -2   -1    0    0    0  501  0.00000000000E+00  0.00000000000E+00  0.42107831069E+03  0.42107831070E+03  0.25500000920E-02 0.  1.
        2   -1    0    0  501    0  0.00000000000E+00  0.00000000000E+00 -0.59473153409E+03  0.59473153409E+03  0.25500000920E-02 0. -1.
    10030    2    1    2    0    0  0.00000000000E+00  0.00000000000E+00 -0.17365322340E+03  0.10158098448E+04  0.10008567324E+04 0.  0.
        1    1    3    3  502    0 -0.25329364882E+03 -0.68403945647E+02 -0.51932908200E+03  0.58184144553E+03  0.50400001928E-02 0. -1.
       -1    1    3    3    0  502  0.25329364882E+03  0.68403945647E+02  0.34567585859E+03  0.43396839925E+03  0.50400001928E-02 0.  1.
</event>
<event>
 5   0  0.1414165E-04  0.1000178E+04  0.7818609E-02  0.9308349E-01
        1   -1    0    0  501    0  0.00000000000E+00  0.00000000000E+00  0.86135678154E+03  0.86135678155E+03  0.50400001928E-02 0. -1.
       -1   -1    0    0    0  501  0.00000000000E+00  0.00000000000E+00 -0.29034320894E+03  0.29034320898E+03  0.50400001928E-02 0.  1.
    10030    2    1    2    0    0  0.00000000000E+00  0.00000000000E+00  0.57101357260E+03  0.11516999905E+04  0.10001781682E+04 0.  0.
        4    1    3    3  502    0  0.39859723199E+03 -0.29959380355E+03  0.32937373193E+03  0.59759925423E+03  0.12699999809E+01 0.  1.
       -4    1    3    3    0  502 -0.39859723199E+03  0.29959380355E+03  0.24163984067E+03  0.55410073630E+03  0.12699999809E+01 0. -1.
</event>
<event>
 5   0  0.2484904E-04  0.1000867E+04  0.7818609E-02  0.9307595E-01
       -2   -1    0    0    0  501  0.00000000000E+00  0.00000000000E+00  0.46455658164E+03  0.46455658165E+03  0.25500000920E-02 0.  1.
        2   -1    0    0  501    0  0.00000000000E+00  0.00000000000E+00 -0.53908070710E+03  0.53908070711E+03  0.25500000920E-02 0. -1.
    10030    2    1    2    0    0  0.00000000000E+00  0.00000000000E+00 -0.74524125461E+02  0.10036372888E+04  0.10008666055E+04 0.  0.
        3    1    3    3  502    0 -0.37529097852E+03  0.10552452931E+03  0.27738153144E+03  0.47845508570E+03  0.10100000352E+00 0.  1.
       -3    1    3    3    0  502  0.37529097852E+03 -0.10552452931E+03 -0.35190565690E+03  0.52518220305E+03  0.10100000352E+00 0. -1.
</event>
<event>
 5   0  0.2403037E-04  0.9999143E+03  0.7818609E-02  0.9308639E-01
        2   -1    0    0  501    0  0.00000000000E+00  0.00000000000E+00  0.12355726810E+04  0.12355726810E+04  0.25500000920E-02 0. -1.
       -2   -1    0    0    0  501  0.00000000000E+00  0.00000000000E+00 -0.20230064507E+03  0.20230064509E+03  0.25500000920E-02 0.  1.
    10030    2    1    2    0    0  0.00000000000E+00  0.00000000000E+00  0.10332720359E+04  0.14378733261E+04  0.99991429714E+03 0.  0.
        1    1    3    3  502    0 -0.32722742215E+03 -0.35639248909E+03  0.33551831932E+03  0.58878343617E+03  0.50400001928E-02 0.  1.
       -1    1    3    3    0  502  0.32722742215E+03  0.35639248909E+03  0.69775371660E+03  0.84908988990E+03  0.50400001928E-02 0. -1.
</event>
<event>
 5   0  0.1461334E-04  0.1000187E+04  0.7818609E-02  0.9308340E-01
       -1   -1    0    0    0  501  0.00000000000E+00  0.00000000000E+00  0.54543912802E+03  0.54543912804E+03  0.50400001928E-02 0.  1.
        1   -1    0    0  501    0  0.00000000000E+00  0.00000000000E+00 -0.45851744168E+03  0.45851744171E+03  0.50400001928E-02 0. -1.
    10030    2    1    2    0    0  0.00000000000E+00  0.00000000000E+00  0.86921686335E+02  0.10039565698E+04  0.10001866898E+04 0.  0.
        2    1    3    3  502    0 -0.30669813890E+02 -0.14661341431E+02 -0.45735636738E+03  0.45861796651E+03  0.25500000920E-02 0. -1.
       -2    1    3    3    0  502  0.30669813890E+02  0.14661341431E+02  0.54427805372E+03  0.54533860324E+03  0.25500000920E-02 0.  1.
</event>
<event>
 5   0  0.2473312E-04  0.9993248E+03  0.7818609E-02  0.9309286E-01
        2   -1    0    0  501    0  0.00000000000E+00  0.00000000000E+00  0.68254699453E+03  0.68254699454E+03  0.25500000920E-02 0. -1.
       -2   -1    0    0    0  501  0.00000000000E+00  0.00000000000E+00 -0.36578067184E+03  0.36578067184E+03  0.25500000920E-02 0.  1.
    10030    2    1    2    0    0  0.00000000000E+00  0.00000000000E+00  0.31676632270E+03  0.10483276664E+04  0.99932476849E+03 0.  0.
        5    1    3    3  502    0  0.42478778992E+03  0.77166821531E+02  0.42219230277E+03  0.60387731811E+03  0.46999998093E+01 0. -1.
       -5    1    3    3    0  502 -0.42478778992E+03 -0.77166821531E+02 -0.10542598007E+03  0.44445034828E+03  0.46999998093E+01 0.  1.
</event>
<event>
 5   0  0.1453863E-04  0.9994114E+03  0.7818609E-02  0.9309191E-01
       -1   -1    0    0    0  501  0.00000000000E+00  0.00000000000E+00  0.76852538586E+03  0.76852538587E+03  0.50400001928E-02 0.  1.
        1   -1    0    0  501    0  0.00000000000E+00  0.00000000000E+00 -0.32491548821E+03  0.32491548825E+03  0.50400001928E-02 0. -1.
    10030    2    1    2    0    0  0.00000000000E+00  0.00000000000E+00  0.44360989765E+03  0.10934408741E+04  0.99941142875E+03 0.  0.
        1    1    3    3  502    0  0.31263879852E+01 -0.19479614150E+03 -0.28165300303E+03  0.34246711548E+03  0.50400001928E-02 0. -1.
       -1    1    3    3    0  502 -0.31263879852E+01  0.19479614150E+03  0.72526290067E+03  0.75097375864E+03  0.50400001928E-02 0.  1.
</event>
<event>
 5   0  0.2403037E-04  0.1004472E+04  0.7818609E-02  0.9303654E-01
       -2   -1    0    0    0  501  0.00000000000E+00  0.00000000000E+00  0.22497406846E+03  0.22497406847E+03  0.25500000920E-02 0. -1.
        2   -1    0    0  501    0  0.00000000000E+00  0.00000000000E+00 -0.11211999841E+04  0.11211999842E+04  0.25500000920E-02 0.  1.
    10030    2    1    2    0    0  0.00000000000E+00  0.00000000000E+00 -0.89622591569E+03  0.13461740526E+04  0.10044718453E+04 0.  0.
        1    1    3    3  502    0 -0.38888524628E+03  0.26833520009E+02 -0.23698254597E+02  0.39052961458E+03  0.50400001928E-02 0. -1.
       -1    1    3    3    0  502  0.38888524628E+03 -0.26833520009E+02 -0.87252766109E+03  0.95564443804E+03  0.50400001928E-02 0.  1.
</event>
<event>
 5   0  0.2503680E-04  0.9996873E+03  0.7818609E-02  0.9308888E-01
       -2   -1    0    0    0  501  0.00000000000E+00  0.00000000000E+00  0.29107515661E+03  0.29107515662E+03  0.25500000920E-02 0. -1.
        2   -1    0    0  501    0  0.00000000000E+00  0.00000000000E+00 -0.85834767328E+03  0.85834767328E+03  0.25500000920E-02 0.  1.
    10030    2    1    2    0    0  0.00000000000E+00  0.00000000000E+00 -0.56727251667E+03  0.11494228299E+04  0.99968731798E+03 0.  0.
        2    1    3    3  502    0  0.21725961106E+03 -0.95021201113E+02 -0.78955736625E+03  0.82439772069E+03  0.25500000920E-02 0.  1.
       -2    1    3    3    0  502 -0.21725961106E+03  0.95021201113E+02  0.22228484958E+03  0.32502510922E+03  0.25500000920E-02 0. -1.
</event>
<event>
 5   0  0.1430675E-04  0.1000142E+04  0.7818609E-02  0.9308389E-01
       -1   -1    0    0    0  501  0.00000000000E+00  0.00000000000E+00  0.60309011494E+03  0.60309011496E+03  0.50400001928E-02 0.  1.
        1   -1    0    0  501    0  0.00000000000E+00  0.00000000000E+00 -0.41464943127E+03  0.41464943130E+03  0.50400001928E-02 0. -1.
    10030    2    1    2    0    0  0.00000000000E+00  0.00000000000E+00  0.18844068367E+03  0.10177395463E+04  0.10001419363E+04 0.  0.
        5    1    3    3  502    0  0.48276916453E+03  0.27989309040E+02  0.22373671829E+03  0.53285052008E+03  0.46999998093E+01 0. -1.
       -5    1    3    3    0  502 -0.48276916453E+03 -0.27989309040E+02 -0.35296034623E+02  0.48488902617E+03  0.46999998093E+01 0.  1.
</event>
<event>
 5   0  0.1506454E-04  0.1002146E+04  0.7818609E-02  0.9306195E-01
        1   -1    0    0  501    0  0.00000000000E+00  0.00000000000E+00  0.28823535996E+03  0.28823536001E+03  0.50400001928E-02 0. -1.
       -1   -1    0    0    0  501  0.00000000000E+00  0.00000000000E+00 -0.87107252256E+03  0.87107252258E+03  0.50400001928E-02 0.  1.
    10030    2    1    2    0    0  0.00000000000E+00  0.00000000000E+00 -0.58283716260E+03  0.11593078826E+04  0.10021455027E+04 0.  0.
        3    1    3    3  502    0  0.39794733072E+03 -0.12300688109E+03 -0.61363378786E+03  0.74164628134E+03  0.10100000352E+00 0.  1.
       -3    1    3    3    0  502 -0.39794733072E+03  0.12300688109E+03  0.30796625259E+02  0.41766160124E+03  0.10100000352E+00 0. -1.
</event>
<event>
 5   0  0.2403037E-04  0.1000001E+04  0.7818609E-02  0.9308544E-01
        2   -1    0    0  501    0  0.00000000000E+00  0.00000000000E+00  0.75862567681E+03  0.75862567681E+03  0.25500000920E-02 0.  1.
       -2   -1    0    0    0  501  0.00000000000E+00  0.00000000000E+00 -0.32954387928E+03  0.32954387929E+03  0.25500000920E-02 0. -1.
    10030    2    1    2    0    0  0.00000000000E+00  0.00000000000E+00  0.42908179753E+03  0.10881695561E+04  0.10000008969E+04 0.  0.
        1    1    3    3  502    0  0.27036738042E+03 -0.34924173035E+03  0.46958157322E+03  0.64465119293E+03  0.50400001928E-02 0.  1.
       -1    1    3    3    0  502 -0.27036738042E+03  0.34924173035E+03 -0.40499775697E+02  0.44351836317E+03  0.50400001928E-02 0. -1.
</event>
<event>
 5   0  0.2473312E-04  0.1000143E+04  0.7818609E-02  0.9308388E-01
        2   -1    0    0  501    0  0.00000000000E+00  0.00000000000E+00  0.13692355623E+04  0.13692355623E+04  0.25500000920E-02 0.  1.
       -2   -1    0    0    0  501  0.00000000000E+00  0.00000000000E+00 -0.18263579905E+03  0.18263579907E+03  0.25500000920E-02 0. -1.
    10030    2    1    2    0    0  0.00000000000E+00  0.00000000000E+00  0.11865997633E+04  0.15518713614E+04  0.10001428519E+04 0.  0.
        5    1    3    3  502    0 -0.44139188011E+03 -0.19179054079E+03  0.80399847266E+03  0.93704110764E+03  0.46999998093E+01 0.  1.
       -5    1    3    3    0  502  0.44139188011E+03  0.19179054079E+03  0.38260129063E+03  0.61483025377E+03  0.46999998093E+01 0. -1.
</event>
<event>
 5   0  0.1430675E-04  0.1000190E+04  0.7818609E-02  0.9308336E-01
        1   -1    0    0  501    0  0.00000000000E+00  0.00000000000E+00  0.10669785590E+04  0.10669785590E+04  0.50400001928E-02 0.  1.
       -1   -1    0    0    0  501  0.00000000000E+00  0.00000000000E+00 -0.23439565068E+03  0.23439565073E+03  0.50400001928E-02 0. -1.
    10030    2    1    2    0    0  0.00000000000E+00  0.00000000000E+00  0.83258290831E+03  0.13013742097E+04  0.10001902492E+04 0.  0.
        5    1    3    3  502    0  0.44794275940E+03  0.47038028955E+02  0.13359117427E+03  0.46982335373E+03  0.46999998093E+01 0. -1.
       -5    1    3    3    0  502 -0.44794275940E+03 -0.47038028955E+02  0.69899173403E+03  0.83155085600E+03  0.46999998093E+01 0.  1.
</event>
<event>
 5   0  0.2403037E-04  0.9998762E+03  0.7818609E-02  0.9308681E-01
       -2   -1    0    0    0  501  0.00000000000E+00  0.00000000000E+00  0.29953494136E+03  0.29953494137E+03  0.25500000920E-02 0.  1.
        2   -1    0    0  501    0  0.00000000000E+00  0.00000000000E+00 -0.83442058621E+03  0.83442058622E+03  0.25500000920E-02 0. -1.
    10030    2    1    2    0    0  0.00000000000E+00  0.00000000000E+00 -0.53488564485E+03  0.11339555276E+04  0.99987623508E+03 0.  0.
        1    1    3    3  502    0  0.38395185057E+03 -0.86426335360E+02 -0.61708586573E+03  0.73190402425E+03  0.50400001928E-02 0. -1.
       -1    1    3    3    0  502 -0.38395185057E+03  0.86426335360E+02  0.82200220880E+02  0.40205150334E+03  0.50400001928E-02 0.  1.
</event>
<event>
 5   0  0.1414165E-04  0.1001028E+04  0.7818609E-02  0.9307418E-01
       -1   -1    0    0    0  501  0.00000000000E+00  0.00000000000E+00  0.77766193832E+03  0.77766193834E+03  0.50400001928E-02 0.  1.
        1   -1    0    0  501    0  0.00000000000E+00  0.00000000000E+00 -0.32213770978E+03  0.32213770982E+03  0.50400001928E-02 0. -1.
    10030    2    1    2    0    0  0.00000000000E+00  0.00000000000E+00  0.45552422855E+03  0.10997996482E+04  0.10010279433E+04 0.  0.
        4    1    3    3  502    0  0.31881139948E+03  0.38489725775E+03  0.19815880181E+03  0.53763847621E+03  0.12699999809E+01 0. -1.
       -4    1    3    3    0  502 -0.31881139948E+03 -0.38489725775E+03  0.25736542674E+03  0.56216117195E+03  0.12699999809E+01 0.  1.
</event>
<event>
 5   0  0.2484904E-04  0.1000323E+04  0.7818609E-02  0.9308190E-01
       -2   -1    0    0    0  501  0.00000000000E+00  0.00000000000E+00  0.14430301297E+03  0.14430301300E+03  0.25500000920E-02 0.  1.
        2   -1    0    0  501    0  0.00000000000E+00  0.00000000000E+00 -0.17335860821E+04  0.17335860821E+04  0.25500000920E-02 0. -1.
    10030    2    1    2    0    0  0.00000000000E+00  0.00000000000E+00 -0.15892830691E+04  0.18778890951E+04  0.10003233376E+04 0.  0.
        3    1    3    3  502    0 -0.11015410819E+03  0.12658543240E+03 -0.16791659531E+04  0.16875295871E+04  0.10100000352E+00 0. -1.
       -3    1    3    3    0  502  0.11015410819E+03 -0.12658543240E+03  0.89882883948E+02  0.19035950798E+03  0.10100000352E+00 0.  1.
</event>
<event>
 5   0  0.2353916E-04  0.1000131E+04  0.7818609E-02  0.9308401E-01
       -2   -1    0    0    0  501  0.00000000000E+00  0.00000000000E+00  0.82668437203E+03  0.82668437203E+03  0.25500000920E-02 0.  1.
        2   -1    0    0  501    0  0.00000000000E+00  0.00000000000E+00 -0.30249200786E+03  0.30249200787E+03  0.25500000920E-02 0. -1.
    10030    2    1    2    0    0  0.00000000000E+00  0.00000000000E+00  0.52419236416E+03  0.11291763799E+04  0.10001308226E+04 0.  0.
        4    1    3    3  502    0 -0.25762742195E+03  0.32340340485E+03 -0.55444316401E+02  0.41717782291E+03  0.12699999809E+01 0. -1.
       -4    1    3    3    0  502  0.25762742195E+03 -0.32340340485E+03  0.57963668057E+03  0.71199855700E+03  0.12699999809E+01 0.  1.
</event>
<event>
 5   0  0.2503680E-04  0.1000248E+04  0.7818609E-02  0.9308273E-01
        2   -1    0    0  501    0  0.00000000000E+00  0.00000000000E+00  0.97506927945E+03  0.97506927945E+03  0.25500000920E-02 0.  1.
       -2   -1    0    0    0  501  0.00000000000E+00  0.00000000000E+00 -0.25651925750E+03  0.25651925751E+03  0.25500000920E-02 0. -1.
    10030    2    1    2    0    0  0.00000000000E+00  0.00000000000E+00  0.71855002195E+03  0.12315885370E+04  0.10002480644E+04 0.  0.
        2    1    3    3  502    0 -0.36080516864E+03  0.14457472839E+03  0.74677102299E+03  0.84187242655E+03  0.25500000920E-02 0.  1.
       -2    1    3    3    0  502  0.36080516864E+03 -0.14457472839E+03 -0.28221001039E+02  0.38971611041E+03  0.25500000920E-02 0. -1.
</event>
<event>
 5   0  0.2503680E-04  0.1000077E+04  0.7818609E-02  0.9308461E-01
       -2   -1    0    0    0  501  0.00000000000E+00  0.00000000000E+00  0.41441755647E+03  0.41441755648E+03  0.25500000920E-02 0. -1.
        2   -1    0    0  501    0  0.00000000000E+00  0.00000000000E+00 -0.60334889928E+03  0.60334889928E+03  0.25500000920E-02 0.  1.
    10030    2    1    2    0    0  0.00000000000E+00  0.00000000000E+00 -0.18893134281E+03  0.10177664558E+04  0.10000767501E+04 0.  0.
        2    1    3    3  502    0  0.47306090259E+03  0.13499041572E+03 -0.18565728614E+03  0.52581142799E+03  0.25500000920E-02 0. -1.
       -2    1    3    3    0  502 -0.47306090259E+03 -0.13499041572E+03 -0.32740566747E+01  0.49195502777E+03  0.25500000920E-02 0.  1.
</event>
<event>
 5   0  0.2403037E-04  0.1000425E+04  0.7818609E-02  0.9308079E-01
       -2   -1    0    0    0  501  0.00000000000E+00  0.00000000000E+00  0.13751971829E+04  0.13751971829E+04  0.25500000920E-02 0.  1.
        2   -1    0    0  501    0  0.00000000000E+00  0.00000000000E+00 -0.18194660796E+03  0.18194660798E+03  0.25500000920E-02 0. -1.
    10030    2    1    2    0    0  0.00000000000E+00  0.00000000000E+00  0.11932505749E+04  0.15571437909E+04  0.10004248352E+04 0.  0.
        1    1    3    3  502    0 -0.45229946169E+03 -0.21238010289E+03  0.63253761153E+03  0.80609176970E+03  0.50400001928E-02 0. -1.
       -1    1    3    3    0  502  0.45229946169E+03  0.21238010289E+03  0.56071296338E+03  0.75105202115E+03  0.50400001928E-02 0.  1.
</event>
<event>
 5   0  0.1430675E-04  0.1000935E+04  0.7818609E-02  0.9307519E-01
       -1   -1    0    0    0  501  0.00000000000E+00  0.00000000000E+00  0.30781034100E+03  0.30781034104E+03  0.50400001928E-02 0. -1.
        1   -1    0    0  501    0  0.00000000000E+00  0.00000000000E+00 -0.81370872187E+03  0.81370872189E+03  0.50400001928E-02 0.  1.
    10030    2    1    2    0    0  0.00000000000E+00  0.00000000000E+00 -0.50589838087E+03  0.11215190629E+04  0.10009354808E+04 0.  0.
        5    1    3    3  502    0 -0.18008763513E+03  0.85812842416E+02  0.26130967905E+03  0.32878600732E+03  0.46999998093E+01 0. -1.
       -5    1    3    3    0  502  0.18008763513E+03 -0.85812842416E+02 -0.76720805992E+03  0.79273305560E+03  0.46999998093E+01 0.  1.
</event>
<event>
 5   0  0.1453863E-04  0.1000231E+04  0.7818609E-02  0.9308291E-01
        1   -1    0    0  501    0  0.00000000000E+00  0.00000000000E+00  0.60100406767E+03  0.60100406769E+03  0.50400001928E-02 0.  1.
       -1   -1    0    0    0  501  0.00000000000E+00  0.00000000000E+00 -0.41616277400E+03  0.41616277403E+03  0.50400001928E-02 0. -1.
    10030    2    1    2    0    0  0.00000000000E+00  0.00000000000E+00  0.18484129366E+03  0.10171668417E+04  0.10002310133E+04 0.  0.
        1    1    3    3  502    0 -0.40939053470E+03  0.14310442995E+03 -0.16086692728E+03  0.46255557081E+03  0.50400001928E-02 0. -1.
       -1    1    3    3    0  502  0.40939053470E+03 -0.14310442995E+03  0.34570822094E+03  0.55461127091E+03  0.50400001928E-02 0.  1.
</event>
<event>
 5   0  0.2403037E-04  0.9999414E+03  0.7818609E-02  0.9308609E-01
        2   -1    0    0  501    0  0.00000000000E+00  0.00000000000E+00  0.30508555475E+03  0.30508555476E+03  0.25500000920E-02 0. -1.
       -2   -1    0    0    0  501  0.00000000000E+00  0.00000000000E+00 -0.81934618257E+03  0.81934618257E+03  0.25500000920E-02 0.  1.
    10030    2    1    2    0    0  0.00000000000E+00  0.00000000000E+00 -0.51426062782E+03  0.11244317373E+04  0.99994136759E+03 0.  0.
        1    1    3    3  502    0 -0.20385128296E+03  0.25191068656E+03 -0.68526180628E+03  0.75802248168E+03  0.50400001928E-02 0.  1.
       -1    1    3    3    0  502  0.20385128296E+03 -0.25191068656E+03  0.17100117846E+03  0.36640925565E+03  0.50400001928E-02 0. -1.
</event>
<event>
 5   0  0.1461334E-04  0.1000120E+04  0.7818609E-02  0.9308413E-01
       -1   -1    0    0    0  501  0.00000000000E+00  0.00000000000E+00  0.49064030407E+03  0.49064030410E+03  0.50400001928E-02 0.  1.
        1   -1    0    0  501    0  0.00000000000E+00  0.00000000000E+00 -0.50966074454E+03  0.50966074457E+03  0.50400001928E-02 0. -1.
    10030    2    1    2    0    0  0.00000000000E+00  0.00000000000E+00 -0.19020440473E+02  0.10003010487E+04  0.10001201982E+04 0.  0.
        2    1    3    3  502    0  0.20204847539E+03 -0.11890471990E+03 -0.45128929282E+03  0.50855082798E+03  0.25500000920E-02 0. -1.
       -2    1    3    3    0  502 -0.20204847539E+03  0.11890471990E+03  0.43226885235E+03  0.49175022068E+03  0.25500000920E-02 0.  1.
</event>
<event>
 5   0  0.1506454E-04  0.1000176E+04  0.7818609E-02  0.9308352E-01
        1   -1    0    0  501    0  0.00000000000E+00  0.00000000000E+00  0.99862606524E+03  0.99862606525E+03  0.50400001928E-02 0. -1.
       -1   -1    0    0    0  501  0.00000000000E+00  0.00000000000E+00 -0.25043218156E+03  0.25043218161E+03  0.50400001928E-02 0.  1.
    10030    2    1    2    0    0  0.00000000000E+00  0.00000000000E+00  0.74819388368E+03  0.12490582469E+04  0.10001761927E+04 0.  0.
        3    1    3    3  502    0 -0.40324322358E+03 -0.26983155887E+03  0.22281769749E+03  0.53391188790E+03  0.10100000352E+00 0. -1.
       -3    1    3    3    0  502  0.40324322358E+03  0.26983155887E+03  0.52537618619E+03  0.71514635896E+03  0.10100000352E+00 0.  1.
</event>
<event>
 5   0  0.1414165E-04  0.9960816E+03  0.7818609E-02  0.9312853E-01
        1   -1    0    0  501    0  0.00000000000E+00  0.00000000000E+00  0.76913948472E+03  0.76913948473E+03  0.50400001928E-02 0.  1.
       -1   -1    0    0    0  501  0.00000000000E+00  0.00000000000E+00 -0.32249633155E+03  0.32249633159E+03  0.50400001928E-02 0. -1.
    10030    2    1    2    0    0  0.00000000000E+00  0.00000000000E+00  0.44664315317E+03  0.10916358163E+04  0.99608164786E+03 0.  0.
        4    1    3    3  502    0  0.21023680910E+03  0.18543260695E+03  0.67446459098E+03  0.73040322083E+03  0.12699999809E+01 0.  1.
       -4    1    3    3    0  502 -0.21023680910E+03 -0.18543260695E+03 -0.22782143781E+03  0.36123259549E+03  0.12699999809E+01 0. -1.
</event>
<event>
 5   0  0.2403037E-04  0.9996934E+03  0.7818609E-02  0.9308881E-01
        2   -1    0    0  501    0  0.00000000000E+00  0.00000000000E+00  0.17097135417E+04  0.17097135417E+04  0.25500000920E-02 0. -1.
       -2   -1    0    0    0  501  0.00000000000E+00  0.00000000000E+00 -0.14613367693E+03  0.14613367695E+03  0.25500000920E-02 0.  1.
    10030    2    1    2    0    0  0.00000000000E+00  0.00000000000E+00  0.15635798648E+04  0.18558472186E+04  0.99969340572E+03 0.  0.
        1    1    3    3  502    0 -0.63514010858E+02  0.44843492138E+03  0.11743630448E+04  0.12586725028E+04  0.50400001928E-02 0. -1.
       -1    1    3    3    0  502  0.63514010858E+02 -0.44843492138E+03  0.38921682000E+03  0.59717471588E+03  0.50400001928E-02 0.  1.
</event>
<event>
 5   0  0.1461334E-04  0.9999242E+03  0.7818609E-02  0.9308628E-01
        1   -1    0    0  501    0  0.00000000000E+00  0.00000000000E+00  0.73121307342E+03  0.73121307344E+03  0.50400001928E-02 0. -1.
       -1   -1    0    0    0  501  0.00000000000E+00  0.00000000000E+00 -0.34184575211E+03  0.34184575215E+03  0.50400001928E-02 0.  1.
    10030    2    1    2    0    0  0.00000000000E+00  0.00000000000E+00  0.38936732131E+03  0.10730588256E+04  0.99992416326E+03 0.  0.
        2    1    3    3  502    0  0.27350344581E+03 -0.11184957634E+03 -0.23810943568E+03  0.37948724085E+03  0.25500000920E-02 0.  1.
       -2    1    3    3    0  502 -0.27350344581E+03  0.11184957634E+03  0.62747675699E+03  0.69357158475E+03  0.25500000920E-02 0. -1.
</event>
<event>
 5   0  0.1506454E-04  0.1002812E+04  0.7818609E-02  0.9305466E-01
       -1   -1    0    0    0  501  0.00000000000E+00  0.00000000000E+00  0.24323777270E+03  0.24323777275E+03  0.50400001928E-02 0.  1.
        1   -1    0    0  501    0  0.00000000000E+00  0.00000000000E+00 -0.10335902208E+04  0.10335902208E+04  0.50400001928E-02 0. -1.
    10030    2    1    2    0    0  0.00000000000E+00  0.00000000000E+00 -0.79035244807E+03  0.12768279935E+04  0.10028124116E+04 0.  0.
        3    1    3    3  502    0  0.99524813033E+02  0.17294499460E+03 -0.98086022019E+03  0.10009505189E+04  0.10100000352E+00 0. -1.
       -3    1    3    3    0  502 -0.99524813033E+02 -0.17294499460E+03  0.19050777212E+03  0.27587747462E+03  0.10100000352E+00 0.  1.
</event>
<event>
 5   0  0.1430675E-04  0.1000667E+04  0.7818609E-02  0.9307813E-01
        1   -1    0    0  501    0  0.00000000000E+00  0.00000000000E+00  0.17447052923E+04  0.17447052923E+04  0.50400001928E-02 0.  1.
       -1   -1    0    0    0  501  0.00000000000E+00  0.00000000000E+00 -0.14348201579E+03  0.14348201588E+03  0.50400001928E-02 0. -1.
    10030    2    1    2    0    0  0.00000000000E+00  0.00000000000E+00  0.16012232765E+04  0.18881873082E+04  0.10006674420E+04 0.  0.
        5    1    3    3  502    0 -0.31679580189E+03  0.15567086232E+03  0.13156664851E+03  0.37672917391E+03  0.46999998093E+01 0. -1.
       -5    1    3    3    0  502  0.31679580189E+03 -0.15567086232E+03  0.14696566280E+04  0.15114581343E+04  0.46999998093E+01 0.  1.
</event>
<event>
 5   0  0.2403037E-04  0.9998890E+03  0.7818609E-02  0.9308667E-01
       -2   -1    0    0    0  501  0.00000000000E+00  0.00000000000E+00  0.54679028409E+03  0.54679028410E+03  0.25500000920E-02 0.  1.
        2   -1    0    0  501    0  0.00000000000E+00  0.00000000000E+00 -0.45711220286E+03  0.45711220287E+03  0.25500000920E-02 0. -1.
    10030    2    1    2    0    0  0.00000000000E+00  0.00000000000E+00  0.89678081235E+02  0.10039024870E+04  0.99988901638E+03 0.  0.
        1    1    3    3  502    0 -0.19273466715E+03  0.52921044848E+02  0.50493297468E+03  0.54305119266E+03  0.50400001928E-02 0.  1.
       -1    1    3    3    0  502  0.19273466715E+03 -0.52921044848E+02 -0.41525489344E+03  0.46085129430E+03  0.50400001928E-02 0. -1.
</event>
<event>
 5   0  0.9650500E-05  0.1000184E+04  0.7818609E-02  0.9308343E-01
       -3   -1    0    0    0  501  0.00000000000E+00  0.00000000000E+00  0.29299530310E+03  0.29299532051E+03  0.10100000352E+00 0.  1.
        3   -1    0    0  501    0  0.00000000000E+00  0.00000000000E+00 -0.85357064605E+03  0.85357065202E+03  0.10100000352E+00 0. -1.
    10030    2    1    2    0    0  0.00000000000E+00  0.00000000000E+00 -0.56057534294E+03  0.11465659725E+04  0.10001843901E+04 0.  0.
        4    1    3    3  502    0 -0.57901472533E+02  0.43624186003E+03 -0.55260673251E+03  0.70642434463E+03  0.12699999809E+01 0. -1.
       -4    1    3    3    0  502  0.57901472533E+02 -0.43624186003E+03 -0.79686104342E+01  0.44014162791E+03  0.12699999809E+01 0.  1.
</event>
<event>
 5   0  0.1430675E-04  0.1000256E+04  0.7818609E-02  0.9308264E-01
       -1   -1    0    0    0  501  0.00000000000E+00  0.00000000000E+00  0.29955129044E+03  0.29955129048E+03  0.50400001928E-02 0.  1.
        1   -1    0    0  501    0  0.00000000000E+00  0.00000000000E+00 -0.83500904460E+03  0.83500904462E+03  0.50400001928E-02 0. -1.
    10030    2    1    2    0    0  0.00000000000E+00  0.00000000000E+00 -0.53545775416E+03  0.11345603351E+04  0.10002560410E+04 0.  0.
        5    1    3    3  502    0 -0.34827524239E+03  0.17300188130E+03 -0.62440338678E+03  0.73561333241E+03  0.46999998093E+01 0. -1.
       -5    1    3    3    0  502  0.34827524239E+03 -0.17300188130E+03  0.88945632616E+02  0.39894700269E+03  0.46999998093E+01 0.  1.
</event>
<event>
 5   0  0.9650500E-05  0.9999641E+03  0.7818609E-02  0.9308584E-01
       -3   -1    0    0    0  501  0.00000000000E+00  0.00000000000E+00  0.45535795121E+03  0.45535796241E+03  0.10100000352E+00 0.  1.
        3   -1    0    0  501    0  0.00000000000E+00  0.00000000000E+00 -0.54897919900E+03  0.54897920829E+03  0.10100000352E+00 0. -1.
    10030    2    1    2    0    0  0.00000000000E+00  0.00000000000E+00 -0.93621247784E+02  0.10043371707E+04  0.99996410656E+03 0.  0.
        5    1    3    3  502    0 -0.19532439126E+03  0.34534361620E+03 -0.35235497727E+03  0.53065049805E+03  0.46999998093E+01 0. -1.
       -5    1    3    3    0  502  0.19532439126E+03 -0.34534361620E+03  0.25873372949E+03  0.47368667265E+03  0.46999998093E+01 0.  1.
</event>
<event>
 5   0  0.2503680E-04  0.9999670E+03  0.7818609E-02  0.9308581E-01
       -2   -1    0    0    0  501  0.00000000000E+00  0.00000000000E+00  0.12985136179E+03  0.12985136181E+03  0.25500000920E-02 0.  1.
        2   -1    0    0  501    0  0.00000000000E+00  0.00000000000E+00 -0.19251512485E+04  0.19251512485E+04  0.25500000920E-02 0. -1.
    10030    2    1    2    0    0  0.00000000000E+00  0.00000000000E+00 -0.17952998867E+04  0.20550026103E+04  0.99996702204E+03 0.  0.
        2    1    3    3  502    0 -0.49659846915E+03  0.49021692640E+02 -0.96166614053E+03  0.10834274003E+04  0.25500000920E-02 0. -1.
       -2    1    3    3    0  502  0.49659846915E+03 -0.49021692640E+02 -0.83363374620E+03  0.97157521002E+03  0.25500000920E-02 0.  1.
</event>
<event>
 5   0  0.1461334E-04  0.9998650E+03  0.7818609E-02  0.9308693E-01
        1   -1    0    0  501    0  0.00000000000E+00  0.00000000000E+00  0.45000850258E+03  0.45000850261E+03  0.50400001928E-02 0.  1.
       -1   -1    0    0    0  501  0.00000000000E+00  0.00000000000E+00 -0.55539510400E+03  0.55539510402E+03  0.50400001928E-02 0. -1.
    10030    2    1    2    0    0  0.00000000000E+00  0.00000000000E+00 -0.10538660142E+03  0.10054036066E+04  0.99986502912E+03 0.  0.
        2    1    3    3  502    0  0.85471538207E+02  0.18081672247E+03  0.40802858711E+03  0.45440884550E+03  0.25500000920E-02 0.  1.
       -2    1    3    3    0  502 -0.85471538207E+02 -0.18081672247E+03 -0.51341518853E+03  0.55099476112E+03  0.25500000920E-02 0. -1.
</event>
<event>
 5   0  0.2473312E-04  0.1002422E+04  0.7818609E-02  0.9305892E-01
       -2   -1    0    0    0  501  0.00000000000E+00  0.00000000000E+00  0.19143201530E+03  0.19143201532E+03  0.25500000920E-02 0. -1.
        2   -1    0    0  501    0  0.00000000000E+00  0.00000000000E+00 -0.13122803274E+04  0.13122803274E+04  0.25500000920E-02 0.  1.
    10030    2    1    2    0    0  0.00000000000E+00  0.00000000000E+00 -0.11208483121E+04  0.15037123427E+04  0.10024220024E+04 0.  0.
        5    1    3    3  502    0 -0.17625730927E+03  0.23188474610E+03 -0.11722527329E+04  0.12079055155E+04  0.46999998093E+01 0.  1.
       -5    1    3    3    0  502  0.17625730927E+03 -0.23188474610E+03  0.51404420824E+02  0.29580682721E+03  0.46999998093E+01 0. -1.
</event>
<event>
 5   0  0.2353916E-04  0.1000871E+04  0.7818609E-02  0.9307590E-01
        2   -1    0    0  501    0  0.00000000000E+00  0.00000000000E+00  0.21455812350E+03  0.21455812351E+03  0.25500000920E-02 0. -1.
       -2   -1    0    0    0  501  0.00000000000E+00  0.00000000000E+00 -0.11672160125E+04  0.11672160125E+04  0.25500000920E-02 0.  1.
    10030    2    1    2    0    0  0.00000000000E+00  0.00000000000E+00 -0.95265788899E+03  0.13817741360E+04  0.10008709754E+04 0.  0.
        4    1    3    3  502    0  0.20930860976E+03  0.32955769403E+03 -0.44107033019E+02  0.39289363837E+03  0.12699999809E+01 0. -1.
       -4    1    3    3    0  502 -0.20930860976E+03 -0.32955769403E+03 -0.90855085597E+03  0.98888049763E+03  0.12699999809E+01 0.  1.
</event>
<event>
 5   0  0.2353916E-04  0.9999838E+03  0.7818609E-02  0.9308563E-01
       -2   -1    0    0    0  501  0.00000000000E+00  0.00000000000E+00  0.65144949985E+03  0.65144949986E+03  0.25500000920E-02 0. -1.
        2   -1    0    0  501    0  0.00000000000E+00  0.00000000000E+00 -0.38374719667E+03  0.38374719667E+03  0.25500000920E-02 0.  1.
    10030    2    1    2    0    0  0.00000000000E+00  0.00000000000E+00  0.26770230319E+03  0.10351966965E+04  0.99998383856E+03 0.  0.
        4    1    3    3  502    0 -0.27454672598E+03 -0.41748049249E+03  0.15249764412E+03  0.52242033911E+03  0.12699999809E+01 0. -1.
       -4    1    3    3    0  502  0.27454672598E+03  0.41748049249E+03  0.11520465906E+03  0.51277635742E+03  0.12699999809E+01 0.  1.
</event>
<event>
 5   0  0.1430675E-04  0.1000037E+04  0.7818609E-02  0.9308504E-01
       -1   -1    0    0    0  501  0.00000000000E+00  0.00000000000E+00  0.42847930170E+03  0.42847930173E+03  0.50400001928E-02 0. -1.
        1   -1    0    0  501    0  0.00000000000E+00  0.00000000000E+00 -0.58350216710E+03  0.58350216713E+03  0.50400001928E-02 0.  1.
    10030    2    1    2    0    0  0.00000000000E+00  0.00000000000E+00 -0.15502286541E+03  0.10119814689E+04  0.10000372016E+04 0.  0.
        5    1    3    3  502    0  0.21546048712E+03 -0.26569779936E+03  0.29150546344E+03  0.44946197537E+03  0.46999998093E+01 0. -1.
       -5    1    3    3    0  502 -0.21546048712E+03  0.26569779936E+03 -0.44652832884E+03  0.56251949348E+03  0.46999998093E+01 0.  1.
</event>
<event>
 5   0  0.1430675E-04  0.9996539E+03  0.7818609E-02  0.9308925E-01
       -1   -1    0    0    0  501  0.00000000000E+00  0.00000000000E+00  0.33309531659E+03  0.33309531663E+03  0.50400001928E-02 0. -1.
        1   -1    0    0  501    0  0.00000000000E+00  0.00000000000E+00 -0.75001645752E+03  0.75001645754E+03  0.50400001928E-02 0.  1.
    10030    2    1    2    0    0  0.00000000000E+00  0.00000000000E+00 -0.41692114093E+03  0.10831117742E+04  0.99965387889E+03 0.  0.
        5    1    3    3  502    0  0.14620435234E+03 -0.41478651657E+03  0.48810653087E+02  0.44252473018E+03  0.46999998093E+01 0. -1.
       -5    1    3    3    0  502 -0.14620435234E+03  0.41478651657E+03 -0.46573179402E+03  0.64058704399E+03  0.46999998093E+01 0.  1.
</event>
<event>
 5   0  0.1430675E-04  0.9999206E+03  0.7818609E-02  0.9308632E-01
       -1   -1    0    0    0  501  0.00000000000E+00  0.00000000000E+00  0.22492832132E+03  0.22492832138E+03  0.50400001928E-02 0.  1.
        1   -1    0    0  501    0  0.00000000000E+00  0.00000000000E+00 -0.11112887348E+04  0.11112887348E+04  0.50400001928E-02 0. -1.
    10030    2    1    2    0    0  0.00000000000E+00  0.00000000000E+00 -0.88636041350E+03  0.13362170562E+04  0.99992061620E+03 0.  0.
        5    1    3    3  502    0  0.33575756755E+03  0.22055096583E+03 -0.45498103566E+02  0.40431181051E+03  0.46999998093E+01 0.  1.
       -5    1    3    3    0  502 -0.33575756755E+03 -0.22055096583E+03 -0.84086230993E+03  0.93190524570E+03  0.46999998093E+01 0. -1.
</event>
<event>
 5   0  0.2353916E-04  0.9997751E+03  0.7818609E-02  0.9308791E-01
       -2   -1    0    0    0  501  0.00000000000E+00  0.00000000000E+00  0.17343899255E+03  0.17343899256E+03  0.25500000920E-02 0. -1.
        2   -1    0    0  501    0  0.00000000000E+00  0.00000000000E+00 -0.14407807691E+04  0.14407807691E+04  0.25500000920E-02 0.  1.
    10030    2    1    2    0    0  0.00000000000E+00  0.00000000000E+00 -0.12673417765E+04  0.16142197616E+04  0.99977510487E+03 0.  0.
        4    1    3    3  502    0  0.33214135869E+03 -0.80200275302E+02 -0.44545050008E+02  0.34458067371E+03  0.12699999809E+01 0. -1.
       -4    1    3    3    0  502 -0.33214135869E+03  0.80200275302E+02 -0.12227967265E+04  0.12696390879E+04  0.12699999809E+01 0.  1.
</event>
<event>
 5   0  0.2473312E-04  0.1000129E+04  0.7818609E-02  0.9308403E-01
        2   -1    0    0  501    0  0.00000000000E+00  0.00000000000E+00  0.10045699967E+04  0.10045699967E+04  0.25500000920E-02 0.  1.
       -2   -1    0    0    0  501  0.00000000000E+00  0.00000000000E+00 -0.24892705285E+03  0.24892705287E+03  0.25500000920E-02 0. -1.
    10030    2    1    2    0    0  0.00000000000E+00  0.00000000000E+00  0.75564294386E+03  0.12534970496E+04  0.10001292890E+04 0.  0.
        5    1    3    3  502    0  0.10415237638E+03  0.47076100580E+03  0.54399552892E+03  0.72692287595E+03  0.46999998093E+01 0.  1.
       -5    1    3    3    0  502 -0.10415237638E+03 -0.47076100580E+03  0.21164741493E+03  0.52657417363E+03  0.46999998093E+01 0. -1.
</event>
<event>
 5   0  0.1506454E-04  0.9999587E+03  0.7818609E-02  0.9308590E-01
        1   -1    0    0  501    0  0.00000000000E+00  0.00000000000E+00  0.35537802212E+03  0.35537802215E+03  0.50400001928E-02 0.  1.
       -1   -1    0    0    0  501  0.00000000000E+00  0.00000000000E+00 -0.70341809011E+03  0.70341809013E+03  0.50400001928E-02 0. -1.
    10030    2    1    2    0    0  0.00000000000E+00  0.00000000000E+00 -0.34804006799E+03  0.10587961123E+04  0.99995865837E+03 0.  0.
        3    1    3    3  502    0 -0.79345695554E+01  0.40674358967E+03 -0.48176928190E+03  0.63055924093E+03  0.10100000352E+00 0. -1.
       -3    1    3    3    0  502  0.79345695554E+01 -0.40674358967E+03  0.13372921391E+03  0.42823687135E+03  0.10100000352E+00 0.  1.
</event>
<event>
 5   0  0.2353916E-04  0.9998541E+03  0.7818609E-02  0.9308705E-01
       -2   -1    0    0    0  501  0.00000000000E+00  0.00000000000E+00  0.19034102180E+03  0.19034102182E+03  0.25500000920E-02 0. -1.
        2   -1    0    0  501    0  0.00000000000E+00  0.00000000000E+00 -0.13130489270E+04  0.13130489270E+04  0.25500000920E-02 0.  1.
    10030    2    1    2    0    0  0.00000000000E+00  0.00000000000E+00 -0.11227079052E+04  0.15033899488E+04  0.99985413827E+03 0.  0.
        4    1    3    3  502    0  0.29818572011E+03 -0.39977806911E+03 -0.50952339747E+03  0.71298873321E+03  0.12699999809E+01 0.  1.
       -4    1    3    3    0  502 -0.29818572011E+03  0.39977806911E+03 -0.61318450771E+03  0.79040121559E+03  0.12699999809E+01 0. -1.
</event>
<event>
 5   0  0.2403037E-04  0.1000428E+04  0.7818609E-02  0.9308076E-01
        2   -1    0    0  501    0  0.00000000000E+00  0.00000000000E+00  0.17258542499E+04  0.17258542499E+04  0.25500000920E-02 0. -1.
       -2   -1    0    0    0  501  0.00000000000E+00  0.00000000000E+00 -0.14497981892E+03  0.14497981894E+03  0.25500000920E-02 0.  1.
    10030    2    1    2    0    0  0.00000000000E+00  0.00000000000E+00  0.15808744310E+04  0.18708340688E+04  0.10004279817E+04 0.  0.
        1    1    3    3  502    0 -0.49108672665E+03 -0.72245613604E+02  0.67473009914E+03  0.83764330624E+03  0.50400001928E-02 0.  1.
       -1    1    3    3    0  502  0.49108672665E+03  0.72245613604E+02  0.90614433183E+03  0.10331907626E+04  0.50400001928E-02 0. -1.
</event>
<event>
 5   0  0.9650500E-05  0.9990788E+03  0.7818609E-02  0.9309556E-01
        3   -1    0    0  501    0  0.00000000000E+00  0.00000000000E+00  0.27869673084E+03  0.27869674914E+03  0.10100000352E+00 0.  1.
       -3   -1    0    0    0  501  0.00000000000E+00  0.00000000000E+00 -0.89538044885E+03  0.89538045455E+03  0.10100000352E+00 0. -1.
    10030    2    1    2    0    0  0.00000000000E+00  0.00000000000E+00 -0.61668371801E+03  0.11740772037E+04  0.99907881179E+03 0.  0.
        5    1    3    3  502    0  0.27989344162E+03  0.37007725169E+03 -0.90953132419E+02  0.47285523491E+03  0.46999998093E+01 0.  1.
       -5    1    3    3    0  502 -0.27989344162E+03 -0.37007725169E+03 -0.52573058559E+03  0.70122196879E+03  0.46999998093E+01 0. -1.
</event>
<event>
 5   0  0.1453863E-04  0.9992536E+03  0.7818609E-02  0.9309364E-01
        1   -1    0    0  501    0  0.00000000000E+00  0.00000000000E+00  0.13009997991E+04  0.13009997991E+04  0.50400001928E-02 0. -1.
       -1   -1    0    0    0  501  0.00000000000E+00  0.00000000000E+00 -0.19187314120E+03  0.19187314127E+03  0.50400001928E-02 0.  1.
    10030    2    1    2    0    0  0.00000000000E+00  0.00000000000E+00  0.11091266579E+04  0.14928729404E+04  0.99925355783E+03 0.  0.
        1    1    3    3  502    0 -0.28273424040E+03 -0.22637117880E+03  0.40396174453E+02  0.36443711696E+03  0.50400001928E-02 0.  1.
       -1    1    3    3    0  502  0.28273424040E+03  0.22637117880E+03  0.10687304834E+04  0.11284358234E+04  0.50400001928E-02 0. -1.
</event>
<event>
 5   0  0.2484904E-04  0.9999134E+03  0.7818609E-02  0.9308640E-01
       -2   -1    0    0    0  501  0.00000000000E+00  0.00000000000E+00  0.45792346694E+03  0.45792346695E+03  0.25500000920E-02 0. -1.
        2   -1    0    0  501    0  0.00000000000E+00  0.00000000000E+00 -0.54584821911E+03  0.54584821912E+03  0.25500000920E-02 0.  1.
    10030    2    1    2    0    0  0.00000000000E+00  0.00000000000E+00 -0.87924752171E+02  0.10037716861E+04  0.99991341410E+03 0.  0.
        3    1    3    3  502    0  0.30823244090E+03  0.36392942602E+03  0.10663258937E+03  0.48869457135E+03  0.10100000352E+00 0. -1.
       -3    1    3    3    0  502 -0.30823244090E+03 -0.36392942602E+03 -0.19455734154E+03  0.51507711471E+03  0.10100000352E+00 0.  1.
</event>
<event>
 5   0  0.1506454E-04  0.1000763E+04  0.7818609E-02  0.9307708E-01
        1   -1    0    0  501    0  0.00000000000E+00  0.00000000000E+00  0.32807643676E+03  0.32807643679E+03  0.50400001928E-02 0.  1.
       -1   -1    0    0    0  501  0.00000000000E+00  0.00000000000E+00 -0.76318096227E+03  0.76318096229E+03  0.50400001928E-02 0. -1.
    10030    2    1    2    0    0  0.00000000000E+00  0.00000000000E+00 -0.43510452551E+03  0.10912573991E+04  0.10007630903E+04 0.  0.
        3    1    3    3  502    0 -0.15995049356E+03  0.46610083235E+03 -0.12281987864E+03  0.50785714438E+03  0.10100000352E+00 0. -1.
       -3    1    3    3    0  502  0.15995049356E+03 -0.46610083235E+03 -0.31228464687E+03  0.58340025470E+03  0.10100000352E+00 0.  1.
</event>
<event>
 5   0  0.1430675E-04  0.1000054E+04  0.7818609E-02  0.9308485E-01
        1   -1    0    0  501    0  0.00000000000E+00  0.00000000000E+00  0.54980289519E+03  0.54980289522E+03  0.50400001928E-02 0.  1.
       -1   -1    0    0    0  501  0.00000000000E+00  0.00000000000E+00 -0.45475773537E+03  0.45475773540E+03  0.50400001928E-02 0. -1.
    10030    2    1    2    0    0  0.00000000000E+00  0.00000000000E+00  0.95045159821E+02  0.10045606306E+04  0.10000542376E+04 0.  0.
        5    1    3    3  502    0 -0.21845825997E+03 -0.39904999225E+03  0.25591856402E+03  0.52199742248E+03  0.46999998093E+01 0. -1.
       -5    1    3    3    0  502  0.21845825997E+03  0.39904999225E+03 -0.16087340420E+03  0.48256320814E+03  0.46999998093E+01 0.  1.
</event>
<event>
 5   0  0.9650500E-05  0.9998451E+03  0.7818609E-02  0.9308715E-01
       -3   -1    0    0    0  501  0.00000000000E+00  0.00000000000E+00  0.67699757236E+03  0.67699757989E+03  0.10100000352E+00 0. -1.
        3   -1    0    0  501    0  0.00000000000E+00  0.00000000000E+00 -0.36916310241E+03  0.36916311623E+03  0.10100000352E+00 0.  1.
    10030    2    1    2    0    0  0.00000000000E+00  0.00000000000E+00  0.30783446994E+03  0.10461606961E+04  0.99984505860E+03 0.  0.
        3    1    3    3  502    0  0.47483576713E+02 -0.47422591063E+03 -0.39964884268E+01  0.47661398059E+03  0.10100000352E+00 0.  1.
       -3    1    3    3    0  502 -0.47483576713E+02  0.47422591063E+03  0.31183095837E+03  0.56954671553E+03  0.10100000352E+00 0. -1.
</event>
<event>
 5   0  0.1453863E-04  0.1000118E+04  0.7818609E-02  0.9308415E-01
        1   -1    0    0  501    0  0.00000000000E+00  0.00000000000E+00  0.62967524264E+03  0.62967524266E+03  0.50400001928E-02 0. -1.
       -1   -1    0    0    0  501  0.00000000000E+00  0.00000000000E+00 -0.39712370606E+03  0.39712370610E+03  0.50400001928E-02 0.  1.
    10030    2    1    2    0    0  0.00000000000E+00  0.00000000000E+00  0.23255153657E+03  0.10267989488E+04  0.10001179250E+04 0.  0.
        1    1    3    3  502    0 -0.28249264159E+03  0.41260099948E+03  0.11200688039E+03  0.51243264787E+03  0.50400001928E-02 0. -1.
       -1    1    3    3    0  502  0.28249264159E+03 -0.41260099948E+03  0.12054465618E+03  0.51436630088E+03  0.50400001928E-02 0.  1.
</event>
<event>
 5   0  0.1453863E-04  0.1000148E+04  0.7818609E-02  0.9308383E-01
        1   -1    0    0  501    0  0.00000000000E+00  0.00000000000E+00  0.72942642917E+03  0.72942642919E+03  0.50400001928E-02 0.  1.
       -1   -1    0    0    0  501  0.00000000000E+00  0.00000000000E+00 -0.34283617149E+03  0.34283617153E+03  0.50400001928E-02 0. -1.
    10030    2    1    2    0    0  0.00000000000E+00  0.00000000000E+00  0.38659025768E+03  0.10722626007E+04  0.10001475179E+04 0.  0.
        1    1    3    3  502    0  0.25691715779E+03  0.21666776361E+03 -0.20370562326E+03  0.39299787115E+03  0.50400001928E-02 0. -1.
       -1    1    3    3    0  502 -0.25691715779E+03 -0.21666776361E+03  0.59029588094E+03  0.67926472957E+03  0.50400001928E-02 0.  1.
</event>
<event>
 5   0  0.9650500E-05  0.9989119E+03  0.7818609E-02  0.9309739E-01
       -3   -1    0    0    0  501  0.00000000000E+00  0.00000000000E+00  0.37940417928E+03  0.37940419272E+03  0.10100000352E+00 0. -1.
        3   -1    0    0  501    0  0.00000000000E+00  0.00000000000E+00 -0.65749474832E+03  0.65749475607E+03  0.10100000352E+00 0.  1.
    10030    2    1    2    0    0  0.00000000000E+00  0.00000000000E+00 -0.27809056904E+03  0.10368989488E+04  0.99891194077E+03 0.  0.
        5    1    3    3  502    0 -0.27269536382E+02 -0.26950839517E+03  0.29650105251E+03  0.40163835327E+03  0.46999998093E+01 0. -1.
       -5    1    3    3    0  502  0.27269536382E+02  0.26950839517E+03 -0.57459162155E+03  0.63526059553E+03  0.46999998093E+01 0.  1.
</event>
<event>
 5   0  0.2484904E-04  0.9995402E+03  0.7818609E-02  0.9309049E-01
        2   -1    0    0  501    0  0.00000000000E+00  0.00000000000E+00  0.18614277780E+04  0.18614277780E+04  0.25500000920E-02 0.  1.
       -2   -1    0    0    0  501  0.00000000000E+00  0.00000000000E+00 -0.13418201800E+03  0.13418201802E+03  0.25500000920E-02 0. -1.
    10030    2    1    2    0    0  0.00000000000E+00  0.00000000000E+00  0.17272457600E+04  0.19956097960E+04  0.99954016555E+03 0.  0.
        3    1    3    3  502    0  0.29511438070E+03 -0.30557653934E+03  0.33803675240E+03  0.54289812605E+03  0.10100000352E+00 0. -1.
       -3    1    3    3    0  502 -0.29511438070E+03  0.30557653934E+03  0.13892090076E+04  0.14527116700E+04  0.10100000352E+00 0.  1.
</event>
<event>
 5   0  0.1453863E-04  0.1000126E+04  0.7818609E-02  0.9308407E-01
       -1   -1    0    0    0  501  0.00000000000E+00  0.00000000000E+00  0.30815989979E+03  0.30815989983E+03  0.50400001928E-02 0. -1.
        1   -1    0    0  501    0  0.00000000000E+00  0.00000000000E+00 -0.81147111428E+03  0.81147111429E+03  0.50400001928E-02 0.  1.
    10030    2    1    2    0    0  0.00000000000E+00  0.00000000000E+00 -0.50331121449E+03  0.11196310141E+04  0.10001257067E+04 0.  0.
        1    1    3    3  502    0 -0.49937350940E+03  0.23624933954E+02 -0.26445984863E+03  0.56557143754E+03  0.50400001928E-02 0. -1.
       -1    1    3    3    0  502  0.49937350940E+03 -0.23624933954E+02 -0.23885136586E+03  0.55405957658E+03  0.50400001928E-02 0.  1.
</event>
<event>
 5   0  0.1461334E-04  0.1000087E+04  0.7818609E-02  0.9308450E-01
        1   -1    0    0  501    0  0.00000000000E+00  0.00000000000E+00  0.95788173826E+03  0.95788173827E+03  0.50400001928E-02 0. -1.
       -1   -1    0    0    0  501  0.00000000000E+00  0.00000000000E+00 -0.26103789133E+03  0.26103789137E+03  0.50400001928E-02 0.  1.
    10030    2    1    2    0    0  0.00000000000E+00  0.00000000000E+00  0.69684384693E+03  0.12189196296E+04  0.10000868545E+04 0.  0.
        2    1    3    3  502    0  0.33829203221E+03 -0.23019112813E+03 -0.18974138512E+01  0.40918584373E+03  0.25500000920E-02 0.  1.
       -2    1    3    3    0  502 -0.33829203221E+03  0.23019112813E+03  0.69874126078E+03  0.80973378591E+03  0.25500000920E-02 0. -1.
</event>
<event>
 5   0  0.1506454E-04  0.9997080E+03  0.7818609E-02  0.9308865E-01
        1   -1    0    0  501    0  0.00000000000E+00  0.00000000000E+00  0.54018582125E+03  0.54018582127E+03  0.50400001928E-02 0.  1.
       -1   -1    0    0    0  501  0.00000000000E+00  0.00000000000E+00 -0.46253344258E+03  0.46253344261E+03  0.50400001928E-02 0. -1.
    10030    2    1    2    0    0  0.00000000000E+00  0.00000000000E+00  0.77652378672E+02  0.10027192639E+04  0.99970797248E+03 0.  0.
        3    1    3    3  502    0 -0.34167735738E+03 -0.36006629334E+03 -0.20197009452E+02  0.49678876954E+03  0.10100000352E+00 0. -1.
       -3    1    3    3    0  502  0.34167735738E+03  0.36006629334E+03  0.97849388124E+02  0.50593049434E+03  0.10100000352E+00 0.  1.
</event>
<event>
 5   0  0.2353916E-04  0.1000138E+04  0.7818609E-02  0.9308393E-01
       -2   -1    0    0    0  501  0.00000000000E+00  0.00000000000E+00  0.11188314907E+03  0.11188314910E+03  0.25500000920E-02 0. -1.
        2   -1    0    0  501    0  0.00000000000E+00  0.00000000000E+00 -0.22350907828E+04  0.22350907828E+04  0.25500000920E-02 0.  1.
    10030    2    1    2    0    0  0.00000000000E+00  0.00000000000E+00 -0.21232076337E+04  0.23469739319E+04  0.10001379810E+04 0.  0.
        4    1    3    3  502    0  0.21429877774E+03 -0.12090515437E+03 -0.40001167370E+02  0.24928643923E+03  0.12699999809E+01 0. -1.
       -4    1    3    3    0  502 -0.21429877774E+03  0.12090515437E+03 -0.20832064664E+04  0.20976874927E+04  0.12699999809E+01 0.  1.
</event>
<event>
 5   0  0.2484904E-04  0.1000259E+04  0.7818609E-02  0.9308261E-01
       -2   -1    0    0    0  501  0.00000000000E+00  0.00000000000E+00  0.98516706368E+02  0.98516706401E+02  0.25500000920E-02 0. -1.
        2   -1    0    0  501    0  0.00000000000E+00  0.00000000000E+00 -0.25389562474E+04  0.25389562474E+04  0.25500000920E-02 0.  1.
    10030    2    1    2    0    0  0.00000000000E+00  0.00000000000E+00 -0.24404395410E+04  0.26374729538E+04  0.10002591807E+04 0.  0.
        3    1    3    3  502    0  0.30470856571E+03 -0.54055285421E+02 -0.22561805028E+04  0.22773053716E+04  0.10100000352E+00 0.  1.
       -3    1    3    3    0  502 -0.30470856571E+03  0.54055285421E+02 -0.18425903814E+03  0.36016758216E+03  0.10100000352E+00 0. -1.
</event>
<event>
 5   0  0.1414165E-04  0.1000384E+04  0.7818609E-02  0.9308124E-01
        1   -1    0    0  501    0  0.00000000000E+00  0.00000000000E+00  0.13272856087E+04  0.13272856087E+04  0.50400001928E-02 0.  1.
       -1   -1    0    0    0  501  0.00000000000E+00  0.00000000000E+00 -0.18849883531E+03  0.18849883537E+03  0.50400001928E-02 0. -1.
    10030    2    1    2    0    0  0.00000000000E+00  0.00000000000E+00  0.11387867733E+04  0.15157844440E+04  0.10003835093E+04 0.  0.
        4    1    3    3  502    0 -0.43560820189E+02 -0.24159281273E+03  0.12297257971E+04  0.12539903433E+04  0.12699999809E+01 0.  1.
       -4    1    3    3    0  502  0.43560820189E+02  0.24159281273E+03 -0.90939023757E+02  0.26179410070E+03  0.12699999809E+01 0. -1.
</event>
<event>
 5   0  0.1461334E-04  0.9995884E+03  0.7818609E-02  0.9308996E-01
        1   -1    0    0  501    0  0.00000000000E+00  0.00000000000E+00  0.13952791431E+04  0.13952791431E+04  0.50400001928E-02 0.  1.
       -1   -1    0    0    0  501  0.00000000000E+00  0.00000000000E+00 -0.17902815208E+03  0.17902815215E+03  0.50400001928E-02 0. -1.
    10030    2    1    2    0    0  0.00000000000E+00  0.00000000000E+00  0.12162509910E+04  0.15743072952E+04  0.99958840866E+03 0.  0.
        2    1    3    3  502    0  0.11951365385E+03 -0.35133269283E+03  0.11353854012E+04  0.11944949493E+04  0.25500000920E-02 0. -1.
       -2    1    3    3    0  502 -0.11951365385E+03  0.35133269283E+03  0.80865589724E+02  0.37981234592E+03  0.25500000920E-02 0.  1.
</event>
<event>
 5   0  0.1414165E-04  0.9999410E+03  0.7818609E-02  0.9308610E-01
        1   -1    0    0  501    0  0.00000000000E+00  0.00000000000E+00  0.92082587777E+03  0.92082587778E+03  0.50400001928E-02 0.  1.
       -1   -1    0    0    0  501  0.00000000000E+00  0.00000000000E+00 -0.27146336169E+03  0.27146336174E+03  0.50400001928E-02 0. -1.
    10030    2    1    2    0    0  0.00000000000E+00  0.00000000000E+00  0.64936251607E+03  0.11922892395E+04  0.99994097496E+03 0.  0.
        4    1    3    3  502    0  0.36447789531E+03  0.16098984643E+03 -0.35417286077E+02  0.40002232922E+03  0.12699999809E+01 0.  1.
       -4    1    3    3    0  502 -0.36447789531E+03 -0.16098984643E+03  0.68477980215E+03  0.79226691030E+03  0.12699999809E+01 0. -1.
</event>
<event>
 5   0  0.1453863E-04  0.1000455E+04  0.7818609E-02  0.9308046E-01
       -1   -1    0    0    0  501  0.00000000000E+00  0.00000000000E+00  0.10926516867E+04  0.10926516868E+04  0.50400001928E-02 0. -1.
        1   -1    0    0  501    0  0.00000000000E+00  0.00000000000E+00 -0.22900946131E+03  0.22900946136E+03  0.50400001928E-02 0.  1.
    10030    2    1    2    0    0  0.00000000000E+00  0.00000000000E+00  0.86364222543E+03  0.13216611481E+04  0.10004550449E+04 0.  0.
        1    1    3    3  502    0 -0.38909082175E+03 -0.31349016939E+03  0.46307808278E+03  0.68125550614E+03  0.50400001928E-02 0. -1.
       -1    1    3    3    0  502  0.38909082175E+03  0.31349016939E+03  0.40056414265E+03  0.64040564197E+03  0.50400001928E-02 0.  1.
</event>
<event>
 5   0  0.1430675E-04  0.9986690E+03  0.7818609E-02  0.9310006E-01
        1   -1    0    0  501    0  0.00000000000E+00  0.00000000000E+00  0.87656555262E+03  0.87656555264E+03  0.50400001928E-02 0.  1.
       -1   -1    0    0    0  501  0.00000000000E+00  0.00000000000E+00 -0.28444528729E+03  0.28444528733E+03  0.50400001928E-02 0. -1.
    10030    2    1    2    0    0  0.00000000000E+00  0.00000000000E+00  0.59212026534E+03  0.11610108400E+04  0.99866899516E+03 0.  0.
        5    1    3    3  502    0  0.50077676715E+02  0.11563626935E+03  0.85774941925E+03  0.86696924785E+03  0.46999998093E+01 0.  1.
       -5    1    3    3    0  502 -0.50077676715E+02 -0.11563626935E+03 -0.26562915391E+03  0.29404159212E+03  0.46999998093E+01 0. -1.
</event>
<event>
 5   0  0.1414165E-04  0.1000311E+04  0.7818609E-02  0.9308204E-01
       -1   -1    0    0    0  501  0.00000000000E+00  0.00000000000E+00  0.11174911034E+04  0.11174911034E+04  0.50400001928E-02 0.  1.
        1   -1    0    0  501    0  0.00000000000E+00  0.00000000000E+00 -0.22385451668E+03  0.22385451674E+03  0.50400001928E-02 0. -1.
    10030    2    1    2    0    0  0.00000000000E+00  0.00000000000E+00  0.89363658670E+03  0.13413456201E+04  0.10003108135E+04 0.  0.
        4    1    3    3  502    0  0.27982188438E+01 -0.23753919075E+03  0.10370115165E+04  0.10638736746E+04  0.12699999809E+01 0.  1.
       -4    1    3    3    0  502 -0.27982188438E+01  0.23753919075E+03 -0.14337492982E+03  0.27747194556E+03  0.12699999809E+01 0. -1.
</event>
<event>
 5   0  0.2353916E-04  0.1000143E+04  0.7818609E-02  0.9308388E-01
       -2   -1    0    0    0  501  0.00000000000E+00  0.00000000000E+00  0.56191920650E+03  0.56191920651E+03  0.25500000920E-02 0.  1.
        2   -1    0    0  501    0  0.00000000000E+00  0.00000000000E+00 -0.44503121566E+03  0.44503121567E+03  0.25500000920E-02 0. -1.
    10030    2    1    2    0    0  0.00000000000E+00  0.00000000000E+00  0.11688799084E+03  0.10069504222E+04  0.10001431649E+04 0.  0.
        4    1    3    3  502    0  0.28150676161E+02 -0.21811182264E+03  0.51061631890E+03  0.55596390690E+03  0.12699999809E+01 0.  1.
       -4    1    3    3    0  502 -0.28150676161E+02  0.21811182264E+03 -0.39372832806E+03  0.45098651528E+03  0.12699999809E+01 0. -1.
</event>
<event>
 5   0  0.9650500E-05  0.1000378E+04  0.7818609E-02  0.9308130E-01
        3   -1    0    0  501    0  0.00000000000E+00  0.00000000000E+00  0.67544792546E+03  0.67544793301E+03  0.10100000352E+00 0.  1.
       -3   -1    0    0    0  501  0.00000000000E+00  0.00000000000E+00 -0.37040486671E+03  0.37040488048E+03  0.10100000352E+00 0. -1.
    10030    2    1    2    0    0  0.00000000000E+00  0.00000000000E+00  0.30504305875E+03  0.10458528135E+04  0.10003783483E+04 0.  0.
        1    1    3    3  502    0  0.27527871936E+03 -0.39077717378E+03 -0.14982675775E+01  0.47800357500E+03  0.50400001928E-02 0. -1.
       -1    1    3    3    0  502 -0.27527871936E+03  0.39077717378E+03  0.30654132633E+03  0.56784923849E+03  0.50400001928E-02 0.  1.
</event>
<event>
 5   0  0.2353916E-04  0.9999842E+03  0.7818609E-02  0.9308562E-01
       -2   -1    0    0    0  501  0.00000000000E+00  0.00000000000E+00  0.16935692756E+03  0.16935692758E+03  0.25500000920E-02 0. -1.
        2   -1    0    0  501    0  0.00000000000E+00  0.00000000000E+00 -0.14761257274E+04  0.14761257274E+04  0.25500000920E-02 0.  1.
    10030    2    1    2    0    0  0.00000000000E+00  0.00000000000E+00 -0.13067687998E+04  0.16454826549E+04  0.99998423567E+03 0.  0.
        4    1    3    3  502    0 -0.40176335391E+03 -0.99905641372E+02 -0.19206767117E+03  0.45638419444E+03  0.12699999809E+01 0. -1.
       -4    1    3    3    0  502  0.40176335391E+03  0.99905641372E+02 -0.11147011286E+04  0.11890984605E+04  0.12699999809E+01 0.  1.
</event>
<event>
 5   0  0.1453863E-04  0.1000039E+04  0.7818609E-02  0.9308502E-01
        1   -1    0    0  501    0  0.00000000000E+00  0.00000000000E+00  0.53524951056E+03  0.53524951059E+03  0.50400001928E-02 0.  1.
       -1   -1    0    0    0  501  0.00000000000E+00  0.00000000000E+00 -0.46710858611E+03  0.46710858614E+03  0.50400001928E-02 0. -1.
    10030    2    1    2    0    0  0.00000000000E+00  0.00000000000E+00  0.68140924454E+02  0.10023580967E+04  0.10000392835E+04 0.  0.
        1    1    3    3  502    0  0.41005996831E+03  0.24085825447E+03 -0.12074727922E+03  0.49065444238E+03  0.50400001928E-02 0. -1.
       -1    1    3    3    0  502 -0.41005996831E+03 -0.24085825447E+03  0.18888820368E+03  0.51170365435E+03  0.50400001928E-02 0.  1.
</event>
<event>
 5   0  0.1414165E-04  0.1000065E+04  0.7818609E-02  0.9308474E-01
       -1   -1    0    0    0  501  0.00000000000E+00  0.00000000000E+00  0.18410489034E+03  0.18410489041E+03  0.50400001928E-02 0.  1.
        1   -1    0    0  501    0  0.00000000000E+00  0.00000000000E+00 -0.13580968415E+04  0.13580968415E+04  0.50400001928E-02 0. -1.
    10030    2    1    2    0    0  0.00000000000E+00  0.00000000000E+00 -0.11739919511E+04  0.15422017319E+04  0.10000645382E+04 0.  0.
        4    1    3    3  502    0  0.25362922661E+03 -0.28854313859E+03 -0.93413093918E+02  0.39536381528E+03  0.12699999809E+01 0.  1.
       -4    1    3    3    0  502 -0.25362922661E+03  0.28854313859E+03 -0.10805788572E+04  0.11468379166E+04  0.12699999809E+01 0. -1.
</event>
<event>
 5   0  0.2353916E-04  0.1002299E+04  0.7818609E-02  0.9306027E-01
       -2   -1    0    0    0  501  0.00000000000E+00  0.00000000000E+00  0.31251478950E+03  0.31251478951E+03  0.25500000920E-02 0. -1.
        2   -1    0    0  501    0  0.00000000000E+00  0.00000000000E+00 -0.80364487664E+03  0.80364487664E+03  0.25500000920E-02 0.  1.
    10030    2    1    2    0    0  0.00000000000E+00  0.00000000000E+00 -0.49113008714E+03  0.11161596662E+04  0.10022991758E+04 0.  0.
        4    1    3    3  502    0  0.31979458578E+02 -0.49865716761E+03 -0.20290328847E+03  0.53930790274E+03  0.12699999809E+01 0.  1.
       -4    1    3    3    0  502 -0.31979458578E+02  0.49865716761E+03 -0.28822679867E+03  0.57685176341E+03  0.12699999809E+01 0. -1.
</event>
<event>
 5   0  0.2353916E-04  0.1000116E+04  0.7818609E-02  0.9308417E-01
        2   -1    0    0  501    0  0.00000000000E+00  0.00000000000E+00  0.23315895029E+03  0.23315895031E+03  0.25500000920E-02 0.  1.
       -2   -1    0    0    0  501  0.00000000000E+00  0.00000000000E+00 -0.10724790593E+04  0.10724790593E+04  0.25500000920E-02 0. -1.
    10030    2    1    2    0    0  0.00000000000E+00  0.00000000000E+00 -0.83932010897E+03  0.13056380096E+04  0.10001161766E+04 0.  0.
        4    1    3    3  502    0 -0.38728241017E+02 -0.22549630709E+03  0.16081621976E+03  0.27966396014E+03  0.12699999809E+01 0.  1.
       -4    1    3    3    0  502  0.38728241017E+02  0.22549630709E+03 -0.10001363287E+04  0.10259740494E+04  0.12699999809E+01 0. -1.
</event>
<event>
 5   0  0.2473312E-04  0.1001182E+04  0.7818609E-02  0.9307249E-01
       -2   -1    0    0    0  501  0.00000000000E+00  0.00000000000E+00  0.15836830185E+03  0.15836830187E+03  0.25500000920E-02 0. -1.
        2   -1    0    0  501    0  0.00000000000E+00  0.00000000000E+00 -0.15823342896E+04  0.15823342896E+04  0.25500000920E-02 0.  1.
    10030    2    1    2    0    0  0.00000000000E+00  0.00000000000E+00 -0.14239659877E+04  0.17407025915E+04  0.10011824897E+04 0.  0.
        5    1    3    3  502    0  0.88638324792E+02 -0.45497227229E+03 -0.10405503367E+04  0.11391328344E+04  0.46999998093E+01 0.  1.
       -5    1    3    3    0  502 -0.88638324792E+02  0.45497227229E+03 -0.38341565108E+03  0.60156975711E+03  0.46999998093E+01 0. -1.
</event>
<event>
 5   0  0.2403037E-04  0.1002729E+04  0.7818609E-02  0.9305556E-01
       -2   -1    0    0    0  501  0.00000000000E+00  0.00000000000E+00  0.11135431145E+04  0.11135431145E+04  0.25500000920E-02 0. -1.
        2   -1    0    0  501    0  0.00000000000E+00  0.00000000000E+00 -0.22573579369E+03  0.22573579371E+03  0.25500000920E-02 0.  1.
    10030    2    1    2    0    0  0.00000000000E+00  0.00000000000E+00  0.88780732077E+03  0.13392789082E+04  0.10027293528E+04 0.  0.
        1    1    3    3  502    0 -0.42796200151E+03  0.25815593949E+03  0.39097186460E+03  0.63455099304E+03  0.50400001928E-02 0.  1.
       -1    1    3    3    0  502  0.42796200151E+03 -0.25815593949E+03  0.49683545617E+03  0.70472791513E+03  0.50400001928E-02 0. -1.
</event>
<event>
 5   0  0.1430675E-04  0.1000199E+04  0.7818609E-02  0.9308327E-01
        1   -1    0    0  501    0  0.00000000000E+00  0.00000000000E+00  0.21772114042E+04  0.21772114042E+04  0.50400001928E-02 0. -1.
       -1   -1    0    0    0  501  0.00000000000E+00  0.00000000000E+00 -0.11487142341E+03  0.11487142352E+03  0.50400001928E-02 0.  1.
    10030    2    1    2    0    0  0.00000000000E+00  0.00000000000E+00  0.20623399808E+04  0.22920828277E+04  0.10001987267E+04 0.  0.
        5    1    3    3  502    0 -0.17042723674E+02 -0.13279860825E+03  0.21353239259E+04  0.21395224429E+04  0.46999998093E+01 0. -1.
       -5    1    3    3    0  502  0.17042723674E+02  0.13279860825E+03 -0.72983945158E+02  0.15256038487E+03  0.46999998093E+01 0.  1.
</event>
<event>
 5   0  0.2473312E-04  0.1000266E+04  0.7818609E-02  0.9308253E-01
        2   -1    0    0  501    0  0.00000000000E+00  0.00000000000E+00  0.33875515536E+03  0.33875515537E+03  0.25500000920E-02 0. -1.
       -2   -1    0    0    0  501  0.00000000000E+00  0.00000000000E+00 -0.73838955181E+03  0.73838955181E+03  0.25500000920E-02 0.  1.
    10030    2    1    2    0    0  0.00000000000E+00  0.00000000000E+00 -0.39963439645E+03  0.10771447072E+04  0.10002664992E+04 0.  0.
        5    1    3    3  502    0  0.48948069670E+03 -0.99092932020E+02 -0.22831663470E+03  0.54914600727E+03  0.46999998093E+01 0.  1.
       -5    1    3    3    0  502 -0.48948069670E+03  0.99092932020E+02 -0.17131776175E+03  0.52799869991E+03  0.46999998093E+01 0. -1.
</event>
<event>
 5   0  0.9650500E-05  0.1000288E+04  0.7818609E-02  0.9308229E-01
        4   -1    0    0  501    0  0.00000000000E+00  0.00000000000E+00  0.29477358536E+03  0.29477632117E+03  0.12699999809E+01 0. -1.
       -4   -1    0    0    0  501  0.00000000000E+00  0.00000000000E+00 -0.84858966924E+03  0.84859061958E+03  0.12699999809E+01 0.  1.
    10030    2    1    2    0    0  0.00000000000E+00  0.00000000000E+00 -0.55381608388E+03  0.11433669408E+04  0.10002878118E+04 0.  0.
        1    1    3    3  502    0 -0.15612237911E+03  0.13485852868E+03 -0.79769062112E+03  0.82393649456E+03  0.50400001928E-02 0.  1.
       -1    1    3    3    0  502  0.15612237911E+03 -0.13485852868E+03  0.24387453724E+03  0.31943044619E+03  0.50400001928E-02 0. -1.
</event>
<event>
 5   0  0.2473312E-04  0.1000075E+04  0.7818609E-02  0.9308462E-01
       -2   -1    0    0    0  501  0.00000000000E+00  0.00000000000E+00  0.12676695545E+03  0.12676695548E+03  0.25500000920E-02 0. -1.
        2   -1    0    0  501    0  0.00000000000E+00  0.00000000000E+00 -0.19724196663E+04  0.19724196663E+04  0.25500000920E-02 0.  1.
    10030    2    1    2    0    0  0.00000000000E+00  0.00000000000E+00 -0.18456527108E+04  0.20991866217E+04  0.10000752691E+04 0.  0.
        5    1    3    3  502    0  0.11606026942E+03  0.22740660616E+03 -0.20410529259E+02  0.25616875368E+03  0.46999998093E+01 0. -1.
       -5    1    3    3    0  502 -0.11606026942E+03 -0.22740660616E+03 -0.18252421816E+04  0.18430178681E+04  0.46999998093E+01 0.  1.
</event>
<event>
 5   0  0.1506454E-04  0.1000045E+04  0.7818609E-02  0.9308496E-01
       -1   -1    0    0    0  501  0.00000000000E+00  0.00000000000E+00  0.17045815006E+03  0.17045815014E+03  0.50400001928E-02 0. -1.
        1   -1    0    0  501    0  0.00000000000E+00  0.00000000000E+00 -0.14667670311E+04  0.14667670311E+04  0.50400001928E-02 0.  1.
    10030    2    1    2    0    0  0.00000000000E+00  0.00000000000E+00 -0.12963088810E+04  0.16372251813E+04  0.10000447885E+04 0.  0.
        3    1    3    3  502    0 -0.46886708157E+03  0.17354930723E+03 -0.63478558028E+03  0.80802750285E+03  0.10100000352E+00 0. -1.
       -3    1    3    3    0  502  0.46886708157E+03 -0.17354930723E+03 -0.66152330077E+03  0.82919767841E+03  0.10100000352E+00 0.  1.
</event>
<event>
 5   0  0.1461334E-04  0.1000132E+04  0.7818609E-02  0.9308400E-01
       -1   -1    0    0    0  501  0.00000000000E+00  0.00000000000E+00  0.96163232554E+03  0.96163232555E+03  0.50400001928E-02 0.  1.
        1   -1    0    0  501    0  0.00000000000E+00  0.00000000000E+00 -0.26004333498E+03  0.26004333503E+03  0.50400001928E-02 0. -1.
    10030    2    1    2    0    0  0.00000000000E+00  0.00000000000E+00  0.70158899056E+03  0.12216756606E+04  0.10001321453E+04 0.  0.
        2    1    3    3  502    0 -0.43248816336E+03 -0.48101783612E+01  0.44204329426E+02  0.43476795191E+03  0.25500000920E-02 0. -1.
       -2    1    3    3    0  502  0.43248816336E+03  0.48101783612E+01  0.65738466114E+03  0.78690770867E+03  0.25500000920E-02 0.  1.
</event>
<event>
 5   0  0.1506454E-04  0.9998660E+03  0.7818609E-02  0.9308692E-01
       -1   -1    0    0    0  501  0.00000000000E+00  0.00000000000E+00  0.18595018324E+03  0.18595018331E+03  0.50400001928E-02 0. -1.
        1   -1    0    0  501    0  0.00000000000E+00  0.00000000000E+00 -0.13440858089E+04  0.13440858089E+04  0.50400001928E-02 0.  1.
    10030    2    1    2    0    0  0.00000000000E+00  0.00000000000E+00 -0.11581356257E+04  0.15300359922E+04  0.99986599604E+03 0.  0.
        3    1    3    3  502    0  0.19602571942E+03  0.23475159213E+03 -0.11842362628E+04  0.12230903193E+04  0.10100000352E+00 0.  1.
       -3    1    3    3    0  502 -0.19602571942E+03 -0.23475159213E+03  0.26100637162E+02  0.30694567295E+03  0.10100000352E+00 0. -1.
</event>
<event>
 5   0  0.1506454E-04  0.1000239E+04  0.7818609E-02  0.9308282E-01
       -1   -1    0    0    0  501  0.00000000000E+00  0.00000000000E+00  0.24152203036E+03  0.24152203041E+03  0.50400001928E-02 0. -1.
        1   -1    0    0  501    0  0.00000000000E+00  0.00000000000E+00 -0.10355978497E+04  0.10355978497E+04  0.50400001928E-02 0.  1.
    10030    2    1    2    0    0  0.00000000000E+00  0.00000000000E+00 -0.79407581937E+03  0.12771198802E+04  0.10002393620E+04 0.  0.
        3    1    3    3  502    0 -0.39919370579E+03 -0.27925988408E+03 -0.25270713111E+03  0.54881927983E+03  0.10100000352E+00 0.  1.
       -3    1    3    3    0  502  0.39919370579E+03  0.27925988408E+03 -0.54136868827E+03  0.72830060032E+03  0.10100000352E+00 0. -1.
</event>
<event>
 5   0  0.2503680E-04  0.1004693E+04  0.7818609E-02  0.9303413E-01
        2   -1    0    0  501    0  0.00000000000E+00  0.00000000000E+00  0.49762651363E+03  0.49762651364E+03  0.25500000920E-02 0.  1.
       -2   -1    0    0    0  501  0.00000000000E+00  0.00000000000E+00 -0.50711104792E+03  0.50711104792E+03  0.25500000920E-02 0. -1.
    10030    2    1    2    0    0  0.00000000000E+00  0.00000000000E+00 -0.94845342866E+01  0.10047375616E+04  0.10046927945E+04 0.  0.
        2    1    3    3  502    0 -0.72117317036E+01  0.50075298140E+03 -0.44067617180E+02  0.50274000471E+03  0.25500000920E-02 0.  1.
       -2    1    3    3    0  502  0.72117317036E+01 -0.50075298140E+03  0.34583082894E+02  0.50199755685E+03  0.25500000920E-02 0. -1.
</event>
<event>
 5   0  0.1430675E-04  0.1000342E+04  0.7818609E-02  0.9308170E-01
       -1   -1    0    0    0  501  0.00000000000E+00  0.00000000000E+00  0.58662797594E+03  0.58662797596E+03  0.50400001928E-02 0.  1.
        1   -1    0    0  501    0  0.00000000000E+00  0.00000000000E+00 -0.42645575952E+03  0.42645575955E+03  0.50400001928E-02 0. -1.
    10030    2    1    2    0    0  0.00000000000E+00  0.00000000000E+00  0.16017221642E+03  0.10130837355E+04  0.10003416997E+04 0.  0.
        5    1    3    3  502    0 -0.13364591833E+03 -0.17078358752E+02  0.56788084836E+03  0.58366398703E+03  0.46999998093E+01 0.  1.
       -5    1    3    3    0  502  0.13364591833E+03  0.17078358752E+02 -0.40770863194E+03  0.42941974848E+03  0.46999998093E+01 0. -1.
</event>
<event>
 5   0  0.1461334E-04  0.9999012E+03  0.7818609E-02  0.9308653E-01
        1   -1    0    0  501    0  0.00000000000E+00  0.00000000000E+00  0.65928120860E+03  0.65928120862E+03  0.50400001928E-02 0. -1.
       -1   -1    0    0    0  501  0.00000000000E+00  0.00000000000E+00 -0.37912590586E+03  0.37912590590E+03  0.50400001928E-02 0.  1.
    10030    2    1    2    0    0  0.00000000000E+00  0.00000000000E+00  0.28015530274E+03  0.10384071145E+04  0.99990116603E+03 0.  0.
        2    1    3    3  502    0  0.17355189735E+03 -0.37424024814E+03  0.43339840472E+03  0.59833953707E+03  0.25500000920E-02 0.  1.
       -2    1    3    3    0  502 -0.17355189735E+03  0.37424024814E+03 -0.15324310199E+03  0.44006757744E+03  0.25500000920E-02 0. -1.
</event>
<event>
 5   0  0.1453863E-04  0.9988610E+03  0.7818609E-02  0.9309795E-01
        1   -1    0    0  501    0  0.00000000000E+00  0.00000000000E+00  0.65394626854E+03  0.65394626856E+03  0.50400001928E-02 0. -1.
       -1   -1    0    0    0  501  0.00000000000E+00  0.00000000000E+00 -0.38142400083E+03  0.38142400086E+03  0.50400001928E-02 0.  1.
    10030    2    1    2    0    0  0.00000000000E+00  0.00000000000E+00  0.27252226771E+03  0.10353702694E+04  0.99886095549E+03 0.  0.
        1    1    3    3  502    0  0.34588667671E+03 -0.35295511851E+03  0.21112202637E+03  0.53738944803E+03  0.50400001928E-02 0.  1.
       -1    1    3    3    0  502 -0.34588667671E+03  0.35295511851E+03  0.61400241341E+02  0.49798082139E+03  0.50400001928E-02 0. -1.
</event>
<event>
 5   0  0.2403037E-04  0.9997245E+03  0.7818609E-02  0.9308847E-01
       -2   -1    0    0    0  501  0.00000000000E+00  0.00000000000E+00  0.21406110557E+03  0.21406110558E+03  0.25500000920E-02 0. -1.
        2   -1    0    0  501    0  0.00000000000E+00  0.00000000000E+00 -0.11672473648E+04  0.11672473648E+04  0.25500000920E-02 0.  1.
    10030    2    1    2    0    0  0.00000000000E+00  0.00000000000E+00 -0.95318625921E+03  0.13813084704E+04  0.99972448482E+03 0.  0.
        1    1    3    3  502    0  0.26979919391E+03  0.79010158476E+02  0.94477650708E+02  0.29658091086E+03  0.50400001928E-02 0. -1.
       -1    1    3    3    0  502 -0.26979919391E+03 -0.79010158476E+02 -0.10476639099E+04  0.10847275595E+04  0.50400001928E-02 0.  1.
</event>
<event>
 5   0  0.2503680E-04  0.1000191E+04  0.7818609E-02  0.9308335E-01
       -2   -1    0    0    0  501  0.00000000000E+00  0.00000000000E+00  0.48209055540E+03  0.48209055540E+03  0.25500000920E-02 0. -1.
        2   -1    0    0  501    0  0.00000000000E+00  0.00000000000E+00 -0.51877340400E+03  0.51877340400E+03  0.25500000920E-02 0.  1.
    10030    2    1    2    0    0  0.00000000000E+00  0.00000000000E+00 -0.36682848602E+02  0.10008639594E+04  0.10001914986E+04 0.  0.
        2    1    3    3  502    0 -0.41490057702E+03 -0.17482540623E+03  0.19949588002E+03  0.49244798470E+03  0.25500000920E-02 0. -1.
       -2    1    3    3    0  502  0.41490057702E+03  0.17482540623E+03 -0.23617872862E+03  0.50841597471E+03  0.25500000920E-02 0.  1.
</event>
<event>
 5   0  0.1506454E-04  0.1000004E+04  0.7818609E-02  0.9308541E-01
        1   -1    0    0  501    0  0.00000000000E+00  0.00000000000E+00  0.70635632363E+03  0.70635632365E+03  0.50400001928E-02 0. -1.
       -1   -1    0    0    0  501  0.00000000000E+00  0.00000000000E+00 -0.35393169349E+03  0.35393169353E+03  0.50400001928E-02 0.  1.
    10030    2    1    2    0    0  0.00000000000E+00  0.00000000000E+00  0.35242463014E+03  0.10602880172E+04  0.10000037797E+04 0.  0.
        3    1    3    3  502    0  0.71907482512E+02 -0.21119426630E+03  0.65065614904E+03  0.68784237922E+03  0.10100000352E+00 0. -1.
       -3    1    3    3    0  502 -0.71907482512E+02  0.21119426630E+03 -0.29823151891E+03  0.37244563796E+03  0.10100000352E+00 0.  1.
</event>
<event>
 5   0  0.2403037E-04  0.1000176E+04  0.7818609E-02  0.9308352E-01
        2   -1    0    0  501    0  0.00000000000E+00  0.00000000000E+00  0.71216768540E+03  0.71216768541E+03  0.25500000920E-02 0.  1.
       -2   -1    0    0    0  501  0.00000000000E+00  0.00000000000E+00 -0.35116435184E+03  0.35116435185E+03  0.25500000920E-02 0. -1.
    10030    2    1    2    0    0  0.00000000000E+00  0.00000000000E+00  0.36100333356E+03  0.10633320373E+04  0.10001757919E+04 0.  0.
        1    1    3    3  502    0  0.35879930053E+03  0.30664652798E+03  0.47805537369E+01  0.47200835257E+03  0.50400001928E-02 0. -1.
       -1    1    3    3    0  502 -0.35879930053E+03 -0.30664652798E+03  0.35622277982E+03  0.59132368469E+03  0.50400001928E-02 0.  1.
</event>
<event>
 5   0  0.1453863E-04  0.1000312E+04  0.7818609E-02  0.9308203E-01
        1   -1    0    0  501    0  0.00000000000E+00  0.00000000000E+00  0.22487444441E+03  0.22487444447E+03  0.50400001928E-02 0. -1.
       -1   -1    0    0    0  501  0.00000000000E+00  0.00000000000E+00 -0.11124251542E+04  0.11124251542E+04  0.50400001928E-02 0.  1.
    10030    2    1    2    0    0  0.00000000000E+00  0.00000000000E+00 -0.88755070976E+03  0.13372995987E+04  0.10003119284E+04 0.  0.
        1    1    3    3  502    0  0.18808814314E+02 -0.73800551810E+02 -0.11046277977E+04  0.11072501364E+04  0.50400001928E-02 0.  1.
       -1    1    3    3    0  502 -0.18808814314E+02  0.73800551810E+02  0.21707708798E+03  0.23004946228E+03  0.50400001928E-02 0. -1.
</event>
<event>
 5   0  0.1506454E-04  0.1000930E+04  0.7818609E-02  0.9307526E-01
        1   -1    0    0  501    0  0.00000000000E+00  0.00000000000E+00  0.10718031028E+04  0.10718031028E+04  0.50400001928E-02 0. -1.
       -1   -1    0    0    0  501  0.00000000000E+00  0.00000000000E+00 -0.23368569601E+03  0.23368569607E+03  0.50400001928E-02 0.  1.
    10030    2    1    2    0    0  0.00000000000E+00  0.00000000000E+00  0.83811740676E+03  0.13054887989E+04  0.10009296761E+04 0.  0.
        3    1    3    3  502    0  0.90028912305E+02  0.30111314027E+03 -0.88924186435E+02  0.32662187531E+03  0.10100000352E+00 0.  1.
       -3    1    3    3    0  502 -0.90028912305E+02 -0.30111314027E+03  0.92704159320E+03  0.97886692355E+03  0.10100000352E+00 0. -1.
</event>
<event>
 5   0  0.2353916E-04  0.1000429E+04  0.7818609E-02  0.9308075E-01
        2   -1    0    0  501    0  0.00000000000E+00  0.00000000000E+00  0.11689127618E+04  0.11689127618E+04  0.25500000920E-02 0.  1.
       -2   -1    0    0    0  501  0.00000000000E+00  0.00000000000E+00 -0.21405738358E+03  0.21405738359E+03  0.25500000920E-02 0. -1.
    10030    2    1    2    0    0  0.00000000000E+00  0.00000000000E+00  0.95485537824E+03  0.13829701454E+04  0.10004287230E+04 0.  0.
        4    1    3    3  502    0  0.69905414170E+01 -0.32228105624E+02  0.11674061751E+04  0.11678725568E+04  0.12699999809E+01 0.  1.
       -4    1    3    3    0  502 -0.69905414170E+01  0.32228105624E+02 -0.21255079686E+03  0.21509758857E+03  0.12699999809E+01 0. -1.
</event>
<event>
 5   0  0.2473312E-04  0.9999385E+03  0.7818609E-02  0.9308612E-01
       -2   -1    0    0    0  501  0.00000000000E+00  0.00000000000E+00  0.94420432402E+03  0.94420432402E+03  0.25500000920E-02 0. -1.
        2   -1    0    0  501    0  0.00000000000E+00  0.00000000000E+00 -0.26474061581E+03  0.26474061582E+03  0.25500000920E-02 0.  1.
    10030    2    1    2    0    0  0.00000000000E+00  0.00000000000E+00  0.67946370821E+03  0.12089449398E+04  0.99993846650E+03 0.  0.
        5    1    3    3  502    0 -0.21512862301E+03  0.11636193665E+03 -0.18744316647E+03  0.30818412580E+03  0.46999998093E+01 0.  1.
       -5    1    3    3    0  502  0.21512862301E+03 -0.11636193665E+03  0.86690687468E+03  0.90076081404E+03  0.46999998093E+01 0. -1.
</event>
<event>
 5   0  0.9650500E-05  0.9996758E+03  0.7818609E-02  0.9308900E-01
       -3   -1    0    0    0  501  0.00000000000E+00  0.00000000000E+00  0.32650621404E+03  0.32650622966E+03  0.10100000352E+00 0.  1.
        3   -1    0    0  501    0  0.00000000000E+00  0.00000000000E+00 -0.76518583626E+03  0.76518584293E+03  0.10100000352E+00 0. -1.
    10030    2    1    2    0    0  0.00000000000E+00  0.00000000000E+00 -0.43867962222E+03  0.10916920726E+04  0.99967583266E+03 0.  0.
        2    1    3    3  502    0 -0.72589639636E+02 -0.78800352220E+02  0.31381939819E+03  0.33160423094E+03  0.25500000920E-02 0.  1.
       -2    1    3    3    0  502  0.72589639636E+02  0.78800352220E+02 -0.75249902041E+03  0.76008784165E+03  0.25500000920E-02 0. -1.
</event>
<event>
 5   0  0.2403037E-04  0.1000209E+04  0.7818609E-02  0.9308316E-01
       -2   -1    0    0    0  501  0.00000000000E+00  0.00000000000E+00  0.50851658059E+03  0.50851658059E+03  0.25500000920E-02 0. -1.
        2   -1    0    0  501    0  0.00000000000E+00  0.00000000000E+00 -0.49183151881E+03  0.49183151881E+03  0.25500000920E-02 0.  1.
    10030    2    1    2    0    0  0.00000000000E+00  0.00000000000E+00  0.16685061778E+02  0.10003480994E+04  0.10002089425E+04 0.  0.
        1    1    3    3  502    0 -0.29696521108E+02 -0.47278468133E+03 -0.15198337089E+03  0.49749993299E+03  0.50400001928E-02 0. -1.
       -1    1    3    3    0  502  0.29696521108E+02  0.47278468133E+03  0.16866843267E+03  0.50284816642E+03  0.50400001928E-02 0.  1.
</event>
<event>
 5   0  0.2473312E-04  0.1000130E+04  0.7818609E-02  0.9308402E-01
        2   -1    0    0  501    0  0.00000000000E+00  0.00000000000E+00  0.11826310860E+04  0.11826310860E+04  0.25500000920E-02 0.  1.
       -2   -1    0    0    0  501  0.00000000000E+00  0.00000000000E+00 -0.21144817330E+03  0.21144817332E+03  0.25500000920E-02 0. -1.
    10030    2    1    2    0    0  0.00000000000E+00  0.00000000000E+00  0.97118291273E+03  0.13940792594E+04  0.10001303572E+04 0.  0.
        5    1    3    3  502    0 -0.26459889825E+03 -0.28560124825E+03  0.92297874715E+03  0.10017447318E+04  0.46999998093E+01 0.  1.
       -5    1    3    3    0  502  0.26459889825E+03  0.28560124825E+03  0.48204165589E+02  0.39233452759E+03  0.46999998093E+01 0. -1.
</event>
<event>
 5   0  0.2353916E-04  0.9990827E+03  0.7818609E-02  0.9309551E-01
        2   -1    0    0  501    0  0.00000000000E+00  0.00000000000E+00  0.44984006403E+03  0.44984006403E+03  0.25500000920E-02 0.  1.
       -2   -1    0    0    0  501  0.00000000000E+00  0.00000000000E+00 -0.55473392358E+03  0.55473392358E+03  0.25500000920E-02 0. -1.
    10030    2    1    2    0    0  0.00000000000E+00  0.00000000000E+00 -0.10489385955E+03  0.10045739876E+04  0.99908266666E+03 0.  0.
        4    1    3    3  502    0  0.42042222102E+03  0.68534146530E+01  0.21873549073E+03  0.47397113945E+03  0.12699999809E+01 0.  1.
       -4    1    3    3    0  502 -0.42042222102E+03 -0.68534146530E+01 -0.32362935028E+03  0.53060284817E+03  0.12699999809E+01 0. -1.
</event>
<event>
 5   0  0.1506454E-04  0.1002882E+04  0.7818609E-02  0.9305389E-01
        1   -1    0    0  501    0  0.00000000000E+00  0.00000000000E+00  0.67851363301E+03  0.67851363303E+03  0.50400001928E-02 0.  1.
       -1   -1    0    0    0  501  0.00000000000E+00  0.00000000000E+00 -0.37057959514E+03  0.37057959517E+03  0.50400001928E-02 0. -1.
    10030    2    1    2    0    0  0.00000000000E+00  0.00000000000E+00  0.30793403787E+03  0.10490932282E+04  0.10028824606E+04 0.  0.
        3    1    3    3  502    0  0.35145250248E+03 -0.27999966279E+03  0.38676255254E+03  0.59287768968E+03  0.10100000352E+00 0.  1.
       -3    1    3    3    0  502 -0.35145250248E+03  0.27999966279E+03 -0.78828514671E+02  0.45621553852E+03  0.10100000352E+00 0. -1.
</event>
<event>
 5   0  0.1506454E-04  0.1000171E+04  0.7818609E-02  0.9308358E-01
       -1   -1    0    0    0  501  0.00000000000E+00  0.00000000000E+00  0.35351722573E+03  0.35351722576E+03  0.50400001928E-02 0. -1.
        1   -1    0    0  501    0  0.00000000000E+00  0.00000000000E+00 -0.70742069696E+03  0.70742069698E+03  0.50400001928E-02 0.  1.
    10030    2    1    2    0    0  0.00000000000E+00  0.00000000000E+00 -0.35390347123E+03  0.10609379227E+04  0.10001707899E+04 0.  0.
        3    1    3    3  502    0 -0.17918578199E+03  0.34779291535E+03  0.15344962051E+03  0.42025498530E+03  0.10100000352E+00 0. -1.
       -3    1    3    3    0  502  0.17918578199E+03 -0.34779291535E+03 -0.50735309174E+03  0.64068293745E+03  0.10100000352E+00 0.  1.
</event>
<event>
 5   0  0.2484904E-04  0.1000047E+04  0.7818609E-02  0.9308493E-01
        2   -1    0    0  501    0  0.00000000000E+00  0.00000000000E+00  0.18952041383E+04  0.18952041383E+04  0.25500000920E-02 0. -1.
       -2   -1    0    0    0  501  0.00000000000E+00  0.00000000000E+00 -0.13192440040E+03  0.13192440043E+03  0.25500000920E-02 0.  1.
    10030    2    1    2    0    0  0.00000000000E+00  0.00000000000E+00  0.17632797379E+04  0.20271285388E+04  0.10000473381E+04 0.  0.
        3    1    3    3  502    0  0.42063494205E+02  0.47235175824E+03  0.56025362374E+03  0.73400930115E+03  0.10100000352E+00 0. -1.
       -3    1    3    3    0  502 -0.42063494205E+02 -0.47235175824E+03  0.12030261142E+04  0.12931192376E+04  0.10100000352E+00 0.  1.
</event>
<event>
 5   0  0.2353916E-04  0.1000645E+04  0.7818609E-02  0.9307838E-01
       -2   -1    0    0    0  501  0.00000000000E+00  0.00000000000E+00  0.46840977477E+03  0.46840977478E+03  0.25500000920E-02 0.  1.
        2   -1    0    0  501    0  0.00000000000E+00  0.00000000000E+00 -0.53440912289E+03  0.53440912290E+03  0.25500000920E-02 0. -1.
    10030    2    1    2    0    0  0.00000000000E+00  0.00000000000E+00 -0.65999348121E+02  0.10028188977E+04  0.10006447060E+04 0.  0.
        4    1    3    3  502    0  0.45169751176E+03 -0.96842808650E+02 -0.22554122603E+03  0.51408134498E+03  0.12699999809E+01 0. -1.
       -4    1    3    3    0  502 -0.45169751176E+03  0.96842808650E+02  0.15954187791E+03  0.48873755270E+03  0.12699999809E+01 0.  1.
</event>
<event>
 5   0  0.1461334E-04  0.9995566E+03  0.7818609E-02  0.9309031E-01
        1   -1    0    0  501    0  0.00000000000E+00  0.00000000000E+00  0.34429812959E+03  0.34429812962E+03  0.50400001928E-02 0.  1.
       -1   -1    0    0    0  501  0.00000000000E+00  0.00000000000E+00 -0.72547105219E+03  0.72547105221E+03  0.50400001928E-02 0. -1.
    10030    2    1    2    0    0  0.00000000000E+00  0.00000000000E+00 -0.38117292261E+03  0.10697691818E+04  0.99955655442E+03 0.  0.
        2    1    3    3  502    0 -0.19747089617E+03  0.82914028314E+02 -0.67386858741E+03  0.70708441082E+03  0.25500000920E-02 0. -1.
       -2    1    3    3    0  502  0.19747089617E+03 -0.82914028314E+02  0.29269566480E+03  0.36268477101E+03  0.25500000920E-02 0.  1.
</event>
<event>
 5   0  0.1453863E-04  0.1000305E+04  0.7818609E-02  0.9308210E-01
        1   -1    0    0  501    0  0.00000000000E+00  0.00000000000E+00  0.32614664212E+03  0.32614664215E+03  0.50400001928E-02 0.  1.
       -1   -1    0    0    0  501  0.00000000000E+00  0.00000000000E+00 -0.76699451645E+03  0.76699451647E+03  0.50400001928E-02 0. -1.
    10030    2    1    2    0    0  0.00000000000E+00  0.00000000000E+00 -0.44084787433E+03  0.10931411586E+04  0.10003053256E+04 0.  0.
        1    1    3    3  502    0 -0.27505302927E+03  0.10296641842E+03  0.22198961052E+03  0.36815165277E+03  0.50400001928E-02 0.  1.
       -1    1    3    3    0  502  0.27505302927E+03 -0.10296641842E+03 -0.66283748485E+03  0.72498950585E+03  0.50400001928E-02 0. -1.
</event>
<event>
 5   0  0.1461334E-04  0.9998898E+03  0.7818609E-02  0.9308666E-01
       -1   -1    0    0    0  501  0.00000000000E+00  0.00000000000E+00  0.70281946304E+03  0.70281946306E+03  0.50400001928E-02 0. -1.
        1   -1    0    0  501    0  0.00000000000E+00  0.00000000000E+00 -0.35563172888E+03  0.35563172892E+03  0.50400001928E-02 0.  1.
    10030    2    1    2    0    0  0.00000000000E+00  0.00000000000E+00  0.34718773416E+03  0.10584511920E+04  0.99988979545E+03 0.  0.
        2    1    3    3  502    0  0.11160799297E+03  0.11282653000E+03 -0.32825966569E+03  0.36461017277E+03  0.25500000920E-02 0.  1.
       -2    1    3    3    0  502 -0.11160799297E+03 -0.11282653000E+03  0.67544739984E+03  0.69384101920E+03  0.25500000920E-02 0. -1.
</event>
<event>
 5   0  0.9650500E-05  0.9964985E+03  0.7818609E-02  0.9312394E-01
        3   -1    0    0  501    0  0.00000000000E+00  0.00000000000E+00  0.74180956332E+03  0.74180957020E+03  0.10100000352E+00 0. -1.
       -3   -1    0    0    0  501  0.00000000000E+00  0.00000000000E+00 -0.33465772372E+03  0.33465773896E+03  0.10100000352E+00 0.  1.
    10030    2    1    2    0    0  0.00000000000E+00  0.00000000000E+00  0.40715183960E+03  0.10764673092E+04  0.99649849333E+03 0.  0.
        4    1    3    3  502    0 -0.20253528866E+03  0.45386710791E+03  0.16561617956E+03  0.52387615581E+03  0.12699999809E+01 0.  1.
       -4    1    3    3    0  502  0.20253528866E+03 -0.45386710791E+03  0.24153566003E+03  0.55259115335E+03  0.12699999809E+01 0. -1.
</event>
<event>
 5   0  0.2353916E-04  0.1000419E+04  0.7818609E-02  0.9308085E-01
       -2   -1    0    0    0  501  0.00000000000E+00  0.00000000000E+00  0.46587115756E+03  0.46587115756E+03  0.25500000920E-02 0.  1.
        2   -1    0    0  501    0  0.00000000000E+00  0.00000000000E+00 -0.53707935646E+03  0.53707935647E+03  0.25500000920E-02 0. -1.
    10030    2    1    2    0    0  0.00000000000E+00  0.00000000000E+00 -0.71208198906E+02  0.10029505140E+04  0.10004194750E+04 0.  0.
        4    1    3    3  502    0 -0.98038474703E+02  0.32028596376E+02  0.45509391980E+03  0.46663632761E+03  0.12699999809E+01 0.  1.
       -4    1    3    3    0  502  0.98038474703E+02 -0.32028596376E+02 -0.52630211870E+03  0.53631418642E+03  0.12699999809E+01 0. -1.
</event>
<event>
 5   0  0.2353916E-04  0.1000224E+04  0.7818609E-02  0.9308299E-01
        2   -1    0    0  501    0  0.00000000000E+00  0.00000000000E+00  0.45041792773E+03  0.45041792773E+03  0.25500000920E-02 0. -1.
       -2   -1    0    0    0  501  0.00000000000E+00  0.00000000000E+00 -0.55528852598E+03  0.55528852599E+03  0.25500000920E-02 0.  1.
    10030    2    1    2    0    0  0.00000000000E+00  0.00000000000E+00 -0.10487059826E+03  0.10057064537E+04  0.10002237893E+04 0.  0.
        4    1    3    3  502    0 -0.40143037829E+03  0.10325604455E+03  0.22892373156E+03  0.47351435789E+03  0.12699999809E+01 0. -1.
       -4    1    3    3    0  502  0.40143037829E+03 -0.10325604455E+03 -0.33379432982E+03  0.53219209584E+03  0.12699999809E+01 0.  1.
</event>
<event>
 5   0  0.2473312E-04  0.9985369E+03  0.7818609E-02  0.9310151E-01
        2   -1    0    0  501    0  0.00000000000E+00  0.00000000000E+00  0.13676438162E+04  0.13676438162E+04  0.25500000920E-02 0. -1.
       -2   -1    0    0    0  501  0.00000000000E+00  0.00000000000E+00 -0.18226161260E+03  0.18226161261E+03  0.25500000920E-02 0.  1.
    10030    2    1    2    0    0  0.00000000000E+00  0.00000000000E+00  0.11853822036E+04  0.15499054288E+04  0.99853686443E+03 0.  0.
        5    1    3    3  502    0 -0.19067467632E+03  0.42562706090E+03  0.86918619329E+03  0.98641875274E+03  0.46999998093E+01 0. -1.
       -5    1    3    3    0  502  0.19067467632E+03 -0.42562706090E+03  0.31619601028E+03  0.56348667604E+03  0.46999998093E+01 0.  1.
</event>
<event>
 5   0  0.9650500E-05  0.1000356E+04  0.7818609E-02  0.9308155E-01
       -3   -1    0    0    0  501  0.00000000000E+00  0.00000000000E+00  0.29403678198E+03  0.29403679933E+03  0.10100000352E+00 0. -1.
        3   -1    0    0  501    0  0.00000000000E+00  0.00000000000E+00 -0.85083895221E+03  0.85083895820E+03  0.10100000352E+00 0.  1.
    10030    2    1    2    0    0  0.00000000000E+00  0.00000000000E+00 -0.55680217022E+03  0.11448757575E+04  0.10003558584E+04 0.  0.
        3    1    3    3  502    0  0.32953946221E+03  0.27375515212E+03  0.17039881293E+02  0.42875226905E+03  0.10100000352E+00 0.  1.
       -3    1    3    3    0  502 -0.32953946221E+03 -0.27375515212E+03 -0.57384205151E+03  0.71612348848E+03  0.10100000352E+00 0. -1.
</event>
<event>
 5   0  0.1506454E-04  0.1000024E+04  0.7818609E-02  0.9308518E-01
       -1   -1    0    0    0  501  0.00000000000E+00  0.00000000000E+00  0.49473516763E+03  0.49473516766E+03  0.50400001928E-02 0. -1.
        1   -1    0    0  501    0  0.00000000000E+00  0.00000000000E+00 -0.50534513447E+03  0.50534513450E+03  0.50400001928E-02 0.  1.
    10030    2    1    2    0    0  0.00000000000E+00  0.00000000000E+00 -0.10609966845E+02  0.10000803022E+04  0.10000240194E+04 0.  0.
        3    1    3    3  502    0  0.90735341475E+02 -0.13056129511E+03  0.46878165733E+03  0.49501051143E+03  0.10100000352E+00 0. -1.
       -3    1    3    3    0  502 -0.90735341475E+02  0.13056129511E+03 -0.47939162418E+03  0.50506979073E+03  0.10100000352E+00 0.  1.
</event>
<event>
 5   0  0.1461334E-04  0.1000876E+04  0.7818609E-02  0.9307584E-01
       -1   -1    0    0    0  501  0.00000000000E+00  0.00000000000E+00  0.41197939456E+03  0.41197939459E+03  0.50400001928E-02 0.  1.
        1   -1    0    0  501    0  0.00000000000E+00  0.00000000000E+00 -0.60789030140E+03  0.60789030142E+03  0.50400001928E-02 0. -1.
    10030    2    1    2    0    0  0.00000000000E+00  0.00000000000E+00 -0.19591090684E+03  0.10198696960E+04  0.10008761729E+04 0.  0.
        2    1    3    3  502    0  0.13626254916E+03 -0.18432684695E+03 -0.55125063217E+03  0.59701015761E+03  0.25500000920E-02 0. -1.
       -2    1    3    3    0  502 -0.13626254916E+03  0.18432684695E+03  0.35533972534E+03  0.42285953840E+03  0.25500000920E-02 0.  1.
</event>
<event>
 5   0  0.2403037E-04  0.1000259E+04  0.7818609E-02  0.9308261E-01
        2   -1    0    0  501    0  0.00000000000E+00  0.00000000000E+00  0.22728718435E+03  0.22728718436E+03  0.25500000920E-02 0. -1.
       -2   -1    0    0    0  501  0.00000000000E+00  0.00000000000E+00 -0.11005002293E+04  0.11005002293E+04  0.25500000920E-02 0.  1.
    10030    2    1    2    0    0  0.00000000000E+00  0.00000000000E+00 -0.87321304492E+03  0.13277874136E+04  0.10002591634E+04 0.  0.
        1    1    3    3  502    0  0.47723436342E+03  0.11317142580E+03 -0.56645999863E+03  0.74929122464E+03  0.50400001928E-02 0.  1.
       -1    1    3    3    0  502 -0.47723436342E+03 -0.11317142580E+03 -0.30675304629E+03  0.57849618900E+03  0.50400001928E-02 0. -1.
</event>
<event>
 5   0  0.1461334E-04  0.9999719E+03  0.7818609E-02  0.9308576E-01
        1   -1    0    0  501    0  0.00000000000E+00  0.00000000000E+00  0.54728870797E+03  0.54728870800E+03  0.50400001928E-02 0.  1.
       -1   -1    0    0    0  501  0.00000000000E+00  0.00000000000E+00 -0.45677164794E+03  0.45677164797E+03  0.50400001928E-02 0. -1.
    10030    2    1    2    0    0  0.00000000000E+00  0.00000000000E+00  0.90517060031E+02  0.10040603560E+04  0.99997192974E+03 0.  0.
        2    1    3    3  502    0 -0.25457373177E+02  0.21776201622E+03 -0.40593107923E+03  0.46135497683E+03  0.25500000920E-02 0. -1.
       -2    1    3    3    0  502  0.25457373177E+02 -0.21776201622E+03  0.49644813927E+03  0.54270537913E+03  0.25500000920E-02 0.  1.
</event>
<event>
 5   0  0.2353916E-04  0.9996945E+03  0.7818609E-02  0.9308880E-01
       -2   -1    0    0    0  501  0.00000000000E+00  0.00000000000E+00  0.86551962222E+02  0.86551962260E+02  0.25500000920E-02 0.  1.
        2   -1    0    0  501    0  0.00000000000E+00  0.00000000000E+00 -0.28866736773E+04  0.28866736773E+04  0.25500000920E-02 0. -1.
    10030    2    1    2    0    0  0.00000000000E+00  0.00000000000E+00 -0.28001217151E+04  0.29732256395E+04  0.99969449558E+03 0.  0.
        4    1    3    3  502    0 -0.83887510009E+02  0.41415226777E+03 -0.21941404610E+04  0.22344603802E+04  0.12699999809E+01 0. -1.
       -4    1    3    3    0  502  0.83887510009E+02 -0.41415226777E+03 -0.60598125411E+03  0.73876525938E+03  0.12699999809E+01 0.  1.
</event>
<event>
 5   0  0.9650500E-05  0.1000013E+04  0.7818609E-02  0.9308531E-01
        3   -1    0    0  501    0  0.00000000000E+00  0.00000000000E+00  0.75097935279E+03  0.75097935958E+03  0.10100000352E+00 0.  1.
       -3   -1    0    0    0  501  0.00000000000E+00  0.00000000000E+00 -0.33290720744E+03  0.33290722276E+03  0.10100000352E+00 0. -1.
    10030    2    1    2    0    0  0.00000000000E+00  0.00000000000E+00  0.41807214535E+03  0.10838865823E+04  0.10000129023E+04 0.  0.
        2    1    3    3  502    0 -0.12429169963E+03  0.46581410155E+03  0.35272687174E+03  0.59736709806E+03  0.25500000920E-02 0.  1.
       -2    1    3    3    0  502  0.12429169963E+03 -0.46581410155E+03  0.65345273611E+02  0.48651948428E+03  0.25500000920E-02 0. -1.
</event>
<event>
 5   0  0.2503680E-04  0.9935736E+03  0.7818609E-02  0.9315621E-01
        2   -1    0    0  501    0  0.00000000000E+00  0.00000000000E+00  0.86405638181E+03  0.86405638182E+03  0.25500000920E-02 0. -1.
       -2   -1    0    0    0  501  0.00000000000E+00  0.00000000000E+00 -0.28562620688E+03  0.28562620689E+03  0.25500000920E-02 0.  1.
    10030    2    1    2    0    0  0.00000000000E+00  0.00000000000E+00  0.57843017493E+03  0.11496825887E+04  0.99357364474E+03 0.  0.
        2    1    3    3  502    0  0.30319631583E+03 -0.25407438742E+03 -0.58528129712E+02  0.39988416104E+03  0.25500000920E-02 0. -1.
       -2    1    3    3    0  502 -0.30319631583E+03  0.25407438742E+03  0.63695830464E+03  0.74979842767E+03  0.25500000920E-02 0.  1.
</event>
<event>
 5   0  0.1414165E-04  0.9995087E+03  0.7818609E-02  0.9309084E-01
       -1   -1    0    0    0  501  0.00000000000E+00  0.00000000000E+00  0.33334704222E+03  0.33334704225E+03  0.50400001928E-02 0. -1.
        1   -1    0    0  501    0  0.00000000000E+00  0.00000000000E+00 -0.74923247029E+03  0.74923247031E+03  0.50400001928E-02 0.  1.
    10030    2    1    2    0    0  0.00000000000E+00  0.00000000000E+00 -0.41588542808E+03  0.10825795126E+04  0.99950873520E+03 0.  0.
        4    1    3    3  502    0 -0.11237088966E+03 -0.15055661656E+03 -0.70952783252E+03  0.73397947496E+03  0.12699999809E+01 0.  1.
       -4    1    3    3    0  502  0.11237088966E+03  0.15055661656E+03  0.29364240445E+03  0.34860003761E+03  0.12699999809E+01 0. -1.
</event>
<event>
 5   0  0.2353916E-04  0.1000439E+04  0.7818609E-02  0.9308063E-01
        2   -1    0    0  501    0  0.00000000000E+00  0.00000000000E+00  0.17670869696E+04  0.17670869696E+04  0.25500000920E-02 0. -1.
       -2   -1    0    0    0  501  0.00000000000E+00  0.00000000000E+00 -0.14160009365E+03  0.14160009367E+03  0.25500000920E-02 0.  1.
    10030    2    1    2    0    0  0.00000000000E+00  0.00000000000E+00  0.16254868760E+04  0.19086870633E+04  0.10004392643E+04 0.  0.
        4    1    3    3  502    0  0.37747957406E+03  0.11328230733E+03  0.22503192740E+03  0.45383332980E+03  0.12699999809E+01 0.  1.
       -4    1    3    3    0  502 -0.37747957406E+03 -0.11328230733E+03  0.14004549486E+04  0.14548537335E+04  0.12699999809E+01 0. -1.
</event>
<event>
 5   0  0.1506454E-04  0.1000154E+04  0.7818609E-02  0.9308376E-01
        1   -1    0    0  501    0  0.00000000000E+00  0.00000000000E+00  0.76207149220E+03  0.76207149222E+03  0.50400001928E-02 0. -1.
       -1   -1    0    0    0  501  0.00000000000E+00  0.00000000000E+00 -0.32815432756E+03  0.32815432759E+03  0.50400001928E-02 0.  1.
    10030    2    1    2    0    0  0.00000000000E+00  0.00000000000E+00  0.43391716465E+03  0.10902258198E+04  0.10001541043E+04 0.  0.
        3    1    3    3  502    0  0.18546443693E+03  0.14349802765E+02  0.72295454648E+03  0.74650268632E+03  0.10100000352E+00 0. -1.
       -3    1    3    3    0  502 -0.18546443693E+03 -0.14349802765E+02 -0.28903738183E+03  0.34372313350E+03  0.10100000352E+00 0.  1.
</event>
<event>
 5   0  0.2473312E-04  0.1000643E+04  0.7818609E-02  0.9307840E-01
       -2   -1    0    0    0  501  0.00000000000E+00  0.00000000000E+00  0.21124510351E+03  0.21124510352E+03  0.25500000920E-02 0.  1.
        2   -1    0    0  501    0  0.00000000000E+00  0.00000000000E+00 -0.11849817958E+04  0.11849817958E+04  0.25500000920E-02 0. -1.
    10030    2    1    2    0    0  0.00000000000E+00  0.00000000000E+00 -0.97373669231E+03  0.13962268993E+04  0.10006429975E+04 0.  0.
        5    1    3    3  502    0 -0.29573328823E+03 -0.25373798618E+03 -0.49040723110E+02  0.39276994020E+03  0.46999998093E+01 0.  1.
       -5    1    3    3    0  502  0.29573328823E+03  0.25373798618E+03 -0.92469596920E+03  0.10034569591E+04  0.46999998093E+01 0. -1.
</event>
<event>
 5   0  0.2473312E-04  0.9977609E+03  0.7818609E-02  0.9311004E-01
       -2   -1    0    0    0  501  0.00000000000E+00  0.00000000000E+00  0.12811426272E+03  0.12811426275E+03  0.25500000920E-02 0. -1.
        2   -1    0    0  501    0  0.00000000000E+00  0.00000000000E+00 -0.19426543082E+04  0.19426543082E+04  0.25500000920E-02 0.  1.
    10030    2    1    2    0    0  0.00000000000E+00  0.00000000000E+00 -0.18145400455E+04  0.20707685709E+04  0.99776094220E+03 0.  0.
        5    1    3    3  502    0  0.69743717134E+02  0.29084686627E+03 -0.78652604231E+02  0.30929663408E+03  0.46999998093E+01 0. -1.
       -5    1    3    3    0  502 -0.69743717134E+02 -0.29084686627E+03 -0.17358874412E+04  0.17614719369E+04  0.46999998093E+01 0.  1.
</event>
<event>
 5   0  0.2403037E-04  0.1000606E+04  0.7818609E-02  0.9307881E-01
       -2   -1    0    0    0  501  0.00000000000E+00  0.00000000000E+00  0.27395778340E+03  0.27395778341E+03  0.25500000920E-02 0.  1.
        2   -1    0    0  501    0  0.00000000000E+00  0.00000000000E+00 -0.91365483268E+03  0.91365483268E+03  0.25500000920E-02 0. -1.
    10030    2    1    2    0    0  0.00000000000E+00  0.00000000000E+00 -0.63969704928E+03  0.11876126161E+04  0.10006055222E+04 0.  0.
        1    1    3    3  502    0  0.31201583392E+03  0.16472736833E+03  0.10114572254E+03  0.36704147410E+03  0.50400001928E-02 0.  1.
       -1    1    3    3    0  502 -0.31201583392E+03 -0.16472736833E+03 -0.74084277182E+03  0.82057114200E+03  0.50400001928E-02 0. -1.
</event>
<event>
 5   0  0.1461334E-04  0.9997350E+03  0.7818609E-02  0.9308836E-01
        1   -1    0    0  501    0  0.00000000000E+00  0.00000000000E+00  0.28796765781E+03  0.28796765785E+03  0.50400001928E-02 0. -1.
       -1   -1    0    0    0  501  0.00000000000E+00  0.00000000000E+00 -0.86769295693E+03  0.86769295694E+03  0.50400001928E-02 0.  1.
    10030    2    1    2    0    0  0.00000000000E+00  0.00000000000E+00 -0.57972529912E+03  0.11556606148E+04  0.99973498195E+03 0.  0.
        2    1    3    3  502    0 -0.41244636941E+03  0.27349714819E+03 -0.20849365258E+03  0.53701238429E+03  0.25500000920E-02 0.  1.
       -2    1    3    3    0  502  0.41244636941E+03 -0.27349714819E+03 -0.37123164654E+03  0.61864823050E+03  0.25500000920E-02 0. -1.
</event>
<event>
 5   0  0.1506454E-04  0.1001337E+04  0.7818609E-02  0.9307079E-01
        1   -1    0    0  501    0  0.00000000000E+00  0.00000000000E+00  0.73881944651E+03  0.73881944653E+03  0.50400001928E-02 0. -1.
       -1   -1    0    0    0  501  0.00000000000E+00  0.00000000000E+00 -0.33928327116E+03  0.33928327119E+03  0.50400001928E-02 0.  1.
    10030    2    1    2    0    0  0.00000000000E+00  0.00000000000E+00  0.39953617535E+03  0.10781027177E+04  0.10013372631E+04 0.  0.
        3    1    3    3  502    0  0.12491122218E+03  0.29200044017E+03 -0.21694636743E+03  0.38462034142E+03  0.10100000352E+00 0.  1.
       -3    1    3    3    0  502 -0.12491122218E+03 -0.29200044017E+03  0.61648254278E+03  0.69348237630E+03  0.10100000352E+00 0. -1.
</event>
<event>
 5   0  0.1453863E-04  0.9998642E+03  0.7818609E-02  0.9308694E-01
       -1   -1    0    0    0  501  0.00000000000E+00  0.00000000000E+00  0.38025561914E+03  0.38025561918E+03  0.50400001928E-02 0. -1.
        1   -1    0    0  501    0  0.00000000000E+00  0.00000000000E+00 -0.65727387669E+03  0.65727387671E+03  0.50400001928E-02 0.  1.
    10030    2    1    2    0    0  0.00000000000E+00  0.00000000000E+00 -0.27701825755E+03  0.10375294959E+04  0.99986416068E+03 0.  0.
        1    1    3    3  502    0 -0.21163388434E+03 -0.31975119059E+03  0.19435892598E+03  0.42988965679E+03  0.50400001928E-02 0.  1.
       -1    1    3    3    0  502  0.21163388434E+03  0.31975119059E+03 -0.47137718352E+03  0.60763983909E+03  0.50400001928E-02 0. -1.
</event>
<event>
 5   0  0.2353916E-04  0.1000737E+04  0.7818609E-02  0.9307737E-01
       -2   -1    0    0    0  501  0.00000000000E+00  0.00000000000E+00  0.18787825212E+03  0.18787825214E+03  0.25500000920E-02 0.  1.
        2   -1    0    0  501    0  0.00000000000E+00  0.00000000000E+00 -0.13326101412E+04  0.13326101412E+04  0.25500000920E-02 0. -1.
    10030    2    1    2    0    0  0.00000000000E+00  0.00000000000E+00 -0.11447318891E+04  0.15204883934E+04  0.10007366569E+04 0.  0.
        4    1    3    3  502    0  0.12325270206E+03  0.15202181057E+03  0.12731136665E+03  0.23347731460E+03  0.12699999809E+01 0.  1.
       -4    1    3    3    0  502 -0.12325270206E+03 -0.15202181057E+03 -0.12720432558E+04  0.12870110788E+04  0.12699999809E+01 0. -1.
</event>
<event>
 5   0  0.1430675E-04  0.1000009E+04  0.7818609E-02  0.9308535E-01
        1   -1    0    0  501    0  0.00000000000E+00  0.00000000000E+00  0.11803670101E+04  0.11803670101E+04  0.50400001928E-02 0.  1.
       -1   -1    0    0    0  501  0.00000000000E+00  0.00000000000E+00 -0.21180218894E+03  0.21180218900E+03  0.50400001928E-02 0. -1.
    10030    2    1    2    0    0  0.00000000000E+00  0.00000000000E+00  0.96856482112E+03  0.13921691991E+04  0.10000086330E+04 0.  0.
        5    1    3    3  502    0 -0.29407856296E+02 -0.20401165867E+03 -0.14987024297E+03  0.25488969892E+03  0.46999998093E+01 0. -1.
       -5    1    3    3    0  502  0.29407856296E+02  0.20401165867E+03  0.11184350641E+04  0.11372795002E+04  0.46999998093E+01 0.  1.
</event>
<event>
 5   0  0.1414165E-04  0.1000006E+04  0.7818609E-02  0.9308538E-01
        1   -1    0    0  501    0  0.00000000000E+00  0.00000000000E+00  0.10189245504E+04  0.10189245504E+04  0.50400001928E-02 0.  1.
       -1   -1    0    0    0  501  0.00000000000E+00  0.00000000000E+00 -0.24535972280E+03  0.24535972285E+03  0.50400001928E-02 0. -1.
    10030    2    1    2    0    0  0.00000000000E+00  0.00000000000E+00  0.77356482762E+03  0.12642842733E+04  0.10000060906E+04 0.  0.
        4    1    3    3  502    0 -0.26482660827E+03 -0.42401905814E+03  0.37575068441E+03  0.62539226398E+03  0.12699999809E+01 0.  1.
       -4    1    3    3    0  502  0.26482660827E+03  0.42401905814E+03  0.39781414320E+03  0.63889200930E+03  0.12699999809E+01 0. -1.
</event>
<event>
 5   0  0.1461334E-04  0.9997431E+03  0.7818609E-02  0.9308827E-01
        1   -1    0    0  501    0  0.00000000000E+00  0.00000000000E+00  0.77618586601E+03  0.77618586603E+03  0.50400001928E-02 0. -1.
       -1   -1    0    0    0  501  0.00000000000E+00  0.00000000000E+00 -0.32192234759E+03  0.32192234763E+03  0.50400001928E-02 0.  1.
    10030    2    1    2    0    0  0.00000000000E+00  0.00000000000E+00  0.45426351842E+03  0.10981082137E+04  0.99974311937E+03 0.  0.
        2    1    3    3  502    0  0.26071549501E+03  0.51950415251E+02  0.69210280969E+03  0.74140253181E+03  0.25500000920E-02 0. -1.
       -2    1    3    3    0  502 -0.26071549501E+03 -0.51950415251E+02 -0.23783929127E+03  0.35670568184E+03  0.25500000920E-02 0.  1.
</event>
<event>
 5   0  0.2484904E-04  0.1000059E+04  0.7818609E-02  0.9308481E-01
        2   -1    0    0  501    0  0.00000000000E+00  0.00000000000E+00  0.38238928954E+03  0.38238928955E+03  0.25500000920E-02 0.  1.
       -2   -1    0    0    0  501  0.00000000000E+00  0.00000000000E+00 -0.65386050866E+03  0.65386050867E+03  0.25500000920E-02 0. -1.
    10030    2    1    2    0    0  0.00000000000E+00  0.00000000000E+00 -0.27147121912E+03  0.10362497982E+04  0.10000585090E+04 0.  0.
        3    1    3    3  502    0  0.46469278141E+03 -0.14149182324E+03 -0.12826240981E+02  0.48592575544E+03  0.10100000352E+00 0.  1.
       -3    1    3    3    0  502 -0.46469278141E+03  0.14149182324E+03 -0.25864497814E+03  0.55032404278E+03  0.10100000352E+00 0. -1.
</event>
<event>
 5   0  0.2353916E-04  0.9994636E+03  0.7818609E-02  0.9309133E-01
        2   -1    0    0  501    0  0.00000000000E+00  0.00000000000E+00  0.15251602814E+04  0.15251602814E+04  0.25500000920E-02 0.  1.
       -2   -1    0    0    0  501  0.00000000000E+00  0.00000000000E+00 -0.16374141043E+03  0.16374141045E+03  0.25500000920E-02 0. -1.
    10030    2    1    2    0    0  0.00000000000E+00  0.00000000000E+00  0.13614188710E+04  0.16889016919E+04  0.99946364744E+03 0.  0.
        4    1    3    3  502    0  0.27742509984E+03 -0.39735958657E+03  0.88677565701E+03  0.10105602435E+04  0.12699999809E+01 0.  1.
       -4    1    3    3    0  502 -0.27742509984E+03  0.39735958657E+03  0.47464321399E+03  0.67834144835E+03  0.12699999809E+01 0. -1.
</event>
<event>
 5   0  0.2403037E-04  0.1001047E+04  0.7818609E-02  0.9307397E-01
        2   -1    0    0  501    0  0.00000000000E+00  0.00000000000E+00  0.13082262898E+04  0.13082262898E+04  0.25500000920E-02 0. -1.
       -2   -1    0    0    0  501  0.00000000000E+00  0.00000000000E+00 -0.19149877402E+03  0.19149877404E+03  0.25500000920E-02 0.  1.
    10030    2    1    2    0    0  0.00000000000E+00  0.00000000000E+00  0.11167275158E+04  0.14997250638E+04  0.10010469133E+04 0.  0.
        1    1    3    3  502    0  0.25386824735E+03 -0.16142846105E+03  0.11576554252E+04  0.11961079878E+04  0.50400001928E-02 0. -1.
       -1    1    3    3    0  502 -0.25386824735E+03  0.16142846105E+03 -0.40927909410E+02  0.30361707601E+03  0.50400001928E-02 0.  1.
</event>
<event>
 5   0  0.2484904E-04  0.9999741E+03  0.7818609E-02  0.9308573E-01
       -2   -1    0    0    0  501  0.00000000000E+00  0.00000000000E+00  0.17378906266E+03  0.17378906268E+03  0.25500000920E-02 0.  1.
        2   -1    0    0  501    0  0.00000000000E+00  0.00000000000E+00 -0.14384509496E+04  0.14384509496E+04  0.25500000920E-02 0. -1.
    10030    2    1    2    0    0  0.00000000000E+00  0.00000000000E+00 -0.12646618869E+04  0.16122400122E+04  0.99997408412E+03 0.  0.
        3    1    3    3  502    0 -0.89856179242E+02 -0.19352762794E+03  0.96698522942E+02  0.23425987763E+03  0.10100000352E+00 0.  1.
       -3    1    3    3    0  502  0.89856179242E+02  0.19352762794E+03 -0.13613604098E+04  0.13779801346E+04  0.10100000352E+00 0. -1.
</event>
<event>
 5   0  0.1430675E-04  0.1000079E+04  0.7818609E-02  0.9308458E-01
       -1   -1    0    0    0  501  0.00000000000E+00  0.00000000000E+00  0.28695538491E+03  0.28695538496E+03  0.50400001928E-02 0. -1.
        1   -1    0    0  501    0  0.00000000000E+00  0.00000000000E+00 -0.87135296962E+03  0.87135296964E+03  0.50400001928E-02 0.  1.
    10030    2    1    2    0    0  0.00000000000E+00  0.00000000000E+00 -0.58439758471E+03  0.11583083546E+04  0.10000788505E+04 0.  0.
        5    1    3    3  502    0 -0.54342522641E+02  0.22927599695E+03  0.21859559176E+03  0.32144473130E+03  0.46999998093E+01 0. -1.
       -5    1    3    3    0  502  0.54342522641E+02 -0.22927599695E+03 -0.80299317647E+03  0.83686362330E+03  0.46999998093E+01 0.  1.
</event>
<event>
 5   0  0.1414165E-04  0.1000239E+04  0.7818609E-02  0.9308283E-01
        1   -1    0    0  501    0  0.00000000000E+00  0.00000000000E+00  0.55061706009E+03  0.55061706011E+03  0.50400001928E-02 0. -1.
       -1   -1    0    0    0  501  0.00000000000E+00  0.00000000000E+00 -0.45425320553E+03  0.45425320556E+03  0.50400001928E-02 0.  1.
    10030    2    1    2    0    0  0.00000000000E+00  0.00000000000E+00  0.96363854557E+02  0.10048702657E+04  0.10002391006E+04 0.  0.
        4    1    3    3  502    0 -0.24036074887E+03  0.38833302363E+01  0.48876642444E+03  0.54468578136E+03  0.12699999809E+01 0. -1.
       -4    1    3    3    0  502  0.24036074887E+03 -0.38833302363E+01 -0.39240256989E+03  0.46018448431E+03  0.12699999809E+01 0.  1.
</event>
<event>
 5   0  0.1506454E-04  0.9996478E+03  0.7818609E-02  0.9308931E-01
       -1   -1    0    0    0  501  0.00000000000E+00  0.00000000000E+00  0.53245996368E+03  0.53245996370E+03  0.50400001928E-02 0.  1.
        1   -1    0    0  501    0  0.00000000000E+00  0.00000000000E+00 -0.46918824505E+03  0.46918824507E+03  0.50400001928E-02 0. -1.
    10030    2    1    2    0    0  0.00000000000E+00  0.00000000000E+00  0.63271718629E+02  0.10016482088E+04  0.99964784988E+03 0.  0.
        3    1    3    3  502    0 -0.73098974553E+01 -0.19724967534E+03 -0.42848132349E+03  0.47175960383E+03  0.10100000352E+00 0. -1.
       -3    1    3    3    0  502  0.73098974553E+01  0.19724967534E+03  0.49175304212E+03  0.52988860495E+03  0.10100000352E+00 0.  1.
</event>
<event>
 5   0  0.1453863E-04  0.1000633E+04  0.7818609E-02  0.9307851E-01
        1   -1    0    0  501    0  0.00000000000E+00  0.00000000000E+00  0.27387221880E+03  0.27387221885E+03  0.50400001928E-02 0.  1.
       -1   -1    0    0    0  501  0.00000000000E+00  0.00000000000E+00 -0.91398983991E+03  0.91398983992E+03  0.50400001928E-02 0. -1.
    10030    2    1    2    0    0  0.00000000000E+00  0.00000000000E+00 -0.64011762110E+03  0.11878620588E+04  0.10006326508E+04 0.  0.
        1    1    3    3  502    0  0.22146388903E+02 -0.48580830405E+03 -0.18052273481E+03  0.51873753347E+03  0.50400001928E-02 0.  1.
       -1    1    3    3    0  502 -0.22146388903E+02  0.48580830405E+03 -0.45959488629E+03  0.66912452530E+03  0.50400001928E-02 0. -1.
</event>
<event>
 5   0  0.2353916E-04  0.1000152E+04  0.7818609E-02  0.9308378E-01
       -2   -1    0    0    0  501  0.00000000000E+00  0.00000000000E+00  0.35643047931E+03  0.35643047932E+03  0.25500000920E-02 0. -1.
        2   -1    0    0  501    0  0.00000000000E+00  0.00000000000E+00 -0.70161207875E+03  0.70161207876E+03  0.25500000920E-02 0.  1.
    10030    2    1    2    0    0  0.00000000000E+00  0.00000000000E+00 -0.34518159944E+03  0.10580425581E+04  0.10001518475E+04 0.  0.
        4    1    3    3  502    0  0.28377979618E+03  0.92829476710E+02 -0.59696634240E+03  0.66747188055E+03  0.12699999809E+01 0.  1.
       -4    1    3    3    0  502 -0.28377979618E+03 -0.92829476710E+02  0.25178474295E+03  0.39057067753E+03  0.12699999809E+01 0. -1.
</event>
<event>
 5   0  0.2403037E-04  0.1000081E+04  0.7818609E-02  0.9308456E-01
       -2   -1    0    0    0  501  0.00000000000E+00  0.00000000000E+00  0.23096022001E+03  0.23096022002E+03  0.25500000920E-02 0. -1.
        2   -1    0    0  501    0  0.00000000000E+00  0.00000000000E+00 -0.10826121548E+04  0.10826121548E+04  0.25500000920E-02 0.  1.
    10030    2    1    2    0    0  0.00000000000E+00  0.00000000000E+00 -0.85165193479E+03  0.13135723748E+04  0.10000806797E+04 0.  0.
        1    1    3    3  502    0 -0.35439695517E+01 -0.20653500429E+03  0.17230055052E+03  0.26899209552E+03  0.50400001928E-02 0. -1.
       -1    1    3    3    0  502  0.35439695517E+01  0.20653500429E+03 -0.10239524853E+04  0.10445802793E+04  0.50400001928E-02 0.  1.
</event>
<event>
 5   0  0.2503680E-04  0.9991853E+03  0.7818609E-02  0.9309439E-01
       -2   -1    0    0    0  501  0.00000000000E+00  0.00000000000E+00  0.17809747193E+03  0.17809747195E+03  0.25500000920E-02 0. -1.
        2   -1    0    0  501    0  0.00000000000E+00  0.00000000000E+00 -0.14014393390E+04  0.14014393390E+04  0.25500000920E-02 0.  1.
    10030    2    1    2    0    0  0.00000000000E+00  0.00000000000E+00 -0.12233418671E+04  0.15795368110E+04  0.99918527483E+03 0.  0.
        2    1    3    3  502    0 -0.13167778078E+03  0.31789697331E+03 -0.11842597106E+04  0.12332350083E+04  0.25500000920E-02 0.  1.
       -2    1    3    3    0  502  0.13167778078E+03 -0.31789697331E+03 -0.39082156547E+02  0.34630180270E+03  0.25500000920E-02 0. -1.
</event>
<event>
 5   0  0.1453863E-04  0.1001632E+04  0.7818609E-02  0.9306757E-01
        1   -1    0    0  501    0  0.00000000000E+00  0.00000000000E+00  0.13801988992E+04  0.13801988992E+04  0.50400001928E-02 0.  1.
       -1   -1    0    0    0  501  0.00000000000E+00  0.00000000000E+00 -0.18172494642E+03  0.18172494649E+03  0.50400001928E-02 0. -1.
    10030    2    1    2    0    0  0.00000000000E+00  0.00000000000E+00  0.11984739528E+04  0.15619238457E+04  0.10016318107E+04 0.  0.
        1    1    3    3  502    0 -0.36216152902E+03 -0.12674736841E+03  0.11011311288E+04  0.11660684505E+04  0.50400001928E-02 0.  1.
       -1    1    3    3    0  502  0.36216152902E+03  0.12674736841E+03  0.97342824028E+02  0.39585539521E+03  0.50400001928E-02 0. -1.
</event>
<event>
 5   0  0.2484904E-04  0.9997475E+03  0.7818609E-02  0.9308822E-01
       -2   -1    0    0    0  501  0.00000000000E+00  0.00000000000E+00  0.19827071222E+03  0.19827071223E+03  0.25500000920E-02 0. -1.
        2   -1    0    0  501    0  0.00000000000E+00  0.00000000000E+00 -0.12602655392E+04  0.12602655392E+04  0.25500000920E-02 0.  1.
    10030    2    1    2    0    0  0.00000000000E+00  0.00000000000E+00 -0.10619948270E+04  0.14585362514E+04  0.99974746021E+03 0.  0.
        3    1    3    3  502    0  0.43419884915E+03  0.24756305646E+03 -0.51992238394E+03  0.72120413411E+03  0.10100000352E+00 0.  1.
       -3    1    3    3    0  502 -0.43419884915E+03 -0.24756305646E+03 -0.54207244301E+03  0.73733211730E+03  0.10100000352E+00 0. -1.
</event>
<event>
 5   0  0.2473312E-04  0.1000090E+04  0.7818609E-02  0.9308446E-01
        2   -1    0    0  501    0  0.00000000000E+00  0.00000000000E+00  0.18994233064E+04  0.18994233064E+04  0.25500000920E-02 0. -1.
       -2   -1    0    0    0  501  0.00000000000E+00  0.00000000000E+00 -0.13164268133E+03  0.13164268136E+03  0.25500000920E-02 0.  1.
    10030    2    1    2    0    0  0.00000000000E+00  0.00000000000E+00  0.17677806251E+04  0.20310659878E+04  0.10000903501E+04 0.  0.
        5    1    3    3  502    0  0.15321202777E+03 -0.37188783788E+03  0.14871977833E+04  0.15406342285E+04  0.46999998093E+01 0. -1.
       -5    1    3    3    0  502 -0.15321202777E+03  0.37188783788E+03  0.28058284184E+03  0.49043175932E+03  0.46999998093E+01 0.  1.
</event>
<event>
 5   0  0.2403037E-04  0.1000512E+04  0.7818609E-02  0.9307983E-01
        2   -1    0    0  501    0  0.00000000000E+00  0.00000000000E+00  0.50838776485E+03  0.50838776486E+03  0.25500000920E-02 0. -1.
       -2   -1    0    0    0  501  0.00000000000E+00  0.00000000000E+00 -0.49225465938E+03  0.49225465939E+03  0.25500000920E-02 0.  1.
    10030    2    1    2    0    0  0.00000000000E+00  0.00000000000E+00  0.16133105470E+02  0.10006424242E+04  0.10005123608E+04 0.  0.
        1    1    3    3  502    0 -0.32943046042E+03 -0.66168321778E+02  0.37872715804E+03  0.50629727959E+03  0.50400001928E-02 0. -1.
       -1    1    3    3    0  502  0.32943046042E+03  0.66168321778E+02 -0.36259405257E+03  0.49434514465E+03  0.50400001928E-02 0.  1.
</event>
<event>
 5   0  0.1453863E-04  0.1000069E+04  0.7818609E-02  0.9308469E-01
        1   -1    0    0  501    0  0.00000000000E+00  0.00000000000E+00  0.82820421772E+03  0.82820421774E+03  0.50400001928E-02 0. -1.
       -1   -1    0    0    0  501  0.00000000000E+00  0.00000000000E+00 -0.30189939705E+03  0.30189939709E+03  0.50400001928E-02 0.  1.
    10030    2    1    2    0    0  0.00000000000E+00  0.00000000000E+00  0.52630482068E+03  0.11301036148E+04  0.10000687056E+04 0.  0.
        1    1    3    3  502    0  0.49875643895E+03 -0.33438828187E+02  0.24893861771E+03  0.55843224839E+03  0.50400001928E-02 0. -1.
       -1    1    3    3    0  502 -0.49875643895E+03  0.33438828187E+02  0.27736620296E+03  0.57167136643E+03  0.50400001928E-02 0.  1.
</event>
<event>
 5   0  0.1414165E-04  0.9995758E+03  0.7818609E-02  0.9309010E-01
        1   -1    0    0  501    0  0.00000000000E+00  0.00000000000E+00  0.40068813952E+03  0.40068813956E+03  0.50400001928E-02 0.  1.
       -1   -1    0    0    0  501  0.00000000000E+00  0.00000000000E+00 -0.62339742344E+03  0.62339742346E+03  0.50400001928E-02 0. -1.
    10030    2    1    2    0    0  0.00000000000E+00  0.00000000000E+00 -0.22270928391E+03  0.10240855630E+04  0.99957581765E+03 0.  0.
        4    1    3    3  502    0  0.17178222638E+03 -0.44665475871E+03  0.36321094069E+02  0.47992753781E+03  0.12699999809E+01 0.  1.
       -4    1    3    3    0  502 -0.17178222638E+03  0.44665475871E+03 -0.25903037798E+03  0.54415802520E+03  0.12699999809E+01 0. -1.
</event>
<event>
 5   0  0.1506454E-04  0.1000051E+04  0.7818609E-02  0.9308489E-01
       -1   -1    0    0    0  501  0.00000000000E+00  0.00000000000E+00  0.26079267207E+03  0.26079267211E+03  0.50400001928E-02 0.  1.
        1   -1    0    0  501    0  0.00000000000E+00  0.00000000000E+00 -0.95871318206E+03  0.95871318207E+03  0.50400001928E-02 0. -1.
    10030    2    1    2    0    0  0.00000000000E+00  0.00000000000E+00 -0.69792050999E+03  0.12195058542E+04  0.10000507438E+04 0.  0.
        3    1    3    3  502    0 -0.45494167210E+03  0.57496095353E+02 -0.10584203571E+03  0.47061690654E+03  0.10100000352E+00 0.  1.
       -3    1    3    3    0  502  0.45494167210E+03 -0.57496095353E+02 -0.59207847429E+03  0.74888894765E+03  0.10100000352E+00 0. -1.
</event>
<event>
 5   0  0.2353916E-04  0.9999957E+03  0.7818609E-02  0.9308550E-01
       -2   -1    0    0    0  501  0.00000000000E+00  0.00000000000E+00  0.26785422544E+03  0.26785422546E+03  0.25500000920E-02 0.  1.
        2   -1    0    0  501    0  0.00000000000E+00  0.00000000000E+00 -0.93333547653E+03  0.93333547653E+03  0.25500000920E-02 0. -1.
    10030    2    1    2    0    0  0.00000000000E+00  0.00000000000E+00 -0.66548125108E+03  0.12011897020E+04  0.99999570230E+03 0.  0.
        4    1    3    3  502    0  0.95467841513E+02 -0.48397438050E+03 -0.43070194060E+03  0.65486722645E+03  0.12699999809E+01 0. -1.
       -4    1    3    3    0  502 -0.95467841513E+02  0.48397438050E+03 -0.23477931048E+03  0.54632247554E+03  0.12699999809E+01 0.  1.
</event>
<event>
 5   0  0.2473312E-04  0.1001215E+04  0.7818609E-02  0.9307213E-01
        2   -1    0    0  501    0  0.00000000000E+00  0.00000000000E+00  0.16056272298E+04  0.16056272298E+04  0.25500000920E-02 0.  1.
       -2   -1    0    0    0  501  0.00000000000E+00  0.00000000000E+00 -0.15608091940E+03  0.15608091942E+03  0.25500000920E-02 0. -1.
    10030    2    1    2    0    0  0.00000000000E+00  0.00000000000E+00  0.14495463104E+04  0.17617081492E+04  0.10012148106E+04 0.  0.
        5    1    3    3  502    0  0.91203517550E+02  0.44815488696E+03  0.36664628461E+03  0.58618467426E+03  0.46999998093E+01 0.  1.
       -5    1    3    3    0  502 -0.91203517550E+02 -0.44815488696E+03  0.10829000258E+04  0.11755234750E+04  0.46999998093E+01 0. -1.
</event>
<event>
 5   0  0.2503680E-04  0.9998523E+03  0.7818609E-02  0.9308707E-01
        2   -1    0    0  501    0  0.00000000000E+00  0.00000000000E+00  0.15066955490E+04  0.15066955490E+04  0.25500000920E-02 0.  1.
       -2   -1    0    0    0  501  0.00000000000E+00  0.00000000000E+00 -0.16587701467E+03  0.16587701469E+03  0.25500000920E-02 0. -1.
    10030    2    1    2    0    0  0.00000000000E+00  0.00000000000E+00  0.13408185344E+04  0.16725725637E+04  0.99985230852E+03 0.  0.
        2    1    3    3  502    0 -0.23691357761E+03 -0.36475027380E+03  0.25808262869E+03  0.50574445002E+03  0.25500000920E-02 0. -1.
       -2    1    3    3    0  502  0.23691357761E+03  0.36475027380E+03  0.10827359057E+04  0.11668281137E+04  0.25500000920E-02 0.  1.
</event>
<event>
 5   0  0.2484904E-04  0.1000907E+04  0.7818609E-02  0.9307551E-01
        2   -1    0    0  501    0  0.00000000000E+00  0.00000000000E+00  0.14129590543E+04  0.14129590543E+04  0.25500000920E-02 0. -1.
       -2   -1    0    0    0  501  0.00000000000E+00  0.00000000000E+00 -0.17725465101E+03  0.17725465103E+03  0.25500000920E-02 0.  1.
    10030    2    1    2    0    0  0.00000000000E+00  0.00000000000E+00  0.12357044033E+04  0.15902137054E+04  0.10009067171E+04 0.  0.
        3    1    3    3  502    0 -0.43815656367E+03 -0.23801870075E+03  0.68562185378E+03  0.84776849008E+03  0.10100000352E+00 0.  1.
       -3    1    3    3    0  502  0.43815656367E+03  0.23801870075E+03  0.55008254955E+03  0.74244521529E+03  0.10100000352E+00 0. -1.
</event>
<event>
 5   0  0.2503680E-04  0.9999065E+03  0.7818609E-02  0.9308647E-01
        2   -1    0    0  501    0  0.00000000000E+00  0.00000000000E+00  0.61513906788E+03  0.61513906789E+03  0.25500000920E-02 0. -1.
       -2   -1    0    0    0  501  0.00000000000E+00  0.00000000000E+00 -0.40633613374E+03  0.40633613375E+03  0.25500000920E-02 0.  1.
    10030    2    1    2    0    0  0.00000000000E+00  0.00000000000E+00  0.20880293414E+03  0.10214752016E+04  0.99990645675E+03 0.  0.
        2    1    3    3  502    0  0.31958755908E+02  0.47786836145E+02 -0.40294834814E+03  0.40702864158E+03  0.25500000920E-02 0.  1.
       -2    1    3    3    0  502 -0.31958755908E+02 -0.47786836145E+02  0.61175128228E+03  0.61444656006E+03  0.25500000920E-02 0. -1.
</event>
<event>
 5   0  0.2484904E-04  0.9994718E+03  0.7818609E-02  0.9309124E-01
       -2   -1    0    0    0  501  0.00000000000E+00  0.00000000000E+00  0.17190039176E+03  0.17190039178E+03  0.25500000920E-02 0. -1.
        2   -1    0    0  501    0  0.00000000000E+00  0.00000000000E+00 -0.14527945382E+04  0.14527945382E+04  0.25500000920E-02 0.  1.
    10030    2    1    2    0    0  0.00000000000E+00  0.00000000000E+00 -0.12808941464E+04  0.16246949300E+04  0.99947176104E+03 0.  0.
        3    1    3    3  502    0 -0.42641312972E+03  0.54103416291E+01 -0.21693338569E+03  0.47845327151E+03  0.10100000352E+00 0. -1.
       -3    1    3    3    0  502  0.42641312972E+03 -0.54103416291E+01 -0.10639607607E+04  0.11462416584E+04  0.10100000352E+00 0.  1.
</event>
<event>
 5   0  0.2484904E-04  0.9997530E+03  0.7818609E-02  0.9308816E-01
       -2   -1    0    0    0  501  0.00000000000E+00  0.00000000000E+00  0.11309739750E+04  0.11309739750E+04  0.25500000920E-02 0. -1.
        2   -1    0    0  501    0  0.00000000000E+00  0.00000000000E+00 -0.22093923040E+03  0.22093923041E+03  0.25500000920E-02 0.  1.
    10030    2    1    2    0    0  0.00000000000E+00  0.00000000000E+00  0.91003474458E+03  0.13519132054E+04  0.99975300879E+03 0.  0.
        3    1    3    3  502    0  0.37921896190E+03  0.22404293312E+03  0.13537676035E+03  0.46079185582E+03  0.10100000352E+00 0. -1.
       -3    1    3    3    0  502 -0.37921896190E+03 -0.22404293312E+03  0.77465798423E+03  0.89112134958E+03  0.10100000352E+00 0.  1.
</event>
<event>
 5   0  0.2353916E-04  0.9984101E+03  0.7818609E-02  0.9310290E-01
       -2   -1    0    0    0  501  0.00000000000E+00  0.00000000000E+00  0.46976877074E+03  0.46976877075E+03  0.25500000920E-02 0. -1.
        2   -1    0    0  501    0  0.00000000000E+00  0.00000000000E+00 -0.53048581709E+03  0.53048581709E+03  0.25500000920E-02 0.  1.
    10030    2    1    2    0    0  0.00000000000E+00  0.00000000000E+00 -0.60717046349E+02  0.10002545878E+04  0.99841007646E+03 0.  0.
        4    1    3    3  502    0 -0.49550542615E+03  0.43608141040E+02 -0.72588026994E+02  0.50269069205E+03  0.12699999809E+01 0. -1.
       -4    1    3    3    0  502  0.49550542615E+03 -0.43608141040E+02  0.11870980645E+02  0.49756389579E+03  0.12699999809E+01 0.  1.
</event>
<event>
 5   0  0.1506454E-04  0.9998708E+03  0.7818609E-02  0.9308687E-01
        1   -1    0    0  501    0  0.00000000000E+00  0.00000000000E+00  0.51828203752E+03  0.51828203754E+03  0.50400001928E-02 0. -1.
       -1   -1    0    0    0  501  0.00000000000E+00  0.00000000000E+00 -0.48223816783E+03  0.48223816786E+03  0.50400001928E-02 0.  1.
    10030    2    1    2    0    0  0.00000000000E+00  0.00000000000E+00  0.36043869686E+02  0.10005202054E+04  0.99987075209E+03 0.  0.
        3    1    3    3  502    0  0.25576465486E+03 -0.30155298603E+03  0.32413828874E+03  0.51128798391E+03  0.10100000352E+00 0. -1.
       -3    1    3    3    0  502 -0.25576465486E+03  0.30155298603E+03 -0.28809441906E+03  0.48923222150E+03  0.10100000352E+00 0.  1.
</event>
<event>
 5   0  0.1461334E-04  0.1000826E+04  0.7818609E-02  0.9307639E-01
        1   -1    0    0  501    0  0.00000000000E+00  0.00000000000E+00  0.11174159091E+04  0.11174159092E+04  0.50400001928E-02 0. -1.
       -1   -1    0    0    0  501  0.00000000000E+00  0.00000000000E+00 -0.22410042625E+03  0.22410042630E+03  0.50400001928E-02 0.  1.
    10030    2    1    2    0    0  0.00000000000E+00  0.00000000000E+00  0.89331548290E+03  0.13415163355E+04  0.10008264217E+04 0.  0.
        2    1    3    3  502    0  0.48815781712E+02  0.39743433193E+03  0.44364626456E+02  0.40287125589E+03  0.25500000920E-02 0.  1.
       -2    1    3    3    0  502 -0.48815781712E+02 -0.39743433193E+03  0.84895085645E+03  0.93864507957E+03  0.25500000920E-02 0. -1.
</event>
<event>
 5   0  0.1461334E-04  0.1004396E+04  0.7818609E-02  0.9303736E-01
        1   -1    0    0  501    0  0.00000000000E+00  0.00000000000E+00  0.34769500670E+03  0.34769500674E+03  0.50400001928E-02 0. -1.
       -1   -1    0    0    0  501  0.00000000000E+00  0.00000000000E+00 -0.72535654317E+03  0.72535654319E+03  0.50400001928E-02 0.  1.
    10030    2    1    2    0    0  0.00000000000E+00  0.00000000000E+00 -0.37766153647E+03  0.10730515499E+04  0.10043960338E+04 0.  0.
        2    1    3    3  502    0 -0.54507488532E+01 -0.42441302166E+03 -0.47559350583E+03  0.63745219932E+03  0.25500000920E-02 0.  1.
       -2    1    3    3    0  502  0.54507488532E+01  0.42441302166E+03  0.97931969361E+02  0.43559935061E+03  0.25500000920E-02 0. -1.
</event>
<event>
 5   0  0.1506454E-04  0.1000161E+04  0.7818609E-02  0.9308368E-01
       -1   -1    0    0    0  501  0.00000000000E+00  0.00000000000E+00  0.55279816473E+03  0.55279816475E+03  0.50400001928E-02 0.  1.
        1   -1    0    0  501    0  0.00000000000E+00  0.00000000000E+00 -0.45239058351E+03  0.45239058354E+03  0.50400001928E-02 0. -1.
    10030    2    1    2    0    0  0.00000000000E+00  0.00000000000E+00  0.10040758122E+03  0.10051887483E+04  0.10001613556E+04 0.  0.
        3    1    3    3  502    0  0.96523035659E+02 -0.27198783742E+03  0.46065176657E+03  0.54359372730E+03  0.10100000352E+00 0.  1.
       -3    1    3    3    0  502 -0.96523035659E+02  0.27198783742E+03 -0.36024418535E+03  0.46159502099E+03  0.10100000352E+00 0. -1.
</event>
<event>
 5   0  0.2403037E-04  0.9990208E+03  0.7818609E-02  0.9309619E-01
        2   -1    0    0  501    0  0.00000000000E+00  0.00000000000E+00  0.15715827037E+04  0.15715827037E+04  0.25500000920E-02 0. -1.
       -2   -1    0    0    0  501  0.00000000000E+00  0.00000000000E+00 -0.15876394078E+03  0.15876394080E+03  0.25500000920E-02 0.  1.
    10030    2    1    2    0    0  0.00000000000E+00  0.00000000000E+00  0.14128187629E+04  0.17303466445E+04  0.99902084729E+03 0.  0.
        1    1    3    3  502    0  0.74374390115E+02 -0.15679380526E+03  0.15176912031E+04  0.15275805823E+04  0.50400001928E-02 0. -1.
       -1    1    3    3    0  502 -0.74374390115E+02  0.15679380526E+03 -0.10487244017E+03  0.20276606227E+03  0.50400001928E-02 0.  1.
</event>
<event>
 5   0  0.1506454E-04  0.1000199E+04  0.7818609E-02  0.9308327E-01
       -1   -1    0    0    0  501  0.00000000000E+00  0.00000000000E+00  0.50095289019E+03  0.50095289021E+03  0.50400001928E-02 0.  1.
        1   -1    0    0  501    0  0.00000000000E+00  0.00000000000E+00 -0.49924721525E+03  0.49924721528E+03  0.50400001928E-02 0. -1.
    10030    2    1    2    0    0  0.00000000000E+00  0.00000000000E+00  0.17056749318E+01  0.10002001055E+04  0.10001986511E+04 0.  0.
        3    1    3    3  502    0 -0.94681139213E+02  0.16060328637E+03  0.46490242292E+03  0.50089141213E+03  0.10100000352E+00 0.  1.
       -3    1    3    3    0  502  0.94681139213E+02 -0.16060328637E+03 -0.46319674798E+03  0.49930869336E+03  0.10100000352E+00 0. -1.
</event>
<event>
 5   0  0.2484904E-04  0.9999506E+03  0.7818609E-02  0.9308599E-01
        2   -1    0    0  501    0  0.00000000000E+00  0.00000000000E+00  0.61428690008E+03  0.61428690009E+03  0.25500000920E-02 0.  1.
       -2   -1    0    0    0  501  0.00000000000E+00  0.00000000000E+00 -0.40693576688E+03  0.40693576689E+03  0.25500000920E-02 0. -1.
    10030    2    1    2    0    0  0.00000000000E+00  0.00000000000E+00  0.20735113320E+03  0.10212226670E+04  0.99995062034E+03 0.  0.
        3    1    3    3  502    0  0.54057332504E+02 -0.22771934954E+02 -0.40340945472E+03  0.40765175650E+03  0.10100000352E+00 0. -1.
       -3    1    3    3    0  502 -0.54057332504E+02  0.22771934954E+02  0.61076058792E+03  0.61357091048E+03  0.10100000352E+00 0.  1.
</event>
<event>
 5   0  0.1453863E-04  0.1001535E+04  0.7818609E-02  0.9306862E-01
        1   -1    0    0  501    0  0.00000000000E+00  0.00000000000E+00  0.18671178017E+04  0.18671178017E+04  0.50400001928E-02 0.  1.
       -1   -1    0    0    0  501  0.00000000000E+00  0.00000000000E+00 -0.13430772234E+03  0.13430772244E+03  0.50400001928E-02 0. -1.
    10030    2    1    2    0    0  0.00000000000E+00  0.00000000000E+00  0.17328100793E+04  0.20014255241E+04  0.10015354999E+04 0.  0.
        1    1    3    3  502    0  0.19013447986E+03 -0.23970214573E+03  0.16586221808E+04  0.16866048078E+04  0.50400001928E-02 0.  1.
       -1    1    3    3    0  502 -0.19013447986E+03  0.23970214573E+03  0.74187898531E+02  0.31482071630E+03  0.50400001928E-02 0. -1.
</event>
<event>
 5   0  0.2353916E-04  0.1000276E+04  0.7818609E-02  0.9308242E-01
        2   -1    0    0  501    0  0.00000000000E+00  0.00000000000E+00  0.12750391525E+04  0.12750391525E+04  0.25500000920E-02 0. -1.
       -2   -1    0    0    0  501  0.00000000000E+00  0.00000000000E+00 -0.19618060266E+03  0.19618060268E+03  0.25500000920E-02 0.  1.
    10030    2    1    2    0    0  0.00000000000E+00  0.00000000000E+00  0.10788585499E+04  0.14712197552E+04  0.10002758607E+04 0.  0.
        4    1    3    3  502    0  0.11252774597E+02  0.14572496335E+03 -0.16406576828E+03  0.21973069676E+03  0.12699999809E+01 0.  1.
       -4    1    3    3    0  502 -0.11252774597E+02 -0.14572496335E+03  0.12429243182E+04  0.12514890585E+04  0.12699999809E+01 0. -1.
</event>
<event>
 5   0  0.2353916E-04  0.1002416E+04  0.7818609E-02  0.9305898E-01
        2   -1    0    0  501    0  0.00000000000E+00  0.00000000000E+00  0.11856590866E+04  0.11856590866E+04  0.25500000920E-02 0. -1.
       -2   -1    0    0    0  501  0.00000000000E+00  0.00000000000E+00 -0.21187347214E+03  0.21187347216E+03  0.25500000920E-02 0.  1.
    10030    2    1    2    0    0  0.00000000000E+00  0.00000000000E+00  0.97378561446E+03  0.13975325588E+04  0.10024164952E+04 0.  0.
        4    1    3    3  502    0  0.23832502216E+03  0.24302648001E+03 -0.26014282518E+02  0.34137815098E+03  0.12699999809E+01 0.  1.
       -4    1    3    3    0  502 -0.23832502216E+03 -0.24302648001E+03  0.99979989698E+03  0.10561544078E+04  0.12699999809E+01 0. -1.
</event>
<event>
 5   0  0.1430675E-04  0.1000265E+04  0.7818609E-02  0.9308254E-01
        1   -1    0    0  501    0  0.00000000000E+00  0.00000000000E+00  0.18306455856E+04  0.18306455856E+04  0.50400001928E-02 0.  1.
       -1   -1    0    0    0  501  0.00000000000E+00  0.00000000000E+00 -0.13663635563E+03  0.13663635572E+03  0.50400001928E-02 0. -1.
    10030    2    1    2    0    0  0.00000000000E+00  0.00000000000E+00  0.16940092299E+04  0.19672819413E+04  0.10002654475E+04 0.  0.
        5    1    3    3  502    0 -0.45839126912E+03 -0.55821957323E+02  0.46934572323E+03  0.65844221040E+03  0.46999998093E+01 0. -1.
       -5    1    3    3    0  502  0.45839126912E+03  0.55821957323E+02  0.12246635067E+04  0.13088397309E+04  0.46999998093E+01 0.  1.
</event>
<event>
 5   0  0.1506454E-04  0.1000065E+04  0.7818609E-02  0.9308473E-01
       -1   -1    0    0    0  501  0.00000000000E+00  0.00000000000E+00  0.19740259285E+03  0.19740259292E+03  0.50400001928E-02 0. -1.
        1   -1    0    0  501    0  0.00000000000E+00  0.00000000000E+00 -0.12666129958E+04  0.12666129958E+04  0.50400001928E-02 0.  1.
    10030    2    1    2    0    0  0.00000000000E+00  0.00000000000E+00 -0.10692104030E+04  0.14640155887E+04  0.10000653770E+04 0.  0.
        3    1    3    3  502    0 -0.58291729523E+02 -0.21200472839E+03 -0.11920482610E+04  0.12121563420E+04  0.10100000352E+00 0.  1.
       -3    1    3    3    0  502  0.58291729523E+02  0.21200472839E+03  0.12283785809E+03  0.25185924674E+03  0.10100000352E+00 0. -1.
</event>
<event>
 5   0  0.1461334E-04  0.9997146E+03  0.7818609E-02  0.9308858E-01
        1   -1    0    0  501    0  0.00000000000E+00  0.00000000000E+00  0.77980753796E+03  0.77980753797E+03  0.50400001928E-02 0.  1.
       -1   -1    0    0    0  501  0.00000000000E+00  0.00000000000E+00 -0.32040898926E+03  0.32040898930E+03  0.50400001928E-02 0. -1.
    10030    2    1    2    0    0  0.00000000000E+00  0.00000000000E+00  0.45939854869E+03  0.11002165273E+04  0.99971464946E+03 0.  0.
        2    1    3    3  502    0 -0.15440699094E+03  0.47352252000E+03  0.18310835117E+03  0.53065409079E+03  0.25500000920E-02 0.  1.
       -2    1    3    3    0  502  0.15440699094E+03 -0.47352252000E+03  0.27629019752E+03  0.56956243648E+03  0.25500000920E-02 0. -1.
</event>
<event>
 5   0  0.2353916E-04  0.9995906E+03  0.7818609E-02  0.9308994E-01
        2   -1    0    0  501    0  0.00000000000E+00  0.00000000000E+00  0.58619701770E+03  0.58619701770E+03  0.25500000920E-02 0. -1.
       -2   -1    0    0    0  501  0.00000000000E+00  0.00000000000E+00 -0.42612864563E+03  0.42612864563E+03  0.25500000920E-02 0.  1.
    10030    2    1    2    0    0  0.00000000000E+00  0.00000000000E+00  0.16006837207E+03  0.10123256633E+04  0.99959059865E+03 0.  0.
        4    1    3    3  502    0  0.46517921388E+02  0.45711617216E+03 -0.11912992936E+03  0.47467111227E+03  0.12699999809E+01 0.  1.
       -4    1    3    3    0  502 -0.46517921388E+02 -0.45711617216E+03  0.27919830143E+03  0.53765455106E+03  0.12699999809E+01 0. -1.
</event>
<event>
 5   0  0.1506454E-04  0.1001567E+04  0.7818609E-02  0.9306828E-01
       -1   -1    0    0    0  501  0.00000000000E+00  0.00000000000E+00  0.11489312134E+03  0.11489312145E+03  0.50400001928E-02 0. -1.
        1   -1    0    0  501    0  0.00000000000E+00  0.00000000000E+00 -0.21827591390E+04  0.21827591390E+04  0.50400001928E-02 0.  1.
    10030    2    1    2    0    0  0.00000000000E+00  0.00000000000E+00 -0.20678660176E+04  0.22976522604E+04  0.10015667941E+04 0.  0.
        3    1    3    3  502    0 -0.30168325186E+02 -0.58032834672E+02  0.10505246646E+03  0.12374962083E+03  0.10100000352E+00 0. -1.
       -3    1    3    3    0  502  0.30168325186E+02  0.58032834672E+02 -0.21729184841E+04  0.21739026396E+04  0.10100000352E+00 0.  1.
</event>
<event>
 5   0  0.2503680E-04  0.1000097E+04  0.7818609E-02  0.9308439E-01
        2   -1    0    0  501    0  0.00000000000E+00  0.00000000000E+00  0.11684420122E+04  0.11684420122E+04  0.25500000920E-02 0. -1.
       -2   -1    0    0    0  501  0.00000000000E+00  0.00000000000E+00 -0.21400146822E+03  0.21400146824E+03  0.25500000920E-02 0.  1.
    10030    2    1    2    0    0  0.00000000000E+00  0.00000000000E+00  0.95444054393E+03  0.13824434804E+04  0.10000966076E+04 0.  0.
        2    1    3    3  502    0  0.15716643274E+03  0.46240249228E+03  0.62565586248E+03  0.79370183993E+03  0.25500000920E-02 0. -1.
       -2    1    3    3    0  502 -0.15716643274E+03 -0.46240249228E+03  0.32878468145E+03  0.58874164046E+03  0.25500000920E-02 0.  1.
</event>
<event>
 5   0  0.2353916E-04  0.9997982E+03  0.7818609E-02  0.9308766E-01
       -2   -1    0    0    0  501  0.00000000000E+00  0.00000000000E+00  0.45409559366E+03  0.45409559367E+03  0.25500000920E-02 0. -1.
        2   -1    0    0  501    0  0.00000000000E+00  0.00000000000E+00 -0.55032272287E+03  0.55032272288E+03  0.25500000920E-02 0.  1.
    10030    2    1    2    0    0  0.00000000000E+00  0.00000000000E+00 -0.96227129213E+02  0.10044183165E+04  0.99979822675E+03 0.  0.
        4    1    3    3  502    0 -0.44056931711E+03  0.13945052368E+03  0.14342353630E+03  0.48385916897E+03  0.12699999809E+01 0. -1.
       -4    1    3    3    0  502  0.44056931711E+03 -0.13945052368E+03 -0.23965066551E+03  0.52055914757E+03  0.12699999809E+01 0.  1.
</event>
<event>
 5   0  0.1430675E-04  0.1004084E+04  0.7818609E-02  0.9304077E-01
       -1   -1    0    0    0  501  0.00000000000E+00  0.00000000000E+00  0.11687279282E+03  0.11687279293E+03  0.50400001928E-02 0.  1.
        1   -1    0    0  501    0  0.00000000000E+00  0.00000000000E+00 -0.21565863889E+04  0.21565863889E+04  0.50400001928E-02 0. -1.
    10030    2    1    2    0    0  0.00000000000E+00  0.00000000000E+00 -0.20397135961E+04  0.22734591819E+04  0.10040842083E+04 0.  0.
        5    1    3    3  502    0  0.22770324986E+03  0.35069646004E+03 -0.39079943364E+03  0.57234872622E+03  0.46999998093E+01 0.  1.
       -5    1    3    3    0  502 -0.22770324986E+03 -0.35069646004E+03 -0.16489141625E+04  0.17011104556E+04  0.46999998093E+01 0. -1.
</event>
<event>
 5   0  0.9650500E-05  0.1000753E+04  0.7818609E-02  0.9307719E-01
       -4   -1    0    0    0  501  0.00000000000E+00  0.00000000000E+00  0.13271266232E+04  0.13271272309E+04  0.12699999809E+01 0. -1.
        4   -1    0    0  501    0  0.00000000000E+00  0.00000000000E+00 -0.18865795379E+03  0.18866222841E+03  0.12699999809E+01 0.  1.
    10030    2    1    2    0    0  0.00000000000E+00  0.00000000000E+00  0.11384686695E+04  0.15157894593E+04  0.10007531033E+04 0.  0.
        4    1    3    3  502    0  0.49372649242E+03  0.78695760453E+01  0.69179273682E+03  0.84994504714E+03  0.12699999809E+01 0.  1.
       -4    1    3    3    0  502 -0.49372649242E+03 -0.78695760453E+01  0.44667593263E+03  0.66584441218E+03  0.12699999809E+01 0. -1.
</event>
<event>
 5   0  0.2503680E-04  0.9999912E+03  0.7818609E-02  0.9308554E-01
       -2   -1    0    0    0  501  0.00000000000E+00  0.00000000000E+00  0.10806309316E+03  0.10806309319E+03  0.25500000920E-02 0.  1.
        2   -1    0    0  501    0  0.00000000000E+00  0.00000000000E+00 -0.23134224288E+04  0.23134224288E+04  0.25500000920E-02 0. -1.
    10030    2    1    2    0    0  0.00000000000E+00  0.00000000000E+00 -0.22053593356E+04  0.24214855220E+04  0.99999116693E+03 0.  0.
        2    1    3    3  502    0  0.78346480479E+02 -0.41691043565E+03 -0.17435473861E+04  0.17944107584E+04  0.25500000920E-02 0. -1.
       -2    1    3    3    0  502 -0.78346480479E+02  0.41691043565E+03 -0.46181194951E+03  0.62707476355E+03  0.25500000920E-02 0.  1.
</event>
<event>
 5   0  0.2484904E-04  0.1000131E+04  0.7818609E-02  0.9308401E-01
        2   -1    0    0  501    0  0.00000000000E+00  0.00000000000E+00  0.66512583653E+03  0.66512583654E+03  0.25500000920E-02 0. -1.
       -2   -1    0    0    0  501  0.00000000000E+00  0.00000000000E+00 -0.37596703343E+03  0.37596703344E+03  0.25500000920E-02 0.  1.
    10030    2    1    2    0    0  0.00000000000E+00  0.00000000000E+00  0.28915880310E+03  0.10410928700E+04  0.10001307667E+04 0.  0.
        3    1    3    3  502    0 -0.11278777934E+03 -0.47608229500E+03  0.36952615341E+02  0.49065358529E+03  0.10100000352E+00 0.  1.
       -3    1    3    3    0  502  0.11278777934E+03  0.47608229500E+03  0.25220618776E+03  0.55043928468E+03  0.10100000352E+00 0. -1.
</event>
<event>
 5   0  0.2473312E-04  0.1001597E+04  0.7818609E-02  0.9306795E-01
       -2   -1    0    0    0  501  0.00000000000E+00  0.00000000000E+00  0.23742991010E+03  0.23742991011E+03  0.25500000920E-02 0.  1.
        2   -1    0    0  501    0  0.00000000000E+00  0.00000000000E+00 -0.10563075013E+04  0.10563075013E+04  0.25500000920E-02 0. -1.
    10030    2    1    2    0    0  0.00000000000E+00  0.00000000000E+00 -0.81887759115E+03  0.12937374114E+04  0.10015967154E+04 0.  0.
        5    1    3    3  502    0  0.24392320218E+03  0.12741502493E+03 -0.94985280225E+03  0.98892646495E+03  0.46999998093E+01 0. -1.
       -5    1    3    3    0  502 -0.24392320218E+03 -0.12741502493E+03  0.13097521109E+03  0.30481094642E+03  0.46999998093E+01 0.  1.
</event>
<event>
 5   0  0.1461334E-04  0.9997691E+03  0.7818609E-02  0.9308798E-01
        1   -1    0    0  501    0  0.00000000000E+00  0.00000000000E+00  0.10106396766E+04  0.10106396766E+04  0.50400001928E-02 0.  1.
       -1   -1    0    0    0  501  0.00000000000E+00  0.00000000000E+00 -0.24725386651E+03  0.24725386657E+03  0.50400001928E-02 0. -1.
    10030    2    1    2    0    0  0.00000000000E+00  0.00000000000E+00  0.76338581011E+03  0.12578935432E+04  0.99976910882E+03 0.  0.
        2    1    3    3  502    0  0.49653493964E+03  0.55521332160E+02  0.36160119380E+03  0.61675358772E+03  0.25500000920E-02 0.  1.
       -2    1    3    3    0  502 -0.49653493964E+03 -0.55521332160E+02  0.40178461631E+03  0.64113995548E+03  0.25500000920E-02 0. -1.
</event>
<event>
 5   0  0.2503680E-04  0.9979342E+03  0.7818609E-02  0.9310813E-01
       -2   -1    0    0    0  501  0.00000000000E+00  0.00000000000E+00  0.15896556730E+03  0.15896556732E+03  0.25500000920E-02 0.  1.
        2   -1    0    0  501    0  0.00000000000E+00  0.00000000000E+00 -0.15661767584E+04  0.15661767584E+04  0.25500000920E-02 0. -1.
    10030    2    1    2    0    0  0.00000000000E+00  0.00000000000E+00 -0.14072111911E+04  0.17251423258E+04  0.99793422011E+03 0.  0.
        2    1    3    3  502    0  0.48026378192E+03  0.64681929759E+02 -0.49810580724E+03  0.69494348509E+03  0.25500000920E-02 0.  1.
       -2    1    3    3    0  502 -0.48026378192E+03 -0.64681929759E+02 -0.90910538390E+03  0.10301988407E+04  0.25500000920E-02 0. -1.
</event>
<event>
 5   0  0.9650500E-05  0.9984949E+03  0.7818609E-02  0.9310197E-01
        4   -1    0    0  501    0  0.00000000000E+00  0.00000000000E+00  0.34101107368E+03  0.34101343855E+03  0.12699999809E+01 0.  1.
       -4   -1    0    0    0  501  0.00000000000E+00  0.00000000000E+00 -0.73090346102E+03  0.73090456438E+03  0.12699999809E+01 0. -1.
    10030    2    1    2    0    0  0.00000000000E+00  0.00000000000E+00 -0.38989238734E+03  0.10719180029E+04  0.99849493303E+03 0.  0.
        5    1    3    3  502    0 -0.17735841330E+03  0.33058370636E+03 -0.54853559887E+03  0.66457128053E+03  0.46999998093E+01 0.  1.
       -5    1    3    3    0  502  0.17735841330E+03 -0.33058370636E+03  0.15864321153E+03  0.40734672239E+03  0.46999998093E+01 0. -1.
</event>
<event>
 5   0  0.2473312E-04  0.1000263E+04  0.7818609E-02  0.9308256E-01
        2   -1    0    0  501    0  0.00000000000E+00  0.00000000000E+00  0.12996749277E+04  0.12996749277E+04  0.25500000920E-02 0.  1.
       -2   -1    0    0    0  501  0.00000000000E+00  0.00000000000E+00 -0.19245703562E+03  0.19245703563E+03  0.25500000920E-02 0. -1.
    10030    2    1    2    0    0  0.00000000000E+00  0.00000000000E+00  0.11072178921E+04  0.14921319633E+04  0.10002631331E+04 0.  0.
        5    1    3    3  502    0  0.32352839608E+03  0.34053105089E+03  0.29749212351E+03  0.55601769148E+03  0.46999998093E+01 0.  1.
       -5    1    3    3    0  502 -0.32352839608E+03 -0.34053105089E+03  0.80972576857E+03  0.93611427186E+03  0.46999998093E+01 0. -1.
</event>
<event>
 5   0  0.1414165E-04  0.1000264E+04  0.7818609E-02  0.9308256E-01
       -1   -1    0    0    0  501  0.00000000000E+00  0.00000000000E+00  0.15980897930E+03  0.15980897938E+03  0.50400001928E-02 0.  1.
        1   -1    0    0  501    0  0.00000000000E+00  0.00000000000E+00 -0.15651928003E+04  0.15651928003E+04  0.50400001928E-02 0. -1.
    10030    2    1    2    0    0  0.00000000000E+00  0.00000000000E+00 -0.14053838210E+04  0.17250017797E+04  0.10002636930E+04 0.  0.
        4    1    3    3  502    0 -0.47853046059E+03 -0.13824069363E+03 -0.62502293933E+03  0.79922285921E+03  0.12699999809E+01 0.  1.
       -4    1    3    3    0  502  0.47853046059E+03  0.13824069363E+03 -0.78036088170E+03  0.92577892052E+03  0.12699999809E+01 0. -1.
</event>
<event>
 5   0  0.1461334E-04  0.1000254E+04  0.7818609E-02  0.9308266E-01
       -1   -1    0    0    0  501  0.00000000000E+00  0.00000000000E+00  0.27942774221E+03  0.27942774226E+03  0.50400001928E-02 0.  1.
        1   -1    0    0  501    0  0.00000000000E+00  0.00000000000E+00 -0.89514048588E+03  0.89514048589E+03  0.50400001928E-02 0. -1.
    10030    2    1    2    0    0  0.00000000000E+00  0.00000000000E+00 -0.61571274367E+03  0.11745682282E+04  0.10002541376E+04 0.  0.
        2    1    3    3  502    0  0.20012684864E+03 -0.34219415745E+03 -0.66592103869E+03  0.77498285575E+03  0.25500000920E-02 0. -1.
       -2    1    3    3    0  502 -0.20012684864E+03  0.34219415745E+03  0.50208295022E+02  0.39958537240E+03  0.25500000920E-02 0.  1.
</event>
<event>
 5   0  0.1453863E-04  0.9991259E+03  0.7818609E-02  0.9309504E-01
        1   -1    0    0  501    0  0.00000000000E+00  0.00000000000E+00  0.23260771787E+04  0.23260771787E+04  0.50400001928E-02 0. -1.
       -1   -1    0    0    0  501  0.00000000000E+00  0.00000000000E+00 -0.10728927371E+03  0.10728927383E+03  0.50400001928E-02 0.  1.
    10030    2    1    2    0    0  0.00000000000E+00  0.00000000000E+00  0.22187879049E+04  0.24333664525E+04  0.99912588043E+03 0.  0.
        1    1    3    3  502    0 -0.38006069636E+03  0.32418575693E+03  0.10983417150E+04  0.12066055945E+04  0.50400001928E-02 0. -1.
       -1    1    3    3    0  502  0.38006069636E+03 -0.32418575693E+03  0.11204461900E+04  0.12267608579E+04  0.50400001928E-02 0.  1.
</event>
<event>
 5   0  0.2473312E-04  0.1001152E+04  0.7818609E-02  0.9307282E-01
        2   -1    0    0  501    0  0.00000000000E+00  0.00000000000E+00  0.76529396601E+03  0.76529396602E+03  0.25500000920E-02 0. -1.
       -2   -1    0    0    0  501  0.00000000000E+00  0.00000000000E+00 -0.32742515094E+03  0.32742515095E+03  0.25500000920E-02 0.  1.
    10030    2    1    2    0    0  0.00000000000E+00  0.00000000000E+00  0.43786881507E+03  0.10927191170E+04  0.10011523208E+04 0.  0.
        5    1    3    3  502    0  0.27670203899E+03 -0.95767943829E+02  0.66204473118E+03  0.72392046078E+03  0.46999998093E+01 0. -1.
       -5    1    3    3    0  502 -0.27670203899E+03  0.95767943829E+02 -0.22417591611E+03  0.36879865619E+03  0.46999998093E+01 0.  1.
</event>
<event>
 5   0  0.1430675E-04  0.1000762E+04  0.7818609E-02  0.9307709E-01
        1   -1    0    0  501    0  0.00000000000E+00  0.00000000000E+00  0.13141270401E+04  0.13141270401E+04  0.50400001928E-02 0. -1.
       -1   -1    0    0    0  501  0.00000000000E+00  0.00000000000E+00 -0.19053056649E+03  0.19053056655E+03  0.50400001928E-02 0.  1.
    10030    2    1    2    0    0  0.00000000000E+00  0.00000000000E+00  0.11235964736E+04  0.15046576067E+04  0.10007624482E+04 0.  0.
        5    1    3    3  502    0 -0.33776005237E+03  0.84864956747E+01  0.11166843504E+04  0.11666875769E+04  0.46999998093E+01 0. -1.
       -5    1    3    3    0  502  0.33776005237E+03 -0.84864956747E+01  0.69121231923E+01  0.33797002978E+03  0.46999998093E+01 0.  1.
</event>
<event>
 5   0  0.1506454E-04  0.1000173E+04  0.7818609E-02  0.9308356E-01
       -1   -1    0    0    0  501  0.00000000000E+00  0.00000000000E+00  0.17694688293E+03  0.17694688301E+03  0.50400001928E-02 0.  1.
        1   -1    0    0  501    0  0.00000000000E+00  0.00000000000E+00 -0.14133410249E+04  0.14133410249E+04  0.50400001928E-02 0. -1.
    10030    2    1    2    0    0  0.00000000000E+00  0.00000000000E+00 -0.12363941419E+04  0.15902879079E+04  0.10001725630E+04 0.  0.
        3    1    3    3  502    0  0.44719264894E+03  0.22135729875E+03 -0.67107451861E+03  0.83625435048E+03  0.10100000352E+00 0.  1.
       -3    1    3    3    0  502 -0.44719264894E+03 -0.22135729875E+03 -0.56531962333E+03  0.75403355741E+03  0.10100000352E+00 0. -1.
</event>
<event>
 5   0  0.2403037E-04  0.1000094E+04  0.7818609E-02  0.9308441E-01
        2   -1    0    0  501    0  0.00000000000E+00  0.00000000000E+00  0.68376237372E+03  0.68376237373E+03  0.25500000920E-02 0.  1.
       -2   -1    0    0    0  501  0.00000000000E+00  0.00000000000E+00 -0.36569315032E+03  0.36569315033E+03  0.25500000920E-02 0. -1.
    10030    2    1    2    0    0  0.00000000000E+00  0.00000000000E+00  0.31806922340E+03  0.10494555241E+04  0.10000944286E+04 0.  0.
        1    1    3    3  502    0 -0.50176163622E+02  0.39177820139E+03  0.48082863815E+03  0.62225717013E+03  0.50400001928E-02 0.  1.
       -1    1    3    3    0  502  0.50176163622E+02 -0.39177820139E+03 -0.16275941475E+03  0.42719835393E+03  0.50400001928E-02 0. -1.
</event>
<event>
 5   0  0.1453863E-04  0.9999176E+03  0.7818609E-02  0.9308635E-01
       -1   -1    0    0    0  501  0.00000000000E+00  0.00000000000E+00  0.28542498572E+03  0.28542498576E+03  0.50400001928E-02 0.  1.
        1   -1    0    0  501    0  0.00000000000E+00  0.00000000000E+00 -0.87574245792E+03  0.87574245793E+03  0.50400001928E-02 0. -1.
    10030    2    1    2    0    0  0.00000000000E+00  0.00000000000E+00 -0.59031747220E+03  0.11611674437E+04  0.99991755376E+03 0.  0.
        1    1    3    3  502    0 -0.11541380539E+03  0.19753568918E+03  0.22107216789E+03  0.31814084682E+03  0.50400001928E-02 0.  1.
       -1    1    3    3    0  502  0.11541380539E+03 -0.19753568918E+03 -0.81138964009E+03  0.84302659688E+03  0.50400001928E-02 0. -1.
</event>
<event>
 5   0  0.2484904E-04  0.9998228E+03  0.7818609E-02  0.9308739E-01
        2   -1    0    0  501    0  0.00000000000E+00  0.00000000000E+00  0.10340563518E+04  0.10340563518E+04  0.25500000920E-02 0. -1.
       -2   -1    0    0    0  501  0.00000000000E+00  0.00000000000E+00 -0.24168064441E+03  0.24168064443E+03  0.25500000920E-02 0.  1.
    10030    2    1    2    0    0  0.00000000000E+00  0.00000000000E+00  0.79237570738E+03  0.12757369962E+04  0.99982279524E+03 0.  0.
        3    1    3    3  502    0  0.14339463000E+03  0.13918909181E+03 -0.18849816580E+03  0.27471292635E+03  0.10100000352E+00 0.  1.
       -3    1    3    3    0  502 -0.14339463000E+03 -0.13918909181E+03  0.98087387317E+03  0.10010240699E+04  0.10100000352E+00 0. -1.
</event>
<event>
 5   0  0.1453863E-04  0.1000285E+04  0.7818609E-02  0.9308232E-01
        1   -1    0    0  501    0  0.00000000000E+00  0.00000000000E+00  0.55496247065E+03  0.55496247067E+03  0.50400001928E-02 0. -1.
       -1   -1    0    0    0  501  0.00000000000E+00  0.00000000000E+00 -0.45073804548E+03  0.45073804550E+03  0.50400001928E-02 0.  1.
    10030    2    1    2    0    0  0.00000000000E+00  0.00000000000E+00  0.10422442517E+03  0.10057005162E+04  0.10002853580E+04 0.  0.
        1    1    3    3  502    0 -0.26658700572E+03 -0.10142364368E+03  0.46517365765E+03  0.54565732737E+03  0.50400001928E-02 0. -1.
       -1    1    3    3    0  502  0.26658700572E+03  0.10142364368E+03 -0.36094923248E+03  0.46004318881E+03  0.50400001928E-02 0.  1.
</event>
<event>
 5   0  0.1414165E-04  0.9999676E+03  0.7818609E-02  0.9308580E-01
       -1   -1    0    0    0  501  0.00000000000E+00  0.00000000000E+00  0.96780882417E+02  0.96780882548E+02  0.50400001928E-02 0. -1.
        1   -1    0    0  501    0  0.00000000000E+00  0.00000000000E+00 -0.25829873451E+04  0.25829873451E+04  0.50400001928E-02 0.  1.
    10030    2    1    2    0    0  0.00000000000E+00  0.00000000000E+00 -0.24862064627E+04  0.26797682276E+04  0.99996758890E+03 0.  0.
        4    1    3    3  502    0  0.83498117934E+02  0.23061484156E+03 -0.75513279506E+02  0.25663010176E+03  0.12699999809E+01 0. -1.
       -4    1    3    3    0  502 -0.83498117934E+02 -0.23061484156E+03 -0.24106931832E+04  0.24231381259E+04  0.12699999809E+01 0.  1.
</event>
<event>
 5   0  0.2403037E-04  0.1000080E+04  0.7818609E-02  0.9308457E-01
        2   -1    0    0  501    0  0.00000000000E+00  0.00000000000E+00  0.17129716893E+04  0.17129716893E+04  0.25500000920E-02 0. -1.
       -2   -1    0    0    0  501  0.00000000000E+00  0.00000000000E+00 -0.14596863405E+03  0.14596863408E+03  0.25500000920E-02 0.  1.
    10030    2    1    2    0    0  0.00000000000E+00  0.00000000000E+00  0.15670030552E+04  0.18589403234E+04  0.10000802721E+04 0.  0.
        1    1    3    3  502    0 -0.38396913550E+03  0.31622944970E+03  0.68859798460E+03  0.84947074482E+03  0.50400001928E-02 0.  1.
       -1    1    3    3    0  502  0.38396913550E+03 -0.31622944970E+03  0.87840507064E+03  0.10094695786E+04  0.50400001928E-02 0. -1.
</event>
<event>
 5   0  0.1453863E-04  0.9998472E+03  0.7818609E-02  0.9308712E-01
       -1   -1    0    0    0  501  0.00000000000E+00  0.00000000000E+00  0.43120561290E+03  0.43120561293E+03  0.50400001928E-02 0.  1.
        1   -1    0    0  501    0  0.00000000000E+00  0.00000000000E+00 -0.57959265393E+03  0.57959265395E+03  0.50400001928E-02 0. -1.
    10030    2    1    2    0    0  0.00000000000E+00  0.00000000000E+00 -0.14838704103E+03  0.10107982669E+04  0.99984719952E+03 0.  0.
        1    1    3    3  502    0  0.23359672819E+03 -0.26470287856E+03  0.28364456641E+03  0.45286784543E+03  0.50400001928E-02 0.  1.
       -1    1    3    3    0  502 -0.23359672819E+03  0.26470287856E+03 -0.43203160744E+03  0.55793042146E+03  0.50400001928E-02 0. -1.
</event>
<event>
 5   0  0.1453863E-04  0.1000280E+04  0.7818609E-02  0.9308237E-01
        1   -1    0    0  501    0  0.00000000000E+00  0.00000000000E+00  0.38374863491E+03  0.38374863494E+03  0.50400001928E-02 0.  1.
       -1   -1    0    0    0  501  0.00000000000E+00  0.00000000000E+00 -0.65183351925E+03  0.65183351926E+03  0.50400001928E-02 0. -1.
    10030    2    1    2    0    0  0.00000000000E+00  0.00000000000E+00 -0.26808488434E+03  0.10355821542E+04  0.10002804071E+04 0.  0.
        1    1    3    3  502    0 -0.17081428935E+03 -0.65380462053E+01  0.35256670600E+03  0.39182081325E+03  0.50400001928E-02 0.  1.
       -1    1    3    3    0  502  0.17081428935E+03  0.65380462053E+01 -0.62065159034E+03  0.64376134095E+03  0.50400001928E-02 0. -1.
</event>
<event>
 5   0  0.2484904E-04  0.9998533E+03  0.7818609E-02  0.9308706E-01
        2   -1    0    0  501    0  0.00000000000E+00  0.00000000000E+00  0.10415567608E+04  0.10415567608E+04  0.25500000920E-02 0. -1.
       -2   -1    0    0    0  501  0.00000000000E+00  0.00000000000E+00 -0.23995492875E+03  0.23995492877E+03  0.25500000920E-02 0.  1.
    10030    2    1    2    0    0  0.00000000000E+00  0.00000000000E+00  0.80160183204E+03  0.12815116896E+04  0.99985334593E+03 0.  0.
        3    1    3    3  502    0  0.36101015627E+03 -0.16456311822E+03  0.79065113161E+03  0.88461210422E+03  0.10100000352E+00 0. -1.
       -3    1    3    3    0  502 -0.36101015627E+03  0.16456311822E+03  0.10950700429E+02  0.39689958535E+03  0.10100000352E+00 0.  1.
</event>
<event>
 5   0  0.2473312E-04  0.9997246E+03  0.7818609E-02  0.9308847E-01
       -2   -1    0    0    0  501  0.00000000000E+00  0.00000000000E+00  0.93056638822E+02  0.93056638857E+02  0.25500000920E-02 0. -1.
        2   -1    0    0  501    0  0.00000000000E+00  0.00000000000E+00 -0.26850564021E+04  0.26850564021E+04  0.25500000920E-02 0.  1.
    10030    2    1    2    0    0  0.00000000000E+00  0.00000000000E+00 -0.25919997633E+04  0.27781130410E+04  0.99972460984E+03 0.  0.
        5    1    3    3  502    0 -0.19563322059E+03  0.21038514879E+03 -0.15935383956E+03  0.32855745922E+03  0.46999998093E+01 0. -1.
       -5    1    3    3    0  502  0.19563322059E+03 -0.21038514879E+03 -0.24326459237E+04  0.24495555817E+04  0.46999998093E+01 0.  1.
</event>
<event>
 5   0  0.2503680E-04  0.9994513E+03  0.7818609E-02  0.9309147E-01
        2   -1    0    0  501    0  0.00000000000E+00  0.00000000000E+00  0.64347317012E+03  0.64347317013E+03  0.25500000920E-02 0.  1.
       -2   -1    0    0    0  501  0.00000000000E+00  0.00000000000E+00 -0.38809034251E+03  0.38809034252E+03  0.25500000920E-02 0. -1.
    10030    2    1    2    0    0  0.00000000000E+00  0.00000000000E+00  0.25538282761E+03  0.10315635126E+04  0.99945129546E+03 0.  0.
        2    1    3    3  502    0  0.18560758239E+03  0.32176428086E+02 -0.35004115067E+03  0.39751013111E+03  0.25500000920E-02 0. -1.
       -2    1    3    3    0  502 -0.18560758239E+03 -0.32176428086E+02  0.60542397827E+03  0.63405338154E+03  0.25500000920E-02 0.  1.
</event>
<event>
 5   0  0.2503680E-04  0.9999875E+03  0.7818609E-02  0.9308558E-01
       -2   -1    0    0    0  501  0.00000000000E+00  0.00000000000E+00  0.57248781732E+03  0.57248781732E+03  0.25500000920E-02 0.  1.
        2   -1    0    0  501    0  0.00000000000E+00  0.00000000000E+00 -0.43667960651E+03  0.43667960652E+03  0.25500000920E-02 0. -1.
    10030    2    1    2    0    0  0.00000000000E+00  0.00000000000E+00  0.13580821081E+03  0.10091674238E+04  0.99998750953E+03 0.  0.
        2    1    3    3  502    0 -0.96567886391E+02  0.34049049176E+03  0.42432418032E+03  0.55254876859E+03  0.25500000920E-02 0.  1.
       -2    1    3    3    0  502  0.96567886391E+02 -0.34049049176E+03 -0.28851596951E+03  0.45661865526E+03  0.25500000920E-02 0. -1.
</event>
<event>
 5   0  0.2484904E-04  0.9956981E+03  0.7818609E-02  0.9313276E-01
        2   -1    0    0  501    0  0.00000000000E+00  0.00000000000E+00  0.13424454064E+04  0.13424454064E+04  0.25500000920E-02 0.  1.
       -2   -1    0    0    0  501  0.00000000000E+00  0.00000000000E+00 -0.18462847807E+03  0.18462847809E+03  0.25500000920E-02 0. -1.
    10030    2    1    2    0    0  0.00000000000E+00  0.00000000000E+00  0.11578169284E+04  0.15270738845E+04  0.99569805121E+03 0.  0.
        3    1    3    3  502    0  0.13387584756E+03 -0.13234695385E+03  0.12857550608E+04  0.12994631759E+04  0.10100000352E+00 0.  1.
       -3    1    3    3    0  502 -0.13387584756E+03  0.13234695385E+03 -0.12793813248E+03  0.22761070866E+03  0.10100000352E+00 0. -1.
</event>
<event>
 5   0  0.1461334E-04  0.1000172E+04  0.7818609E-02  0.9308356E-01
       -1   -1    0    0    0  501  0.00000000000E+00  0.00000000000E+00  0.43565777671E+03  0.43565777673E+03  0.50400001928E-02 0.  1.
        1   -1    0    0  501    0  0.00000000000E+00  0.00000000000E+00 -0.57404251063E+03  0.57404251066E+03  0.50400001928E-02 0. -1.
    10030    2    1    2    0    0  0.00000000000E+00  0.00000000000E+00 -0.13838473393E+03  0.10097002874E+04  0.10001721531E+04 0.  0.
        2    1    3    3  502    0  0.40207516292E+03  0.19460761234E+03 -0.29616644391E+03  0.53595813449E+03  0.25500000920E-02 0. -1.
       -2    1    3    3    0  502 -0.40207516292E+03 -0.19460761234E+03  0.15778170999E+03  0.47374215290E+03  0.25500000920E-02 0.  1.
</event>
<event>
 5   0  0.2403037E-04  0.9997095E+03  0.7818609E-02  0.9308863E-01
        2   -1    0    0  501    0  0.00000000000E+00  0.00000000000E+00  0.60653958991E+03  0.60653958992E+03  0.25500000920E-02 0.  1.
       -2   -1    0    0    0  501  0.00000000000E+00  0.00000000000E+00 -0.41193484246E+03  0.41193484247E+03  0.25500000920E-02 0. -1.
    10030    2    1    2    0    0  0.00000000000E+00  0.00000000000E+00  0.19460474745E+03  0.10184744324E+04  0.99970953866E+03 0.  0.
        1    1    3    3  502    0  0.89942094324E+02 -0.14004631938E+03  0.57747969217E+03  0.60098697722E+03  0.50400001928E-02 0.  1.
       -1    1    3    3    0  502 -0.89942094324E+02  0.14004631938E+03 -0.38287494472E+03  0.41748745516E+03  0.50400001928E-02 0. -1.
</event>
<event>
 5   0  0.1453863E-04  0.1000211E+04  0.7818609E-02  0.9308313E-01
        1   -1    0    0  501    0  0.00000000000E+00  0.00000000000E+00  0.13390597402E+04  0.13390597402E+04  0.50400001928E-02 0. -1.
       -1   -1    0    0    0  501  0.00000000000E+00  0.00000000000E+00 -0.18677708192E+03  0.18677708199E+03  0.50400001928E-02 0.  1.
    10030    2    1    2    0    0  0.00000000000E+00  0.00000000000E+00  0.11522826583E+04  0.15258368222E+04  0.10002113194E+04 0.  0.
        1    1    3    3  502    0  0.44834949626E+03  0.21995711008E+03  0.61671168962E+03  0.79355636801E+03  0.50400001928E-02 0. -1.
       -1    1    3    3    0  502 -0.44834949626E+03 -0.21995711008E+03  0.53557096864E+03  0.73228045416E+03  0.50400001928E-02 0.  1.
</event>
<event>
 5   0  0.1506454E-04  0.9998886E+03  0.7818609E-02  0.9308667E-01
       -1   -1    0    0    0  501  0.00000000000E+00  0.00000000000E+00  0.83556032324E+03  0.83556032325E+03  0.50400001928E-02 0.  1.
        1   -1    0    0  501    0  0.00000000000E+00  0.00000000000E+00 -0.29913378505E+03  0.29913378509E+03  0.50400001928E-02 0. -1.
    10030    2    1    2    0    0  0.00000000000E+00  0.00000000000E+00  0.53642653819E+03  0.11346941083E+04  0.99988863812E+03 0.  0.
        3    1    3    3  502    0  0.14257889929E+03 -0.46951004817E+03  0.37691867107E+03  0.61873752323E+03  0.10100000352E+00 0.  1.
       -3    1    3    3    0  502 -0.14257889929E+03  0.46951004817E+03  0.15950786711E+03  0.51595658511E+03  0.10100000352E+00 0. -1.
</event>
<event>
 5   0  0.1414165E-04  0.1001533E+04  0.7818609E-02  0.9306865E-01
        1   -1    0    0  501    0  0.00000000000E+00  0.00000000000E+00  0.53402683226E+03  0.53402683228E+03  0.50400001928E-02 0.  1.
       -1   -1    0    0    0  501  0.00000000000E+00  0.00000000000E+00 -0.46957780612E+03  0.46957780614E+03  0.50400001928E-02 0. -1.
    10030    2    1    2    0    0  0.00000000000E+00  0.00000000000E+00  0.64449026142E+02  0.10036046384E+04  0.10015331214E+04 0.  0.
        4    1    3    3  502    0 -0.74774635262E+02 -0.21272387339E+02 -0.46349230167E+03  0.46996860230E+03  0.12699999809E+01 0. -1.
       -4    1    3    3    0  502  0.74774635262E+02  0.21272387339E+02  0.52794132781E+03  0.53363603613E+03  0.12699999809E+01 0.  1.
</event>
<event>
 5   0  0.2353916E-04  0.1000176E+04  0.7818609E-02  0.9308352E-01
       -2   -1    0    0    0  501  0.00000000000E+00  0.00000000000E+00  0.11663710194E+03  0.11663710196E+03  0.25500000920E-02 0. -1.
        2   -1    0    0  501    0  0.00000000000E+00  0.00000000000E+00 -0.21441536891E+04  0.21441536891E+04  0.25500000920E-02 0.  1.
    10030    2    1    2    0    0  0.00000000000E+00  0.00000000000E+00 -0.20275165871E+04  0.22607907910E+04  0.10001757294E+04 0.  0.
        4    1    3    3  502    0  0.30729089112E+03  0.38403212507E+03 -0.80934703112E+03  0.94707581245E+03  0.12699999809E+01 0. -1.
       -4    1    3    3    0  502 -0.30729089112E+03 -0.38403212507E+03 -0.12181695560E+04  0.13137149786E+04  0.12699999809E+01 0.  1.
</event>
<event>
 5   0  0.1506454E-04  0.9997501E+03  0.7818609E-02  0.9308819E-01
       -1   -1    0    0    0  501  0.00000000000E+00  0.00000000000E+00  0.29005338203E+03  0.29005338208E+03  0.50400001928E-02 0. -1.
        1   -1    0    0  501    0  0.00000000000E+00  0.00000000000E+00 -0.86147951907E+03  0.86147951908E+03  0.50400001928E-02 0.  1.
    10030    2    1    2    0    0  0.00000000000E+00  0.00000000000E+00 -0.57142613704E+03  0.11515329012E+04  0.99975006495E+03 0.  0.
        3    1    3    3  502    0  0.31969725677E+03 -0.16968011438E+03 -0.68284470657E+03  0.77283541630E+03  0.10100000352E+00 0.  1.
       -3    1    3    3    0  502 -0.31969725677E+03  0.16968011438E+03  0.11141856953E+03  0.37869748486E+03  0.10100000352E+00 0. -1.
</event>
<event>
 5   0  0.2473312E-04  0.9999236E+03  0.7818609E-02  0.9308629E-01
       -2   -1    0    0    0  501  0.00000000000E+00  0.00000000000E+00  0.19124553137E+03  0.19124553138E+03  0.25500000920E-02 0. -1.
        2   -1    0    0  501    0  0.00000000000E+00  0.00000000000E+00 -0.13070203209E+04  0.13070203209E+04  0.25500000920E-02 0.  1.
    10030    2    1    2    0    0  0.00000000000E+00  0.00000000000E+00 -0.11157747895E+04  0.14982658523E+04  0.99992358866E+03 0.  0.
        5    1    3    3  502    0  0.28793038555E+03  0.16436020065E+03  0.27982884002E+01  0.33158423198E+03  0.46999998093E+01 0. -1.
       -5    1    3    3    0  502 -0.28793038555E+03 -0.16436020065E+03 -0.11185730779E+04  0.11666816203E+04  0.46999998093E+01 0.  1.
</event>
<event>
 5   0  0.1506454E-04  0.9997796E+03  0.7818609E-02  0.9308787E-01
       -1   -1    0    0    0  501  0.00000000000E+00  0.00000000000E+00  0.52493720148E+03  0.52493720151E+03  0.50400001928E-02 0.  1.
        1   -1    0    0  501    0  0.00000000000E+00  0.00000000000E+00 -0.47603753176E+03  0.47603753179E+03  0.50400001928E-02 0. -1.
    10030    2    1    2    0    0  0.00000000000E+00  0.00000000000E+00  0.48899669720E+02  0.10009747333E+04  0.99977959521E+03 0.  0.
        3    1    3    3  502    0  0.46442455541E+03 -0.35818239581E+02  0.20609627702E+03  0.50936116809E+03  0.10100000352E+00 0. -1.
       -3    1    3    3    0  502 -0.46442455541E+03  0.35818239581E+02 -0.15719660730E+03  0.49161356521E+03  0.10100000352E+00 0.  1.
</event>
<event>
 5   0  0.2403037E-04  0.1000012E+04  0.7818609E-02  0.9308532E-01
        2   -1    0    0  501    0  0.00000000000E+00  0.00000000000E+00  0.94010616924E+03  0.94010616925E+03  0.25500000920E-02 0.  1.
       -2   -1    0    0    0  501  0.00000000000E+00  0.00000000000E+00 -0.26593366540E+03  0.26593366541E+03  0.25500000920E-02 0. -1.
    10030    2    1    2    0    0  0.00000000000E+00  0.00000000000E+00  0.67417250384E+03  0.12060398347E+04  0.10000117589E+04 0.  0.
        1    1    3    3  502    0 -0.70864317318E+02 -0.70169945170E+02 -0.25381746810E+03  0.27270658190E+03  0.50400001928E-02 0. -1.
       -1    1    3    3    0  502  0.70864317318E+02  0.70169945170E+02  0.92798997194E+03  0.93333325277E+03  0.50400001928E-02 0.  1.
</event>
<event>
 5   0  0.1506454E-04  0.1000359E+04  0.7818609E-02  0.9308152E-01
       -1   -1    0    0    0  501  0.00000000000E+00  0.00000000000E+00  0.19346086672E+03  0.19346086679E+03  0.50400001928E-02 0. -1.
        1   -1    0    0  501    0  0.00000000000E+00  0.00000000000E+00 -0.12931779745E+04  0.12931779745E+04  0.50400001928E-02 0.  1.
    10030    2    1    2    0    0  0.00000000000E+00  0.00000000000E+00 -0.10997171078E+04  0.14866388413E+04  0.10003585994E+04 0.  0.
        3    1    3    3  502    0  0.34153207021E+03 -0.20398713541E+03 -0.10004315952E+04  0.10766235616E+04  0.10100000352E+00 0.  1.
       -3    1    3    3    0  502 -0.34153207021E+03  0.20398713541E+03 -0.99285512529E+02  0.41001527971E+03  0.10100000352E+00 0. -1.
</event>
<event>
 5   0  0.2473312E-04  0.1000317E+04  0.7818609E-02  0.9308197E-01
        2   -1    0    0  501    0  0.00000000000E+00  0.00000000000E+00  0.22288441976E+04  0.22288441976E+04  0.25500000920E-02 0.  1.
       -2   -1    0    0    0  501  0.00000000000E+00  0.00000000000E+00 -0.11223697406E+03  0.11223697409E+03  0.25500000920E-02 0. -1.
    10030    2    1    2    0    0  0.00000000000E+00  0.00000000000E+00  0.21166072236E+04  0.23410811717E+04  0.10003174065E+04 0.  0.
        5    1    3    3  502    0 -0.27309936295E+03  0.34041718805E+03  0.16299861119E+04  0.16874074608E+04  0.46999998093E+01 0. -1.
       -5    1    3    3    0  502  0.27309936295E+03 -0.34041718805E+03  0.48662111168E+03  0.65367371088E+03  0.46999998093E+01 0.  1.
</event>
<event>
 5   0  0.2484904E-04  0.9996076E+03  0.7818609E-02  0.9308975E-01
        2   -1    0    0  501    0  0.00000000000E+00  0.00000000000E+00  0.12819767425E+04  0.12819767425E+04  0.25500000920E-02 0.  1.
       -2   -1    0    0    0  501  0.00000000000E+00  0.00000000000E+00 -0.19485833956E+03  0.19485833958E+03  0.25500000920E-02 0. -1.
    10030    2    1    2    0    0  0.00000000000E+00  0.00000000000E+00  0.10871184029E+04  0.14768350821E+04  0.99960764185E+03 0.  0.
        3    1    3    3  502    0 -0.38048291115E+03  0.27074712223E+03  0.80674064032E+03  0.93214897995E+03  0.10100000352E+00 0.  1.
       -3    1    3    3    0  502  0.38048291115E+03 -0.27074712223E+03  0.28037776260E+03  0.54468610212E+03  0.10100000352E+00 0. -1.
</event>
<event>
 5   0  0.9650500E-05  0.9998090E+03  0.7818609E-02  0.9308754E-01
        3   -1    0    0  501    0  0.00000000000E+00  0.00000000000E+00  0.41655254666E+03  0.41655255891E+03  0.10100000352E+00 0.  1.
       -3   -1    0    0    0  501  0.00000000000E+00  0.00000000000E+00 -0.59993515709E+03  0.59993516560E+03  0.10100000352E+00 0. -1.
    10030    2    1    2    0    0  0.00000000000E+00  0.00000000000E+00 -0.18338261043E+03  0.10164877245E+04  0.99980903789E+03 0.  0.
        5    1    3    3  502    0  0.19434558946E+03  0.45414611639E+03 -0.13840190250E+02  0.49419889118E+03  0.46999998093E+01 0.  1.
       -5    1    3    3    0  502 -0.19434558946E+03 -0.45414611639E+03 -0.16954242018E+03  0.52228883332E+03  0.46999998093E+01 0. -1.
</event>
<event>
 5   0  0.2484904E-04  0.9999259E+03  0.7818609E-02  0.9308626E-01
        2   -1    0    0  501    0  0.00000000000E+00  0.00000000000E+00  0.56733121992E+03  0.56733121993E+03  0.25500000920E-02 0.  1.
       -2   -1    0    0    0  501  0.00000000000E+00  0.00000000000E+00 -0.44059441851E+03  0.44059441852E+03  0.25500000920E-02 0. -1.
    10030    2    1    2    0    0  0.00000000000E+00  0.00000000000E+00  0.12673680141E+03  0.10079256384E+04  0.99992593516E+03 0.  0.
        3    1    3    3  502    0  0.39585551552E+02  0.10153177031E+02  0.56564479909E+03  0.56711916899E+03  0.10100000352E+00 0.  1.
       -3    1    3    3    0  502 -0.39585551552E+02 -0.10153177031E+02 -0.43890799767E+03  0.44080646946E+03  0.10100000352E+00 0. -1.
</event>
<event>
 5   0  0.1414165E-04  0.1000607E+04  0.7818609E-02  0.9307880E-01
        1   -1    0    0  501    0  0.00000000000E+00  0.00000000000E+00  0.13355093947E+04  0.13355093947E+04  0.50400001928E-02 0.  1.
       -1   -1    0    0    0  501  0.00000000000E+00  0.00000000000E+00 -0.18742167575E+03  0.18742167582E+03  0.50400001928E-02 0. -1.
    10030    2    1    2    0    0  0.00000000000E+00  0.00000000000E+00  0.11480877190E+04  0.15229310705E+04  0.10006066336E+04 0.  0.
        4    1    3    3  502    0 -0.16702199843E+03  0.14736570854E+03  0.12558775130E+04  0.12754775343E+04  0.12699999809E+01 0.  1.
       -4    1    3    3    0  502  0.16702199843E+03 -0.14736570854E+03 -0.10778979400E+03  0.24745353625E+03  0.12699999809E+01 0. -1.
</event>
<event>
 5   0  0.1414165E-04  0.9999680E+03  0.7818609E-02  0.9308580E-01
       -1   -1    0    0    0  501  0.00000000000E+00  0.00000000000E+00  0.40735807078E+03  0.40735807081E+03  0.50400001928E-02 0. -1.
        1   -1    0    0  501    0  0.00000000000E+00  0.00000000000E+00 -0.61367146399E+03  0.61367146401E+03  0.50400001928E-02 0.  1.
    10030    2    1    2    0    0  0.00000000000E+00  0.00000000000E+00 -0.20631339321E+03  0.10210295348E+04  0.99996804686E+03 0.  0.
        4    1    3    3  502    0 -0.45356609073E+03 -0.19713797281E+03 -0.28146272008E+02  0.49535785500E+03  0.12699999809E+01 0. -1.
       -4    1    3    3    0  502  0.45356609073E+03  0.19713797281E+03 -0.17816712120E+03  0.52567167982E+03  0.12699999809E+01 0.  1.
</event>
<event>
 5   0  0.1453863E-04  0.1000486E+04  0.7818609E-02  0.9308012E-01
       -1   -1    0    0    0  501  0.00000000000E+00  0.00000000000E+00  0.65902251467E+03  0.65902251469E+03  0.50400001928E-02 0. -1.
        1   -1    0    0  501    0  0.00000000000E+00  0.00000000000E+00 -0.37971880700E+03  0.37971880703E+03  0.50400001928E-02 0.  1.
    10030    2    1    2    0    0  0.00000000000E+00  0.00000000000E+00  0.27930370767E+03  0.10387413217E+04  0.10004863679E+04 0.  0.
        1    1    3    3  502    0  0.27786780471E+03 -0.33374190759E+02  0.57013686202E+03  0.63512234645E+03  0.50400001928E-02 0. -1.
       -1    1    3    3    0  502 -0.27786780471E+03  0.33374190759E+02 -0.29083315434E+03  0.40361897527E+03  0.50400001928E-02 0.  1.
</event>
<event>
 5   0  0.1430675E-04  0.9993640E+03  0.7818609E-02  0.9309243E-01
       -1   -1    0    0    0  501  0.00000000000E+00  0.00000000000E+00  0.42703551643E+03  0.42703551646E+03  0.50400001928E-02 0.  1.
        1   -1    0    0  501    0  0.00000000000E+00  0.00000000000E+00 -0.58468696612E+03  0.58468696615E+03  0.50400001928E-02 0. -1.
    10030    2    1    2    0    0  0.00000000000E+00  0.00000000000E+00 -0.15765144970E+03  0.10117224826E+04  0.99936399886E+03 0.  0.
        5    1    3    3  502    0 -0.24139851542E+03 -0.14134138652E+03 -0.49796175188E+03  0.57117302731E+03  0.46999998093E+01 0. -1.
       -5    1    3    3    0  502  0.24139851542E+03  0.14134138652E+03  0.34031030218E+03  0.44054945530E+03  0.46999998093E+01 0.  1.
</event>
<event>
 5   0  0.1506454E-04  0.1000195E+04  0.7818609E-02  0.9308331E-01
       -1   -1    0    0    0  501  0.00000000000E+00  0.00000000000E+00  0.34206626406E+03  0.34206626410E+03  0.50400001928E-02 0. -1.
        1   -1    0    0  501    0  0.00000000000E+00  0.00000000000E+00 -0.73113781003E+03  0.73113781005E+03  0.50400001928E-02 0.  1.
    10030    2    1    2    0    0  0.00000000000E+00  0.00000000000E+00 -0.38907154597E+03  0.10732040741E+04  0.10001951394E+04 0.  0.
        3    1    3    3  502    0 -0.49563641156E+03  0.32764459919E+02 -0.25681206243E+03  0.55917922700E+03  0.10100000352E+00 0. -1.
       -3    1    3    3    0  502  0.49563641156E+03 -0.32764459919E+02 -0.13225948353E+03  0.51402484714E+03  0.10100000352E+00 0.  1.
</event>
<event>
 5   0  0.1461334E-04  0.9996077E+03  0.7818609E-02  0.9308975E-01
       -1   -1    0    0    0  501  0.00000000000E+00  0.00000000000E+00  0.18763156575E+03  0.18763156582E+03  0.50400001928E-02 0.  1.
        1   -1    0    0  501    0  0.00000000000E+00  0.00000000000E+00 -0.13313533139E+04  0.13313533139E+04  0.50400001928E-02 0. -1.
    10030    2    1    2    0    0  0.00000000000E+00  0.00000000000E+00 -0.11437217481E+04  0.15189848797E+04  0.99960773688E+03 0.  0.
        2    1    3    3  502    0  0.32823446831E+03  0.32123764200E+03 -0.27225893457E+03  0.53390674868E+03  0.25500000920E-02 0.  1.
       -2    1    3    3    0  502 -0.32823446831E+03 -0.32123764200E+03 -0.87146281353E+03  0.98507813101E+03  0.25500000920E-02 0. -1.
</event>
<event>
 5   0  0.1461334E-04  0.9990365E+03  0.7818609E-02  0.9309602E-01
        1   -1    0    0  501    0  0.00000000000E+00  0.00000000000E+00  0.11450753015E+04  0.11450753015E+04  0.50400001928E-02 0.  1.
       -1   -1    0    0    0  501  0.00000000000E+00  0.00000000000E+00 -0.21790572522E+03  0.21790572528E+03  0.50400001928E-02 0. -1.
    10030    2    1    2    0    0  0.00000000000E+00  0.00000000000E+00  0.92716957628E+03  0.13629810268E+04  0.99903646392E+03 0.  0.
        2    1    3    3  502    0  0.43987116369E+03 -0.20232352731E+03  0.63121565664E+03  0.79552162481E+03  0.25500000920E-02 0.  1.
       -2    1    3    3    0  502 -0.43987116369E+03  0.20232352731E+03  0.29595391964E+03  0.56745940199E+03  0.25500000920E-02 0. -1.
</event>
<event>
 5   0  0.2503680E-04  0.1000843E+04  0.7818609E-02  0.9307620E-01
        2   -1    0    0  501    0  0.00000000000E+00  0.00000000000E+00  0.87574719306E+03  0.87574719306E+03  0.25500000920E-02 0. -1.
       -2   -1    0    0    0  501  0.00000000000E+00  0.00000000000E+00 -0.28595212563E+03  0.28595212564E+03  0.25500000920E-02 0.  1.
    10030    2    1    2    0    0  0.00000000000E+00  0.00000000000E+00  0.58979506743E+03  0.11616993187E+04  0.10008431873E+04 0.  0.
        2    1    3    3  502    0 -0.91779878985E+02  0.48633431945E+03  0.20899515113E+03  0.53723699581E+03  0.25500000920E-02 0.  1.
       -2    1    3    3    0  502  0.91779878985E+02 -0.48633431945E+03  0.38079991630E+03  0.62446232290E+03  0.25500000920E-02 0. -1.
</event>
<event>
 5   0  0.1506454E-04  0.1002009E+04  0.7818609E-02  0.9306344E-01
        1   -1    0    0  501    0  0.00000000000E+00  0.00000000000E+00  0.13316491940E+04  0.13316491940E+04  0.50400001928E-02 0.  1.
       -1   -1    0    0    0  501  0.00000000000E+00  0.00000000000E+00 -0.18849224965E+03  0.18849224972E+03  0.50400001928E-02 0. -1.
    10030    2    1    2    0    0  0.00000000000E+00  0.00000000000E+00  0.11431569443E+04  0.15201414437E+04  0.10020090865E+04 0.  0.
        3    1    3    3  502    0 -0.47147108805E+03 -0.12560609629E+03  0.39897840794E+03  0.63027427244E+03  0.10100000352E+00 0.  1.
       -3    1    3    3    0  502  0.47147108805E+03  0.12560609629E+03  0.74417853640E+03  0.88986717128E+03  0.10100000352E+00 0. -1.
</event>
<event>
 5   0  0.1453863E-04  0.9990362E+03  0.7818609E-02  0.9309602E-01
       -1   -1    0    0    0  501  0.00000000000E+00  0.00000000000E+00  0.17950282448E+03  0.17950282455E+03  0.50400001928E-02 0. -1.
        1   -1    0    0  501    0  0.00000000000E+00  0.00000000000E+00 -0.13900524934E+04  0.13900524934E+04  0.50400001928E-02 0.  1.
    10030    2    1    2    0    0  0.00000000000E+00  0.00000000000E+00 -0.12105496689E+04  0.15695553179E+04  0.99903623318E+03 0.  0.
        1    1    3    3  502    0  0.95229298187E+02 -0.33054463980E+03 -0.11743186459E+04  0.12236636222E+04  0.50400001928E-02 0.  1.
       -1    1    3    3    0  502 -0.95229298187E+02  0.33054463980E+03 -0.36231022984E+02  0.34589169574E+03  0.50400001928E-02 0. -1.
</event>
<event>
 5   0  0.2503680E-04  0.1000161E+04  0.7818609E-02  0.9308368E-01
       -2   -1    0    0    0  501  0.00000000000E+00  0.00000000000E+00  0.33500479156E+03  0.33500479157E+03  0.25500000920E-02 0.  1.
        2   -1    0    0  501    0  0.00000000000E+00  0.00000000000E+00 -0.74649847447E+03  0.74649847447E+03  0.25500000920E-02 0. -1.
    10030    2    1    2    0    0  0.00000000000E+00  0.00000000000E+00 -0.41149368291E+03  0.10815032660E+04  0.10001611187E+04 0.  0.
        2    1    3    3  502    0  0.53338281090E+02 -0.87289792667E+02 -0.73506385398E+03  0.74214779497E+03  0.25500000920E-02 0. -1.
       -2    1    3    3    0  502 -0.53338281090E+02  0.87289792667E+02  0.32357017107E+03  0.33935547108E+03  0.25500000920E-02 0.  1.
</event>
<event>
 5   0  0.1461334E-04  0.9994525E+03  0.7818609E-02  0.9309145E-01
       -1   -1    0    0    0  501  0.00000000000E+00  0.00000000000E+00  0.63121102465E+03  0.63121102467E+03  0.50400001928E-02 0. -1.
        1   -1    0    0  501    0  0.00000000000E+00  0.00000000000E+00 -0.39563049070E+03  0.39563049073E+03  0.50400001928E-02 0.  1.
    10030    2    1    2    0    0  0.00000000000E+00  0.00000000000E+00  0.23558053395E+03  0.10268415154E+04  0.99945250501E+03 0.  0.
        2    1    3    3  502    0  0.10956082952E+03  0.55809168307E+02  0.61542736513E+03  0.62758989825E+03  0.25500000920E-02 0. -1.
       -2    1    3    3    0  502 -0.10956082952E+03 -0.55809168307E+02 -0.37984683118E+03  0.39925161715E+03  0.25500000920E-02 0.  1.
</event>
<event>
 5   0  0.1506454E-04  0.1000156E+04  0.7818609E-02  0.9308373E-01
       -1   -1    0    0    0  501  0.00000000000E+00  0.00000000000E+00  0.46874834664E+03  0.46874834667E+03  0.50400001928E-02 0. -1.
        1   -1    0    0  501    0  0.00000000000E+00  0.00000000000E+00 -0.53350211348E+03  0.53350211351E+03  0.50400001928E-02 0.  1.
    10030    2    1    2    0    0  0.00000000000E+00  0.00000000000E+00 -0.64753766845E+02  0.10022504602E+04  0.10001564551E+04 0.  0.
        3    1    3    3  502    0  0.34428346793E+03  0.34236386819E+03 -0.15235264647E+03  0.50887666837E+03  0.10100000352E+00 0.  1.
       -3    1    3    3    0  502 -0.34428346793E+03 -0.34236386819E+03  0.87598879621E+02  0.49337379180E+03  0.10100000352E+00 0. -1.
</event>
<event>
 5   0  0.2403037E-04  0.1000111E+04  0.7818609E-02  0.9308423E-01
       -2   -1    0    0    0  501  0.00000000000E+00  0.00000000000E+00  0.21283076012E+03  0.21283076014E+03  0.25500000920E-02 0.  1.
        2   -1    0    0  501    0  0.00000000000E+00  0.00000000000E+00 -0.11749034380E+04  0.11749034380E+04  0.25500000920E-02 0. -1.
    10030    2    1    2    0    0  0.00000000000E+00  0.00000000000E+00 -0.96207267786E+03  0.13877341981E+04  0.10001111774E+04 0.  0.
        1    1    3    3  502    0  0.24356822408E+03 -0.34293922350E+03 -0.10581768675E+03  0.43373975337E+03  0.50400001928E-02 0.  1.
       -1    1    3    3    0  502 -0.24356822408E+03  0.34293922350E+03 -0.85625499111E+03  0.95399444475E+03  0.50400001928E-02 0. -1.
</event>
<event>
 5   0  0.2503680E-04  0.9977968E+03  0.7818609E-02  0.9310965E-01
        2   -1    0    0  501    0  0.00000000000E+00  0.00000000000E+00  0.20925494734E+04  0.20925494734E+04  0.25500000920E-02 0. -1.
       -2   -1    0    0    0  501  0.00000000000E+00  0.00000000000E+00 -0.11894562012E+03  0.11894562015E+03  0.25500000920E-02 0.  1.
    10030    2    1    2    0    0  0.00000000000E+00  0.00000000000E+00  0.19736038533E+04  0.22114950935E+04  0.99779676243E+03 0.  0.
        2    1    3    3  502    0  0.84671130463E+02  0.46801269554E+03  0.65291123874E+03  0.80777358783E+03  0.25500000920E-02 0.  1.
       -2    1    3    3    0  502 -0.84671130463E+02 -0.46801269554E+03  0.13206926145E+04  0.14037215057E+04  0.25500000920E-02 0. -1.
</event>
<event>
 5   0  0.2353916E-04  0.9998819E+03  0.7818609E-02  0.9308674E-01
        2   -1    0    0  501    0  0.00000000000E+00  0.00000000000E+00  0.42785811843E+03  0.42785811844E+03  0.25500000920E-02 0. -1.
       -2   -1    0    0    0  501  0.00000000000E+00  0.00000000000E+00 -0.58416781205E+03  0.58416781205E+03  0.25500000920E-02 0.  1.
    10030    2    1    2    0    0  0.00000000000E+00  0.00000000000E+00 -0.15630969361E+03  0.10120259305E+04  0.99988187486E+03 0.  0.
        4    1    3    3  502    0  0.48509474906E+03  0.24681066875E+02  0.41660512352E+02  0.48750721207E+03  0.12699999809E+01 0. -1.
       -4    1    3    3    0  502 -0.48509474906E+03 -0.24681066875E+02 -0.19797020597E+03  0.52451871842E+03  0.12699999809E+01 0.  1.
</event>
<event>
 5   0  0.2473312E-04  0.9997040E+03  0.7818609E-02  0.9308870E-01
        2   -1    0    0  501    0  0.00000000000E+00  0.00000000000E+00  0.58963593432E+03  0.58963593432E+03  0.25500000920E-02 0.  1.
       -2   -1    0    0    0  501  0.00000000000E+00  0.00000000000E+00 -0.42373946249E+03  0.42373946250E+03  0.25500000920E-02 0. -1.
    10030    2    1    2    0    0  0.00000000000E+00  0.00000000000E+00  0.16589647183E+03  0.10133753968E+04  0.99970398394E+03 0.  0.
        5    1    3    3  502    0  0.95331670975E+02  0.46756695384E+02  0.57804917301E+03  0.58773910238E+03  0.46999998093E+01 0.  1.
       -5    1    3    3    0  502 -0.95331670975E+02 -0.46756695384E+02 -0.41215270118E+03  0.42563629444E+03  0.46999998093E+01 0. -1.
</event>
<event>
 5   0  0.2353916E-04  0.1000087E+04  0.7818609E-02  0.9308449E-01
       -2   -1    0    0    0  501  0.00000000000E+00  0.00000000000E+00  0.14109357806E+03  0.14109357809E+03  0.25500000920E-02 0. -1.
        2   -1    0    0  501    0  0.00000000000E+00  0.00000000000E+00 -0.17721836479E+04  0.17721836479E+04  0.25500000920E-02 0.  1.
    10030    2    1    2    0    0  0.00000000000E+00  0.00000000000E+00 -0.16310900698E+04  0.19132772260E+04  0.10000874600E+04 0.  0.
        4    1    3    3  502    0  0.21991480160E+03  0.30544436037E+03 -0.14453719111E+04  0.14935730151E+04  0.12699999809E+01 0.  1.
       -4    1    3    3    0  502 -0.21991480160E+03 -0.30544436037E+03 -0.18571815878E+03  0.41970421090E+03  0.12699999809E+01 0. -1.
</event>
<event>
 5   0  0.2403037E-04  0.1000461E+04  0.7818609E-02  0.9308039E-01
       -2   -1    0    0    0  501  0.00000000000E+00  0.00000000000E+00  0.24572975273E+03  0.24572975274E+03  0.25500000920E-02 0. -1.
        2   -1    0    0  501    0  0.00000000000E+00  0.00000000000E+00 -0.10183168756E+04  0.10183168757E+04  0.25500000920E-02 0.  1.
    10030    2    1    2    0    0  0.00000000000E+00  0.00000000000E+00 -0.77258712292E+03  0.12640466284E+04  0.10004614017E+04 0.  0.
        1    1    3    3  502    0  0.16002574171E+03 -0.46088786034E+03 -0.24671143770E+03  0.54671051878E+03  0.50400001928E-02 0. -1.
       -1    1    3    3    0  502 -0.16002574171E+03  0.46088786034E+03 -0.52587568522E+03  0.71733610962E+03  0.50400001928E-02 0.  1.
</event>
<event>
 5   0  0.1461334E-04  0.1000673E+04  0.7818609E-02  0.9307807E-01
       -1   -1    0    0    0  501  0.00000000000E+00  0.00000000000E+00  0.92290965852E+03  0.92290965854E+03  0.50400001928E-02 0. -1.
        1   -1    0    0  501    0  0.00000000000E+00  0.00000000000E+00 -0.27124719389E+03  0.27124719394E+03  0.50400001928E-02 0.  1.
    10030    2    1    2    0    0  0.00000000000E+00  0.00000000000E+00  0.65166246463E+03  0.11941568525E+04  0.10006730837E+04 0.  0.
        2    1    3    3  502    0  0.49183420448E+03  0.90576419301E+02  0.34399541878E+03  0.60699079118E+03  0.25500000920E-02 0.  1.
       -2    1    3    3    0  502 -0.49183420448E+03 -0.90576419301E+02  0.30766704585E+03  0.58716606130E+03  0.25500000920E-02 0. -1.
</event>
<event>
 5   0  0.2503680E-04  0.1000079E+04  0.7818609E-02  0.9308459E-01
       -2   -1    0    0    0  501  0.00000000000E+00  0.00000000000E+00  0.38467320264E+03  0.38467320265E+03  0.25500000920E-02 0.  1.
        2   -1    0    0  501    0  0.00000000000E+00  0.00000000000E+00 -0.65000443442E+03  0.65000443442E+03  0.25500000920E-02 0. -1.
    10030    2    1    2    0    0  0.00000000000E+00  0.00000000000E+00 -0.26533123178E+03  0.10346776371E+04  0.10000785720E+04 0.  0.
        2    1    3    3  502    0 -0.27683567188E+03  0.33081135397E+03  0.12899757887E+03  0.45023828858E+03  0.25500000920E-02 0.  1.
       -2    1    3    3    0  502  0.27683567188E+03 -0.33081135397E+03 -0.39432881065E+03  0.58443934849E+03  0.25500000920E-02 0. -1.
</event>
<event>
 5   0  0.2484904E-04  0.9972312E+03  0.7818609E-02  0.9311587E-01
        2   -1    0    0  501    0  0.00000000000E+00  0.00000000000E+00  0.18773800350E+04  0.18773800350E+04  0.25500000920E-02 0. -1.
       -2   -1    0    0    0  501  0.00000000000E+00  0.00000000000E+00 -0.13242791096E+03  0.13242791098E+03  0.25500000920E-02 0.  1.
    10030    2    1    2    0    0  0.00000000000E+00  0.00000000000E+00  0.17449521240E+04  0.20098079459E+04  0.99723119913E+03 0.  0.
        3    1    3    3  502    0 -0.20058068513E+03  0.14729721734E+03  0.17432740098E+04  0.17609467241E+04  0.10100000352E+00 0. -1.
       -3    1    3    3    0  502  0.20058068513E+03 -0.14729721734E+03  0.16781141794E+01  0.24886122187E+03  0.10100000352E+00 0.  1.
</event>
<event>
 5   0  0.2473312E-04  0.1000454E+04  0.7818609E-02  0.9308047E-01
       -2   -1    0    0    0  501  0.00000000000E+00  0.00000000000E+00  0.40769781301E+03  0.40769781302E+03  0.25500000920E-02 0. -1.
        2   -1    0    0  501    0  0.00000000000E+00  0.00000000000E+00 -0.61375598083E+03  0.61375598083E+03  0.25500000920E-02 0.  1.
    10030    2    1    2    0    0  0.00000000000E+00  0.00000000000E+00 -0.20605816782E+03  0.10214537939E+04  0.10004538392E+04 0.  0.
        5    1    3    3  502    0  0.11534311594E+03  0.20971090433E+03 -0.55147776882E+03  0.60119257920E+03  0.46999998093E+01 0.  1.
       -5    1    3    3    0  502 -0.11534311594E+03 -0.20971090433E+03  0.34541960100E+03  0.42026121465E+03  0.46999998093E+01 0. -1.
</event>
<event>
 5   0  0.2403037E-04  0.1001016E+04  0.7818609E-02  0.9307431E-01
       -2   -1    0    0    0  501  0.00000000000E+00  0.00000000000E+00  0.18605980444E+03  0.18605980445E+03  0.25500000920E-02 0. -1.
        2   -1    0    0  501    0  0.00000000000E+00  0.00000000000E+00 -0.13463863287E+04  0.13463863287E+04  0.25500000920E-02 0.  1.
    10030    2    1    2    0    0  0.00000000000E+00  0.00000000000E+00 -0.11603265243E+04  0.15324461332E+04  0.10010162377E+04 0.  0.
        1    1    3    3  502    0  0.12632712086E+03 -0.48332996143E+03 -0.62714897736E+03  0.80179937198E+03  0.50400001928E-02 0. -1.
       -1    1    3    3    0  502 -0.12632712086E+03  0.48332996143E+03 -0.53317754695E+03  0.73064676122E+03  0.50400001928E-02 0.  1.
</event>
<event>
 5   0  0.1453863E-04  0.9999978E+03  0.7818609E-02  0.9308547E-01
        1   -1    0    0  501    0  0.00000000000E+00  0.00000000000E+00  0.48957770610E+03  0.48957770612E+03  0.50400001928E-02 0.  1.
       -1   -1    0    0    0  501  0.00000000000E+00  0.00000000000E+00 -0.51064188529E+03  0.51064188531E+03  0.50400001928E-02 0. -1.
    10030    2    1    2    0    0  0.00000000000E+00  0.00000000000E+00 -0.21064179190E+02  0.10002195914E+04  0.99999776572E+03 0.  0.
        1    1    3    3  502    0  0.45706608214E+03 -0.93077665663E+02  0.16958013940E+03  0.49631671238E+03  0.50400001928E-02 0.  1.
       -1    1    3    3    0  502 -0.45706608214E+03  0.93077665663E+02 -0.19064431859E+03  0.50390287906E+03  0.50400001928E-02 0. -1.
</event>
<event>
 5   0  0.2503680E-04  0.1000191E+04  0.7818609E-02  0.9308335E-01
       -2   -1    0    0    0  501  0.00000000000E+00  0.00000000000E+00  0.11340394066E+03  0.11340394069E+03  0.25500000920E-02 0.  1.
        2   -1    0    0  501    0  0.00000000000E+00  0.00000000000E+00 -0.22053509899E+04  0.22053509899E+04  0.25500000920E-02 0. -1.
    10030    2    1    2    0    0  0.00000000000E+00  0.00000000000E+00 -0.20919470493E+04  0.23187549306E+04  0.10001909674E+04 0.  0.
        2    1    3    3  502    0  0.33852264549E+03  0.21795995332E+03 -0.17336623420E+04  0.17798003367E+04  0.25500000920E-02 0. -1.
       -2    1    3    3    0  502 -0.33852264549E+03 -0.21795995332E+03 -0.35828470732E+03  0.53895459388E+03  0.25500000920E-02 0.  1.
</event>
<event>
 5   0  0.1506454E-04  0.1000239E+04  0.7818609E-02  0.9308283E-01
        1   -1    0    0  501    0  0.00000000000E+00  0.00000000000E+00  0.46385850963E+03  0.46385850966E+03  0.50400001928E-02 0. -1.
       -1   -1    0    0    0  501  0.00000000000E+00  0.00000000000E+00 -0.53921504809E+03  0.53921504811E+03  0.50400001928E-02 0.  1.
    10030    2    1    2    0    0  0.00000000000E+00  0.00000000000E+00 -0.75356538458E+02  0.10030735578E+04  0.10002389487E+04 0.  0.
        3    1    3    3  502    0  0.26470641374E+03 -0.42380577212E+03 -0.58681845919E+02  0.50311468593E+03  0.10100000352E+00 0.  1.
       -3    1    3    3    0  502 -0.26470641374E+03  0.42380577212E+03 -0.16674692540E+02  0.49995887184E+03  0.10100000352E+00 0. -1.
</event>
<event>
 5   0  0.2473312E-04  0.1000051E+04  0.7818609E-02  0.9308488E-01
       -2   -1    0    0    0  501  0.00000000000E+00  0.00000000000E+00  0.30211281105E+03  0.30211281106E+03  0.25500000920E-02 0. -1.
        2   -1    0    0  501    0  0.00000000000E+00  0.00000000000E+00 -0.82759047000E+03  0.82759047000E+03  0.25500000920E-02 0.  1.
    10030    2    1    2    0    0  0.00000000000E+00  0.00000000000E+00 -0.52547765895E+03  0.11297032811E+04  0.10000513653E+04 0.  0.
        5    1    3    3  502    0 -0.38648442981E+03 -0.18514191814E+03  0.28253598364E+02  0.42949749726E+03  0.46999998093E+01 0. -1.
       -5    1    3    3    0  502  0.38648442981E+03  0.18514191814E+03 -0.55373125732E+03  0.70020578380E+03  0.46999998093E+01 0.  1.
</event>
<event>
 5   0  0.1461334E-04  0.9999571E+03  0.7818609E-02  0.9308592E-01
       -1   -1    0    0    0  501  0.00000000000E+00  0.00000000000E+00  0.42627773981E+03  0.42627773984E+03  0.50400001928E-02 0. -1.
        1   -1    0    0  501    0  0.00000000000E+00  0.00000000000E+00 -0.58642177171E+03  0.58642177173E+03  0.50400001928E-02 0.  1.
    10030    2    1    2    0    0  0.00000000000E+00  0.00000000000E+00 -0.16014403190E+03  0.10126995116E+04  0.99995709397E+03 0.  0.
        2    1    3    3  502    0  0.79747887105E+02 -0.48875926841E+03 -0.14974696165E+03  0.51736785799E+03  0.25500000920E-02 0.  1.
       -2    1    3    3    0  502 -0.79747887105E+02  0.48875926841E+03 -0.10397070251E+02  0.49533165357E+03  0.25500000920E-02 0. -1.
</event>
<event>
 5   0  0.2353916E-04  0.9993191E+03  0.7818609E-02  0.9309292E-01
       -2   -1    0    0    0  501  0.00000000000E+00  0.00000000000E+00  0.38269388280E+03  0.38269388281E+03  0.25500000920E-02 0.  1.
        2   -1    0    0  501    0  0.00000000000E+00  0.00000000000E+00 -0.65237429095E+03  0.65237429096E+03  0.25500000920E-02 0. -1.
    10030    2    1    2    0    0  0.00000000000E+00  0.00000000000E+00 -0.26968040815E+03  0.10350681738E+04  0.99931906907E+03 0.  0.
        4    1    3    3  502    0 -0.19566251259E+02 -0.34371469057E+03  0.24024054185E+03  0.41980919184E+03  0.12699999809E+01 0.  1.
       -4    1    3    3    0  502  0.19566251259E+02  0.34371469057E+03 -0.50992095000E+03  0.61525898193E+03  0.12699999809E+01 0. -1.
</event>
<event>
 5   0  0.1453863E-04  0.1000011E+04  0.7818609E-02  0.9308533E-01
       -1   -1    0    0    0  501  0.00000000000E+00  0.00000000000E+00  0.24993778884E+03  0.24993778889E+03  0.50400001928E-02 0.  1.
        1   -1    0    0  501    0  0.00000000000E+00  0.00000000000E+00 -0.10002704444E+04  0.10002704444E+04  0.50400001928E-02 0. -1.
    10030    2    1    2    0    0  0.00000000000E+00  0.00000000000E+00 -0.75033265559E+03  0.12502082333E+04  0.10000107663E+04 0.  0.
        1    1    3    3  502    0  0.40579100569E+03  0.15421053124E+03 -0.68535110189E+03  0.81126651671E+03  0.50400001928E-02 0. -1.
       -1    1    3    3    0  502 -0.40579100569E+03 -0.15421053124E+03 -0.64981553699E+02  0.43894171662E+03  0.50400001928E-02 0.  1.
</event>
<event>
 5   0  0.2403037E-04  0.1000190E+04  0.7818609E-02  0.9308336E-01
       -2   -1    0    0    0  501  0.00000000000E+00  0.00000000000E+00  0.35672235201E+03  0.35672235202E+03  0.25500000920E-02 0.  1.
        2   -1    0    0  501    0  0.00000000000E+00  0.00000000000E+00 -0.70109189517E+03  0.70109189518E+03  0.25500000920E-02 0. -1.
    10030    2    1    2    0    0  0.00000000000E+00  0.00000000000E+00 -0.34436954316E+03  0.10578142472E+04  0.10001902816E+04 0.  0.
        1    1    3    3  502    0 -0.14013573066E+03  0.42927358097E+00  0.33553219841E+03  0.36362076876E+03  0.50400001928E-02 0.  1.
       -1    1    3    3    0  502  0.14013573066E+03 -0.42927358097E+00 -0.67990174157E+03  0.69419347843E+03  0.50400001928E-02 0. -1.
</event>
<event>
 5   0  0.1414165E-04  0.9999849E+03  0.7818609E-02  0.9308561E-01
        1   -1    0    0  501    0  0.00000000000E+00  0.00000000000E+00  0.11685914933E+04  0.11685914933E+04  0.50400001928E-02 0. -1.
       -1   -1    0    0    0  501  0.00000000000E+00  0.00000000000E+00 -0.21392628456E+03  0.21392628462E+03  0.50400001928E-02 0.  1.
    10030    2    1    2    0    0  0.00000000000E+00  0.00000000000E+00  0.95466520873E+03  0.13825177779E+04  0.99998487264E+03 0.  0.
        4    1    3    3  502    0  0.47848112641E+03  0.22539590235E+02  0.67546830465E+03  0.82807684724E+03  0.12699999809E+01 0. -1.
       -4    1    3    3    0  502 -0.47848112641E+03 -0.22539590235E+02  0.27919690409E+03  0.55444093068E+03  0.12699999809E+01 0.  1.
</event>
<event>
 5   0  0.9650500E-05  0.9999492E+03  0.7818609E-02  0.9308601E-01
        3   -1    0    0  501    0  0.00000000000E+00  0.00000000000E+00  0.51016819502E+03  0.51016820501E+03  0.10100000352E+00 0. -1.
       -3   -1    0    0    0  501  0.00000000000E+00  0.00000000000E+00 -0.48998461573E+03  0.48998462614E+03  0.10100000352E+00 0.  1.
    10030    2    1    2    0    0  0.00000000000E+00  0.00000000000E+00  0.20183579284E+02  0.10001528312E+04  0.99994915311E+03 0.  0.
        4    1    3    3  502    0  0.31997146139E+03 -0.37118695441E+03 -0.88981266471E+02  0.49807707226E+03  0.12699999809E+01 0.  1.
       -4    1    3    3    0  502 -0.31997146139E+03  0.37118695441E+03  0.10916484576E+03  0.50207575890E+03  0.12699999809E+01 0. -1.
</event>
<event>
 5   0  0.2484904E-04  0.1004826E+04  0.7818609E-02  0.9303267E-01
        2   -1    0    0  501    0  0.00000000000E+00  0.00000000000E+00  0.26547979245E+04  0.26547979245E+04  0.25500000920E-02 0.  1.
       -2   -1    0    0    0  501  0.00000000000E+00  0.00000000000E+00 -0.95080252572E+02  0.95080252606E+02  0.25500000920E-02 0. -1.
    10030    2    1    2    0    0  0.00000000000E+00  0.00000000000E+00  0.25597176719E+04  0.27498781771E+04  0.10048260690E+04 0.  0.
        3    1    3    3  502    0 -0.28681664168E+03  0.30327010835E+03  0.20450620559E+04  0.20872267168E+04  0.10100000352E+00 0.  1.
       -3    1    3    3    0  502  0.28681664168E+03 -0.30327010835E+03  0.51465561601E+03  0.66265146031E+03  0.10100000352E+00 0. -1.
</event>
<event>
 5   0  0.1506454E-04  0.1000076E+04  0.7818609E-02  0.9308461E-01
       -1   -1    0    0    0  501  0.00000000000E+00  0.00000000000E+00  0.29050101718E+03  0.29050101722E+03  0.50400001928E-02 0.  1.
        1   -1    0    0  501    0  0.00000000000E+00  0.00000000000E+00 -0.86071373797E+03  0.86071373798E+03  0.50400001928E-02 0. -1.
    10030    2    1    2    0    0  0.00000000000E+00  0.00000000000E+00 -0.57021272079E+03  0.11512147552E+04  0.10000764299E+04 0.  0.
        3    1    3    3  502    0 -0.22645144295E+03  0.74776511174E+02  0.22082194185E+03  0.32501403484E+03  0.10100000352E+00 0.  1.
       -3    1    3    3    0  502  0.22645144295E+03 -0.74776511174E+02 -0.79103466264E+03  0.82620072037E+03  0.10100000352E+00 0. -1.
</event>
<event>
 5   0  0.2403037E-04  0.1000806E+04  0.7818609E-02  0.9307662E-01
        2   -1    0    0  501    0  0.00000000000E+00  0.00000000000E+00  0.12379282497E+04  0.12379282497E+04  0.25500000920E-02 0.  1.
       -2   -1    0    0    0  501  0.00000000000E+00  0.00000000000E+00 -0.20227582420E+03  0.20227582421E+03  0.25500000920E-02 0. -1.
    10030    2    1    2    0    0  0.00000000000E+00  0.00000000000E+00  0.10356524255E+04  0.14402040739E+04  0.10008055896E+04 0.  0.
        1    1    3    3  502    0  0.41922248781E+03 -0.55746506463E+02  0.13290448737E+03  0.44330437631E+03  0.50400001928E-02 0. -1.
       -1    1    3    3    0  502 -0.41922248781E+03  0.55746506463E+02  0.90274793816E+03  0.99689969764E+03  0.50400001928E-02 0.  1.
</event>
<event>
 5   0  0.1414165E-04  0.9997907E+03  0.7818609E-02  0.9308774E-01
       -1   -1    0    0    0  501  0.00000000000E+00  0.00000000000E+00  0.92427045827E+03  0.92427045828E+03  0.50400001928E-02 0. -1.
        1   -1    0    0  501    0  0.00000000000E+00  0.00000000000E+00 -0.27037037022E+03  0.27037037027E+03  0.50400001928E-02 0.  1.
    10030    2    1    2    0    0  0.00000000000E+00  0.00000000000E+00  0.65390008805E+03  0.11946408285E+04  0.99979067013E+03 0.  0.
        4    1    3    3  502    0  0.55357266449E+02  0.45072357998E+03  0.77227666418E+02  0.46063206343E+03  0.12699999809E+01 0.  1.
       -4    1    3    3    0  502 -0.55357266449E+02 -0.45072357998E+03  0.57667242163E+03  0.73400876512E+03  0.12699999809E+01 0. -1.
</event>
<event>
 5   0  0.2484904E-04  0.1000314E+04  0.7818609E-02  0.9308200E-01
        2   -1    0    0  501    0  0.00000000000E+00  0.00000000000E+00  0.42917793738E+03  0.42917793739E+03  0.25500000920E-02 0. -1.
       -2   -1    0    0    0  501  0.00000000000E+00  0.00000000000E+00 -0.58287509499E+03  0.58287509499E+03  0.25500000920E-02 0.  1.
    10030    2    1    2    0    0  0.00000000000E+00  0.00000000000E+00 -0.15369715760E+03  0.10120530324E+04  0.10003142127E+04 0.  0.
        3    1    3    3  502    0 -0.10868145741E+03  0.29567311277E+03  0.31619830883E+03  0.44633578112E+03  0.10100000352E+00 0. -1.
       -3    1    3    3    0  502  0.10868145741E+03 -0.29567311277E+03 -0.46989546643E+03  0.56571725126E+03  0.10100000352E+00 0.  1.
</event>
<event>
 5   0  0.1414165E-04  0.1000509E+04  0.7818609E-02  0.9307987E-01
       -1   -1    0    0    0  501  0.00000000000E+00  0.00000000000E+00  0.17430776553E+03  0.17430776561E+03  0.50400001928E-02 0. -1.
        1   -1    0    0  501    0  0.00000000000E+00  0.00000000000E+00 -0.14357055574E+04  0.14357055574E+04  0.50400001928E-02 0.  1.
    10030    2    1    2    0    0  0.00000000000E+00  0.00000000000E+00 -0.12613977919E+04  0.16100133230E+04  0.10005091259E+04 0.  0.
        4    1    3    3  502    0 -0.45528866742E+03  0.14411904692E+03 -0.39096168583E+03  0.61717965217E+03  0.12699999809E+01 0. -1.
       -4    1    3    3    0  502  0.45528866742E+03 -0.14411904692E+03 -0.87043610605E+03  0.99283367085E+03  0.12699999809E+01 0.  1.
</event>
<event>
 5   0  0.1430675E-04  0.9998989E+03  0.7818609E-02  0.9308656E-01
        1   -1    0    0  501    0  0.00000000000E+00  0.00000000000E+00  0.96164448698E+03  0.96164448700E+03  0.50400001928E-02 0. -1.
       -1   -1    0    0    0  501  0.00000000000E+00  0.00000000000E+00 -0.25991876822E+03  0.25991876827E+03  0.50400001928E-02 0.  1.
    10030    2    1    2    0    0  0.00000000000E+00  0.00000000000E+00  0.70172571876E+03  0.12215632553E+04  0.99989889601E+03 0.  0.
        5    1    3    3  502    0 -0.13786868603E+02  0.31338752204E+03  0.82642009894E+03  0.88396498044E+03  0.46999998093E+01 0. -1.
       -5    1    3    3    0  502  0.13786868603E+02 -0.31338752204E+03 -0.12469438018E+03  0.33759827483E+03  0.46999998093E+01 0.  1.
</event>
<event>
 5   0  0.1414165E-04  0.9991759E+03  0.7818609E-02  0.9309449E-01
       -1   -1    0    0    0  501  0.00000000000E+00  0.00000000000E+00  0.22316350208E+03  0.22316350214E+03  0.50400001928E-02 0. -1.
        1   -1    0    0  501    0  0.00000000000E+00  0.00000000000E+00 -0.11184093212E+04  0.11184093212E+04  0.50400001928E-02 0.  1.
    10030    2    1    2    0    0  0.00000000000E+00  0.00000000000E+00 -0.89524581912E+03  0.13415728233E+04  0.99917594231E+03 0.  0.
        4    1    3    3  502    0 -0.40074798971E+03 -0.29771952965E+03 -0.47276575509E+03  0.68756450001E+03  0.12699999809E+01 0. -1.
       -4    1    3    3    0  502  0.40074798971E+03  0.29771952965E+03 -0.42248006403E+03  0.65400832334E+03  0.12699999809E+01 0.  1.
</event>
<event>
 5   0  0.1506454E-04  0.1000151E+04  0.7818609E-02  0.9308380E-01
       -1   -1    0    0    0  501  0.00000000000E+00  0.00000000000E+00  0.35746229621E+03  0.35746229624E+03  0.50400001928E-02 0.  1.
        1   -1    0    0  501    0  0.00000000000E+00  0.00000000000E+00 -0.69958515017E+03  0.69958515019E+03  0.50400001928E-02 0. -1.
    10030    2    1    2    0    0  0.00000000000E+00  0.00000000000E+00 -0.34212285396E+03  0.10570474464E+04  0.10001506171E+04 0.  0.
        3    1    3    3  502    0 -0.77752241108E+02 -0.46568805413E+03  0.31313592346E+01  0.47214467102E+03  0.10100000352E+00 0. -1.
       -3    1    3    3    0  502  0.77752241108E+02  0.46568805413E+03 -0.34525421320E+03  0.58490277542E+03  0.10100000352E+00 0.  1.
</event>
<event>
 5   0  0.2503680E-04  0.9997873E+03  0.7818609E-02  0.9308778E-01
        2   -1    0    0  501    0  0.00000000000E+00  0.00000000000E+00  0.46195705892E+03  0.46195705892E+03  0.25500000920E-02 0. -1.
       -2   -1    0    0    0  501  0.00000000000E+00  0.00000000000E+00 -0.54094560554E+03  0.54094560555E+03  0.25500000920E-02 0.  1.
    10030    2    1    2    0    0  0.00000000000E+00  0.00000000000E+00 -0.78988546625E+02  0.10029026645E+04  0.99978725932E+03 0.  0.
        2    1    3    3  502    0 -0.34559184507E+03 -0.72661703309E+02  0.31541634918E+03  0.47349859540E+03  0.25500000920E-02 0. -1.
       -2    1    3    3    0  502  0.34559184507E+03  0.72661703309E+02 -0.39440489581E+03  0.52940406907E+03  0.25500000920E-02 0.  1.
</event>
<event>
 5   0  0.2353916E-04  0.9997463E+03  0.7818609E-02  0.9308823E-01
       -2   -1    0    0    0  501  0.00000000000E+00  0.00000000000E+00  0.15520797207E+04  0.15520797207E+04  0.25500000920E-02 0.  1.
        2   -1    0    0  501    0  0.00000000000E+00  0.00000000000E+00 -0.16099246814E+03  0.16099246816E+03  0.25500000920E-02 0. -1.
    10030    2    1    2    0    0  0.00000000000E+00  0.00000000000E+00  0.13910872525E+04  0.17130721888E+04  0.99974625781E+03 0.  0.
        4    1    3    3  502    0  0.23886841330E+03 -0.10538484234E+03 -0.34875677052E+02  0.26340464995E+03  0.12699999809E+01 0. -1.
       -4    1    3    3    0  502 -0.23886841330E+03  0.10538484234E+03  0.14259629296E+04  0.14496675389E+04  0.12699999809E+01 0.  1.
</event>
<event>
 5   0  0.2484904E-04  0.1001303E+04  0.7818609E-02  0.9307117E-01
       -2   -1    0    0    0  501  0.00000000000E+00  0.00000000000E+00  0.14264608629E+03  0.14264608631E+03  0.25500000920E-02 0.  1.
        2   -1    0    0  501    0  0.00000000000E+00  0.00000000000E+00 -0.17571579530E+04  0.17571579530E+04  0.25500000920E-02 0. -1.
    10030    2    1    2    0    0  0.00000000000E+00  0.00000000000E+00 -0.16145118667E+04  0.18998040393E+04  0.10013025617E+04 0.  0.
        3    1    3    3  502    0  0.19150393884E+03  0.66484972297E+02  0.61294967759E+02  0.21178076732E+03  0.10100000352E+00 0.  1.
       -3    1    3    3    0  502 -0.19150393884E+03 -0.66484972297E+02 -0.16758068345E+04  0.16880232720E+04  0.10100000352E+00 0. -1.
</event>
<event>
 5   0  0.2473312E-04  0.9996834E+03  0.7818609E-02  0.9308892E-01
        2   -1    0    0  501    0  0.00000000000E+00  0.00000000000E+00  0.12204737734E+04  0.12204737734E+04  0.25500000920E-02 0. -1.
       -2   -1    0    0    0  501  0.00000000000E+00  0.00000000000E+00 -0.20470881249E+03  0.20470881250E+03  0.25500000920E-02 0.  1.
    10030    2    1    2    0    0  0.00000000000E+00  0.00000000000E+00  0.10157649609E+04  0.14251825859E+04  0.99968342355E+03 0.  0.
        5    1    3    3  502    0  0.34597345468E+03 -0.30703336641E+03  0.23794206964E+03  0.52019769121E+03  0.46999998093E+01 0.  1.
       -5    1    3    3    0  502 -0.34597345468E+03  0.30703336641E+03  0.77782289125E+03  0.90498489467E+03  0.46999998093E+01 0. -1.
</event>
<event>
 5   0  0.1461334E-04  0.9998826E+03  0.7818609E-02  0.9308674E-01
       -1   -1    0    0    0  501  0.00000000000E+00  0.00000000000E+00  0.23461232178E+04  0.23461232178E+04  0.50400001928E-02 0. -1.
        1   -1    0    0  501    0  0.00000000000E+00  0.00000000000E+00 -0.10653374238E+03  0.10653374250E+03  0.50400001928E-02 0.  1.
    10030    2    1    2    0    0  0.00000000000E+00  0.00000000000E+00  0.22395894754E+04  0.24526569603E+04  0.99988256635E+03 0.  0.
        2    1    3    3  502    0 -0.20378384861E+03  0.35775825569E+03  0.42416764063E+03  0.59113197666E+03  0.25500000920E-02 0.  1.
       -2    1    3    3    0  502  0.20378384861E+03 -0.35775825569E+03  0.18154218348E+04  0.18615249837E+04  0.25500000920E-02 0. -1.
</event>
<event>
 5   0  0.1414165E-04  0.1001371E+04  0.7818609E-02  0.9307042E-01
        1   -1    0    0  501    0  0.00000000000E+00  0.00000000000E+00  0.12324080090E+04  0.12324080090E+04  0.50400001928E-02 0.  1.
       -1   -1    0    0    0  501  0.00000000000E+00  0.00000000000E+00 -0.20341168226E+03  0.20341168233E+03  0.50400001928E-02 0. -1.
    10030    2    1    2    0    0  0.00000000000E+00  0.00000000000E+00  0.10289963267E+04  0.14358196913E+04  0.10013714324E+04 0.  0.
        4    1    3    3  502    0  0.19113276321E+03 -0.20462933392E+02 -0.14839207674E+03  0.24284210129E+03  0.12699999809E+01 0. -1.
       -4    1    3    3    0  502 -0.19113276321E+03  0.20462933392E+02  0.11773884035E+04  0.11929775900E+04  0.12699999809E+01 0.  1.
</event>
<event>
 5   0  0.2484904E-04  0.9999499E+03  0.7818609E-02  0.9308600E-01
        2   -1    0    0  501    0  0.00000000000E+00  0.00000000000E+00  0.13582820819E+04  0.13582820819E+04  0.25500000920E-02 0.  1.
       -2   -1    0    0    0  501  0.00000000000E+00  0.00000000000E+00 -0.18403759629E+03  0.18403759630E+03  0.25500000920E-02 0. -1.
    10030    2    1    2    0    0  0.00000000000E+00  0.00000000000E+00  0.11742444856E+04  0.15423196782E+04  0.99994993765E+03 0.  0.
        3    1    3    3  502    0 -0.44397632995E+03  0.22227591816E+03  0.67776209751E+03  0.84016845714E+03  0.10100000352E+00 0.  1.
       -3    1    3    3    0  502  0.44397632995E+03 -0.22227591816E+03  0.49648238813E+03  0.70215122109E+03  0.10100000352E+00 0. -1.
</event>
<event>
 5   0  0.2403037E-04  0.1000233E+04  0.7818609E-02  0.9308290E-01
       -2   -1    0    0    0  501  0.00000000000E+00  0.00000000000E+00  0.33365774969E+03  0.33365774970E+03  0.25500000920E-02 0. -1.
        2   -1    0    0  501    0  0.00000000000E+00  0.00000000000E+00 -0.74961938555E+03  0.74961938556E+03  0.25500000920E-02 0.  1.
    10030    2    1    2    0    0  0.00000000000E+00  0.00000000000E+00 -0.41596163586E+03  0.10832771353E+04  0.10002326076E+04 0.  0.
        1    1    3    3  502    0 -0.31853827942E+03  0.36973236737E+03 -0.89600373583E+02  0.49618231116E+03  0.50400001928E-02 0.  1.
       -1    1    3    3    0  502  0.31853827942E+03 -0.36973236737E+03 -0.32636126228E+03  0.58709482410E+03  0.50400001928E-02 0. -1.
</event>
<event>
 5   0  0.9650500E-05  0.9998841E+03  0.7818609E-02  0.9308672E-01
        3   -1    0    0  501    0  0.00000000000E+00  0.00000000000E+00  0.52275916519E+03  0.52275917495E+03  0.10100000352E+00 0.  1.
       -3   -1    0    0    0  501  0.00000000000E+00  0.00000000000E+00 -0.47812080895E+03  0.47812081962E+03  0.10100000352E+00 0. -1.
    10030    2    1    2    0    0  0.00000000000E+00  0.00000000000E+00  0.44638356239E+02  0.10008799946E+04  0.99988408362E+03 0.  0.
        4    1    3    3  502    0 -0.43422033809E+01  0.49174139940E+03  0.11247538245E+03  0.50446088369E+03  0.12699999809E+01 0.  1.
       -4    1    3    3    0  502  0.43422033809E+01 -0.49174139940E+03 -0.67837026213E+02  0.49641911087E+03  0.12699999809E+01 0. -1.
</event>
<event>
 5   0  0.2484904E-04  0.1000879E+04  0.7818609E-02  0.9307581E-01
        2   -1    0    0  501    0  0.00000000000E+00  0.00000000000E+00  0.32942902271E+03  0.32942902272E+03  0.25500000920E-02 0.  1.
       -2   -1    0    0    0  501  0.00000000000E+00  0.00000000000E+00 -0.76022362138E+03  0.76022362139E+03  0.25500000920E-02 0. -1.
    10030    2    1    2    0    0  0.00000000000E+00  0.00000000000E+00 -0.43079459867E+03  0.10896526441E+04  0.10008790629E+04 0.  0.
        3    1    3    3  502    0  0.13635374905E+03 -0.29895980929E+03 -0.62632819753E+03  0.70728801324E+03  0.10100000352E+00 0. -1.
       -3    1    3    3    0  502 -0.13635374905E+03  0.29895980929E+03  0.19553359886E+03  0.38236463086E+03  0.10100000352E+00 0.  1.
</event>
<event>
 5   0  0.1506454E-04  0.1000138E+04  0.7818609E-02  0.9308393E-01
       -1   -1    0    0    0  501  0.00000000000E+00  0.00000000000E+00  0.56978944968E+03  0.56978944971E+03  0.50400001928E-02 0. -1.
        1   -1    0    0  501    0  0.00000000000E+00  0.00000000000E+00 -0.43888010610E+03  0.43888010613E+03  0.50400001928E-02 0.  1.
    10030    2    1    2    0    0  0.00000000000E+00  0.00000000000E+00  0.13090934358E+03  0.10086695558E+04  0.10001384987E+04 0.  0.
        3    1    3    3  502    0  0.25731692802E+03 -0.26384876861E+02  0.49707845459E+03  0.56035271338E+03  0.10100000352E+00 0. -1.
       -3    1    3    3    0  502 -0.25731692802E+03  0.26384876861E+02 -0.36616911101E+03  0.44831684245E+03  0.10100000352E+00 0.  1.
</event>
<event>
 5   0  0.9650500E-05  0.1000159E+04  0.7818609E-02  0.9308370E-01
       -3   -1    0    0    0  501  0.00000000000E+00  0.00000000000E+00  0.15935238070E+04  0.15935238102E+04  0.10100000352E+00 0. -1.
        3   -1    0    0  501    0  0.00000000000E+00  0.00000000000E+00 -0.15693486783E+03  0.15693490033E+03  0.10100000352E+00 0.  1.
    10030    2    1    2    0    0  0.00000000000E+00  0.00000000000E+00  0.14365889391E+04  0.17504587105E+04  0.10001589459E+04 0.  0.
        4    1    3    3  502    0 -0.41876205555E+01  0.19978885925E+03  0.15206042959E+04  0.15336792891E+04  0.12699999809E+01 0. -1.
       -4    1    3    3    0  502  0.41876205555E+01 -0.19978885925E+03 -0.84015356744E+02  0.21677942134E+03  0.12699999809E+01 0.  1.
</event>
<event>
 5   0  0.2503680E-04  0.9999723E+03  0.7818609E-02  0.9308575E-01
        2   -1    0    0  501    0  0.00000000000E+00  0.00000000000E+00  0.29274379045E+03  0.29274379046E+03  0.25500000920E-02 0.  1.
       -2   -1    0    0    0  501  0.00000000000E+00  0.00000000000E+00 -0.85394176248E+03  0.85394176248E+03  0.25500000920E-02 0. -1.
    10030    2    1    2    0    0  0.00000000000E+00  0.00000000000E+00 -0.56119797203E+03  0.11466855529E+04  0.99997229638E+03 0.  0.
        2    1    3    3  502    0  0.26441620234E+03 -0.54514503583E+02  0.20197474591E+03  0.33716695738E+03  0.25500000920E-02 0.  1.
       -2    1    3    3    0  502 -0.26441620234E+03  0.54514503583E+02 -0.76317271794E+03  0.80951859557E+03  0.25500000920E-02 0. -1.
</event>
<event>
 5   0  0.1453863E-04  0.1000292E+04  0.7818609E-02  0.9308224E-01
        1   -1    0    0  501    0  0.00000000000E+00  0.00000000000E+00  0.13933365241E+04  0.13933365242E+04  0.50400001928E-02 0. -1.
       -1   -1    0    0    0  501  0.00000000000E+00  0.00000000000E+00 -0.17953028191E+03  0.17953028198E+03  0.50400001928E-02 0.  1.
    10030    2    1    2    0    0  0.00000000000E+00  0.00000000000E+00  0.12138062422E+04  0.15728668061E+04  0.10002921554E+04 0.  0.
        1    1    3    3  502    0 -0.26124019577E+03  0.10323361815E+03 -0.43781942420E+02  0.28428942701E+03  0.50400001928E-02 0.  1.
       -1    1    3    3    0  502  0.26124019577E+03 -0.10323361815E+03  0.12575881847E+04  0.12885773791E+04  0.50400001928E-02 0. -1.
</event>
<event>
 5   0  0.2484904E-04  0.1004857E+04  0.7818609E-02  0.9303234E-01
       -2   -1    0    0    0  501  0.00000000000E+00  0.00000000000E+00  0.43861118485E+03  0.43861118486E+03  0.25500000920E-02 0.  1.
        2   -1    0    0  501    0  0.00000000000E+00  0.00000000000E+00 -0.57553132100E+03  0.57553132101E+03  0.25500000920E-02 0. -1.
    10030    2    1    2    0    0  0.00000000000E+00  0.00000000000E+00 -0.13692013615E+03  0.10141425059E+04  0.10048571533E+04 0.  0.
        3    1    3    3  502    0 -0.14161890491E+03  0.33495040920E+03  0.28142305595E+03  0.45983327139E+03  0.10100000352E+00 0.  1.
       -3    1    3    3    0  502  0.14161890491E+03 -0.33495040920E+03 -0.41834319210E+03  0.55430923448E+03  0.10100000352E+00 0. -1.
</event>
<event>
 5   0  0.2503680E-04  0.9950097E+03  0.7818609E-02  0.9314035E-01
       -2   -1    0    0    0  501  0.00000000000E+00  0.00000000000E+00  0.35103990679E+03  0.35103990680E+03  0.25500000920E-02 0.  1.
        2   -1    0    0  501    0  0.00000000000E+00  0.00000000000E+00 -0.70507966717E+03  0.70507966717E+03  0.25500000920E-02 0. -1.
    10030    2    1    2    0    0  0.00000000000E+00  0.00000000000E+00 -0.35403976038E+03  0.10561195740E+04  0.99500975000E+03 0.  0.
        2    1    3    3  502    0 -0.45004117366E+03  0.71476828799E+02 -0.38894489143E+03  0.59910276550E+03  0.25500000920E-02 0. -1.
       -2    1    3    3    0  502  0.45004117366E+03 -0.71476828799E+02  0.34905131053E+02  0.45701680847E+03  0.25500000920E-02 0.  1.
</event>
<event>
 5   0  0.1453863E-04  0.1000085E+04  0.7818609E-02  0.9308452E-01
        1   -1    0    0  501    0  0.00000000000E+00  0.00000000000E+00  0.63289599787E+03  0.63289599789E+03  0.50400001928E-02 0. -1.
       -1   -1    0    0    0  501  0.00000000000E+00  0.00000000000E+00 -0.39507667530E+03  0.39507667533E+03  0.50400001928E-02 0.  1.
    10030    2    1    2    0    0  0.00000000000E+00  0.00000000000E+00  0.23781932256E+03  0.10279726732E+04  0.10000848897E+04 0.  0.
        1    1    3    3  502    0 -0.93408006560E+02  0.49120266548E+03  0.12519006506E+03  0.51543929486E+03  0.50400001928E-02 0.  1.
       -1    1    3    3    0  502  0.93408006560E+02 -0.49120266548E+03  0.11262925750E+03  0.51253337836E+03  0.50400001928E-02 0. -1.
</event>
<event>
 5   0  0.2473312E-04  0.1000313E+04  0.7818609E-02  0.9308202E-01
       -2   -1    0    0    0  501  0.00000000000E+00  0.00000000000E+00  0.25552074355E+03  0.25552074356E+03  0.25500000920E-02 0.  1.
        2   -1    0    0  501    0  0.00000000000E+00  0.00000000000E+00 -0.97900586652E+03  0.97900586653E+03  0.25500000920E-02 0. -1.
    10030    2    1    2    0    0  0.00000000000E+00  0.00000000000E+00 -0.72348512297E+03  0.12345266101E+04  0.10003125651E+04 0.  0.
        5    1    3    3  502    0  0.29358737058E+03  0.48971553820E+02 -0.85777271412E+03  0.90795808071E+03  0.46999998093E+01 0. -1.
       -5    1    3    3    0  502 -0.29358737058E+03 -0.48971553820E+02  0.13428759115E+03  0.32656852938E+03  0.46999998093E+01 0.  1.
</event>
<event>
 5   0  0.2503680E-04  0.1003286E+04  0.7818609E-02  0.9304948E-01
       -2   -1    0    0    0  501  0.00000000000E+00  0.00000000000E+00  0.22862860310E+03  0.22862860312E+03  0.25500000920E-02 0. -1.
        2   -1    0    0  501    0  0.00000000000E+00  0.00000000000E+00 -0.11006752355E+04  0.11006752355E+04  0.25500000920E-02 0.  1.
    10030    2    1    2    0    0  0.00000000000E+00  0.00000000000E+00 -0.87204663240E+03  0.13293038386E+04  0.10032862833E+04 0.  0.
        2    1    3    3  502    0 -0.63367166997E+02  0.46845657397E+03 -0.65843687718E+03  0.81055911616E+03  0.25500000920E-02 0.  1.
       -2    1    3    3    0  502  0.63367166997E+02 -0.46845657397E+03 -0.21360975522E+03  0.51874472247E+03  0.25500000920E-02 0. -1.
</event>
<event>
 5   0  0.2473312E-04  0.1000079E+04  0.7818609E-02  0.9308458E-01
        2   -1    0    0  501    0  0.00000000000E+00  0.00000000000E+00  0.67338774512E+03  0.67338774512E+03  0.25500000920E-02 0. -1.
       -2   -1    0    0    0  501  0.00000000000E+00  0.00000000000E+00 -0.37131578914E+03  0.37131578914E+03  0.25500000920E-02 0.  1.
    10030    2    1    2    0    0  0.00000000000E+00  0.00000000000E+00  0.30207195598E+03  0.10447035343E+04  0.10000790008E+04 0.  0.
        5    1    3    3  502    0  0.16882599356E+03 -0.46348739437E+03  0.65564329135E+02  0.49763797293E+03  0.46999998093E+01 0. -1.
       -5    1    3    3    0  502 -0.16882599356E+03  0.46348739437E+03  0.23650762685E+03  0.54706556134E+03  0.46999998093E+01 0.  1.
</event>
<event>
 5   0  0.1414165E-04  0.1000175E+04  0.7818609E-02  0.9308353E-01
       -1   -1    0    0    0  501  0.00000000000E+00  0.00000000000E+00  0.37407202007E+03  0.37407202010E+03  0.50400001928E-02 0. -1.
        1   -1    0    0  501    0  0.00000000000E+00  0.00000000000E+00 -0.66855468988E+03  0.66855468990E+03  0.50400001928E-02 0.  1.
    10030    2    1    2    0    0  0.00000000000E+00  0.00000000000E+00 -0.29448266981E+03  0.10426267100E+04  0.10001751914E+04 0.  0.
        4    1    3    3  502    0 -0.23303023633E+03 -0.41353031857E+03  0.16842062770E+02  0.47496913942E+03  0.12699999809E+01 0. -1.
       -4    1    3    3    0  502  0.23303023633E+03  0.41353031857E+03 -0.31132473258E+03  0.56765757058E+03  0.12699999809E+01 0.  1.
</event>
<event>
 5   0  0.2353916E-04  0.1000477E+04  0.7818609E-02  0.9308021E-01
        2   -1    0    0  501    0  0.00000000000E+00  0.00000000000E+00  0.37943607963E+03  0.37943607964E+03  0.25500000920E-02 0.  1.
       -2   -1    0    0    0  501  0.00000000000E+00  0.00000000000E+00 -0.65950158476E+03  0.65950158477E+03  0.25500000920E-02 0. -1.
    10030    2    1    2    0    0  0.00000000000E+00  0.00000000000E+00 -0.28006550514E+03  0.10389376644E+04  0.10004772778E+04 0.  0.
        4    1    3    3  502    0 -0.63546363445E+02  0.12779925285E+03  0.35784177569E+03  0.38525723700E+03  0.12699999809E+01 0.  1.
       -4    1    3    3    0  502  0.63546363445E+02 -0.12779925285E+03 -0.63790728082E+03  0.65368042740E+03  0.12699999809E+01 0. -1.
</event>
<event>
 5   0  0.2484904E-04  0.9990240E+03  0.7818609E-02  0.9309616E-01
        2   -1    0    0  501    0  0.00000000000E+00  0.00000000000E+00  0.41728745675E+03  0.41728745676E+03  0.25500000920E-02 0. -1.
       -2   -1    0    0    0  501  0.00000000000E+00  0.00000000000E+00 -0.59793847132E+03  0.59793847132E+03  0.25500000920E-02 0.  1.
    10030    2    1    2    0    0  0.00000000000E+00  0.00000000000E+00 -0.18065101457E+03  0.10152259281E+04  0.99902397167E+03 0.  0.
        3    1    3    3  502    0 -0.96598045937E+01  0.49700053785E+03 -0.14020686911E+03  0.51648893772E+03  0.10100000352E+00 0.  1.
       -3    1    3    3    0  502  0.96598045937E+01 -0.49700053785E+03 -0.40444145467E+02  0.49873699036E+03  0.10100000352E+00 0. -1.
</event>
<event>
 5   0  0.2473312E-04  0.9991525E+03  0.7818609E-02  0.9309475E-01
       -2   -1    0    0    0  501  0.00000000000E+00  0.00000000000E+00  0.23203005757E+03  0.23203005759E+03  0.25500000920E-02 0.  1.
        2   -1    0    0  501    0  0.00000000000E+00  0.00000000000E+00 -0.10756211487E+04  0.10756211487E+04  0.25500000920E-02 0. -1.
    10030    2    1    2    0    0  0.00000000000E+00  0.00000000000E+00 -0.84359109117E+03  0.13076512063E+04  0.99915251504E+03 0.  0.
        5    1    3    3  502    0 -0.19331587259E+03 -0.45978460106E+03 -0.38521010730E+03  0.63022362914E+03  0.46999998093E+01 0. -1.
       -5    1    3    3    0  502  0.19331587259E+03  0.45978460106E+03 -0.45838098387E+03  0.67742757719E+03  0.46999998093E+01 0.  1.
</event>
<event>
 5   0  0.2484904E-04  0.9998713E+03  0.7818609E-02  0.9308686E-01
       -2   -1    0    0    0  501  0.00000000000E+00  0.00000000000E+00  0.19754237065E+03  0.19754237067E+03  0.25500000920E-02 0.  1.
        2   -1    0    0  501    0  0.00000000000E+00  0.00000000000E+00 -0.12652255745E+04  0.12652255745E+04  0.25500000920E-02 0. -1.
    10030    2    1    2    0    0  0.00000000000E+00  0.00000000000E+00 -0.10676832038E+04  0.14627679452E+04  0.99987131054E+03 0.  0.
        3    1    3    3  502    0  0.36841164436E+03  0.33707258345E+03 -0.49828896689E+03  0.70543388843E+03  0.10100000352E+00 0.  1.
       -3    1    3    3    0  502 -0.36841164436E+03 -0.33707258345E+03 -0.56939423696E+03  0.75733405674E+03  0.10100000352E+00 0. -1.
</event>
<event>
 5   0  0.1506454E-04  0.9996474E+03  0.7818609E-02  0.9308932E-01
        1   -1    0    0  501    0  0.00000000000E+00  0.00000000000E+00  0.92215272940E+03  0.92215272942E+03  0.50400001928E-02 0.  1.
       -1   -1    0    0    0  501  0.00000000000E+00  0.00000000000E+00 -0.27091362214E+03  0.27091362219E+03  0.50400001928E-02 0. -1.
    10030    2    1    2    0    0  0.00000000000E+00  0.00000000000E+00  0.65123910726E+03  0.11930663516E+04  0.99964741009E+03 0.  0.
        3    1    3    3  502    0  0.46352912759E+03 -0.18116720991E+03  0.38086803065E+03  0.62669073477E+03  0.10100000352E+00 0. -1.
       -3    1    3    3    0  502 -0.46352912759E+03  0.18116720991E+03  0.27037107662E+03  0.56637561684E+03  0.10100000352E+00 0.  1.
</event>
<event>
 5   0  0.1506454E-04  0.9999404E+03  0.7818609E-02  0.9308610E-01
       -1   -1    0    0    0  501  0.00000000000E+00  0.00000000000E+00  0.45866526548E+03  0.45866526551E+03  0.50400001928E-02 0.  1.
        1   -1    0    0  501    0  0.00000000000E+00  0.00000000000E+00 -0.54499480457E+03  0.54499480459E+03  0.50400001928E-02 0. -1.
    10030    2    1    2    0    0  0.00000000000E+00  0.00000000000E+00 -0.86329539086E+02  0.10036600701E+04  0.99994037172E+03 0.  0.
        3    1    3    3  502    0  0.44045558077E+03  0.22734660793E+03 -0.10884961359E+03  0.50747989847E+03  0.10100000352E+00 0. -1.
       -3    1    3    3    0  502 -0.44045558077E+03 -0.22734660793E+03  0.22520074501E+02  0.49618017164E+03  0.10100000352E+00 0.  1.
</event>
<event>
 5   0  0.2353916E-04  0.9988728E+03  0.7818609E-02  0.9309782E-01
       -2   -1    0    0    0  501  0.00000000000E+00  0.00000000000E+00  0.15348104134E+03  0.15348104136E+03  0.25500000920E-02 0. -1.
        2   -1    0    0  501    0  0.00000000000E+00  0.00000000000E+00 -0.16251955492E+04  0.16251955492E+04  0.25500000920E-02 0.  1.
    10030    2    1    2    0    0  0.00000000000E+00  0.00000000000E+00 -0.14717145079E+04  0.17786765906E+04  0.99887277527E+03 0.  0.
        4    1    3    3  502    0 -0.23093136841E+03  0.26908489924E+03 -0.10957500171E+03  0.37113915694E+03  0.12699999809E+01 0. -1.
       -4    1    3    3    0  502  0.23093136841E+03 -0.26908489924E+03 -0.13621395062E+04  0.14075374337E+04  0.12699999809E+01 0.  1.
</event>
<event>
 5   0  0.1430675E-04  0.1000305E+04  0.7818609E-02  0.9308210E-01
       -1   -1    0    0    0  501  0.00000000000E+00  0.00000000000E+00  0.81256699653E+03  0.81256699655E+03  0.50400001928E-02 0. -1.
        1   -1    0    0  501    0  0.00000000000E+00  0.00000000000E+00 -0.30785489463E+03  0.30785489467E+03  0.50400001928E-02 0.  1.
    10030    2    1    2    0    0  0.00000000000E+00  0.00000000000E+00  0.50471210190E+03  0.11204218912E+04  0.10003054076E+04 0.  0.
        5    1    3    3  502    0 -0.53003754448E+02  0.29638687389E+03  0.69965380546E+03  0.76170342949E+03  0.46999998093E+01 0. -1.
       -5    1    3    3    0  502  0.53003754448E+02 -0.29638687389E+03 -0.19494170355E+03  0.35871846173E+03  0.46999998093E+01 0.  1.
</event>
<event>
 5   0  0.9650500E-05  0.1000027E+04  0.7818609E-02  0.9308515E-01
       -3   -1    0    0    0  501  0.00000000000E+00  0.00000000000E+00  0.39639560199E+03  0.39639561486E+03  0.10100000352E+00 0.  1.
        3   -1    0    0  501    0  0.00000000000E+00  0.00000000000E+00 -0.63071682300E+03  0.63071683109E+03  0.10100000352E+00 0. -1.
    10030    2    1    2    0    0  0.00000000000E+00  0.00000000000E+00 -0.23432122101E+03  0.10271124460E+04  0.10000267706E+04 0.  0.
        2    1    3    3  502    0  0.34021976830E+03 -0.91763325034E+02 -0.48151295192E+03  0.59667807186E+03  0.25500000920E-02 0. -1.
       -2    1    3    3    0  502 -0.34021976830E+03  0.91763325034E+02  0.24719173090E+03  0.43043437409E+03  0.25500000920E-02 0.  1.
</event>
<event>
 5   0  0.1506454E-04  0.1000011E+04  0.7818609E-02  0.9308533E-01
       -1   -1    0    0    0  501  0.00000000000E+00  0.00000000000E+00  0.34742726985E+03  0.34742726989E+03  0.50400001928E-02 0.  1.
        1   -1    0    0  501    0  0.00000000000E+00  0.00000000000E+00 -0.71959098591E+03  0.71959098593E+03  0.50400001928E-02 0. -1.
    10030    2    1    2    0    0  0.00000000000E+00  0.00000000000E+00 -0.37216371605E+03  0.10670182558E+04  0.10000110633E+04 0.  0.
        3    1    3    3  502    0  0.31020567362E+03 -0.11510356470E+03  0.21390914736E+03  0.39399685795E+03  0.10100000352E+00 0.  1.
       -3    1    3    3    0  502 -0.31020567362E+03  0.11510356470E+03 -0.58607286342E+03  0.67302139786E+03  0.10100000352E+00 0. -1.
</event>
<event>
 5   0  0.1430675E-04  0.1001008E+04  0.7818609E-02  0.9307440E-01
        1   -1    0    0  501    0  0.00000000000E+00  0.00000000000E+00  0.68566322037E+03  0.68566322039E+03  0.50400001928E-02 0.  1.
       -1   -1    0    0    0  501  0.00000000000E+00  0.00000000000E+00 -0.36534566177E+03  0.36534566181E+03  0.50400001928E-02 0. -1.
    10030    2    1    2    0    0  0.00000000000E+00  0.00000000000E+00  0.32031755860E+03  0.10510088822E+04  0.10010076584E+04 0.  0.
        5    1    3    3  502    0  0.24222120240E+03 -0.29747104147E+03  0.49765203417E+03  0.62836276825E+03  0.46999998093E+01 0.  1.
       -5    1    3    3    0  502 -0.24222120240E+03  0.29747104147E+03 -0.17733447558E+03  0.42264611394E+03  0.46999998093E+01 0. -1.
</event>
<event>
 5   0  0.1506454E-04  0.1000178E+04  0.7818609E-02  0.9308350E-01
        1   -1    0    0  501    0  0.00000000000E+00  0.00000000000E+00  0.10977357824E+04  0.10977357824E+04  0.50400001928E-02 0.  1.
       -1   -1    0    0    0  501  0.00000000000E+00  0.00000000000E+00 -0.22782239113E+03  0.22782239119E+03  0.50400001928E-02 0. -1.
    10030    2    1    2    0    0  0.00000000000E+00  0.00000000000E+00  0.86991339128E+03  0.13255581736E+04  0.10001775659E+04 0.  0.
        3    1    3    3  502    0 -0.24880094546E+03  0.15067318817E+03 -0.10418173757E+03  0.30896304754E+03  0.10100000352E+00 0. -1.
       -3    1    3    3    0  502  0.24880094546E+03 -0.15067318817E+03  0.97409512885E+03  0.10165951261E+04  0.10100000352E+00 0.  1.
</event>
<event>
 5   0  0.2403037E-04  0.1000455E+04  0.7818609E-02  0.9308046E-01
        2   -1    0    0  501    0  0.00000000000E+00  0.00000000000E+00  0.11692692343E+04  0.11692692343E+04  0.25500000920E-02 0. -1.
       -2   -1    0    0    0  501  0.00000000000E+00  0.00000000000E+00 -0.21400327385E+03  0.21400327386E+03  0.25500000920E-02 0.  1.
    10030    2    1    2    0    0  0.00000000000E+00  0.00000000000E+00  0.95526596043E+03  0.13832725081E+04  0.10004547849E+04 0.  0.
        1    1    3    3  502    0  0.23580950123E+03 -0.22743725663E+03 -0.45023928582E+02  0.33069771808E+03  0.50400001928E-02 0.  1.
       -1    1    3    3    0  502 -0.23580950123E+03  0.22743725663E+03  0.10002898890E+04  0.10525747901E+04  0.50400001928E-02 0. -1.
</event>
<event>
 5   0  0.1461334E-04  0.1000478E+04  0.7818609E-02  0.9308021E-01
        1   -1    0    0  501    0  0.00000000000E+00  0.00000000000E+00  0.30836708521E+03  0.30836708525E+03  0.50400001928E-02 0.  1.
       -1   -1    0    0    0  501  0.00000000000E+00  0.00000000000E+00 -0.81149741884E+03  0.81149741886E+03  0.50400001928E-02 0. -1.
    10030    2    1    2    0    0  0.00000000000E+00  0.00000000000E+00 -0.50313033363E+03  0.11198645041E+04  0.10004780732E+04 0.  0.
        2    1    3    3  502    0  0.32861380028E+03 -0.21416235330E+03  0.95943886292E+02  0.40380412656E+03  0.25500000920E-02 0.  1.
       -2    1    3    3    0  502 -0.32861380028E+03  0.21416235330E+03 -0.59907421993E+03  0.71606037755E+03  0.25500000920E-02 0. -1.
</event>
<event>
 5   0  0.1506454E-04  0.9989924E+03  0.7818609E-02  0.9309651E-01
        1   -1    0    0  501    0  0.00000000000E+00  0.00000000000E+00  0.44871602813E+03  0.44871602816E+03  0.50400001928E-02 0. -1.
       -1   -1    0    0    0  501  0.00000000000E+00  0.00000000000E+00 -0.55602303442E+03  0.55602303444E+03  0.50400001928E-02 0.  1.
    10030    2    1    2    0    0  0.00000000000E+00  0.00000000000E+00 -0.10730700629E+03  0.10047390626E+04  0.99899238751E+03 0.  0.
        3    1    3    3  502    0 -0.16883846512E+03 -0.28630209103E+03 -0.42865370732E+03  0.54241987946E+03  0.10100000352E+00 0.  1.
       -3    1    3    3    0  502  0.16883846512E+03  0.28630209103E+03  0.32134670103E+03  0.46231918314E+03  0.10100000352E+00 0. -1.
</event>
<event>
 5   0  0.1461334E-04  0.9994082E+03  0.7818609E-02  0.9309194E-01
       -1   -1    0    0    0  501  0.00000000000E+00  0.00000000000E+00  0.93595985384E+03  0.93595985385E+03  0.50400001928E-02 0. -1.
        1   -1    0    0  501    0  0.00000000000E+00  0.00000000000E+00 -0.26678941136E+03  0.26678941140E+03  0.50400001928E-02 0.  1.
    10030    2    1    2    0    0  0.00000000000E+00  0.00000000000E+00  0.66917044248E+03  0.12027492653E+04  0.99940818186E+03 0.  0.
        2    1    3    3  502    0 -0.42685533231E+03 -0.12144909592E+02  0.64690888071E+03  0.77514132486E+03  0.25500000920E-02 0. -1.
       -2    1    3    3    0  502  0.42685533231E+03  0.12144909592E+02  0.22261561770E+02  0.42760794040E+03  0.25500000920E-02 0.  1.
</event>
<event>
 5   0  0.1506454E-04  0.1000362E+04  0.7818609E-02  0.9308147E-01
        1   -1    0    0  501    0  0.00000000000E+00  0.00000000000E+00  0.16226063987E+04  0.16226063987E+04  0.50400001928E-02 0. -1.
       -1   -1    0    0    0  501  0.00000000000E+00  0.00000000000E+00 -0.15418478996E+03  0.15418479005E+03  0.50400001928E-02 0.  1.
    10030    2    1    2    0    0  0.00000000000E+00  0.00000000000E+00  0.14684216088E+04  0.17767911888E+04  0.10003623881E+04 0.  0.
        3    1    3    3  502    0  0.24409466146E+03  0.74890912611E+02  0.14981408492E+04  0.15197423685E+04  0.10100000352E+00 0. -1.
       -3    1    3    3    0  502 -0.24409466146E+03 -0.74890912611E+02 -0.29719240405E+02  0.25704882026E+03  0.10100000352E+00 0.  1.
</event>
<event>
 5   0  0.2473312E-04  0.1000406E+04  0.7818609E-02  0.9308100E-01
       -2   -1    0    0    0  501  0.00000000000E+00  0.00000000000E+00  0.33633279325E+03  0.33633279326E+03  0.25500000920E-02 0.  1.
        2   -1    0    0  501    0  0.00000000000E+00  0.00000000000E+00 -0.74391455181E+03  0.74391455181E+03  0.25500000920E-02 0. -1.
    10030    2    1    2    0    0  0.00000000000E+00  0.00000000000E+00 -0.40758175856E+03  0.10802473451E+04  0.10004056360E+04 0.  0.
        5    1    3    3  502    0  0.46470311687E+03 -0.79741065543E+02 -0.38406777176E+03  0.60814288425E+03  0.46999998093E+01 0. -1.
       -5    1    3    3    0  502 -0.46470311687E+03  0.79741065543E+02 -0.23513986801E+02  0.47210446083E+03  0.46999998093E+01 0.  1.
</event>
<event>
 5   0  0.2403037E-04  0.9995865E+03  0.7818609E-02  0.9308998E-01
       -2   -1    0    0    0  501  0.00000000000E+00  0.00000000000E+00  0.23927642446E+03  0.23927642448E+03  0.25500000920E-02 0.  1.
        2   -1    0    0  501    0  0.00000000000E+00  0.00000000000E+00 -0.10439527385E+04  0.10439527385E+04  0.25500000920E-02 0. -1.
    10030    2    1    2    0    0  0.00000000000E+00  0.00000000000E+00 -0.80467631399E+03  0.12832291629E+04  0.99958647165E+03 0.  0.
        1    1    3    3  502    0  0.31366856221E+03  0.19228367302E+02 -0.90124962546E+03  0.95446769691E+03  0.50400001928E-02 0. -1.
       -1    1    3    3    0  502 -0.31366856221E+03 -0.19228367302E+02  0.96573311467E+02  0.32876146602E+03  0.50400001928E-02 0.  1.
</event>
<event>
 5   0  0.1453863E-04  0.1000437E+04  0.7818609E-02  0.9308065E-01
        1   -1    0    0  501    0  0.00000000000E+00  0.00000000000E+00  0.16015045893E+04  0.16015045893E+04  0.50400001928E-02 0. -1.
       -1   -1    0    0    0  501  0.00000000000E+00  0.00000000000E+00 -0.15623975250E+03  0.15623975258E+03  0.50400001928E-02 0.  1.
    10030    2    1    2    0    0  0.00000000000E+00  0.00000000000E+00  0.14452648368E+04  0.17577443419E+04  0.10004372659E+04 0.  0.
        1    1    3    3  502    0 -0.20545788342E+03 -0.44384162752E+03  0.53827255334E+03  0.72728651430E+03  0.50400001928E-02 0.  1.
       -1    1    3    3    0  502  0.20545788342E+03  0.44384162752E+03  0.90699228349E+03  0.10304578276E+04  0.50400001928E-02 0. -1.
</event>
<event>
 5   0  0.2503680E-04  0.9995469E+03  0.7818609E-02  0.9309042E-01
       -2   -1    0    0    0  501  0.00000000000E+00  0.00000000000E+00  0.43092066860E+03  0.43092066860E+03  0.25500000920E-02 0. -1.
        2   -1    0    0  501    0  0.00000000000E+00  0.00000000000E+00 -0.57962761104E+03  0.57962761104E+03  0.25500000920E-02 0.  1.
    10030    2    1    2    0    0  0.00000000000E+00  0.00000000000E+00 -0.14870694244E+03  0.10105482796E+04  0.99954693275E+03 0.  0.
        2    1    3    3  502    0  0.32558943425E+03  0.22665922348E+03  0.23295027235E+03  0.46005294552E+03  0.25500000920E-02 0. -1.
       -2    1    3    3    0  502 -0.32558943425E+03 -0.22665922348E+03 -0.38165721480E+03  0.55049533413E+03  0.25500000920E-02 0.  1.
</event>
<event>
 5   0  0.2473312E-04  0.1002913E+04  0.7818609E-02  0.9305356E-01
       -2   -1    0    0    0  501  0.00000000000E+00  0.00000000000E+00  0.23630666327E+03  0.23630666329E+03  0.25500000920E-02 0. -1.
        2   -1    0    0  501    0  0.00000000000E+00  0.00000000000E+00 -0.10641195447E+04  0.10641195447E+04  0.25500000920E-02 0.  1.
    10030    2    1    2    0    0  0.00000000000E+00  0.00000000000E+00 -0.82781288140E+03  0.13004262080E+04  0.10029128356E+04 0.  0.
        5    1    3    3  502    0 -0.12523996313E+02 -0.47192828020E+03 -0.63304898024E+03  0.78971276646E+03  0.46999998093E+01 0.  1.
       -5    1    3    3    0  502  0.12523996313E+02  0.47192828020E+03 -0.19476390116E+03  0.51071344150E+03  0.46999998093E+01 0. -1.
</event>
<event>
 5   0  0.1461334E-04  0.9990956E+03  0.7818609E-02  0.9309537E-01
        1   -1    0    0  501    0  0.00000000000E+00  0.00000000000E+00  0.94156533098E+03  0.94156533099E+03  0.50400001928E-02 0. -1.
       -1   -1    0    0    0  501  0.00000000000E+00  0.00000000000E+00 -0.26503526528E+03  0.26503526533E+03  0.50400001928E-02 0.  1.
    10030    2    1    2    0    0  0.00000000000E+00  0.00000000000E+00  0.67653006569E+03  0.12066005963E+04  0.99909562569E+03 0.  0.
        2    1    3    3  502    0  0.15106775044E+03 -0.10224835280E+03  0.89990299135E+03  0.91820563313E+03  0.25500000920E-02 0. -1.
       -2    1    3    3    0  502 -0.15106775044E+03  0.10224835280E+03 -0.22337292565E+03  0.28839496319E+03  0.25500000920E-02 0.  1.
</event>
<event>
 5   0  0.2503680E-04  0.9997652E+03  0.7818609E-02  0.9308802E-01
       -2   -1    0    0    0  501  0.00000000000E+00  0.00000000000E+00  0.14037959014E+04  0.14037959014E+04  0.25500000920E-02 0.  1.
        2   -1    0    0  501    0  0.00000000000E+00  0.00000000000E+00 -0.17800493379E+03  0.17800493381E+03  0.25500000920E-02 0. -1.
    10030    2    1    2    0    0  0.00000000000E+00  0.00000000000E+00  0.12257909676E+04  0.15818008352E+04  0.99976516543E+03 0.  0.
        2    1    3    3  502    0  0.89359720372E+02  0.36326179291E+03  0.11374955265E+04  0.11974307340E+04  0.25500000920E-02 0.  1.
       -2    1    3    3    0  502 -0.89359720372E+02 -0.36326179291E+03  0.88295441119E+02  0.38437010126E+03  0.25500000920E-02 0. -1.
</event>
<event>
 5   0  0.2484904E-04  0.9997185E+03  0.7818609E-02  0.9308854E-01
       -2   -1    0    0    0  501  0.00000000000E+00  0.00000000000E+00  0.90948554453E+02  0.90948554489E+02  0.25500000920E-02 0.  1.
        2   -1    0    0  501    0  0.00000000000E+00  0.00000000000E+00 -0.27472593691E+04  0.27472593691E+04  0.25500000920E-02 0. -1.
    10030    2    1    2    0    0  0.00000000000E+00  0.00000000000E+00 -0.26563108146E+04  0.28382079235E+04  0.99971849713E+03 0.  0.
        3    1    3    3  502    0  0.50202859384E+02 -0.49728934208E+03 -0.13097037524E+04  0.14018348498E+04  0.10100000352E+00 0.  1.
       -3    1    3    3    0  502 -0.50202859384E+02  0.49728934208E+03 -0.13466070622E+04  0.14363730737E+04  0.10100000352E+00 0. -1.
</event>
<event>
 5   0  0.1430675E-04  0.1000521E+04  0.7818609E-02  0.9307973E-01
       -1   -1    0    0    0  501  0.00000000000E+00  0.00000000000E+00  0.12710358165E+03  0.12710358175E+03  0.50400001928E-02 0. -1.
        1   -1    0    0  501    0  0.00000000000E+00  0.00000000000E+00 -0.19689507846E+04  0.19689507846E+04  0.50400001928E-02 0.  1.
    10030    2    1    2    0    0  0.00000000000E+00  0.00000000000E+00 -0.18418472030E+04  0.20960543664E+04  0.10005212580E+04 0.  0.
        5    1    3    3  502    0  0.29748013464E+03  0.21615289170E+03 -0.16314281719E+04  0.16723625424E+04  0.46999998093E+01 0.  1.
       -5    1    3    3    0  502 -0.29748013464E+03 -0.21615289170E+03 -0.21041903109E+03  0.42369182402E+03  0.46999998093E+01 0. -1.
</event>
<event>
 5   0  0.1430675E-04  0.9997085E+03  0.7818609E-02  0.9308865E-01
       -1   -1    0    0    0  501  0.00000000000E+00  0.00000000000E+00  0.24830081013E+03  0.24830081018E+03  0.50400001928E-02 0.  1.
        1   -1    0    0  501    0  0.00000000000E+00  0.00000000000E+00 -0.10062563736E+04  0.10062563736E+04  0.50400001928E-02 0. -1.
    10030    2    1    2    0    0  0.00000000000E+00  0.00000000000E+00 -0.75795556350E+03  0.12545571838E+04  0.99970850313E+03 0.  0.
        5    1    3    3  502    0  0.12789515278E+03 -0.16286129946E+03 -0.94986597380E+03  0.97218744651E+03  0.46999998093E+01 0. -1.
       -5    1    3    3    0  502 -0.12789515278E+03  0.16286129946E+03  0.19191041030E+03  0.28236973731E+03  0.46999998093E+01 0.  1.
</event>
<event>
 5   0  0.2403037E-04  0.1000683E+04  0.7818609E-02  0.9307796E-01
        2   -1    0    0  501    0  0.00000000000E+00  0.00000000000E+00  0.12879781857E+04  0.12879781857E+04  0.25500000920E-02 0. -1.
       -2   -1    0    0    0  501  0.00000000000E+00  0.00000000000E+00 -0.19436800342E+03  0.19436800344E+03  0.25500000920E-02 0.  1.
    10030    2    1    2    0    0  0.00000000000E+00  0.00000000000E+00  0.10936101823E+04  0.14823461891E+04  0.10006832634E+04 0.  0.
        1    1    3    3  502    0  0.87048257933E+02  0.12244313931E+03  0.12537786938E+04  0.12627472964E+04  0.50400001928E-02 0. -1.
       -1    1    3    3    0  502 -0.87048257933E+02 -0.12244313931E+03 -0.16016851152E+03  0.21959889272E+03  0.50400001928E-02 0.  1.
</event>
<event>
 5   0  0.1414165E-04  0.9999969E+03  0.7818609E-02  0.9308548E-01
       -1   -1    0    0    0  501  0.00000000000E+00  0.00000000000E+00  0.72634872411E+03  0.72634872413E+03  0.50400001928E-02 0. -1.
        1   -1    0    0  501    0  0.00000000000E+00  0.00000000000E+00 -0.34418513420E+03  0.34418513424E+03  0.50400001928E-02 0.  1.
    10030    2    1    2    0    0  0.00000000000E+00  0.00000000000E+00  0.38216358991E+03  0.10705338584E+04  0.99999686622E+03 0.  0.
        4    1    3    3  502    0 -0.40635753882E+03  0.23807956743E+03  0.11344716599E+02  0.47110364601E+03  0.12699999809E+01 0.  1.
       -4    1    3    3    0  502  0.40635753882E+03 -0.23807956743E+03  0.37081887331E+03  0.59943021236E+03  0.12699999809E+01 0. -1.
</event>
<event>
 5   0  0.1461334E-04  0.1000774E+04  0.7818609E-02  0.9307697E-01
       -1   -1    0    0    0  501  0.00000000000E+00  0.00000000000E+00  0.41653758367E+03  0.41653758370E+03  0.50400001928E-02 0.  1.
        1   -1    0    0  501    0  0.00000000000E+00  0.00000000000E+00 -0.60111511174E+03  0.60111511176E+03  0.50400001928E-02 0. -1.
    10030    2    1    2    0    0  0.00000000000E+00  0.00000000000E+00 -0.18457752807E+03  0.10176526955E+04  0.10007737730E+04 0.  0.
        2    1    3    3  502    0 -0.27201626921E+03 -0.41061101978E+03 -0.18205432831E+03  0.52510764491E+03  0.25500000920E-02 0. -1.
       -2    1    3    3    0  502  0.27201626921E+03  0.41061101978E+03 -0.25231997618E+01  0.49254505055E+03  0.25500000920E-02 0.  1.
</event>
<event>
 5   0  0.2353916E-04  0.9999014E+03  0.7818609E-02  0.9308653E-01
       -2   -1    0    0    0  501  0.00000000000E+00  0.00000000000E+00  0.55809732037E+03  0.55809732037E+03  0.25500000920E-02 0. -1.
        2   -1    0    0  501    0  0.00000000000E+00  0.00000000000E+00 -0.44786225356E+03  0.44786225357E+03  0.25500000920E-02 0.  1.
    10030    2    1    2    0    0  0.00000000000E+00  0.00000000000E+00  0.11023506680E+03  0.10059595739E+04  0.99990144237E+03 0.  0.
        4    1    3    3  502    0 -0.24003641009E+03  0.40567111195E+03 -0.11251304999E+03  0.48461049159E+03  0.12699999809E+01 0. -1.
       -4    1    3    3    0  502  0.24003641009E+03 -0.40567111195E+03  0.22274811679E+03  0.52134908235E+03  0.12699999809E+01 0.  1.
</event>
<event>
 5   0  0.2503680E-04  0.9998482E+03  0.7818609E-02  0.9308711E-01
       -2   -1    0    0    0  501  0.00000000000E+00  0.00000000000E+00  0.12935045503E+04  0.12935045503E+04  0.25500000920E-02 0. -1.
        2   -1    0    0  501    0  0.00000000000E+00  0.00000000000E+00 -0.19321472681E+03  0.19321472682E+03  0.25500000920E-02 0.  1.
    10030    2    1    2    0    0  0.00000000000E+00  0.00000000000E+00  0.11002898235E+04  0.14867192772E+04  0.99984824514E+03 0.  0.
        2    1    3    3  502    0 -0.48458474525E+03 -0.75481402477E+01  0.73252935174E+03  0.87833854573E+03  0.25500000920E-02 0.  1.
       -2    1    3    3    0  502  0.48458474525E+03  0.75481402477E+01  0.36776047179E+03  0.60838073143E+03  0.25500000920E-02 0. -1.
</event>
<event>
 5   0  0.2484904E-04  0.9998168E+03  0.7818609E-02  0.9308746E-01
        2   -1    0    0  501    0  0.00000000000E+00  0.00000000000E+00  0.45023357389E+03  0.45023357389E+03  0.25500000920E-02 0. -1.
       -2   -1    0    0    0  501  0.00000000000E+00  0.00000000000E+00 -0.55506390406E+03  0.55506390406E+03  0.25500000920E-02 0.  1.
    10030    2    1    2    0    0  0.00000000000E+00  0.00000000000E+00 -0.10483033017E+03  0.10052974780E+04  0.99981679375E+03 0.  0.
        3    1    3    3  502    0  0.85432450421E+02  0.34703463943E+03 -0.40386898918E+03  0.53929761280E+03  0.10100000352E+00 0.  1.
       -3    1    3    3    0  502 -0.85432450421E+02 -0.34703463943E+03  0.29903865900E+03  0.46599986516E+03  0.10100000352E+00 0. -1.
</event>
<event>
 5   0  0.9650500E-05  0.9997649E+03  0.7818609E-02  0.9308803E-01
        4   -1    0    0  501    0  0.00000000000E+00  0.00000000000E+00  0.29526152672E+03  0.29526425802E+03  0.12699999809E+01 0. -1.
       -4   -1    0    0    0  501  0.00000000000E+00  0.00000000000E+00 -0.84630180642E+03  0.84630275933E+03  0.12699999809E+01 0.  1.
    10030    2    1    2    0    0  0.00000000000E+00  0.00000000000E+00 -0.55104027970E+03  0.11415670174E+04  0.99976490499E+03 0.  0.
        2    1    3    3  502    0 -0.43573748508E+03  0.23665199779E+03 -0.34783666698E+03  0.60569106883E+03  0.25500000920E-02 0. -1.
       -2    1    3    3    0  502  0.43573748508E+03 -0.23665199779E+03 -0.20320361273E+03  0.53587594852E+03  0.25500000920E-02 0.  1.
</event>
<event>
 5   0  0.2353916E-04  0.9999518E+03  0.7818609E-02  0.9308598E-01
        2   -1    0    0  501    0  0.00000000000E+00  0.00000000000E+00  0.16137985834E+04  0.16137985834E+04  0.25500000920E-02 0. -1.
       -2   -1    0    0    0  501  0.00000000000E+00  0.00000000000E+00 -0.15489905950E+03  0.15489905952E+03  0.25500000920E-02 0.  1.
    10030    2    1    2    0    0  0.00000000000E+00  0.00000000000E+00  0.14588995239E+04  0.17686976429E+04  0.99995176445E+03 0.  0.
        4    1    3    3  502    0  0.46636165411E+03  0.13063801702E+03  0.50984421991E+03  0.70320852198E+03  0.12699999809E+01 0.  1.
       -4    1    3    3    0  502 -0.46636165411E+03 -0.13063801702E+03  0.94905530395E+03  0.10654891209E+04  0.12699999809E+01 0. -1.
</event>
<event>
 5   0  0.2484904E-04  0.1000297E+04  0.7818609E-02  0.9308219E-01
       -2   -1    0    0    0  501  0.00000000000E+00  0.00000000000E+00  0.74896807662E+03  0.74896807662E+03  0.25500000920E-02 0.  1.
        2   -1    0    0  501    0  0.00000000000E+00  0.00000000000E+00 -0.33399100491E+03  0.33399100492E+03  0.25500000920E-02 0. -1.
    10030    2    1    2    0    0  0.00000000000E+00  0.00000000000E+00  0.41497707171E+03  0.10829590815E+04  0.10002971570E+04 0.  0.
        3    1    3    3  502    0  0.80129052739E+02 -0.33109029035E+03 -0.18898022316E+03  0.38955741606E+03  0.10100000352E+00 0. -1.
       -3    1    3    3    0  502 -0.80129052739E+02  0.33109029035E+03  0.60395729488E+03  0.69340166548E+03  0.10100000352E+00 0.  1.
</event>
<event>
 5   0  0.1506454E-04  0.9993836E+03  0.7818609E-02  0.9309221E-01
        1   -1    0    0  501    0  0.00000000000E+00  0.00000000000E+00  0.14703212171E+04  0.14703212171E+04  0.50400001928E-02 0. -1.
       -1   -1    0    0    0  501  0.00000000000E+00  0.00000000000E+00 -0.16982132924E+03  0.16982132932E+03  0.50400001928E-02 0.  1.
    10030    2    1    2    0    0  0.00000000000E+00  0.00000000000E+00  0.13004998878E+04  0.16401425464E+04  0.99938361716E+03 0.  0.
        3    1    3    3  502    0  0.86871342211E+02  0.48477983624E+03  0.78886456153E+03  0.92998141183E+03  0.10100000352E+00 0. -1.
       -3    1    3    3    0  502 -0.86871342211E+02 -0.48477983624E+03  0.51163532628E+03  0.71016113455E+03  0.10100000352E+00 0.  1.
</event>
<event>
 5   0  0.2403037E-04  0.9999717E+03  0.7818609E-02  0.9308576E-01
       -2   -1    0    0    0  501  0.00000000000E+00  0.00000000000E+00  0.47466862180E+03  0.47466862180E+03  0.25500000920E-02 0. -1.
        2   -1    0    0  501    0  0.00000000000E+00  0.00000000000E+00 -0.52665341761E+03  0.52665341762E+03  0.25500000920E-02 0.  1.
    10030    2    1    2    0    0  0.00000000000E+00  0.00000000000E+00 -0.51984795814E+02  0.10013220394E+04  0.99997170342E+03 0.  0.
        1    1    3    3  502    0 -0.18261367386E+03  0.15701210299E+03 -0.46474534843E+03  0.52343938836E+03  0.50400001928E-02 0.  1.
       -1    1    3    3    0  502  0.18261367386E+03 -0.15701210299E+03  0.41276055262E+03  0.47788265107E+03  0.50400001928E-02 0. -1.
</event>
<event>
 5   0  0.1461334E-04  0.9999474E+03  0.7818609E-02  0.9308602E-01
        1   -1    0    0  501    0  0.00000000000E+00  0.00000000000E+00  0.35499872316E+03  0.35499872319E+03  0.50400001928E-02 0.  1.
       -1   -1    0    0    0  501  0.00000000000E+00  0.00000000000E+00 -0.70415386683E+03  0.70415386684E+03  0.50400001928E-02 0. -1.
    10030    2    1    2    0    0  0.00000000000E+00  0.00000000000E+00 -0.34915514367E+03  0.10591525900E+04  0.99994744594E+03 0.  0.
        2    1    3    3  502    0 -0.48620751520E+03  0.19323925508E+02 -0.52872000243E+02  0.48945542223E+03  0.25500000920E-02 0. -1.
       -2    1    3    3    0  502  0.48620751520E+03 -0.19323925508E+02 -0.29628314342E+03  0.56969716781E+03  0.25500000920E-02 0.  1.
</event>
<event>
 5   0  0.1453863E-04  0.9994955E+03  0.7818609E-02  0.9309098E-01
        1   -1    0    0  501    0  0.00000000000E+00  0.00000000000E+00  0.40794178277E+03  0.40794178281E+03  0.50400001928E-02 0. -1.
       -1   -1    0    0    0  501  0.00000000000E+00  0.00000000000E+00 -0.61221431434E+03  0.61221431436E+03  0.50400001928E-02 0.  1.
    10030    2    1    2    0    0  0.00000000000E+00  0.00000000000E+00 -0.20427253157E+03  0.10201560972E+04  0.99949547044E+03 0.  0.
        1    1    3    3  502    0 -0.33512614971E+03 -0.31830045106E+03  0.91853231945E+02  0.47123426192E+03  0.50400001928E-02 0. -1.
       -1    1    3    3    0  502  0.33512614971E+03  0.31830045106E+03 -0.29612576351E+03  0.54892183524E+03  0.50400001928E-02 0.  1.
</event>
<event>
 5   0  0.2353916E-04  0.9998997E+03  0.7818609E-02  0.9308655E-01
        2   -1    0    0  501    0  0.00000000000E+00  0.00000000000E+00  0.19126303330E+03  0.19126303331E+03  0.25500000920E-02 0.  1.
       -2   -1    0    0    0  501  0.00000000000E+00  0.00000000000E+00 -0.13068383535E+04  0.13068383535E+04  0.25500000920E-02 0. -1.
    10030    2    1    2    0    0  0.00000000000E+00  0.00000000000E+00 -0.11155753203E+04  0.14981013869E+04  0.99989973005E+03 0.  0.
        4    1    3    3  502    0 -0.17296460817E+03 -0.78678564100E+02  0.13504831262E+03  0.23312385500E+03  0.12699999809E+01 0.  1.
       -4    1    3    3    0  502  0.17296460817E+03  0.78678564100E+02 -0.12506236329E+04  0.12649775319E+04  0.12699999809E+01 0. -1.
</event>
<event>
 5   0  0.2353916E-04  0.1001551E+04  0.7818609E-02  0.9306845E-01
       -2   -1    0    0    0  501  0.00000000000E+00  0.00000000000E+00  0.46592550037E+03  0.46592550038E+03  0.25500000920E-02 0.  1.
        2   -1    0    0  501    0  0.00000000000E+00  0.00000000000E+00 -0.53823246161E+03  0.53823246162E+03  0.25500000920E-02 0. -1.
    10030    2    1    2    0    0  0.00000000000E+00  0.00000000000E+00 -0.72306961239E+02  0.10041579620E+04  0.10015512548E+04 0.  0.
        4    1    3    3  502    0 -0.41099445292E+03  0.15111499156E+03 -0.27973112065E+03  0.51961841169E+03  0.12699999809E+01 0. -1.
       -4    1    3    3    0  502  0.41099445292E+03 -0.15111499156E+03  0.20742415941E+03  0.48453955031E+03  0.12699999809E+01 0.  1.
</event>
<event>
 5   0  0.2353916E-04  0.1000051E+04  0.7818609E-02  0.9308489E-01
        2   -1    0    0  501    0  0.00000000000E+00  0.00000000000E+00  0.25444515000E+04  0.25444515000E+04  0.25500000920E-02 0. -1.
       -2   -1    0    0    0  501  0.00000000000E+00  0.00000000000E+00 -0.98263083219E+02  0.98263083252E+02  0.25500000920E-02 0.  1.
    10030    2    1    2    0    0  0.00000000000E+00  0.00000000000E+00  0.24461884168E+04  0.26427145833E+04  0.10000512978E+04 0.  0.
        4    1    3    3  502    0 -0.43228304792E+02  0.25458068338E+03  0.23546119433E+04  0.23687294120E+04  0.12699999809E+01 0. -1.
       -4    1    3    3    0  502  0.43228304792E+02 -0.25458068338E+03  0.91576473477E+02  0.27398517128E+03  0.12699999809E+01 0.  1.
</event>
<event>
 5   0  0.9650500E-05  0.1000240E+04  0.7818609E-02  0.9308282E-01
       -3   -1    0    0    0  501  0.00000000000E+00  0.00000000000E+00  0.33092370649E+03  0.33092372190E+03  0.10100000352E+00 0.  1.
        3   -1    0    0  501    0  0.00000000000E+00  0.00000000000E+00 -0.75582304646E+03  0.75582305321E+03  0.10100000352E+00 0. -1.
    10030    2    1    2    0    0  0.00000000000E+00  0.00000000000E+00 -0.42489933997E+03  0.10867467751E+04  0.10002395234E+04 0.  0.
        2    1    3    3  502    0  0.16297488508E+03  0.45984665958E+03 -0.33196325081E+03  0.59010114675E+03  0.25500000920E-02 0. -1.
       -2    1    3    3    0  502 -0.16297488508E+03 -0.45984665958E+03 -0.92936089154E+02  0.49664562836E+03  0.25500000920E-02 0.  1.
</event>
<event>
 5   0  0.1453863E-04  0.1002532E+04  0.7818609E-02  0.9305772E-01
        1   -1    0    0  501    0  0.00000000000E+00  0.00000000000E+00  0.45662479080E+03  0.45662479083E+03  0.50400001928E-02 0.  1.
       -1   -1    0    0    0  501  0.00000000000E+00  0.00000000000E+00 -0.55027160151E+03  0.55027160153E+03  0.50400001928E-02 0. -1.
    10030    2    1    2    0    0  0.00000000000E+00  0.00000000000E+00 -0.93646810709E+02  0.10068963924E+04  0.10025321041E+04 0.  0.
        1    1    3    3  502    0  0.20737132304E+03 -0.15588983056E+03 -0.47759981732E+03  0.54351273253E+03  0.50400001928E-02 0. -1.
       -1    1    3    3    0  502 -0.20737132304E+03  0.15588983056E+03  0.38395300661E+03  0.46338365984E+03  0.50400001928E-02 0.  1.
</event>
<event>
 5   0  0.9650500E-05  0.9999623E+03  0.7818609E-02  0.9308586E-01
        3   -1    0    0  501    0  0.00000000000E+00  0.00000000000E+00  0.10783221318E+04  0.10783221365E+04  0.10100000352E+00 0. -1.
       -3   -1    0    0    0  501  0.00000000000E+00  0.00000000000E+00 -0.23182417181E+03  0.23182419382E+03  0.10100000352E+00 0.  1.
    10030    2    1    2    0    0  0.00000000000E+00  0.00000000000E+00  0.84649795997E+03  0.13101463303E+04  0.99996230461E+03 0.  0.
        4    1    3    3  502    0 -0.16908531744E+03 -0.46690256372E+03  0.49955245675E+03  0.70437356461E+03  0.12699999809E+01 0. -1.
       -4    1    3    3    0  502  0.16908531744E+03  0.46690256372E+03  0.34694550322E+03  0.60577276571E+03  0.12699999809E+01 0.  1.
</event>
<event>
 5   0  0.2484904E-04  0.9997383E+03  0.7818609E-02  0.9308832E-01
       -2   -1    0    0    0  501  0.00000000000E+00  0.00000000000E+00  0.41395307824E+03  0.41395307825E+03  0.25500000920E-02 0. -1.
        2   -1    0    0  501    0  0.00000000000E+00  0.00000000000E+00 -0.60361707532E+03  0.60361707533E+03  0.25500000920E-02 0.  1.
    10030    2    1    2    0    0  0.00000000000E+00  0.00000000000E+00 -0.18966399708E+03  0.10175701536E+04  0.99973825858E+03 0.  0.
        3    1    3    3  502    0  0.62337753317E+02 -0.46096622296E+03  0.91444000392E+02  0.47406525881E+03  0.10100000352E+00 0. -1.
       -3    1    3    3    0  502 -0.62337753317E+02  0.46096622296E+03 -0.28110799747E+03  0.54350489477E+03  0.10100000352E+00 0.  1.
</event>
<event>
 5   0  0.9650500E-05  0.9997039E+03  0.7818609E-02  0.9308870E-01
       -3   -1    0    0    0  501  0.00000000000E+00  0.00000000000E+00  0.46117333031E+03  0.46117334137E+03  0.10100000352E+00 0.  1.
        3   -1    0    0  501    0  0.00000000000E+00  0.00000000000E+00 -0.54177447777E+03  0.54177448719E+03  0.10100000352E+00 0. -1.
    10030    2    1    2    0    0  0.00000000000E+00  0.00000000000E+00 -0.80601147464E+02  0.10029478286E+04  0.99970385706E+03 0.  0.
        3    1    3    3  502    0  0.98510622911E+02  0.41450141613E+03 -0.30256072233E+03  0.52255025375E+03  0.10100000352E+00 0. -1.
       -3    1    3    3    0  502 -0.98510622911E+02 -0.41450141613E+03  0.22195957487E+03  0.48039757480E+03  0.10100000352E+00 0.  1.
</event>
<event>
 5   0  0.2403037E-04  0.9992467E+03  0.7818609E-02  0.9309371E-01
       -2   -1    0    0    0  501  0.00000000000E+00  0.00000000000E+00  0.21260052603E+03  0.21260052605E+03  0.25500000920E-02 0.  1.
        2   -1    0    0  501    0  0.00000000000E+00  0.00000000000E+00 -0.11741432728E+04  0.11741432728E+04  0.25500000920E-02 0. -1.
    10030    2    1    2    0    0  0.00000000000E+00  0.00000000000E+00 -0.96154274673E+03  0.13867437988E+04  0.99924667112E+03 0.  0.
        1    1    3    3  502    0 -0.41794201610E+03 -0.27336525659E+03 -0.50132682695E+03  0.70762467437E+03  0.50400001928E-02 0. -1.
       -1    1    3    3    0  502  0.41794201610E+03  0.27336525659E+03 -0.46021591979E+03  0.67911912444E+03  0.50400001928E-02 0.  1.
</event>
<event>
 5   0  0.9650500E-05  0.9985388E+03  0.7818609E-02  0.9310149E-01
       -4   -1    0    0    0  501  0.00000000000E+00  0.00000000000E+00  0.25761604209E+03  0.25761917250E+03  0.12699999809E+01 0. -1.
        4   -1    0    0  501    0  0.00000000000E+00  0.00000000000E+00 -0.96759310282E+03  0.96759393628E+03  0.12699999809E+01 0.  1.
    10030    2    1    2    0    0  0.00000000000E+00  0.00000000000E+00 -0.70997706074E+03  0.12252131088E+04  0.99853880003E+03 0.  0.
        4    1    3    3  502    0 -0.42998540764E+03 -0.14436810330E+03 -0.61101479660E+03  0.76096668429E+03  0.12699999809E+01 0.  1.
       -4    1    3    3    0  502  0.42998540764E+03  0.14436810330E+03 -0.98962264138E+02  0.46424642450E+03  0.12699999809E+01 0. -1.
</event>
<event>
 5   0  0.1453863E-04  0.1000995E+04  0.7818609E-02  0.9307454E-01
        1   -1    0    0  501    0  0.00000000000E+00  0.00000000000E+00  0.13229001459E+04  0.13229001459E+04  0.50400001928E-02 0.  1.
       -1   -1    0    0    0  501  0.00000000000E+00  0.00000000000E+00 -0.18935516607E+03  0.18935516613E+03  0.50400001928E-02 0. -1.
    10030    2    1    2    0    0  0.00000000000E+00  0.00000000000E+00  0.11335449798E+04  0.15122553120E+04  0.10009954583E+04 0.  0.
        1    1    3    3  502    0  0.28197729898E+03  0.40203472563E+03  0.42065182596E+03  0.64659962609E+03  0.50400001928E-02 0.  1.
       -1    1    3    3    0  502 -0.28197729898E+03 -0.40203472563E+03  0.71289315383E+03  0.86565568591E+03  0.50400001928E-02 0. -1.
</event>
<event>
 5   0  0.1461334E-04  0.9998951E+03  0.7818609E-02  0.9308660E-01
        1   -1    0    0  501    0  0.00000000000E+00  0.00000000000E+00  0.29784367259E+03  0.29784367263E+03  0.50400001928E-02 0.  1.
       -1   -1    0    0    0  501  0.00000000000E+00  0.00000000000E+00 -0.83919042069E+03  0.83919042070E+03  0.50400001928E-02 0. -1.
    10030    2    1    2    0    0  0.00000000000E+00  0.00000000000E+00 -0.54134674810E+03  0.11370340933E+04  0.99989510836E+03 0.  0.
        2    1    3    3  502    0  0.28597765156E+03  0.36229579664E+03 -0.52215303478E+02  0.46450823392E+03  0.25500000920E-02 0.  1.
       -2    1    3    3    0  502 -0.28597765156E+03 -0.36229579664E+03 -0.48913144462E+03  0.67252585941E+03  0.25500000920E-02 0. -1.
</event>
<event>
 5   0  0.2484904E-04  0.1000216E+04  0.7818609E-02  0.9308308E-01
       -2   -1    0    0    0  501  0.00000000000E+00  0.00000000000E+00  0.19041893299E+03  0.19041893301E+03  0.25500000920E-02 0. -1.
        2   -1    0    0  501    0  0.00000000000E+00  0.00000000000E+00 -0.13134621272E+04  0.13134621272E+04  0.25500000920E-02 0.  1.
    10030    2    1    2    0    0  0.00000000000E+00  0.00000000000E+00 -0.11230431942E+04  0.15038810602E+04  0.10002160903E+04 0.  0.
        3    1    3    3  502    0  0.41496867564E+03  0.63211534009E+02 -0.15274964685E+03  0.44668463664E+03  0.10100000352E+00 0. -1.
       -3    1    3    3    0  502 -0.41496867564E+03 -0.63211534009E+02 -0.97029354739E+03  0.10571964236E+04  0.10100000352E+00 0.  1.
</event>
<event>
 5   0  0.1461334E-04  0.9995359E+03  0.7818609E-02  0.9309054E-01
        1   -1    0    0  501    0  0.00000000000E+00  0.00000000000E+00  0.69570183398E+03  0.69570183400E+03  0.50400001928E-02 0. -1.
       -1   -1    0    0    0  501  0.00000000000E+00  0.00000000000E+00 -0.35901585796E+03  0.35901585800E+03  0.50400001928E-02 0.  1.
    10030    2    1    2    0    0  0.00000000000E+00  0.00000000000E+00  0.33668597602E+03  0.10547176920E+04  0.99953587398E+03 0.  0.
        2    1    3    3  502    0  0.37412418178E+03 -0.32571852530E+03  0.10410061301E+03  0.50685145630E+03  0.25500000920E-02 0.  1.
       -2    1    3    3    0  502 -0.37412418178E+03  0.32571852530E+03  0.23258536301E+03  0.54786623569E+03  0.25500000920E-02 0. -1.
</event>
<event>
 5   0  0.2353916E-04  0.1000637E+04  0.7818609E-02  0.9307847E-01
        2   -1    0    0  501    0  0.00000000000E+00  0.00000000000E+00  0.47518753640E+03  0.47518753640E+03  0.25500000920E-02 0. -1.
       -2   -1    0    0    0  501  0.00000000000E+00  0.00000000000E+00 -0.52677835925E+03  0.52677835925E+03  0.25500000920E-02 0.  1.
    10030    2    1    2    0    0  0.00000000000E+00  0.00000000000E+00 -0.51590822850E+02  0.10019658957E+04  0.10006368188E+04 0.  0.
        4    1    3    3  502    0  0.33799083090E+03 -0.27861380016E+00  0.34358345545E+03  0.48196377785E+03  0.12699999809E+01 0. -1.
       -4    1    3    3    0  502 -0.33799083090E+03  0.27861380016E+00 -0.39517427830E+03  0.52000211781E+03  0.12699999809E+01 0.  1.
</event>
<event>
 5   0  0.1506454E-04  0.9991981E+03  0.7818609E-02  0.9309425E-01
       -1   -1    0    0    0  501  0.00000000000E+00  0.00000000000E+00  0.43763493144E+03  0.43763493147E+03  0.50400001928E-02 0.  1.
        1   -1    0    0  501    0  0.00000000000E+00  0.00000000000E+00 -0.57033661672E+03  0.57033661674E+03  0.50400001928E-02 0. -1.
    10030    2    1    2    0    0  0.00000000000E+00  0.00000000000E+00 -0.13270168527E+03  0.10079715482E+04  0.99919813087E+03 0.  0.
        3    1    3    3  502    0 -0.35604683228E+03 -0.33090505744E+03 -0.18282769473E+03  0.51932020948E+03  0.10100000352E+00 0. -1.
       -3    1    3    3    0  502  0.35604683228E+03  0.33090505744E+03  0.50126009463E+02  0.48865133873E+03  0.10100000352E+00 0.  1.
</event>
<event>
 5   0  0.1453863E-04  0.9989964E+03  0.7818609E-02  0.9309646E-01
       -1   -1    0    0    0  501  0.00000000000E+00  0.00000000000E+00  0.42003090602E+03  0.42003090605E+03  0.50400001928E-02 0.  1.
        1   -1    0    0  501    0  0.00000000000E+00  0.00000000000E+00 -0.59400025814E+03  0.59400025816E+03  0.50400001928E-02 0. -1.
    10030    2    1    2    0    0  0.00000000000E+00  0.00000000000E+00 -0.17396935212E+03  0.10140311642E+04  0.99899642968E+03 0.  0.
        1    1    3    3  502    0  0.36366246103E+03  0.28090123334E+03 -0.28574423390E+03  0.54111519632E+03  0.50400001928E-02 0. -1.
       -1    1    3    3    0  502 -0.36366246103E+03 -0.28090123334E+03  0.11177488178E+03  0.47291596789E+03  0.50400001928E-02 0.  1.
</event>
<event>
 5   0  0.2353916E-04  0.9980837E+03  0.7818609E-02  0.9310649E-01
       -2   -1    0    0    0  501  0.00000000000E+00  0.00000000000E+00  0.19170881363E+03  0.19170881364E+03  0.25500000920E-02 0.  1.
        2   -1    0    0  501    0  0.00000000000E+00  0.00000000000E+00 -0.12990680098E+04  0.12990680098E+04  0.25500000920E-02 0. -1.
    10030    2    1    2    0    0  0.00000000000E+00  0.00000000000E+00 -0.11073591962E+04  0.14907768235E+04  0.99808373796E+03 0.  0.
        4    1    3    3  502    0 -0.18937668417E+03  0.38840107628E+02 -0.12408657131E+04  0.12558349467E+04  0.12699999809E+01 0. -1.
       -4    1    3    3    0  502  0.18937668417E+03 -0.38840107628E+02  0.13350651696E+03  0.23494187672E+03  0.12699999809E+01 0.  1.
</event>
<event>
 5   0  0.2473312E-04  0.9998577E+03  0.7818609E-02  0.9308701E-01
        2   -1    0    0  501    0  0.00000000000E+00  0.00000000000E+00  0.81557032839E+03  0.81557032839E+03  0.25500000920E-02 0.  1.
       -2   -1    0    0    0  501  0.00000000000E+00  0.00000000000E+00 -0.30644670323E+03  0.30644670324E+03  0.25500000920E-02 0. -1.
    10030    2    1    2    0    0  0.00000000000E+00  0.00000000000E+00  0.50912362516E+03  0.11220170316E+04  0.99985766666E+03 0.  0.
        5    1    3    3  502    0  0.43848594500E+03  0.13290203976E+03  0.47892385172E+03  0.66281447018E+03  0.46999998093E+01 0. -1.
       -5    1    3    3    0  502 -0.43848594500E+03 -0.13290203976E+03  0.30199773433E+02  0.45920256145E+03  0.46999998093E+01 0.  1.
</event>
<event>
 5   0  0.1461334E-04  0.1000033E+04  0.7818609E-02  0.9308509E-01
       -1   -1    0    0    0  501  0.00000000000E+00  0.00000000000E+00  0.64141970826E+03  0.64141970828E+03  0.50400001928E-02 0. -1.
        1   -1    0    0  501    0  0.00000000000E+00  0.00000000000E+00 -0.38978608572E+03  0.38978608575E+03  0.50400001928E-02 0.  1.
    10030    2    1    2    0    0  0.00000000000E+00  0.00000000000E+00  0.25163362254E+03  0.10312057940E+04  0.10000329543E+04 0.  0.
        2    1    3    3  502    0 -0.31296795086E+03  0.26535839528E+03 -0.16883944920E+03  0.44370122360E+03  0.25500000920E-02 0.  1.
       -2    1    3    3    0  502  0.31296795086E+03 -0.26535839528E+03  0.42047307174E+03  0.58750457043E+03  0.25500000920E-02 0. -1.
</event>
<event>
 5   0  0.1461334E-04  0.1001946E+04  0.7818609E-02  0.9306413E-01
        1   -1    0    0  501    0  0.00000000000E+00  0.00000000000E+00  0.84374627669E+03  0.84374627670E+03  0.50400001928E-02 0.  1.
       -1   -1    0    0    0  501  0.00000000000E+00  0.00000000000E+00 -0.29745195931E+03  0.29745195935E+03  0.50400001928E-02 0. -1.
    10030    2    1    2    0    0  0.00000000000E+00  0.00000000000E+00  0.54629431738E+03  0.11411982361E+04  0.10019460728E+04 0.  0.
        2    1    3    3  502    0 -0.79152530283E+02 -0.31049010018E+03 -0.16547875548E+03  0.36062784679E+03  0.25500000920E-02 0. -1.
       -2    1    3    3    0  502  0.79152530283E+02  0.31049010018E+03  0.71177307285E+03  0.78057038927E+03  0.25500000920E-02 0.  1.
</event>
<event>
 5   0  0.1453863E-04  0.1000188E+04  0.7818609E-02  0.9308339E-01
       -1   -1    0    0    0  501  0.00000000000E+00  0.00000000000E+00  0.25570910440E+03  0.25570910445E+03  0.50400001928E-02 0. -1.
        1   -1    0    0  501    0  0.00000000000E+00  0.00000000000E+00 -0.97804128908E+03  0.97804128909E+03  0.50400001928E-02 0.  1.
    10030    2    1    2    0    0  0.00000000000E+00  0.00000000000E+00 -0.72233218467E+03  0.12337503935E+04  0.10001881066E+04 0.  0.
        1    1    3    3  502    0 -0.49578287489E+03 -0.51254208737E+02 -0.31081180644E+03  0.58739393255E+03  0.50400001928E-02 0.  1.
       -1    1    3    3    0  502  0.49578287489E+03  0.51254208737E+02 -0.41152037824E+03  0.64635646100E+03  0.50400001928E-02 0. -1.
</event>
<event>
 5   0  0.1430675E-04  0.1000208E+04  0.7818609E-02  0.9308317E-01
       -1   -1    0    0    0  501  0.00000000000E+00  0.00000000000E+00  0.38234407359E+03  0.38234407363E+03  0.50400001928E-02 0. -1.
        1   -1    0    0  501    0  0.00000000000E+00  0.00000000000E+00 -0.65413320505E+03  0.65413320507E+03  0.50400001928E-02 0.  1.
    10030    2    1    2    0    0  0.00000000000E+00  0.00000000000E+00 -0.27178913145E+03  0.10364772787E+04  0.10002078870E+04 0.  0.
        5    1    3    3  502    0  0.24367073374E+03  0.48816457686E+02 -0.58559327847E+03  0.63616039708E+03  0.46999998093E+01 0.  1.
       -5    1    3    3    0  502 -0.24367073374E+03 -0.48816457686E+02  0.31380414702E+03  0.40031688162E+03  0.46999998093E+01 0. -1.
</event>
<event>
 5   0  0.1506454E-04  0.9996473E+03  0.7818609E-02  0.9308932E-01
       -1   -1    0    0    0  501  0.00000000000E+00  0.00000000000E+00  0.30055991648E+03  0.30055991652E+03  0.50400001928E-02 0. -1.
        1   -1    0    0  501    0  0.00000000000E+00  0.00000000000E+00 -0.83119421890E+03  0.83119421891E+03  0.50400001928E-02 0.  1.
    10030    2    1    2    0    0  0.00000000000E+00  0.00000000000E+00 -0.53063430242E+03  0.11317541354E+04  0.99964726787E+03 0.  0.
        3    1    3    3  502    0  0.82699146496E+02  0.31479902858E+03  0.16413491203E+03  0.36452415115E+03  0.10100000352E+00 0. -1.
       -3    1    3    3    0  502 -0.82699146496E+02 -0.31479902858E+03 -0.69476921445E+03  0.76722998428E+03  0.10100000352E+00 0.  1.
</event>
<event>
 5   0  0.2403037E-04  0.1000146E+04  0.7818609E-02  0.9308384E-01
        2   -1    0    0  501    0  0.00000000000E+00  0.00000000000E+00  0.18619210772E+03  0.18619210774E+03  0.25500000920E-02 0. -1.
       -2   -1    0    0    0  501  0.00000000000E+00  0.00000000000E+00 -0.13430919513E+04  0.13430919513E+04  0.25500000920E-02 0.  1.
    10030    2    1    2    0    0  0.00000000000E+00  0.00000000000E+00 -0.11568998436E+04  0.15292840591E+04  0.10001462319E+04 0.  0.
        1    1    3    3  502    0 -0.20254114429E+03 -0.41994008564E+03 -0.30194551431E+03  0.55546708660E+03  0.50400001928E-02 0. -1.
       -1    1    3    3    0  502  0.20254114429E+03  0.41994008564E+03 -0.85495432929E+03  0.97381697246E+03  0.50400001928E-02 0.  1.
</event>
<event>
 5   0  0.1506454E-04  0.1000153E+04  0.7818609E-02  0.9308377E-01
       -1   -1    0    0    0  501  0.00000000000E+00  0.00000000000E+00  0.16635206559E+03  0.16635206567E+03  0.50400001928E-02 0. -1.
        1   -1    0    0  501    0  0.00000000000E+00  0.00000000000E+00 -0.15032974474E+04  0.15032974474E+04  0.50400001928E-02 0.  1.
    10030    2    1    2    0    0  0.00000000000E+00  0.00000000000E+00 -0.13369453818E+04  0.16696495130E+04  0.10001532595E+04 0.  0.
        3    1    3    3  502    0  0.18491556922E+03 -0.18399286285E+03 -0.13807180524E+04  0.14051439399E+04  0.10100000352E+00 0.  1.
       -3    1    3    3    0  502 -0.18491556922E+03  0.18399286285E+03  0.43772670673E+02  0.26450557313E+03  0.10100000352E+00 0. -1.
</event>
<event>
 5   0  0.1453863E-04  0.1000963E+04  0.7818609E-02  0.9307489E-01
       -1   -1    0    0    0  501  0.00000000000E+00  0.00000000000E+00  0.15478065094E+03  0.15478065102E+03  0.50400001928E-02 0. -1.
        1   -1    0    0  501    0  0.00000000000E+00  0.00000000000E+00 -0.16183020831E+04  0.16183020831E+04  0.50400001928E-02 0.  1.
    10030    2    1    2    0    0  0.00000000000E+00  0.00000000000E+00 -0.14635214322E+04  0.17730827341E+04  0.10009632359E+04 0.  0.
        1    1    3    3  502    0 -0.17561966559E+03  0.30419896607E+03 -0.10023935731E+03  0.36527689043E+03  0.50400001928E-02 0. -1.
       -1    1    3    3    0  502  0.17561966559E+03 -0.30419896607E+03 -0.13632820749E+04  0.14078058437E+04  0.50400001928E-02 0.  1.
</event>
<event>
 5   0  0.1453863E-04  0.9999258E+03  0.7818609E-02  0.9308626E-01
       -1   -1    0    0    0  501  0.00000000000E+00  0.00000000000E+00  0.16643744189E+03  0.16643744196E+03  0.50400001928E-02 0.  1.
        1   -1    0    0  501    0  0.00000000000E+00  0.00000000000E+00 -0.15018428732E+04  0.15018428732E+04  0.50400001928E-02 0. -1.
    10030    2    1    2    0    0  0.00000000000E+00  0.00000000000E+00 -0.13354054313E+04  0.16682803152E+04  0.99992576926E+03 0.  0.
        1    1    3    3  502    0 -0.78102704507E+02  0.46394755858E+03 -0.94993198962E+03  0.10600557318E+04  0.50400001928E-02 0.  1.
       -1    1    3    3    0  502  0.78102704507E+02 -0.46394755858E+03 -0.38547344172E+03  0.60822458341E+03  0.50400001928E-02 0. -1.
</event>
<event>
 5   0  0.1461334E-04  0.9995563E+03  0.7818609E-02  0.9309032E-01
        1   -1    0    0  501    0  0.00000000000E+00  0.00000000000E+00  0.13511870549E+04  0.13511870549E+04  0.50400001928E-02 0. -1.
       -1   -1    0    0    0  501  0.00000000000E+00  0.00000000000E+00 -0.18485832386E+03  0.18485832393E+03  0.50400001928E-02 0.  1.
    10030    2    1    2    0    0  0.00000000000E+00  0.00000000000E+00  0.11663287310E+04  0.15360453788E+04  0.99955625003E+03 0.  0.
        2    1    3    3  502    0  0.28599590507E+03 -0.42474484703E+01  0.12129722772E+04  0.12462397216E+04  0.25500000920E-02 0. -1.
       -2    1    3    3    0  502 -0.28599590507E+03  0.42474484703E+01 -0.46643546159E+02  0.28980565719E+03  0.25500000920E-02 0.  1.
</event>
<event>
 5   0  0.1506454E-04  0.1000025E+04  0.7818609E-02  0.9308518E-01
        1   -1    0    0  501    0  0.00000000000E+00  0.00000000000E+00  0.12485846518E+04  0.12485846518E+04  0.50400001928E-02 0. -1.
       -1   -1    0    0    0  501  0.00000000000E+00  0.00000000000E+00 -0.20023653389E+03  0.20023653396E+03  0.50400001928E-02 0.  1.
    10030    2    1    2    0    0  0.00000000000E+00  0.00000000000E+00  0.10483481179E+04  0.14488211857E+04  0.10000245257E+04 0.  0.
        3    1    3    3  502    0 -0.33015238567E+03 -0.16619034533E+03  0.36312997165E+02  0.37140069010E+03  0.10100000352E+00 0.  1.
       -3    1    3    3    0  502  0.33015238567E+03  0.16619034533E+03  0.10120351207E+04  0.10774204956E+04  0.10100000352E+00 0. -1.
</event>
<event>
 5   0  0.2403037E-04  0.9987313E+03  0.7818609E-02  0.9309937E-01
        2   -1    0    0  501    0  0.00000000000E+00  0.00000000000E+00  0.10436242908E+04  0.10436242908E+04  0.25500000920E-02 0.  1.
       -2   -1    0    0    0  501  0.00000000000E+00  0.00000000000E+00 -0.23894235296E+03  0.23894235297E+03  0.25500000920E-02 0. -1.
    10030    2    1    2    0    0  0.00000000000E+00  0.00000000000E+00  0.80468193787E+03  0.12825666438E+04  0.99873128251E+03 0.  0.
        1    1    3    3  502    0 -0.27693440579E+03 -0.37926909592E+03  0.18429852522E+03  0.50448355637E+03  0.50400001928E-02 0. -1.
       -1    1    3    3    0  502  0.27693440579E+03  0.37926909592E+03  0.62038341266E+03  0.77808308743E+03  0.50400001928E-02 0.  1.
</event>
<event>
 5   0  0.2484904E-04  0.9996700E+03  0.7818609E-02  0.9308907E-01
       -2   -1    0    0    0  501  0.00000000000E+00  0.00000000000E+00  0.29939906608E+03  0.29939906609E+03  0.25500000920E-02 0. -1.
        2   -1    0    0  501    0  0.00000000000E+00  0.00000000000E+00 -0.83445485619E+03  0.83445485620E+03  0.25500000920E-02 0.  1.
    10030    2    1    2    0    0  0.00000000000E+00  0.00000000000E+00 -0.53505579011E+03  0.11338539223E+04  0.99966995482E+03 0.  0.
        3    1    3    3  502    0  0.55618150745E+02  0.48748456539E+03 -0.15932695145E+03  0.51586787828E+03  0.10100000352E+00 0. -1.
       -3    1    3    3    0  502 -0.55618150745E+02 -0.48748456539E+03 -0.37572883866E+03  0.61798604401E+03  0.10100000352E+00 0.  1.
</event>
<event>
 5   0  0.1506454E-04  0.1000024E+04  0.7818609E-02  0.9308519E-01
       -1   -1    0    0    0  501  0.00000000000E+00  0.00000000000E+00  0.43575017192E+03  0.43575017195E+03  0.50400001928E-02 0.  1.
        1   -1    0    0  501    0  0.00000000000E+00  0.00000000000E+00 -0.57375072446E+03  0.57375072449E+03  0.50400001928E-02 0. -1.
    10030    2    1    2    0    0  0.00000000000E+00  0.00000000000E+00 -0.13800055254E+03  0.10095008964E+04  0.10000239534E+04 0.  0.
        3    1    3    3  502    0  0.48589184940E+03  0.10980125078E+03 -0.25408146326E+02  0.49879132719E+03  0.10100000352E+00 0. -1.
       -3    1    3    3    0  502 -0.48589184940E+03 -0.10980125078E+03 -0.11259240621E+03  0.51070956925E+03  0.10100000352E+00 0.  1.
</event>
<event>
 5   0  0.2473312E-04  0.1000112E+04  0.7818609E-02  0.9308421E-01
        2   -1    0    0  501    0  0.00000000000E+00  0.00000000000E+00  0.15462720202E+04  0.15462720202E+04  0.25500000920E-02 0. -1.
       -2   -1    0    0    0  501  0.00000000000E+00  0.00000000000E+00 -0.16171554343E+03  0.16171554345E+03  0.25500000920E-02 0.  1.
    10030    2    1    2    0    0  0.00000000000E+00  0.00000000000E+00  0.13845564767E+04  0.17079875636E+04  0.10001124338E+04 0.  0.
        5    1    3    3  502    0  0.17500974688E+03  0.46821207253E+03  0.71539182878E+03  0.87273049394E+03  0.46999998093E+01 0. -1.
       -5    1    3    3    0  502 -0.17500974688E+03 -0.46821207253E+03  0.66916464795E+03  0.83525706967E+03  0.46999998093E+01 0.  1.
</event>
<event>
 5   0  0.1461334E-04  0.9997260E+03  0.7818609E-02  0.9308845E-01
       -1   -1    0    0    0  501  0.00000000000E+00  0.00000000000E+00  0.53755627287E+03  0.53755627290E+03  0.50400001928E-02 0.  1.
        1   -1    0    0  501    0  0.00000000000E+00  0.00000000000E+00 -0.46481276647E+03  0.46481276650E+03  0.50400001928E-02 0. -1.
    10030    2    1    2    0    0  0.00000000000E+00  0.00000000000E+00  0.72743506403E+02  0.10023690394E+04  0.99972599917E+03 0.  0.
        2    1    3    3  502    0 -0.27224427471E+03 -0.16132852673E+03 -0.35158684085E+03  0.47302975098E+03  0.25500000920E-02 0. -1.
       -2    1    3    3    0  502  0.27224427471E+03  0.16132852673E+03  0.42433034725E+03  0.52933928841E+03  0.25500000920E-02 0.  1.
</event>
<event>
 5   0  0.1461334E-04  0.1000409E+04  0.7818609E-02  0.9308097E-01
       -1   -1    0    0    0  501  0.00000000000E+00  0.00000000000E+00  0.11299666373E+04  0.11299666373E+04  0.50400001928E-02 0. -1.
        1   -1    0    0  501    0  0.00000000000E+00  0.00000000000E+00 -0.22142631356E+03  0.22142631362E+03  0.50400001928E-02 0.  1.
    10030    2    1    2    0    0  0.00000000000E+00  0.00000000000E+00  0.90854032374E+03  0.13513929509E+04  0.10004086105E+04 0.  0.
        2    1    3    3  502    0  0.20871660345E+03 -0.23333756104E+03  0.98126318014E+03  0.10299934304E+04  0.25500000920E-02 0. -1.
       -2    1    3    3    0  502 -0.20871660345E+03  0.23333756104E+03 -0.72722856401E+02  0.32139952053E+03  0.25500000920E-02 0.  1.
</event>
<event>
 5   0  0.1453863E-04  0.1000146E+04  0.7818609E-02  0.9308385E-01
       -1   -1    0    0    0  501  0.00000000000E+00  0.00000000000E+00  0.47513802122E+03  0.47513802124E+03  0.50400001928E-02 0.  1.
        1   -1    0    0  501    0  0.00000000000E+00  0.00000000000E+00 -0.52631666984E+03  0.52631666986E+03  0.50400001928E-02 0. -1.
    10030    2    1    2    0    0  0.00000000000E+00  0.00000000000E+00 -0.51178648621E+02  0.10014546911E+04  0.10001461115E+04 0.  0.
        1    1    3    3  502    0  0.13465426576E+02  0.35351994933E+03  0.32830681625E+03  0.48264172831E+03  0.50400001928E-02 0.  1.
       -1    1    3    3    0  502 -0.13465426576E+02 -0.35351994933E+03 -0.37948546487E+03  0.51881296279E+03  0.50400001928E-02 0. -1.
</event>
<event>
 5   0  0.1506454E-04  0.1001224E+04  0.7818609E-02  0.9307203E-01
       -1   -1    0    0    0  501  0.00000000000E+00  0.00000000000E+00  0.62196588088E+03  0.62196588090E+03  0.50400001928E-02 0.  1.
        1   -1    0    0  501    0  0.00000000000E+00  0.00000000000E+00 -0.40293594507E+03  0.40293594510E+03  0.50400001928E-02 0. -1.
    10030    2    1    2    0    0  0.00000000000E+00  0.00000000000E+00  0.21902993581E+03  0.10249018260E+04  0.10012240709E+04 0.  0.
        3    1    3    3  502    0 -0.58134406583E+02 -0.41218403459E+03 -0.17515716839E+03  0.45161413999E+03  0.10100000352E+00 0. -1.
       -3    1    3    3    0  502  0.58134406583E+02  0.41218403459E+03  0.39418710420E+03  0.57328768600E+03  0.10100000352E+00 0.  1.
</event>
<event>
 5   0  0.2473312E-04  0.9998708E+03  0.7818609E-02  0.9308687E-01
       -2   -1    0    0    0  501  0.00000000000E+00  0.00000000000E+00  0.74463744969E+03  0.74463744970E+03  0.25500000920E-02 0. -1.
        2   -1    0    0  501    0  0.00000000000E+00  0.00000000000E+00 -0.33564710783E+03  0.33564710784E+03  0.25500000920E-02 0.  1.
    10030    2    1    2    0    0  0.00000000000E+00  0.00000000000E+00  0.40899034186E+03  0.10802845575E+04  0.99987080442E+03 0.  0.
        5    1    3    3  502    0  0.55215445135E+02 -0.38899905958E+03  0.53845688239E+03  0.66657851595E+03  0.46999998093E+01 0. -1.
       -5    1    3    3    0  502 -0.55215445135E+02  0.38899905958E+03 -0.12946654053E+03  0.41370604159E+03  0.46999998093E+01 0.  1.
</event>
<event>
 5   0  0.2353916E-04  0.9980605E+03  0.7818609E-02  0.9310675E-01
        2   -1    0    0  501    0  0.00000000000E+00  0.00000000000E+00  0.89147226430E+03  0.89147226430E+03  0.25500000920E-02 0. -1.
       -2   -1    0    0    0  501  0.00000000000E+00  0.00000000000E+00 -0.27934820726E+03  0.27934820728E+03  0.25500000920E-02 0.  1.
    10030    2    1    2    0    0  0.00000000000E+00  0.00000000000E+00  0.61212405703E+03  0.11708204716E+04  0.99806047686E+03 0.  0.
        4    1    3    3  502    0 -0.20655888978E+03 -0.15992108368E+03  0.80485294457E+03  0.84618626983E+03  0.12699999809E+01 0. -1.
       -4    1    3    3    0  502  0.20655888978E+03  0.15992108368E+03 -0.19272888754E+03  0.32463420175E+03  0.12699999809E+01 0.  1.
</event>
<event>
 5   0  0.1430675E-04  0.9998047E+03  0.7818609E-02  0.9308759E-01
       -1   -1    0    0    0  501  0.00000000000E+00  0.00000000000E+00  0.27358735918E+03  0.27358735923E+03  0.50400001928E-02 0. -1.
        1   -1    0    0  501    0  0.00000000000E+00  0.00000000000E+00 -0.91342799264E+03  0.91342799266E+03  0.50400001928E-02 0.  1.
    10030    2    1    2    0    0  0.00000000000E+00  0.00000000000E+00 -0.63984063346E+03  0.11870153519E+04  0.99980468562E+03 0.  0.
        5    1    3    3  502    0 -0.90661964536E+02 -0.41500142594E+03 -0.70756298627E+01  0.42487401649E+03  0.46999998093E+01 0. -1.
       -5    1    3    3    0  502  0.90661964536E+02  0.41500142594E+03 -0.63276500360E+03  0.76214133540E+03  0.46999998093E+01 0.  1.
</event>
<event>
 5   0  0.1430675E-04  0.9998234E+03  0.7818609E-02  0.9308738E-01
       -1   -1    0    0    0  501  0.00000000000E+00  0.00000000000E+00  0.21504907711E+03  0.21504907717E+03  0.50400001928E-02 0.  1.
        1   -1    0    0  501    0  0.00000000000E+00  0.00000000000E+00 -0.11621148067E+04  0.11621148067E+04  0.50400001928E-02 0. -1.
    10030    2    1    2    0    0  0.00000000000E+00  0.00000000000E+00 -0.94706572955E+03  0.13771638838E+04  0.99982341785E+03 0.  0.
        5    1    3    3  502    0  0.22013373059E+03 -0.94941341845E+02 -0.10777373392E+04  0.11040890272E+04  0.46999998093E+01 0. -1.
       -5    1    3    3    0  502 -0.22013373059E+03  0.94941341845E+02  0.13067160967E+03  0.27307485660E+03  0.46999998093E+01 0.  1.
</event>
<event>
 5   0  0.2403037E-04  0.1000192E+04  0.7818609E-02  0.9308334E-01
       -2   -1    0    0    0  501  0.00000000000E+00  0.00000000000E+00  0.19895058808E+03  0.19895058810E+03  0.25500000920E-02 0.  1.
        2   -1    0    0  501    0  0.00000000000E+00  0.00000000000E+00 -0.12570763988E+04  0.12570763988E+04  0.25500000920E-02 0. -1.
    10030    2    1    2    0    0  0.00000000000E+00  0.00000000000E+00 -0.10581258107E+04  0.14560269869E+04  0.10001921592E+04 0.  0.
        1    1    3    3  502    0 -0.85607385193E+02  0.13919780162E+03  0.15898589062E+03  0.22799378460E+03  0.50400001928E-02 0.  1.
       -1    1    3    3    0  502  0.85607385193E+02 -0.13919780162E+03 -0.12171117014E+04  0.12280332023E+04  0.50400001928E-02 0. -1.
</event>
<event>
 5   0  0.2353916E-04  0.1000127E+04  0.7818609E-02  0.9308406E-01
        2   -1    0    0  501    0  0.00000000000E+00  0.00000000000E+00  0.66735933288E+03  0.66735933289E+03  0.25500000920E-02 0. -1.
       -2   -1    0    0    0  501  0.00000000000E+00  0.00000000000E+00 -0.37470585398E+03  0.37470585399E+03  0.25500000920E-02 0.  1.
    10030    2    1    2    0    0  0.00000000000E+00  0.00000000000E+00  0.29265347890E+03  0.10420651869E+04  0.10001268894E+04 0.  0.
        4    1    3    3  502    0  0.47446565659E+03  0.17239891685E+02 -0.17249977451E+02  0.47509372525E+03  0.12699999809E+01 0.  1.
       -4    1    3    3    0  502 -0.47446565659E+03 -0.17239891685E+02  0.30990345635E+03  0.56697146163E+03  0.12699999809E+01 0. -1.
</event>
<event>
 5   0  0.2353916E-04  0.1000319E+04  0.7818609E-02  0.9308195E-01
       -2   -1    0    0    0  501  0.00000000000E+00  0.00000000000E+00  0.14967121882E+03  0.14967121884E+03  0.25500000920E-02 0.  1.
        2   -1    0    0  501    0  0.00000000000E+00  0.00000000000E+00 -0.16713931459E+04  0.16713931459E+04  0.25500000920E-02 0. -1.
    10030    2    1    2    0    0  0.00000000000E+00  0.00000000000E+00 -0.15217219271E+04  0.18210643648E+04  0.10003188478E+04 0.  0.
        4    1    3    3  502    0 -0.48365998053E+03  0.32632235257E+02 -0.98505410637E+03  0.10978729639E+04  0.12699999809E+01 0. -1.
       -4    1    3    3    0  502  0.48365998053E+03 -0.32632235257E+02 -0.53666782073E+03  0.72319140084E+03  0.12699999809E+01 0.  1.
</event>
<event>
 5   0  0.1414165E-04  0.9998132E+03  0.7818609E-02  0.9308750E-01
       -1   -1    0    0    0  501  0.00000000000E+00  0.00000000000E+00  0.48044904980E+03  0.48044904982E+03  0.50400001928E-02 0. -1.
        1   -1    0    0  501    0  0.00000000000E+00  0.00000000000E+00 -0.52015213783E+03  0.52015213785E+03  0.50400001928E-02 0.  1.
    10030    2    1    2    0    0  0.00000000000E+00  0.00000000000E+00 -0.39703088027E+02  0.10006011877E+04  0.99981318334E+03 0.  0.
        4    1    3    3  502    0  0.32335077650E+03 -0.21657901927E+03 -0.33385477341E+03  0.51276000125E+03  0.12699999809E+01 0.  1.
       -4    1    3    3    0  502 -0.32335077650E+03  0.21657901927E+03  0.29415168539E+03  0.48784118642E+03  0.12699999809E+01 0. -1.
</event>
<event>
 5   0  0.1506454E-04  0.1000066E+04  0.7818609E-02  0.9308472E-01
       -1   -1    0    0    0  501  0.00000000000E+00  0.00000000000E+00  0.34551566506E+03  0.34551566510E+03  0.50400001928E-02 0. -1.
        1   -1    0    0  501    0  0.00000000000E+00  0.00000000000E+00 -0.72365202978E+03  0.72365202979E+03  0.50400001928E-02 0.  1.
    10030    2    1    2    0    0  0.00000000000E+00  0.00000000000E+00 -0.37813636472E+03  0.10691676949E+04  0.10000662225E+04 0.  0.
        3    1    3    3  502    0  0.85076480565E+02  0.38826824063E+03 -0.51341686622E+03  0.64929740716E+03  0.10100000352E+00 0.  1.
       -3    1    3    3    0  502 -0.85076480565E+02 -0.38826824063E+03  0.13528050151E+03  0.41987028773E+03  0.10100000352E+00 0. -1.
</event>
<event>
 5   0  0.1453863E-04  0.9991297E+03  0.7818609E-02  0.9309500E-01
       -1   -1    0    0    0  501  0.00000000000E+00  0.00000000000E+00  0.12843402926E+03  0.12843402936E+03  0.50400001928E-02 0.  1.
        1   -1    0    0  501    0  0.00000000000E+00  0.00000000000E+00 -0.19431380754E+04  0.19431380754E+04  0.50400001928E-02 0. -1.
    10030    2    1    2    0    0  0.00000000000E+00  0.00000000000E+00 -0.18147040461E+04  0.20715721047E+04  0.99912972637E+03 0.  0.
        1    1    3    3  502    0 -0.34877351516E+03 -0.28698396998E+03 -0.46478307507E+03  0.64809418359E+03  0.50400001928E-02 0. -1.
       -1    1    3    3    0  502  0.34877351516E+03  0.28698396998E+03 -0.13499209710E+04  0.14234779212E+04  0.50400001928E-02 0.  1.
</event>
<event>
 5   0  0.2353916E-04  0.1000524E+04  0.7818609E-02  0.9307970E-01
        2   -1    0    0  501    0  0.00000000000E+00  0.00000000000E+00  0.15415435527E+04  0.15415435527E+04  0.25500000920E-02 0.  1.
       -2   -1    0    0    0  501  0.00000000000E+00  0.00000000000E+00 -0.16234521711E+03  0.16234521713E+03  0.25500000920E-02 0. -1.
    10030    2    1    2    0    0  0.00000000000E+00  0.00000000000E+00  0.13791983356E+04  0.17038887698E+04  0.10005243081E+04 0.  0.
        4    1    3    3  502    0 -0.35078320531E+03  0.88376152887E+02  0.10113730697E+03  0.37561891498E+03  0.12699999809E+01 0. -1.
       -4    1    3    3    0  502  0.35078320531E+03 -0.88376152887E+02  0.12780610286E+04  0.13282698549E+04  0.12699999809E+01 0.  1.
</event>
<event>
 5   0  0.1414165E-04  0.1006640E+04  0.7818609E-02  0.9301292E-01
        1   -1    0    0  501    0  0.00000000000E+00  0.00000000000E+00  0.62753617920E+03  0.62753617922E+03  0.50400001928E-02 0. -1.
       -1   -1    0    0    0  501  0.00000000000E+00  0.00000000000E+00 -0.40369170454E+03  0.40369170457E+03  0.50400001928E-02 0.  1.
    10030    2    1    2    0    0  0.00000000000E+00  0.00000000000E+00  0.22384447467E+03  0.10312278838E+04  0.10066402533E+04 0.  0.
        4    1    3    3  502    0  0.23198215714E+03  0.27451045762E+03  0.47288915555E+03  0.59396757396E+03  0.12699999809E+01 0. -1.
       -4    1    3    3    0  502 -0.23198215714E+03 -0.27451045762E+03 -0.24904468089E+03  0.43726030983E+03  0.12699999809E+01 0.  1.
</event>
<event>
 5   0  0.2403037E-04  0.9997150E+03  0.7818609E-02  0.9308857E-01
        2   -1    0    0  501    0  0.00000000000E+00  0.00000000000E+00  0.10314759265E+04  0.10314759265E+04  0.25500000920E-02 0. -1.
       -2   -1    0    0    0  501  0.00000000000E+00  0.00000000000E+00 -0.24223302631E+03  0.24223302632E+03  0.25500000920E-02 0.  1.
    10030    2    1    2    0    0  0.00000000000E+00  0.00000000000E+00  0.78924290022E+03  0.12737089528E+04  0.99971502990E+03 0.  0.
        1    1    3    3  502    0 -0.21446719212E+03  0.14226388654E+03  0.94057632109E+03  0.97515076052E+03  0.50400001928E-02 0. -1.
       -1    1    3    3    0  502  0.21446719212E+03 -0.14226388654E+03 -0.15133342087E+03  0.29855819233E+03  0.50400001928E-02 0.  1.
</event>
<event>
 5   0  0.1430675E-04  0.9950214E+03  0.7818609E-02  0.9314022E-01
        1   -1    0    0  501    0  0.00000000000E+00  0.00000000000E+00  0.17102032702E+04  0.17102032702E+04  0.50400001928E-02 0.  1.
       -1   -1    0    0    0  501  0.00000000000E+00  0.00000000000E+00 -0.14472953303E+03  0.14472953312E+03  0.50400001928E-02 0. -1.
    10030    2    1    2    0    0  0.00000000000E+00  0.00000000000E+00  0.15654737372E+04  0.18549328034E+04  0.99502144857E+03 0.  0.
        5    1    3    3  502    0  0.36576785655E+03  0.29932874918E+03  0.49326697403E+03  0.68316778513E+03  0.46999998093E+01 0. -1.
       -5    1    3    3    0  502 -0.36576785655E+03 -0.29932874918E+03  0.10722067632E+04  0.11717650182E+04  0.46999998093E+01 0.  1.
</event>
<event>
 5   0  0.2484904E-04  0.1000678E+04  0.7818609E-02  0.9307802E-01
       -2   -1    0    0    0  501  0.00000000000E+00  0.00000000000E+00  0.18804205825E+03  0.18804205827E+03  0.25500000920E-02 0.  1.
        2   -1    0    0  501    0  0.00000000000E+00  0.00000000000E+00 -0.13312923184E+04  0.13312923184E+04  0.25500000920E-02 0. -1.
    10030    2    1    2    0    0  0.00000000000E+00  0.00000000000E+00 -0.11432502601E+04  0.15193343767E+04  0.10006776658E+04 0.  0.
        3    1    3    3  502    0  0.17866234792E+02 -0.38385288134E+03 -0.85111390149E+02  0.39358124421E+03  0.10100000352E+00 0.  1.
       -3    1    3    3    0  502 -0.17866234792E+02  0.38385288134E+03 -0.10581388700E+04  0.11257531325E+04  0.10100000352E+00 0. -1.
</event>
<event>
 5   0  0.2403037E-04  0.1000104E+04  0.7818609E-02  0.9308431E-01
       -2   -1    0    0    0  501  0.00000000000E+00  0.00000000000E+00  0.32086358119E+03  0.32086358120E+03  0.25500000920E-02 0.  1.
        2   -1    0    0  501    0  0.00000000000E+00  0.00000000000E+00 -0.77930968345E+03  0.77930968346E+03  0.25500000920E-02 0. -1.
    10030    2    1    2    0    0  0.00000000000E+00  0.00000000000E+00 -0.45844610226E+03  0.11001732647E+04  0.10001041864E+04 0.  0.
        1    1    3    3  502    0 -0.37660461512E+03  0.32851929541E+03 -0.21029269768E+03  0.54219828689E+03  0.50400001928E-02 0. -1.
       -1    1    3    3    0  502  0.37660461512E+03 -0.32851929541E+03 -0.24815340458E+03  0.55797497777E+03  0.50400001928E-02 0.  1.
</event>
<event>
 5   0  0.1430675E-04  0.1000338E+04  0.7818609E-02  0.9308174E-01
       -1   -1    0    0    0  501  0.00000000000E+00  0.00000000000E+00  0.48846925605E+03  0.48846925607E+03  0.50400001928E-02 0.  1.
        1   -1    0    0  501    0  0.00000000000E+00  0.00000000000E+00 -0.51214944271E+03  0.51214944274E+03  0.50400001928E-02 0. -1.
    10030    2    1    2    0    0  0.00000000000E+00  0.00000000000E+00 -0.23680186667E+02  0.10006186988E+04  0.10003384573E+04 0.  0.
        5    1    3    3  502    0  0.17358484871E+03  0.45900165250E+03  0.84794168272E+02  0.49802244696E+03  0.46999998093E+01 0.  1.
       -5    1    3    3    0  502 -0.17358484871E+03 -0.45900165250E+03 -0.10847435494E+03  0.50259625186E+03  0.46999998093E+01 0. -1.
</event>
<event>
 5   0  0.1461334E-04  0.9993747E+03  0.7818609E-02  0.9309231E-01
       -1   -1    0    0    0  501  0.00000000000E+00  0.00000000000E+00  0.81405303786E+03  0.81405303788E+03  0.50400001928E-02 0.  1.
        1   -1    0    0  501    0  0.00000000000E+00  0.00000000000E+00 -0.30672137940E+03  0.30672137944E+03  0.50400001928E-02 0. -1.
    10030    2    1    2    0    0  0.00000000000E+00  0.00000000000E+00  0.50733165846E+03  0.11207744173E+04  0.99937474595E+03 0.  0.
        2    1    3    3  502    0 -0.42096418087E+03  0.18240691099E+03  0.31612670178E+02  0.45987224713E+03  0.25500000920E-02 0. -1.
       -2    1    3    3    0  502  0.42096418087E+03 -0.18240691099E+03  0.47571898828E+03  0.66090217020E+03  0.25500000920E-02 0.  1.
</event>
<event>
 5   0  0.2503680E-04  0.9999386E+03  0.7818609E-02  0.9308612E-01
        2   -1    0    0  501    0  0.00000000000E+00  0.00000000000E+00  0.26242960652E+03  0.26242960653E+03  0.25500000920E-02 0. -1.
       -2   -1    0    0    0  501  0.00000000000E+00  0.00000000000E+00 -0.95251935143E+03  0.95251935143E+03  0.25500000920E-02 0.  1.
    10030    2    1    2    0    0  0.00000000000E+00  0.00000000000E+00 -0.69008974491E+03  0.12149489580E+04  0.99993855533E+03 0.  0.
        2    1    3    3  502    0 -0.85668655928E+02  0.21497813206E+03  0.19343758684E+03  0.30161700198E+03  0.25500000920E-02 0. -1.
       -2    1    3    3    0  502  0.85668655928E+02 -0.21497813206E+03 -0.88352733175E+03  0.91333195599E+03  0.25500000920E-02 0.  1.
</event>
<event>
 5   0  0.2503680E-04  0.9999538E+03  0.7818609E-02  0.9308595E-01
       -2   -1    0    0    0  501  0.00000000000E+00  0.00000000000E+00  0.18854177520E+03  0.18854177522E+03  0.25500000920E-02 0.  1.
        2   -1    0    0  501    0  0.00000000000E+00  0.00000000000E+00 -0.13258435148E+04  0.13258435148E+04  0.25500000920E-02 0. -1.
    10030    2    1    2    0    0  0.00000000000E+00  0.00000000000E+00 -0.11373017396E+04  0.15143852901E+04  0.99995377882E+03 0.  0.
        2    1    3    3  502    0 -0.16716457279E+03  0.40347549672E+03 -0.93725951575E+03  0.10340173455E+04  0.25500000920E-02 0. -1.
       -2    1    3    3    0  502  0.16716457279E+03 -0.40347549672E+03 -0.20004222388E+03  0.48036794459E+03  0.25500000920E-02 0.  1.
</event>
<event>
 5   0  0.1453863E-04  0.9996486E+03  0.7818609E-02  0.9308930E-01
        1   -1    0    0  501    0  0.00000000000E+00  0.00000000000E+00  0.68792226593E+03  0.68792226595E+03  0.50400001928E-02 0.  1.
       -1   -1    0    0    0  501  0.00000000000E+00  0.00000000000E+00 -0.36315775665E+03  0.36315775669E+03  0.50400001928E-02 0. -1.
    10030    2    1    2    0    0  0.00000000000E+00  0.00000000000E+00  0.32476450928E+03  0.10510800226E+04  0.99964855199E+03 0.  0.
        1    1    3    3  502    0 -0.24014475998E+03 -0.42238705496E+03  0.28564863654E+03  0.56362706955E+03  0.50400001928E-02 0.  1.
       -1    1    3    3    0  502  0.24014475998E+03  0.42238705496E+03  0.39115872738E+02  0.48745295309E+03  0.50400001928E-02 0. -1.
</event>
<event>
 5   0  0.1461334E-04  0.9989632E+03  0.7818609E-02  0.9309683E-01
        1   -1    0    0  501    0  0.00000000000E+00  0.00000000000E+00  0.49474907955E+03  0.49474907957E+03  0.50400001928E-02 0. -1.
       -1   -1    0    0    0  501  0.00000000000E+00  0.00000000000E+00 -0.50425938126E+03  0.50425938129E+03  0.50400001928E-02 0.  1.
    10030    2    1    2    0    0  0.00000000000E+00  0.00000000000E+00 -0.95103017163E+01  0.99900846086E+03  0.99896319203E+03 0.  0.
        2    1    3    3  502    0  0.47667035467E+03 -0.23433986991E+02 -0.15213240276E+03  0.50090722369E+03  0.25500000920E-02 0.  1.
       -2    1    3    3    0  502 -0.47667035467E+03  0.23433986991E+02  0.14262210104E+03  0.49810123718E+03  0.25500000920E-02 0. -1.
</event>
<event>
 5   0  0.2403037E-04  0.9998639E+03  0.7818609E-02  0.9308694E-01
        2   -1    0    0  501    0  0.00000000000E+00  0.00000000000E+00  0.33255134727E+03  0.33255134727E+03  0.25500000920E-02 0.  1.
       -2   -1    0    0    0  501  0.00000000000E+00  0.00000000000E+00 -0.75155897108E+03  0.75155897108E+03  0.25500000920E-02 0. -1.
    10030    2    1    2    0    0  0.00000000000E+00  0.00000000000E+00 -0.41900762381E+03  0.10841103184E+04  0.99986388751E+03 0.  0.
        1    1    3    3  502    0 -0.30897565490E+03 -0.10489794443E+03  0.20117440007E+03  0.38332841446E+03  0.50400001928E-02 0.  1.
       -1    1    3    3    0  502  0.30897565490E+03  0.10489794443E+03 -0.62018202388E+03  0.70078190390E+03  0.50400001928E-02 0. -1.
</event>
<event>
 5   0  0.1414165E-04  0.1000471E+04  0.7818609E-02  0.9308028E-01
        1   -1    0    0  501    0  0.00000000000E+00  0.00000000000E+00  0.53692946539E+03  0.53692946541E+03  0.50400001928E-02 0.  1.
       -1   -1    0    0    0  501  0.00000000000E+00  0.00000000000E+00 -0.46604918835E+03  0.46604918837E+03  0.50400001928E-02 0. -1.
    10030    2    1    2    0    0  0.00000000000E+00  0.00000000000E+00  0.70880277043E+02  0.10029786538E+04  0.10004709722E+04 0.  0.
        4    1    3    3  502    0 -0.37152272921E+03 -0.33236797174E+03  0.77213776177E+02  0.50444146052E+03  0.12699999809E+01 0.  1.
       -4    1    3    3    0  502  0.37152272921E+03  0.33236797174E+03 -0.63334991335E+01  0.49853719327E+03  0.12699999809E+01 0. -1.
</event>
<event>
 5   0  0.2403037E-04  0.1001056E+04  0.7818609E-02  0.9307387E-01
        2   -1    0    0  501    0  0.00000000000E+00  0.00000000000E+00  0.42810837216E+03  0.42810837217E+03  0.25500000920E-02 0. -1.
       -2   -1    0    0    0  501  0.00000000000E+00  0.00000000000E+00 -0.58519818153E+03  0.58519818153E+03  0.25500000920E-02 0.  1.
    10030    2    1    2    0    0  0.00000000000E+00  0.00000000000E+00 -0.15708980937E+03  0.10133065537E+04  0.10010559243E+04 0.  0.
        1    1    3    3  502    0  0.79621604442E+02  0.23575234154E+03 -0.51815156518E+03  0.57480415009E+03  0.50400001928E-02 0.  1.
       -1    1    3    3    0  502 -0.79621604442E+02 -0.23575234154E+03  0.36106175582E+03  0.43850240361E+03  0.50400001928E-02 0. -1.
</event>
<event>
 5   0  0.1453863E-04  0.1000221E+04  0.7818609E-02  0.9308303E-01
        1   -1    0    0  501    0  0.00000000000E+00  0.00000000000E+00  0.55330376136E+03  0.55330376139E+03  0.50400001928E-02 0. -1.
       -1   -1    0    0    0  501  0.00000000000E+00  0.00000000000E+00 -0.45203077234E+03  0.45203077237E+03  0.50400001928E-02 0.  1.
    10030    2    1    2    0    0  0.00000000000E+00  0.00000000000E+00  0.10127298902E+03  0.10053345338E+04  0.10002206289E+04 0.  0.
        1    1    3    3  502    0  0.14297698417E+03  0.38835935926E+03  0.33286549839E+03  0.53109777817E+03  0.50400001928E-02 0. -1.
       -1    1    3    3    0  502 -0.14297698417E+03 -0.38835935926E+03 -0.23159250937E+03  0.47423675559E+03  0.50400001928E-02 0.  1.
</event>
<event>
 5   0  0.2353916E-04  0.1000647E+04  0.7818609E-02  0.9307836E-01
        2   -1    0    0  501    0  0.00000000000E+00  0.00000000000E+00  0.85442220435E+03  0.85442220435E+03  0.25500000920E-02 0.  1.
       -2   -1    0    0    0  501  0.00000000000E+00  0.00000000000E+00 -0.29297389261E+03  0.29297389262E+03  0.25500000920E-02 0. -1.
    10030    2    1    2    0    0  0.00000000000E+00  0.00000000000E+00  0.56144831174E+03  0.11473960970E+04  0.10006465893E+04 0.  0.
        4    1    3    3  502    0 -0.33963817984E+03 -0.34299599240E+03  0.12981184345E+03  0.49985305002E+03  0.12699999809E+01 0.  1.
       -4    1    3    3    0  502  0.33963817984E+03  0.34299599240E+03  0.43163646828E+03  0.64754304696E+03  0.12699999809E+01 0. -1.
</event>
<event>
 5   0  0.1430675E-04  0.9998701E+03  0.7818609E-02  0.9308687E-01
       -1   -1    0    0    0  501  0.00000000000E+00  0.00000000000E+00  0.39595769561E+03  0.39595769564E+03  0.50400001928E-02 0.  1.
        1   -1    0    0  501    0  0.00000000000E+00  0.00000000000E+00 -0.63121652367E+03  0.63121652369E+03  0.50400001928E-02 0. -1.
    10030    2    1    2    0    0  0.00000000000E+00  0.00000000000E+00 -0.23525882806E+03  0.10271742193E+04  0.99987007189E+03 0.  0.
        5    1    3    3  502    0  0.22514872325E+03 -0.39861026188E+03  0.88680117069E+02  0.46633501008E+03  0.46999998093E+01 0. -1.
       -5    1    3    3    0  502 -0.22514872325E+03  0.39861026188E+03 -0.32393894513E+03  0.56083920925E+03  0.46999998093E+01 0.  1.
</event>
<event>
 5   0  0.2484904E-04  0.1000131E+04  0.7818609E-02  0.9308401E-01
        2   -1    0    0  501    0  0.00000000000E+00  0.00000000000E+00  0.89611361708E+03  0.89611361708E+03  0.25500000920E-02 0.  1.
       -2   -1    0    0    0  501  0.00000000000E+00  0.00000000000E+00 -0.27905564787E+03  0.27905564788E+03  0.25500000920E-02 0. -1.
    10030    2    1    2    0    0  0.00000000000E+00  0.00000000000E+00  0.61705796921E+03  0.11751692650E+04  0.10001311234E+04 0.  0.
        3    1    3    3  502    0  0.30373354014E+03 -0.39488543242E+03  0.35943559599E+03  0.61431467995E+03  0.10100000352E+00 0. -1.
       -3    1    3    3    0  502 -0.30373354014E+03  0.39488543242E+03  0.25762237322E+03  0.56085458501E+03  0.10100000352E+00 0.  1.
</event>
<event>
 5   0  0.2503680E-04  0.1000336E+04  0.7818609E-02  0.9308177E-01
        2   -1    0    0  501    0  0.00000000000E+00  0.00000000000E+00  0.14193754961E+04  0.14193754961E+04  0.25500000920E-02 0. -1.
       -2   -1    0    0    0  501  0.00000000000E+00  0.00000000000E+00 -0.17625204591E+03  0.17625204592E+03  0.25500000920E-02 0.  1.
    10030    2    1    2    0    0  0.00000000000E+00  0.00000000000E+00  0.12431234502E+04  0.15956275420E+04  0.10003356139E+04 0.  0.
        2    1    3    3  502    0 -0.30026719561E+03  0.30157769191E+03  0.10407352716E+04  0.11243840085E+04  0.25500000920E-02 0. -1.
       -2    1    3    3    0  502  0.30026719561E+03 -0.30157769191E+03  0.20238817854E+03  0.47124353347E+03  0.25500000920E-02 0.  1.
</event>
<event>
 5   0  0.2403037E-04  0.1000216E+04  0.7818609E-02  0.9308308E-01
       -2   -1    0    0    0  501  0.00000000000E+00  0.00000000000E+00  0.27145031791E+03  0.27145031792E+03  0.25500000920E-02 0. -1.
        2   -1    0    0  501    0  0.00000000000E+00  0.00000000000E+00 -0.92137734850E+03  0.92137734850E+03  0.25500000920E-02 0.  1.
    10030    2    1    2    0    0  0.00000000000E+00  0.00000000000E+00 -0.64992703059E+03  0.11928276664E+04  0.10002163250E+04 0.  0.
        1    1    3    3  502    0 -0.15227019897E+03  0.26381728240E+02 -0.89218802683E+03  0.90547318255E+03  0.50400001928E-02 0.  1.
       -1    1    3    3    0  502  0.15227019897E+03 -0.26381728240E+02  0.24226099624E+03  0.28735448388E+03  0.50400001928E-02 0. -1.
</event>
<event>
 5   0  0.1461334E-04  0.1000019E+04  0.7818609E-02  0.9308523E-01
        1   -1    0    0  501    0  0.00000000000E+00  0.00000000000E+00  0.48607791501E+03  0.48607791504E+03  0.50400001928E-02 0.  1.
       -1   -1    0    0    0  501  0.00000000000E+00  0.00000000000E+00 -0.51434089483E+03  0.51434089485E+03  0.50400001928E-02 0. -1.
    10030    2    1    2    0    0  0.00000000000E+00  0.00000000000E+00 -0.28262979817E+02  0.10004188099E+04  0.10000194994E+04 0.  0.
        2    1    3    3  502    0 -0.49599575469E+03  0.13635014010E+02 -0.75897924426E+02  0.50195437763E+03  0.25500000920E-02 0. -1.
       -2    1    3    3    0  502  0.49599575469E+03 -0.13635014010E+02  0.47634944610E+02  0.49846443227E+03  0.25500000920E-02 0.  1.
</event>
<event>
 5   0  0.2503680E-04  0.9995945E+03  0.7818609E-02  0.9308990E-01
        2   -1    0    0  501    0  0.00000000000E+00  0.00000000000E+00  0.20667260576E+04  0.20667260576E+04  0.25500000920E-02 0. -1.
       -2   -1    0    0    0  501  0.00000000000E+00  0.00000000000E+00 -0.12086618233E+03  0.12086618236E+03  0.25500000920E-02 0.  1.
    10030    2    1    2    0    0  0.00000000000E+00  0.00000000000E+00  0.19458598753E+04  0.21875922400E+04  0.99959449487E+03 0.  0.
        2    1    3    3  502    0 -0.89796756257E+02 -0.26234700135E+03  0.62912081576E+02  0.28433666061E+03  0.25500000920E-02 0.  1.
       -2    1    3    3    0  502  0.89796756257E+02  0.26234700135E+03  0.18829477937E+04  0.19032555794E+04  0.25500000920E-02 0. -1.
</event>
<event>
 5   0  0.1506454E-04  0.1002604E+04  0.7818609E-02  0.9305693E-01
        1   -1    0    0  501    0  0.00000000000E+00  0.00000000000E+00  0.39400265378E+03  0.39400265382E+03  0.50400001928E-02 0. -1.
       -1   -1    0    0    0  501  0.00000000000E+00  0.00000000000E+00 -0.63782236138E+03  0.63782236140E+03  0.50400001928E-02 0.  1.
    10030    2    1    2    0    0  0.00000000000E+00  0.00000000000E+00 -0.24381970759E+03  0.10318250152E+04  0.10026040157E+04 0.  0.
        3    1    3    3  502    0 -0.40410212757E+03  0.64259611448E+02  0.17614426012E+03  0.44548247748E+03  0.10100000352E+00 0. -1.
       -3    1    3    3    0  502  0.40410212757E+03 -0.64259611448E+02 -0.41996396771E+03  0.58634253773E+03  0.10100000352E+00 0.  1.
</event>
<event>
 5   0  0.1414165E-04  0.1000226E+04  0.7818609E-02  0.9308297E-01
        1   -1    0    0  501    0  0.00000000000E+00  0.00000000000E+00  0.66583726617E+03  0.66583726619E+03  0.50400001928E-02 0.  1.
       -1   -1    0    0    0  501  0.00000000000E+00  0.00000000000E+00 -0.37563654988E+03  0.37563654992E+03  0.50400001928E-02 0. -1.
    10030    2    1    2    0    0  0.00000000000E+00  0.00000000000E+00  0.29020071628E+03  0.10414738161E+04  0.10002256015E+04 0.  0.
        4    1    3    3  502    0  0.82686276963E+02 -0.45101452109E+03  0.35298360096E+03  0.57866238351E+03  0.12699999809E+01 0. -1.
       -4    1    3    3    0  502 -0.82686276963E+02  0.45101452109E+03 -0.62782884681E+02  0.46281143260E+03  0.12699999809E+01 0.  1.
</event>
<event>
 5   0  0.1461334E-04  0.9983945E+03  0.7818609E-02  0.9310307E-01
       -1   -1    0    0    0  501  0.00000000000E+00  0.00000000000E+00  0.61274515043E+03  0.61274515045E+03  0.50400001928E-02 0.  1.
        1   -1    0    0  501    0  0.00000000000E+00  0.00000000000E+00 -0.40669091614E+03  0.40669091617E+03  0.50400001928E-02 0. -1.
    10030    2    1    2    0    0  0.00000000000E+00  0.00000000000E+00  0.20605423429E+03  0.10194360666E+04  0.99839448438E+03 0.  0.
        2    1    3    3  502    0 -0.81352939990E+02 -0.18808446669E+02  0.60556412081E+03  0.61129367977E+03  0.25500000920E-02 0.  1.
       -2    1    3    3    0  502  0.81352939990E+02  0.18808446669E+02 -0.39950988652E+03  0.40814238685E+03  0.25500000920E-02 0. -1.
</event>
<event>
 5   0  0.1430675E-04  0.1000605E+04  0.7818609E-02  0.9307882E-01
        1   -1    0    0  501    0  0.00000000000E+00  0.00000000000E+00  0.16642496857E+04  0.16642496857E+04  0.50400001928E-02 0.  1.
       -1   -1    0    0    0  501  0.00000000000E+00  0.00000000000E+00 -0.15039953339E+03  0.15039953347E+03  0.50400001928E-02 0. -1.
    10030    2    1    2    0    0  0.00000000000E+00  0.00000000000E+00  0.15138501523E+04  0.18146492192E+04  0.10006045697E+04 0.  0.
        5    1    3    3  502    0  0.16920782322E+03  0.46305927154E+03  0.91107823602E+03  0.10359251028E+04  0.46999998093E+01 0.  1.
       -5    1    3    3    0  502 -0.16920782322E+03 -0.46305927154E+03  0.60277191628E+03  0.77872411639E+03  0.46999998093E+01 0. -1.
</event>
<event>
 5   0  0.2403037E-04  0.9995508E+03  0.7818609E-02  0.9309038E-01
       -2   -1    0    0    0  501  0.00000000000E+00  0.00000000000E+00  0.74595490040E+03  0.74595490041E+03  0.25500000920E-02 0. -1.
        2   -1    0    0  501    0  0.00000000000E+00  0.00000000000E+00 -0.33483989691E+03  0.33483989692E+03  0.25500000920E-02 0.  1.
    10030    2    1    2    0    0  0.00000000000E+00  0.00000000000E+00  0.41111500350E+03  0.10807947973E+04  0.99955082303E+03 0.  0.
        1    1    3    3  502    0  0.11639532704E+03  0.40644044060E+03  0.49374209563E+03  0.65001766202E+03  0.50400001928E-02 0. -1.
       -1    1    3    3    0  502 -0.11639532704E+03 -0.40644044060E+03 -0.82627092137E+02  0.43077713530E+03  0.50400001928E-02 0.  1.
</event>
<event>
 5   0  0.2353916E-04  0.9996182E+03  0.7818609E-02  0.9308964E-01
        2   -1    0    0  501    0  0.00000000000E+00  0.00000000000E+00  0.58612685748E+03  0.58612685748E+03  0.25500000920E-02 0. -1.
       -2   -1    0    0    0  501  0.00000000000E+00  0.00000000000E+00 -0.42620315819E+03  0.42620315820E+03  0.25500000920E-02 0.  1.
    10030    2    1    2    0    0  0.00000000000E+00  0.00000000000E+00  0.15992369928E+03  0.10123300157E+04  0.99961816263E+03 0.  0.
        4    1    3    3  502    0  0.18220191927E+03  0.89395881519E+02  0.54251774452E+03  0.57923767060E+03  0.12699999809E+01 0. -1.
       -4    1    3    3    0  502 -0.18220191927E+03 -0.89395881519E+02 -0.38259404524E+03  0.43309234509E+03  0.12699999809E+01 0.  1.
</event>
<event>
 5   0  0.2484904E-04  0.1000121E+04  0.7818609E-02  0.9308413E-01
        2   -1    0    0  501    0  0.00000000000E+00  0.00000000000E+00  0.13479654637E+04  0.13479654637E+04  0.25500000920E-02 0.  1.
       -2   -1    0    0    0  501  0.00000000000E+00  0.00000000000E+00 -0.18550940515E+03  0.18550940517E+03  0.25500000920E-02 0. -1.
    10030    2    1    2    0    0  0.00000000000E+00  0.00000000000E+00  0.11624560586E+04  0.15334748689E+04  0.10001205354E+04 0.  0.
        3    1    3    3  502    0  0.14800998169E+03 -0.43887071372E+03  0.29214773790E+03  0.54759909514E+03  0.10100000352E+00 0. -1.
       -3    1    3    3    0  502 -0.14800998169E+03  0.43887071372E+03  0.87030832067E+03  0.98587577375E+03  0.10100000352E+00 0.  1.
</event>
<event>
 5   0  0.1461334E-04  0.9994523E+03  0.7818609E-02  0.9309146E-01
        1   -1    0    0  501    0  0.00000000000E+00  0.00000000000E+00  0.42609801947E+03  0.42609801950E+03  0.50400001928E-02 0. -1.
       -1   -1    0    0    0  501  0.00000000000E+00  0.00000000000E+00 -0.58607692616E+03  0.58607692619E+03  0.50400001928E-02 0.  1.
    10030    2    1    2    0    0  0.00000000000E+00  0.00000000000E+00 -0.15997890670E+03  0.10121749457E+04  0.99945228504E+03 0.  0.
        2    1    3    3  502    0  0.34465262719E+03  0.70684521932E+02 -0.43939360604E+03  0.56289295262E+03  0.25500000920E-02 0. -1.
       -2    1    3    3    0  502 -0.34465262719E+03 -0.70684521932E+02  0.27941469935E+03  0.44928199306E+03  0.25500000920E-02 0.  1.
</event>
<event>
 5   0  0.9650500E-05  0.9990063E+03  0.7818609E-02  0.9309635E-01
        4   -1    0    0  501    0  0.00000000000E+00  0.00000000000E+00  0.14482545072E+04  0.14482550640E+04  0.12699999809E+01 0. -1.
       -4   -1    0    0    0  501  0.00000000000E+00  0.00000000000E+00 -0.17227575192E+03  0.17228043301E+03  0.12699999809E+01 0.  1.
    10030    2    1    2    0    0  0.00000000000E+00  0.00000000000E+00  0.12759787553E+04  0.16205354970E+04  0.99900626287E+03 0.  0.
        4    1    3    3  502    0 -0.99520683303E+02  0.10801834558E+03  0.14124343159E+04  0.14200509283E+04  0.12699999809E+01 0. -1.
       -4    1    3    3    0  502  0.99520683303E+02 -0.10801834558E+03 -0.13645556060E+03  0.20048456875E+03  0.12699999809E+01 0.  1.
</event>
<event>
 5   0  0.1430675E-04  0.9999430E+03  0.7818609E-02  0.9308607E-01
       -1   -1    0    0    0  501  0.00000000000E+00  0.00000000000E+00  0.72088384598E+03  0.72088384600E+03  0.50400001928E-02 0.  1.
        1   -1    0    0  501    0  0.00000000000E+00  0.00000000000E+00 -0.34675698829E+03  0.34675698833E+03  0.50400001928E-02 0. -1.
    10030    2    1    2    0    0  0.00000000000E+00  0.00000000000E+00  0.37412685769E+03  0.10676408343E+04  0.99994302111E+03 0.  0.
        5    1    3    3  502    0 -0.52140365073E+02  0.21813593946E+03  0.66413317636E+03  0.70099705541E+03  0.46999998093E+01 0.  1.
       -5    1    3    3    0  502  0.52140365073E+02 -0.21813593946E+03 -0.29000631867E+03  0.36664377892E+03  0.46999998093E+01 0. -1.
</event>
<event>
 5   0  0.1430675E-04  0.9996130E+03  0.7818609E-02  0.9308969E-01
       -1   -1    0    0    0  501  0.00000000000E+00  0.00000000000E+00  0.41839865442E+03  0.41839865445E+03  0.50400001928E-02 0.  1.
        1   -1    0    0  501    0  0.00000000000E+00  0.00000000000E+00 -0.59705389916E+03  0.59705389919E+03  0.50400001928E-02 0. -1.
    10030    2    1    2    0    0  0.00000000000E+00  0.00000000000E+00 -0.17865524475E+03  0.10154525536E+04  0.99961302123E+03 0.  0.
        5    1    3    3  502    0  0.44811389335E+03  0.33457026338E+02  0.13290594119E+03  0.46862726471E+03  0.46999998093E+01 0.  1.
       -5    1    3    3    0  502 -0.44811389335E+03 -0.33457026338E+02 -0.31156118593E+03  0.54682528892E+03  0.46999998093E+01 0. -1.
</event>
<event>
 5   0  0.1414165E-04  0.9943667E+03  0.7818609E-02  0.9314745E-01
       -1   -1    0    0    0  501  0.00000000000E+00  0.00000000000E+00  0.23975165407E+03  0.23975165412E+03  0.50400001928E-02 0.  1.
        1   -1    0    0  501    0  0.00000000000E+00  0.00000000000E+00 -0.10310305796E+04  0.10310305796E+04  0.50400001928E-02 0. -1.
    10030    2    1    2    0    0  0.00000000000E+00  0.00000000000E+00 -0.79127892555E+03  0.12707822338E+04  0.99436670681E+03 0.  0.
        4    1    3    3  502    0 -0.15736897391E+03  0.31603040017E+03  0.51744355323E+02  0.35681829969E+03  0.12699999809E+01 0.  1.
       -4    1    3    3    0  502  0.15736897391E+03 -0.31603040017E+03 -0.84302328087E+03  0.91396393407E+03  0.12699999809E+01 0. -1.
</event>
<event>
 5   0  0.1453863E-04  0.9999649E+03  0.7818609E-02  0.9308583E-01
        1   -1    0    0  501    0  0.00000000000E+00  0.00000000000E+00  0.56060433403E+03  0.56060433405E+03  0.50400001928E-02 0.  1.
       -1   -1    0    0    0  501  0.00000000000E+00  0.00000000000E+00 -0.44591604241E+03  0.44591604244E+03  0.50400001928E-02 0. -1.
    10030    2    1    2    0    0  0.00000000000E+00  0.00000000000E+00  0.11468829162E+03  0.10065203765E+04  0.99996493141E+03 0.  0.
        1    1    3    3  502    0  0.11362958583E+03  0.30101901929E+03 -0.32786345279E+03  0.45936758315E+03  0.50400001928E-02 0. -1.
       -1    1    3    3    0  502 -0.11362958583E+03 -0.30101901929E+03  0.44255174441E+03  0.54715279334E+03  0.50400001928E-02 0.  1.
</event>
<event>
 5   0  0.2353916E-04  0.1000111E+04  0.7818609E-02  0.9308423E-01
       -2   -1    0    0    0  501  0.00000000000E+00  0.00000000000E+00  0.65368138959E+03  0.65368138959E+03  0.25500000920E-02 0. -1.
        2   -1    0    0  501    0  0.00000000000E+00  0.00000000000E+00 -0.38253453854E+03  0.38253453854E+03  0.25500000920E-02 0.  1.
    10030    2    1    2    0    0  0.00000000000E+00  0.00000000000E+00  0.27114685105E+03  0.10362159281E+04  0.10001114112E+04 0.  0.
        4    1    3    3  502    0  0.49022690955E+02 -0.17914108636E+03  0.61661798424E+03  0.64398300012E+03  0.12699999809E+01 0. -1.
       -4    1    3    3    0  502 -0.49022690955E+02  0.17914108636E+03 -0.34547113319E+03  0.39223292802E+03  0.12699999809E+01 0.  1.
</event>
<event>
 5   0  0.2473312E-04  0.9998657E+03  0.7818609E-02  0.9308692E-01
        2   -1    0    0  501    0  0.00000000000E+00  0.00000000000E+00  0.97451827789E+03  0.97451827789E+03  0.25500000920E-02 0. -1.
       -2   -1    0    0    0  501  0.00000000000E+00  0.00000000000E+00 -0.25646809488E+03  0.25646809489E+03  0.25500000920E-02 0.  1.
    10030    2    1    2    0    0  0.00000000000E+00  0.00000000000E+00  0.71805018301E+03  0.12309863728E+04  0.99986568331E+03 0.  0.
        5    1    3    3  502    0 -0.43671524797E+03  0.98602651935E+01  0.65830722440E+03  0.79006830359E+03  0.46999998093E+01 0. -1.
       -5    1    3    3    0  502  0.43671524797E+03 -0.98602651935E+01  0.59742958602E+02  0.44091806919E+03  0.46999998093E+01 0.  1.
</event>
<event>
 5   0  0.1430675E-04  0.1000611E+04  0.7818609E-02  0.9307875E-01
       -1   -1    0    0    0  501  0.00000000000E+00  0.00000000000E+00  0.41597836309E+03  0.41597836312E+03  0.50400001928E-02 0. -1.
        1   -1    0    0  501    0  0.00000000000E+00  0.00000000000E+00 -0.60172750123E+03  0.60172750125E+03  0.50400001928E-02 0.  1.
    10030    2    1    2    0    0  0.00000000000E+00  0.00000000000E+00 -0.18574913814E+03  0.10177058644E+04  0.10006110553E+04 0.  0.
        5    1    3    3  502    0  0.93024175206E+02  0.28186519359E+03  0.31672394108E+03  0.43409403288E+03  0.46999998093E+01 0. -1.
       -5    1    3    3    0  502 -0.93024175206E+02 -0.28186519359E+03 -0.50247307921E+03  0.58361183150E+03  0.46999998093E+01 0.  1.
</event>
<event>
 5   0  0.2403037E-04  0.1000155E+04  0.7818609E-02  0.9308375E-01
        2   -1    0    0  501    0  0.00000000000E+00  0.00000000000E+00  0.88661995601E+03  0.88661995602E+03  0.25500000920E-02 0.  1.
       -2   -1    0    0    0  501  0.00000000000E+00  0.00000000000E+00 -0.28205695639E+03  0.28205695640E+03  0.25500000920E-02 0. -1.
    10030    2    1    2    0    0  0.00000000000E+00  0.00000000000E+00  0.60456299963E+03  0.11686769124E+04  0.10001546406E+04 0.  0.
        1    1    3    3  502    0 -0.20650945462E+03  0.33154862097E+03 -0.62593831434E+02  0.39558643894E+03  0.50400001928E-02 0. -1.
       -1    1    3    3    0  502  0.20650945462E+03 -0.33154862097E+03  0.66715683106E+03  0.77309047347E+03  0.50400001928E-02 0.  1.
</event>
<event>
 5   0  0.2503680E-04  0.9996657E+03  0.7818609E-02  0.9308912E-01
        2   -1    0    0  501    0  0.00000000000E+00  0.00000000000E+00  0.23636337758E+04  0.23636337758E+04  0.25500000920E-02 0.  1.
       -2   -1    0    0    0  501  0.00000000000E+00  0.00000000000E+00 -0.10569863598E+03  0.10569863601E+03  0.25500000920E-02 0. -1.
    10030    2    1    2    0    0  0.00000000000E+00  0.00000000000E+00  0.22579351398E+04  0.24693324118E+04  0.99966567629E+03 0.  0.
        2    1    3    3  502    0  0.29561396094E+03  0.55988712395E+02  0.21148996517E+04  0.21361935508E+04  0.25500000920E-02 0.  1.
       -2    1    3    3    0  502 -0.29561396094E+03 -0.55988712395E+02  0.14303548809E+03  0.33313886095E+03  0.25500000920E-02 0. -1.
</event>
<event>
 5   0  0.2503680E-04  0.9999083E+03  0.7818609E-02  0.9308645E-01
        2   -1    0    0  501    0  0.00000000000E+00  0.00000000000E+00  0.78601322028E+03  0.78601322029E+03  0.25500000920E-02 0.  1.
       -2   -1    0    0    0  501  0.00000000000E+00  0.00000000000E+00 -0.31800246836E+03  0.31800246838E+03  0.25500000920E-02 0. -1.
    10030    2    1    2    0    0  0.00000000000E+00  0.00000000000E+00  0.46801075192E+03  0.11040156887E+04  0.99990828425E+03 0.  0.
        2    1    3    3  502    0 -0.46818751353E+03 -0.14352571537E+03  0.34526928215E+03  0.59917447877E+03  0.25500000920E-02 0.  1.
       -2    1    3    3    0  502  0.46818751353E+03  0.14352571537E+03  0.12274146977E+03  0.50484120990E+03  0.25500000920E-02 0. -1.
</event>
<event>
 5   0  0.1414165E-04  0.1000361E+04  0.7818609E-02  0.9308149E-01
       -1   -1    0    0    0  501  0.00000000000E+00  0.00000000000E+00  0.36854808533E+03  0.36854808536E+03  0.50400001928E-02 0. -1.
        1   -1    0    0  501    0  0.00000000000E+00  0.00000000000E+00 -0.67882738285E+03  0.67882738287E+03  0.50400001928E-02 0.  1.
    10030    2    1    2    0    0  0.00000000000E+00  0.00000000000E+00 -0.31027929752E+03  0.10473754682E+04  0.10003609993E+04 0.  0.
        4    1    3    3  502    0 -0.13996032810E+03 -0.11885146901E+03 -0.64226287893E+03  0.66799534705E+03  0.12699999809E+01 0.  1.
       -4    1    3    3    0  502  0.13996032810E+03  0.11885146901E+03  0.33198358141E+03  0.37938012119E+03  0.12699999809E+01 0. -1.
</event>
<event>
 5   0  0.1453863E-04  0.1000064E+04  0.7818609E-02  0.9308475E-01
       -1   -1    0    0    0  501  0.00000000000E+00  0.00000000000E+00  0.34395094400E+03  0.34395094403E+03  0.50400001928E-02 0.  1.
        1   -1    0    0  501    0  0.00000000000E+00  0.00000000000E+00 -0.72694034738E+03  0.72694034740E+03  0.50400001928E-02 0. -1.
    10030    2    1    2    0    0  0.00000000000E+00  0.00000000000E+00 -0.38298940338E+03  0.10708912914E+04  0.10000636355E+04 0.  0.
        1    1    3    3  502    0 -0.14504995774E+03  0.12629263394E+03 -0.68574947835E+03  0.71220900494E+03  0.50400001928E-02 0. -1.
       -1    1    3    3    0  502  0.14504995774E+03 -0.12629263394E+03  0.30276007497E+03  0.35868228650E+03  0.50400001928E-02 0.  1.
</event>
<event>
 5   0  0.2473312E-04  0.9999656E+03  0.7818609E-02  0.9308582E-01
       -2   -1    0    0    0  501  0.00000000000E+00  0.00000000000E+00  0.26869701029E+03  0.26869701030E+03  0.25500000920E-02 0.  1.
        2   -1    0    0  501    0  0.00000000000E+00  0.00000000000E+00 -0.93035208193E+03  0.93035208194E+03  0.25500000920E-02 0. -1.
    10030    2    1    2    0    0  0.00000000000E+00  0.00000000000E+00 -0.66165507164E+03  0.11990490922E+04  0.99996564529E+03 0.  0.
        5    1    3    3  502    0 -0.23403079982E+03  0.28428921082E+03 -0.73634342334E+03  0.82329490327E+03  0.46999998093E+01 0. -1.
       -5    1    3    3    0  502  0.23403079982E+03 -0.28428921082E+03  0.74688351699E+02  0.37575418897E+03  0.46999998093E+01 0.  1.
</event>
<event>
 5   0  0.1430675E-04  0.1000095E+04  0.7818609E-02  0.9308440E-01
        1   -1    0    0  501    0  0.00000000000E+00  0.00000000000E+00  0.14239519633E+04  0.14239519633E+04  0.50400001928E-02 0.  1.
       -1   -1    0    0    0  501  0.00000000000E+00  0.00000000000E+00 -0.17560124015E+03  0.17560124023E+03  0.50400001928E-02 0. -1.
    10030    2    1    2    0    0  0.00000000000E+00  0.00000000000E+00  0.12483507231E+04  0.15995532035E+04  0.10000954569E+04 0.  0.
        5    1    3    3  502    0 -0.25138053018E+03  0.18255643730E+03 -0.24684943332E+01  0.31072046475E+03  0.46999998093E+01 0. -1.
       -5    1    3    3    0  502  0.25138053018E+03 -0.18255643730E+03  0.12508192174E+04  0.12888327387E+04  0.46999998093E+01 0.  1.
</event>
<event>
 5   0  0.2503680E-04  0.9997371E+03  0.7818609E-02  0.9308833E-01
        2   -1    0    0  501    0  0.00000000000E+00  0.00000000000E+00  0.13180803781E+04  0.13180803781E+04  0.25500000920E-02 0.  1.
       -2   -1    0    0    0  501  0.00000000000E+00  0.00000000000E+00 -0.18957006485E+03  0.18957006487E+03  0.25500000920E-02 0. -1.
    10030    2    1    2    0    0  0.00000000000E+00  0.00000000000E+00  0.11285103133E+04  0.15076504430E+04  0.99973713101E+03 0.  0.
        2    1    3    3  502    0  0.29423723246E+03 -0.17875060973E+03  0.11107869300E+04  0.11629165634E+04  0.25500000920E-02 0.  1.
       -2    1    3    3    0  502 -0.29423723246E+03  0.17875060973E+03  0.17723383255E+02  0.34473387963E+03  0.25500000920E-02 0. -1.
</event>
<event>
 5   0  0.2353916E-04  0.1000061E+04  0.7818609E-02  0.9308478E-01
        2   -1    0    0  501    0  0.00000000000E+00  0.00000000000E+00  0.63074132229E+03  0.63074132229E+03  0.25500000920E-02 0.  1.
       -2   -1    0    0    0  501  0.00000000000E+00  0.00000000000E+00 -0.39640724847E+03  0.39640724848E+03  0.25500000920E-02 0. -1.
    10030    2    1    2    0    0  0.00000000000E+00  0.00000000000E+00  0.23433407382E+03  0.10271485708E+04  0.10000608623E+04 0.  0.
        4    1    3    3  502    0  0.36390411478E+03  0.34185236163E+03  0.89235256903E+02  0.50720191825E+03  0.12699999809E+01 0. -1.
       -4    1    3    3    0  502 -0.36390411478E+03 -0.34185236163E+03  0.14509881691E+03  0.51994665253E+03  0.12699999809E+01 0.  1.
</event>
<event>
 5   0  0.1414165E-04  0.1000183E+04  0.7818609E-02  0.9308344E-01
       -1   -1    0    0    0  501  0.00000000000E+00  0.00000000000E+00  0.31642937625E+03  0.31642937629E+03  0.50400001928E-02 0. -1.
        1   -1    0    0  501    0  0.00000000000E+00  0.00000000000E+00 -0.79035481952E+03  0.79035481953E+03  0.50400001928E-02 0.  1.
    10030    2    1    2    0    0  0.00000000000E+00  0.00000000000E+00 -0.47392544326E+03  0.11067841958E+04  0.10001829484E+04 0.  0.
        4    1    3    3  502    0 -0.26738032676E+03  0.26130388017E+03 -0.60450433803E+03  0.71077356769E+03  0.12699999809E+01 0.  1.
       -4    1    3    3    0  502  0.26738032676E+03 -0.26130388017E+03  0.13057889477E+03  0.39601062813E+03  0.12699999809E+01 0. -1.
</event>
<event>
 5   0  0.2473312E-04  0.9998441E+03  0.7818609E-02  0.9308716E-01
       -2   -1    0    0    0  501  0.00000000000E+00  0.00000000000E+00  0.55636694152E+03  0.55636694152E+03  0.25500000920E-02 0.  1.
        2   -1    0    0  501    0  0.00000000000E+00  0.00000000000E+00 -0.44920364212E+03  0.44920364213E+03  0.25500000920E-02 0. -1.
    10030    2    1    2    0    0  0.00000000000E+00  0.00000000000E+00  0.10716329940E+03  0.10055705837E+04  0.99984410083E+03 0.  0.
        5    1    3    3  502    0  0.83914101777E+02  0.24233297644E+03  0.48514665956E+03  0.54877702141E+03  0.46999998093E+01 0.  1.
       -5    1    3    3    0  502 -0.83914101777E+02 -0.24233297644E+03 -0.37798336016E+03  0.45679356224E+03  0.46999998093E+01 0. -1.
</event>
<event>
 5   0  0.2484904E-04  0.9973447E+03  0.7818609E-02  0.9311462E-01
       -2   -1    0    0    0  501  0.00000000000E+00  0.00000000000E+00  0.19385005042E+03  0.19385005044E+03  0.25500000920E-02 0. -1.
        2   -1    0    0  501    0  0.00000000000E+00  0.00000000000E+00 -0.12828168972E+04  0.12828168972E+04  0.25500000920E-02 0.  1.
    10030    2    1    2    0    0  0.00000000000E+00  0.00000000000E+00 -0.10889668468E+04  0.14766669477E+04  0.99734471517E+03 0.  0.
        3    1    3    3  502    0 -0.40722852651E+02 -0.23486576674E+03 -0.11930021200E+04  0.12165830624E+04  0.10100000352E+00 0.  1.
       -3    1    3    3    0  502  0.40722852651E+02  0.23486576674E+03  0.10403527320E+03  0.26008388529E+03  0.10100000352E+00 0. -1.
</event>
<event>
 5   0  0.2353916E-04  0.9971485E+03  0.7818609E-02  0.9311678E-01
       -2   -1    0    0    0  501  0.00000000000E+00  0.00000000000E+00  0.47776863459E+03  0.47776863460E+03  0.25500000920E-02 0.  1.
        2   -1    0    0  501    0  0.00000000000E+00  0.00000000000E+00 -0.52028586316E+03  0.52028586317E+03  0.25500000920E-02 0. -1.
    10030    2    1    2    0    0  0.00000000000E+00  0.00000000000E+00 -0.42517228569E+02  0.99805449777E+03  0.99714846728E+03 0.  0.
        4    1    3    3  502    0 -0.38797145090E+02  0.21491908100E+03  0.42734414529E+03  0.47991672325E+03  0.12699999809E+01 0.  1.
       -4    1    3    3    0  502  0.38797145090E+02 -0.21491908100E+03 -0.46986137385E+03  0.51813777452E+03  0.12699999809E+01 0. -1.
</event>
<event>
 5   0  0.1461334E-04  0.1000053E+04  0.7818609E-02  0.9308486E-01
       -1   -1    0    0    0  501  0.00000000000E+00  0.00000000000E+00  0.13844677639E+03  0.13844677649E+03  0.50400001928E-02 0. -1.
        1   -1    0    0  501    0  0.00000000000E+00  0.00000000000E+00 -0.18059409649E+04  0.18059409649E+04  0.50400001928E-02 0.  1.
    10030    2    1    2    0    0  0.00000000000E+00  0.00000000000E+00 -0.16674941885E+04  0.19443877414E+04  0.10000534087E+04 0.  0.
        2    1    3    3  502    0  0.88401697910E+02 -0.45617060573E+03 -0.47460557759E+03  0.66419645890E+03  0.25500000920E-02 0. -1.
       -2    1    3    3    0  502 -0.88401697910E+02  0.45617060573E+03 -0.11928886109E+04  0.12801912825E+04  0.25500000920E-02 0.  1.
</event>
<event>
 5   0  0.2484904E-04  0.1000468E+04  0.7818609E-02  0.9308032E-01
        2   -1    0    0  501    0  0.00000000000E+00  0.00000000000E+00  0.98461782710E+03  0.98461782710E+03  0.25500000920E-02 0. -1.
       -2   -1    0    0    0  501  0.00000000000E+00  0.00000000000E+00 -0.25414313719E+03  0.25414313720E+03  0.25500000920E-02 0.  1.
    10030    2    1    2    0    0  0.00000000000E+00  0.00000000000E+00  0.73047468991E+03  0.12387609643E+04  0.10004676177E+04 0.  0.
        3    1    3    3  502    0  0.28622590940E+03 -0.15202075291E+02 -0.14238325479E+03  0.32004589632E+03  0.10100000352E+00 0.  1.
       -3    1    3    3    0  502 -0.28622590940E+03  0.15202075291E+02  0.87285794471E+03  0.91871506798E+03  0.10100000352E+00 0. -1.
</event>
<event>
 5   0  0.1506454E-04  0.9996623E+03  0.7818609E-02  0.9308915E-01
       -1   -1    0    0    0  501  0.00000000000E+00  0.00000000000E+00  0.21660358832E+03  0.21660358838E+03  0.50400001928E-02 0.  1.
        1   -1    0    0  501    0  0.00000000000E+00  0.00000000000E+00 -0.11534028077E+04  0.11534028077E+04  0.50400001928E-02 0. -1.
    10030    2    1    2    0    0  0.00000000000E+00  0.00000000000E+00 -0.93679921937E+03  0.13700063961E+04  0.99966231693E+03 0.  0.
        3    1    3    3  502    0 -0.38692185374E+03 -0.30487003364E+03 -0.58450122959E+03  0.76439254046E+03  0.10100000352E+00 0. -1.
       -3    1    3    3    0  502  0.38692185374E+03  0.30487003364E+03 -0.35229798978E+03  0.60561385562E+03  0.10100000352E+00 0.  1.
</event>
<event>
 5   0  0.2353916E-04  0.9997637E+03  0.7818609E-02  0.9308804E-01
        2   -1    0    0  501    0  0.00000000000E+00  0.00000000000E+00  0.20019743287E+03  0.20019743289E+03  0.25500000920E-02 0. -1.
       -2   -1    0    0    0  501  0.00000000000E+00  0.00000000000E+00 -0.12481770801E+04  0.12481770801E+04  0.25500000920E-02 0.  1.
    10030    2    1    2    0    0  0.00000000000E+00  0.00000000000E+00 -0.10479796472E+04  0.14483745130E+04  0.99976366651E+03 0.  0.
        4    1    3    3  502    0 -0.30110130745E+03 -0.33984033211E+02  0.51979134390E+02  0.30744162889E+03  0.12699999809E+01 0. -1.
       -4    1    3    3    0  502  0.30110130745E+03  0.33984033211E+02 -0.10999587816E+04  0.11409328841E+04  0.12699999809E+01 0.  1.
</event>
<event>
 5   0  0.1453863E-04  0.1000137E+04  0.7818609E-02  0.9308394E-01
       -1   -1    0    0    0  501  0.00000000000E+00  0.00000000000E+00  0.33397246789E+03  0.33397246793E+03  0.50400001928E-02 0. -1.
        1   -1    0    0  501    0  0.00000000000E+00  0.00000000000E+00 -0.74877005775E+03  0.74877005777E+03  0.50400001928E-02 0.  1.
    10030    2    1    2    0    0  0.00000000000E+00  0.00000000000E+00 -0.41479758986E+03  0.10827425257E+04  0.10001371588E+04 0.  0.
        1    1    3    3  502    0  0.87747343792E+02 -0.11867928395E+03  0.30985486565E+03  0.34321189748E+03  0.50400001928E-02 0. -1.
       -1    1    3    3    0  502 -0.87747343792E+02  0.11867928395E+03 -0.72465245550E+03  0.73953062822E+03  0.50400001928E-02 0.  1.
</event>
<event>
 5   0  0.2473312E-04  0.1000349E+04  0.7818609E-02  0.9308162E-01
        2   -1    0    0  501    0  0.00000000000E+00  0.00000000000E+00  0.20073287692E+04  0.20073287692E+04  0.25500000920E-02 0. -1.
       -2   -1    0    0    0  501  0.00000000000E+00  0.00000000000E+00 -0.12463051431E+03  0.12463051434E+03  0.25500000920E-02 0.  1.
    10030    2    1    2    0    0  0.00000000000E+00  0.00000000000E+00  0.18826982548E+04  0.21319592835E+04  0.10003487730E+04 0.  0.
        5    1    3    3  502    0  0.47394682509E+03 -0.14864506825E+03  0.10661914151E+04  0.11762258172E+04  0.46999998093E+01 0.  1.
       -5    1    3    3    0  502 -0.47394682509E+03  0.14864506825E+03  0.81650683973E+03  0.95573346632E+03  0.46999998093E+01 0. -1.
</event>
<event>
 5   0  0.1430675E-04  0.1000951E+04  0.7818609E-02  0.9307503E-01
        1   -1    0    0  501    0  0.00000000000E+00  0.00000000000E+00  0.12474680643E+04  0.12474680643E+04  0.50400001928E-02 0. -1.
       -1   -1    0    0    0  501  0.00000000000E+00  0.00000000000E+00 -0.20078718829E+03  0.20078718835E+03  0.50400001928E-02 0.  1.
    10030    2    1    2    0    0  0.00000000000E+00  0.00000000000E+00  0.10466808760E+04  0.14482552527E+04  0.10009507584E+04 0.  0.
        5    1    3    3  502    0 -0.80053734637E+02  0.30543046927E+03  0.10851270030E+04  0.11301411746E+04  0.46999998093E+01 0. -1.
       -5    1    3    3    0  502  0.80053734637E+02 -0.30543046927E+03 -0.38446126938E+02  0.31811407806E+03  0.46999998093E+01 0.  1.
</event>
<event>
 5   0  0.1430675E-04  0.9996921E+03  0.7818609E-02  0.9308883E-01
        1   -1    0    0  501    0  0.00000000000E+00  0.00000000000E+00  0.54228076970E+03  0.54228076973E+03  0.50400001928E-02 0. -1.
       -1   -1    0    0    0  501  0.00000000000E+00  0.00000000000E+00 -0.46073196845E+03  0.46073196848E+03  0.50400001928E-02 0.  1.
    10030    2    1    2    0    0  0.00000000000E+00  0.00000000000E+00  0.81548801254E+02  0.10030127382E+04  0.99969212561E+03 0.  0.
        5    1    3    3  502    0 -0.33263782977E+03  0.90756808531E+02  0.40383167174E+03  0.53102432447E+03  0.46999998093E+01 0. -1.
       -5    1    3    3    0  502  0.33263782977E+03 -0.90756808531E+02 -0.32228287049E+03  0.47198841373E+03  0.46999998093E+01 0.  1.
</event>
<event>
 5   0  0.2473312E-04  0.1002009E+04  0.7818609E-02  0.9306344E-01
       -2   -1    0    0    0  501  0.00000000000E+00  0.00000000000E+00  0.13946395544E+03  0.13946395546E+03  0.25500000920E-02 0.  1.
        2   -1    0    0  501    0  0.00000000000E+00  0.00000000000E+00 -0.17997877331E+04  0.17997877331E+04  0.25500000920E-02 0. -1.
    10030    2    1    2    0    0  0.00000000000E+00  0.00000000000E+00 -0.16603237777E+04  0.19392516886E+04  0.10020090144E+04 0.  0.
        5    1    3    3  502    0  0.83603705720E+01 -0.29876898666E+03 -0.52033534199E+02  0.30341783379E+03  0.46999998093E+01 0.  1.
       -5    1    3    3    0  502 -0.83603705720E+01  0.29876898666E+03 -0.16082902435E+04  0.16358338548E+04  0.46999998093E+01 0. -1.
</event>
<event>
 5   0  0.1414165E-04  0.9996109E+03  0.7818609E-02  0.9308972E-01
       -1   -1    0    0    0  501  0.00000000000E+00  0.00000000000E+00  0.19852928418E+03  0.19852928424E+03  0.50400001928E-02 0.  1.
        1   -1    0    0  501    0  0.00000000000E+00  0.00000000000E+00 -0.12582802431E+04  0.12582802431E+04  0.50400001928E-02 0. -1.
    10030    2    1    2    0    0  0.00000000000E+00  0.00000000000E+00 -0.10597509589E+04  0.14568095274E+04  0.99961087632E+03 0.  0.
        4    1    3    3  502    0  0.26307638431E+03  0.42468163031E+03 -0.50728886837E+03  0.71197421300E+03  0.12699999809E+01 0.  1.
       -4    1    3    3    0  502 -0.26307638431E+03 -0.42468163031E+03 -0.55246209056E+03  0.74483531436E+03  0.12699999809E+01 0. -1.
</event>
<event>
 5   0  0.1414165E-04  0.1000138E+04  0.7818609E-02  0.9308394E-01
       -1   -1    0    0    0  501  0.00000000000E+00  0.00000000000E+00  0.90766545924E+03  0.90766545925E+03  0.50400001928E-02 0.  1.
        1   -1    0    0  501    0  0.00000000000E+00  0.00000000000E+00 -0.27550783785E+03  0.27550783790E+03  0.50400001928E-02 0. -1.
    10030    2    1    2    0    0  0.00000000000E+00  0.00000000000E+00  0.63215762139E+03  0.11831732972E+04  0.10001378869E+04 0.  0.
        4    1    3    3  502    0 -0.19947963416E+03 -0.45059281562E+02  0.85593195856E+03  0.88002476891E+03  0.12699999809E+01 0.  1.
       -4    1    3    3    0  502  0.19947963416E+03  0.45059281562E+02 -0.22377433718E+03  0.30314852825E+03  0.12699999809E+01 0. -1.
</event>
<event>
 5   0  0.1430675E-04  0.1000299E+04  0.7818609E-02  0.9308217E-01
        1   -1    0    0  501    0  0.00000000000E+00  0.00000000000E+00  0.45422455771E+03  0.45422455774E+03  0.50400001928E-02 0.  1.
       -1   -1    0    0    0  501  0.00000000000E+00  0.00000000000E+00 -0.55071786756E+03  0.55071786758E+03  0.50400001928E-02 0. -1.
    10030    2    1    2    0    0  0.00000000000E+00  0.00000000000E+00 -0.96493309853E+02  0.10049424253E+04  0.10002991149E+04 0.  0.
        5    1    3    3  502    0  0.13146511082E+03  0.32328033113E+03  0.31165394568E+03  0.46791400889E+03  0.46999998093E+01 0.  1.
       -5    1    3    3    0  502 -0.13146511082E+03 -0.32328033113E+03 -0.40814725553E+03  0.53702841643E+03  0.46999998093E+01 0. -1.
</event>
<event>
 5   0  0.1461334E-04  0.9995013E+03  0.7818609E-02  0.9309092E-01
       -1   -1    0    0    0  501  0.00000000000E+00  0.00000000000E+00  0.21549092644E+03  0.21549092650E+03  0.50400001928E-02 0. -1.
        1   -1    0    0  501    0  0.00000000000E+00  0.00000000000E+00 -0.11589848938E+04  0.11589848939E+04  0.50400001928E-02 0.  1.
    10030    2    1    2    0    0  0.00000000000E+00  0.00000000000E+00 -0.94349396740E+03  0.13744758204E+04  0.99950133278E+03 0.  0.
        2    1    3    3  502    0  0.43057482979E+03  0.13379098301E+02 -0.12337471067E+03  0.44810155496E+03  0.25500000920E-02 0. -1.
       -2    1    3    3    0  502 -0.43057482979E+03 -0.13379098301E+02 -0.82011925673E+03  0.92637426540E+03  0.25500000920E-02 0.  1.
</event>
<event>
 5   0  0.1414165E-04  0.1000432E+04  0.7818609E-02  0.9308072E-01
       -1   -1    0    0    0  501  0.00000000000E+00  0.00000000000E+00  0.23376760287E+03  0.23376760292E+03  0.50400001928E-02 0.  1.
        1   -1    0    0  501    0  0.00000000000E+00  0.00000000000E+00 -0.10703616288E+04  0.10703616288E+04  0.50400001928E-02 0. -1.
    10030    2    1    2    0    0  0.00000000000E+00  0.00000000000E+00 -0.83659402590E+03  0.13041292317E+04  0.10004316512E+04 0.  0.
        4    1    3    3  502    0  0.43129916126E+03  0.12410072823E+03 -0.70624746286E+03  0.83678375280E+03  0.12699999809E+01 0.  1.
       -4    1    3    3    0  502 -0.43129916126E+03 -0.12410072823E+03 -0.13034656304E+03  0.46734547890E+03  0.12699999809E+01 0. -1.
</event>
<event>
 5   0  0.1414165E-04  0.9997137E+03  0.7818609E-02  0.9308859E-01
       -1   -1    0    0    0  501  0.00000000000E+00  0.00000000000E+00  0.25131308034E+03  0.25131308039E+03  0.50400001928E-02 0. -1.
        1   -1    0    0  501    0  0.00000000000E+00  0.00000000000E+00 -0.99420555055E+03  0.99420555056E+03  0.50400001928E-02 0.  1.
    10030    2    1    2    0    0  0.00000000000E+00  0.00000000000E+00 -0.74289247022E+03  0.12455186310E+04  0.99971367788E+03 0.  0.
        4    1    3    3  502    0  0.15456449591E+03 -0.28559930853E+03  0.10198328109E+03  0.34038118478E+03  0.12699999809E+01 0.  1.
       -4    1    3    3    0  502 -0.15456449591E+03  0.28559930853E+03 -0.84487575130E+03  0.90513744617E+03  0.12699999809E+01 0. -1.
</event>
<event>
 5   0  0.1453863E-04  0.9997711E+03  0.7818609E-02  0.9308796E-01
        1   -1    0    0  501    0  0.00000000000E+00  0.00000000000E+00  0.10073323977E+04  0.10073323977E+04  0.50400001928E-02 0.  1.
       -1   -1    0    0    0  501  0.00000000000E+00  0.00000000000E+00 -0.24806664437E+03  0.24806664442E+03  0.50400001928E-02 0. -1.
    10030    2    1    2    0    0  0.00000000000E+00  0.00000000000E+00  0.75926575328E+03  0.12553990421E+04  0.99977110919E+03 0.  0.
        1    1    3    3  502    0 -0.33423260194E+02 -0.10481533701E+03  0.99194220999E+03  0.99802440711E+03  0.50400001928E-02 0.  1.
       -1    1    3    3    0  502  0.33423260194E+02  0.10481533701E+03 -0.23267645672E+03  0.25737463498E+03  0.50400001928E-02 0. -1.
</event>
<event>
 5   0  0.2503680E-04  0.9997974E+03  0.7818609E-02  0.9308767E-01
       -2   -1    0    0    0  501  0.00000000000E+00  0.00000000000E+00  0.66100810410E+03  0.66100810411E+03  0.25500000920E-02 0. -1.
        2   -1    0    0  501    0  0.00000000000E+00  0.00000000000E+00 -0.37805692729E+03  0.37805692730E+03  0.25500000920E-02 0.  1.
    10030    2    1    2    0    0  0.00000000000E+00  0.00000000000E+00  0.28295117681E+03  0.10390650314E+04  0.99979736498E+03 0.  0.
        2    1    3    3  502    0  0.45075021068E+03 -0.10187593617E+03 -0.56653618565E+02  0.46557930721E+03  0.25500000920E-02 0.  1.
       -2    1    3    3    0  502 -0.45075021068E+03  0.10187593617E+03  0.33960479538E+03  0.57348572419E+03  0.25500000920E-02 0. -1.
</event>
<event>
 5   0  0.1453863E-04  0.1000012E+04  0.7818609E-02  0.9308531E-01
       -1   -1    0    0    0  501  0.00000000000E+00  0.00000000000E+00  0.23741987061E+03  0.23741987067E+03  0.50400001928E-02 0. -1.
        1   -1    0    0  501    0  0.00000000000E+00  0.00000000000E+00 -0.10530130237E+04  0.10530130237E+04  0.50400001928E-02 0.  1.
    10030    2    1    2    0    0  0.00000000000E+00  0.00000000000E+00 -0.81559315305E+03  0.12904328943E+04  0.10000124317E+04 0.  0.
        1    1    3    3  502    0  0.16721960119E+03  0.31282696469E+03  0.46941472135E+02  0.35780805845E+03  0.50400001928E-02 0. -1.
       -1    1    3    3    0  502 -0.16721960119E+03 -0.31282696469E+03 -0.86253462518E+03  0.93262483589E+03  0.50400001928E-02 0.  1.
</event>
<event>
 5   0  0.1414165E-04  0.9997233E+03  0.7818609E-02  0.9308848E-01
        1   -1    0    0  501    0  0.00000000000E+00  0.00000000000E+00  0.13519425528E+04  0.13519425529E+04  0.50400001928E-02 0. -1.
       -1   -1    0    0    0  501  0.00000000000E+00  0.00000000000E+00 -0.18481676337E+03  0.18481676344E+03  0.50400001928E-02 0.  1.
    10030    2    1    2    0    0  0.00000000000E+00  0.00000000000E+00  0.11671257895E+04  0.15367593163E+04  0.99972325560E+03 0.  0.
        4    1    3    3  502    0  0.12220959339E+03  0.12638087910E+03 -0.13572248832E+03  0.22210249448E+03  0.12699999809E+01 0.  1.
       -4    1    3    3    0  502 -0.12220959339E+03 -0.12638087910E+03  0.13028482778E+04  0.13146568218E+04  0.12699999809E+01 0. -1.
</event>
<event>
 5   0  0.2473312E-04  0.9998838E+03  0.7818609E-02  0.9308672E-01
       -2   -1    0    0    0  501  0.00000000000E+00  0.00000000000E+00  0.10885512918E+04  0.10885512918E+04  0.25500000920E-02 0. -1.
        2   -1    0    0  501    0  0.00000000000E+00  0.00000000000E+00 -0.22960967323E+03  0.22960967324E+03  0.25500000920E-02 0.  1.
    10030    2    1    2    0    0  0.00000000000E+00  0.00000000000E+00  0.85894161856E+03  0.13181609650E+04  0.99988380608E+03 0.  0.
        5    1    3    3  502    0 -0.37711457730E+03 -0.32734136676E+03  0.39849627255E+03  0.63889681799E+03  0.46999998093E+01 0. -1.
       -5    1    3    3    0  502  0.37711457730E+03  0.32734136676E+03  0.46044534601E+03  0.67926414705E+03  0.46999998093E+01 0.  1.
</event>
<event>
 5   0  0.2473312E-04  0.1000017E+04  0.7818609E-02  0.9308526E-01
        2   -1    0    0  501    0  0.00000000000E+00  0.00000000000E+00  0.55072341586E+03  0.55072341586E+03  0.25500000920E-02 0. -1.
       -2   -1    0    0    0  501  0.00000000000E+00  0.00000000000E+00 -0.45396401351E+03  0.45396401352E+03  0.25500000920E-02 0.  1.
    10030    2    1    2    0    0  0.00000000000E+00  0.00000000000E+00  0.96759402347E+02  0.10046874294E+04  0.10000172243E+04 0.  0.
        5    1    3    3  502    0  0.14388770045E+03 -0.47180215608E+03 -0.33767533434E+02  0.49443228165E+03  0.46999998093E+01 0.  1.
       -5    1    3    3    0  502 -0.14388770045E+03  0.47180215608E+03  0.13052693578E+03  0.51025514773E+03  0.46999998093E+01 0. -1.
</event>
<event>
 5   0  0.1506454E-04  0.9999765E+03  0.7818609E-02  0.9308571E-01
       -1   -1    0    0    0  501  0.00000000000E+00  0.00000000000E+00  0.56850782798E+03  0.56850782801E+03  0.50400001928E-02 0.  1.
        1   -1    0    0  501    0  0.00000000000E+00  0.00000000000E+00 -0.43972697299E+03  0.43972697302E+03  0.50400001928E-02 0. -1.
    10030    2    1    2    0    0  0.00000000000E+00  0.00000000000E+00  0.12878085499E+03  0.10082348010E+04  0.99997645241E+03 0.  0.
        3    1    3    3  502    0  0.14532974081E+03 -0.18953046849E+03 -0.37849301559E+03  0.44754832711E+03  0.10100000352E+00 0. -1.
       -3    1    3    3    0  502 -0.14532974081E+03  0.18953046849E+03  0.50727387058E+03  0.56068647391E+03  0.10100000352E+00 0.  1.
</event>
<event>
 5   0  0.1414165E-04  0.1000265E+04  0.7818609E-02  0.9308255E-01
       -1   -1    0    0    0  501  0.00000000000E+00  0.00000000000E+00  0.13753303033E+03  0.13753303042E+03  0.50400001928E-02 0.  1.
        1   -1    0    0  501    0  0.00000000000E+00  0.00000000000E+00 -0.18187074675E+04  0.18187074675E+04  0.50400001928E-02 0. -1.
    10030    2    1    2    0    0  0.00000000000E+00  0.00000000000E+00 -0.16811744371E+04  0.19562404979E+04  0.10002646637E+04 0.  0.
        4    1    3    3  502    0 -0.41022292679E+02  0.48137319540E+03 -0.10935322451E+04  0.11954987937E+04  0.12699999809E+01 0. -1.
       -4    1    3    3    0  502  0.41022292679E+02 -0.48137319540E+03 -0.58764219202E+03  0.76074170419E+03  0.12699999809E+01 0.  1.
</event>
<event>
 5   0  0.1461334E-04  0.1003680E+04  0.7818609E-02  0.9304518E-01
       -1   -1    0    0    0  501  0.00000000000E+00  0.00000000000E+00  0.21589655588E+03  0.21589655594E+03  0.50400001928E-02 0. -1.
        1   -1    0    0  501    0  0.00000000000E+00  0.00000000000E+00 -0.11665005188E+04  0.11665005188E+04  0.50400001928E-02 0.  1.
    10030    2    1    2    0    0  0.00000000000E+00  0.00000000000E+00 -0.95060396292E+03  0.13823970747E+04  0.10036801173E+04 0.  0.
        2    1    3    3  502    0  0.19042533165E+03  0.46077768330E+03 -0.39659439537E+03  0.63707534469E+03  0.25500000920E-02 0.  1.
       -2    1    3    3    0  502 -0.19042533165E+03 -0.46077768330E+03 -0.55400956755E+03  0.74532173006E+03  0.25500000920E-02 0. -1.
</event>
<event>
 5   0  0.2353916E-04  0.1001668E+04  0.7818609E-02  0.9306718E-01
        2   -1    0    0  501    0  0.00000000000E+00  0.00000000000E+00  0.60441837279E+03  0.60441837279E+03  0.25500000920E-02 0.  1.
       -2   -1    0    0    0  501  0.00000000000E+00  0.00000000000E+00 -0.41500145586E+03  0.41500145587E+03  0.25500000920E-02 0. -1.
    10030    2    1    2    0    0  0.00000000000E+00  0.00000000000E+00  0.18941691693E+03  0.10194198287E+04  0.10016676188E+04 0.  0.
        4    1    3    3  502    0  0.35824433440E+03  0.12447068108E+03  0.42761569455E+03  0.57156692408E+03  0.12699999809E+01 0.  1.
       -4    1    3    3    0  502 -0.35824433440E+03 -0.12447068108E+03 -0.23819877762E+03  0.44785290458E+03  0.12699999809E+01 0. -1.
</event>
<event>
 5   0  0.1430675E-04  0.1000774E+04  0.7818609E-02  0.9307697E-01
        1   -1    0    0  501    0  0.00000000000E+00  0.00000000000E+00  0.18862968219E+04  0.18862968219E+04  0.50400001928E-02 0.  1.
       -1   -1    0    0    0  501  0.00000000000E+00  0.00000000000E+00 -0.13273999721E+03  0.13273999730E+03  0.50400001928E-02 0. -1.
    10030    2    1    2    0    0  0.00000000000E+00  0.00000000000E+00  0.17535568247E+04  0.20190368192E+04  0.10007737706E+04 0.  0.
        5    1    3    3  502    0  0.47745914301E+03  0.49981637248E+02  0.59218166856E+03  0.76234284668E+03  0.46999998093E+01 0.  1.
       -5    1    3    3    0  502 -0.47745914301E+03 -0.49981637248E+02  0.11613751562E+04  0.12566939726E+04  0.46999998093E+01 0. -1.
</event>
<event>
 5   0  0.1506454E-04  0.9998487E+03  0.7818609E-02  0.9308711E-01
        1   -1    0    0  501    0  0.00000000000E+00  0.00000000000E+00  0.76189841310E+03  0.76189841312E+03  0.50400001928E-02 0.  1.
       -1   -1    0    0    0  501  0.00000000000E+00  0.00000000000E+00 -0.32802843115E+03  0.32802843119E+03  0.50400001928E-02 0. -1.
    10030    2    1    2    0    0  0.00000000000E+00  0.00000000000E+00  0.43386998195E+03  0.10899268443E+04  0.99984867090E+03 0.  0.
        3    1    3    3  502    0 -0.50729923852E+02 -0.15904750247E+03  0.73061546569E+03  0.74944552979E+03  0.10100000352E+00 0.  1.
       -3    1    3    3    0  502  0.50729923852E+02  0.15904750247E+03 -0.29674548373E+03  0.34048131452E+03  0.10100000352E+00 0. -1.
</event>
<event>
 5   0  0.2503680E-04  0.1000106E+04  0.7818609E-02  0.9308428E-01
       -2   -1    0    0    0  501  0.00000000000E+00  0.00000000000E+00  0.36585088333E+03  0.36585088334E+03  0.25500000920E-02 0.  1.
        2   -1    0    0  501    0  0.00000000000E+00  0.00000000000E+00 -0.68348381776E+03  0.68348381776E+03  0.25500000920E-02 0. -1.
    10030    2    1    2    0    0  0.00000000000E+00  0.00000000000E+00 -0.31763293443E+03  0.10493347011E+04  0.10001063113E+04 0.  0.
        2    1    3    3  502    0  0.36134404204E+03  0.12246753797E+03 -0.49796938313E+03  0.62732871855E+03  0.25500000920E-02 0. -1.
       -2    1    3    3    0  502 -0.36134404204E+03 -0.12246753797E+03  0.18033644870E+03  0.42200598255E+03  0.25500000920E-02 0.  1.
</event>
<event>
 5   0  0.2473312E-04  0.9996554E+03  0.7818609E-02  0.9308923E-01
        2   -1    0    0  501    0  0.00000000000E+00  0.00000000000E+00  0.13771103003E+04  0.13771103003E+04  0.25500000920E-02 0. -1.
       -2   -1    0    0    0  501  0.00000000000E+00  0.00000000000E+00 -0.18141444966E+03  0.18141444968E+03  0.25500000920E-02 0.  1.
    10030    2    1    2    0    0  0.00000000000E+00  0.00000000000E+00  0.11956958507E+04  0.15585247500E+04  0.99965535515E+03 0.  0.
        5    1    3    3  502    0  0.37697381559E+03  0.32377022650E+03  0.51433689875E+03  0.71519294783E+03  0.46999998093E+01 0. -1.
       -5    1    3    3    0  502 -0.37697381559E+03 -0.32377022650E+03  0.68135895193E+03  0.84333180219E+03  0.46999998093E+01 0.  1.
</event>
<event>
 5   0  0.2484904E-04  0.1000032E+04  0.7818609E-02  0.9308510E-01
        2   -1    0    0  501    0  0.00000000000E+00  0.00000000000E+00  0.19384576701E+03  0.19384576703E+03  0.25500000920E-02 0.  1.
       -2   -1    0    0    0  501  0.00000000000E+00  0.00000000000E+00 -0.12897668842E+04  0.12897668842E+04  0.25500000920E-02 0. -1.
    10030    2    1    2    0    0  0.00000000000E+00  0.00000000000E+00 -0.10959211172E+04  0.14836126512E+04  0.10000317014E+04 0.  0.
        3    1    3    3  502    0  0.17013751381E+03 -0.46769194489E+03 -0.61962325599E+03  0.79474242273E+03  0.10100000352E+00 0.  1.
       -3    1    3    3    0  502 -0.17013751381E+03  0.46769194489E+03 -0.47629786120E+03  0.68887022850E+03  0.10100000352E+00 0. -1.
</event>
<event>
 5   0  0.9650500E-05  0.9991366E+03  0.7818609E-02  0.9309492E-01
        4   -1    0    0  501    0  0.00000000000E+00  0.00000000000E+00  0.38343064668E+03  0.38343274993E+03  0.12699999809E+01 0.  1.
       -4   -1    0    0    0  501  0.00000000000E+00  0.00000000000E+00 -0.65087843335E+03  0.65087967236E+03  0.12699999809E+01 0. -1.
    10030    2    1    2    0    0  0.00000000000E+00  0.00000000000E+00 -0.26744778666E+03  0.10343124223E+04  0.99913656139E+03 0.  0.
        3    1    3    3  502    0 -0.18687662531E+03 -0.30469221160E+03  0.22757382866E+03  0.42373349477E+03  0.10100000352E+00 0.  1.
       -3    1    3    3    0  502  0.18687662531E+03  0.30469221160E+03 -0.49502161533E+03  0.61057892752E+03  0.10100000352E+00 0. -1.
</event>
<event>
 5   0  0.2484904E-04  0.9979142E+03  0.7818609E-02  0.9310835E-01
       -2   -1    0    0    0  501  0.00000000000E+00  0.00000000000E+00  0.10784730387E+03  0.10784730390E+03  0.25500000920E-02 0.  1.
        2   -1    0    0  501    0  0.00000000000E+00  0.00000000000E+00 -0.23084324014E+04  0.23084324014E+04  0.25500000920E-02 0. -1.
    10030    2    1    2    0    0  0.00000000000E+00  0.00000000000E+00 -0.22005850975E+04  0.24162797053E+04  0.99791424620E+03 0.  0.
        3    1    3    3  502    0  0.45340916714E+03 -0.11704708836E+03 -0.15174245829E+04  0.15880356635E+04  0.10100000352E+00 0. -1.
       -3    1    3    3    0  502 -0.45340916714E+03  0.11704708836E+03 -0.68316051465E+03  0.82824404176E+03  0.10100000352E+00 0.  1.
</event>
<event>
 5   0  0.1430675E-04  0.9998469E+03  0.7818609E-02  0.9308713E-01
       -1   -1    0    0    0  501  0.00000000000E+00  0.00000000000E+00  0.51917283957E+03  0.51917283959E+03  0.50400001928E-02 0.  1.
        1   -1    0    0  501    0  0.00000000000E+00  0.00000000000E+00 -0.48138780288E+03  0.48138780291E+03  0.50400001928E-02 0. -1.
    10030    2    1    2    0    0  0.00000000000E+00  0.00000000000E+00  0.37785036683E+02  0.10005606425E+04  0.99984693345E+03 0.  0.
        5    1    3    3  502    0  0.24961104399E+03  0.94540154760E+02 -0.40408858997E+03  0.48430691992E+03  0.46999998093E+01 0. -1.
       -5    1    3    3    0  502 -0.24961104399E+03 -0.94540154760E+02  0.44187362666E+03  0.51625372258E+03  0.46999998093E+01 0.  1.
</event>
<event>
 5   0  0.1506454E-04  0.9999360E+03  0.7818609E-02  0.9308615E-01
       -1   -1    0    0    0  501  0.00000000000E+00  0.00000000000E+00  0.68213846806E+03  0.68213846808E+03  0.50400001928E-02 0. -1.
        1   -1    0    0  501    0  0.00000000000E+00  0.00000000000E+00 -0.36644761002E+03  0.36644761005E+03  0.50400001928E-02 0.  1.
    10030    2    1    2    0    0  0.00000000000E+00  0.00000000000E+00  0.31569085804E+03  0.10485860781E+04  0.99993602065E+03 0.  0.
        3    1    3    3  502    0 -0.87030117608E+02  0.37732956223E+03 -0.17379461567E+03  0.42444836970E+03  0.10100000352E+00 0.  1.
       -3    1    3    3    0  502  0.87030117608E+02 -0.37732956223E+03  0.48948547371E+03  0.62413770843E+03  0.10100000352E+00 0. -1.
</event>
<event>
 5   0  0.9650500E-05  0.9997813E+03  0.7818609E-02  0.9308785E-01
       -3   -1    0    0    0  501  0.00000000000E+00  0.00000000000E+00  0.72312443637E+03  0.72312444342E+03  0.10100000352E+00 0.  1.
        3   -1    0    0  501    0  0.00000000000E+00  0.00000000000E+00 -0.34557071252E+03  0.34557072728E+03  0.10100000352E+00 0. -1.
    10030    2    1    2    0    0  0.00000000000E+00  0.00000000000E+00  0.37755372385E+03  0.10686951707E+04  0.99978125282E+03 0.  0.
        1    1    3    3  502    0  0.31322680441E+03  0.19523624319E+03  0.54915405711E+03  0.66166335860E+03  0.50400001928E-02 0.  1.
       -1    1    3    3    0  502 -0.31322680441E+03 -0.19523624319E+03 -0.17160033325E+03  0.40703181210E+03  0.50400001928E-02 0. -1.
</event>
<event>
 5   0  0.1414165E-04  0.9999563E+03  0.7818609E-02  0.9308593E-01
       -1   -1    0    0    0  501  0.00000000000E+00  0.00000000000E+00  0.12957687131E+04  0.12957687131E+04  0.50400001928E-02 0. -1.
        1   -1    0    0  501    0  0.00000000000E+00  0.00000000000E+00 -0.19291881137E+03  0.19291881143E+03  0.50400001928E-02 0.  1.
    10030    2    1    2    0    0  0.00000000000E+00  0.00000000000E+00  0.11028499018E+04  0.14886875246E+04  0.99995631905E+03 0.  0.
        4    1    3    3  502    0  0.48254414690E+03 -0.36214256794E+02  0.36419562134E+03  0.60564047883E+03  0.12699999809E+01 0. -1.
       -4    1    3    3    0  502 -0.48254414690E+03  0.36214256794E+02  0.73865428043E+03  0.88304704575E+03  0.12699999809E+01 0.  1.
</event>
<event>
 5   0  0.2353916E-04  0.9991432E+03  0.7818609E-02  0.9309485E-01
        2   -1    0    0  501    0  0.00000000000E+00  0.00000000000E+00  0.14175241588E+04  0.14175241589E+04  0.25500000920E-02 0. -1.
       -2   -1    0    0    0  501  0.00000000000E+00  0.00000000000E+00 -0.17606175459E+03  0.17606175461E+03  0.25500000920E-02 0.  1.
    10030    2    1    2    0    0  0.00000000000E+00  0.00000000000E+00  0.12414624043E+04  0.15935859135E+04  0.99914321415E+03 0.  0.
        4    1    3    3  502    0  0.22608731839E+03  0.81188819546E+02  0.13193551079E+04  0.13410468350E+04  0.12699999809E+01 0. -1.
       -4    1    3    3    0  502 -0.22608731839E+03 -0.81188819546E+02 -0.77892703677E+02  0.25253907845E+03  0.12699999809E+01 0.  1.
</event>
<event>
 5   0  0.1414165E-04  0.9999502E+03  0.7818609E-02  0.9308599E-01
       -1   -1    0    0    0  501  0.00000000000E+00  0.00000000000E+00  0.19902443166E+03  0.19902443172E+03  0.50400001928E-02 0. -1.
        1   -1    0    0  501    0  0.00000000000E+00  0.00000000000E+00 -0.12560020746E+04  0.12560020746E+04  0.50400001928E-02 0.  1.
    10030    2    1    2    0    0  0.00000000000E+00  0.00000000000E+00 -0.10569776429E+04  0.14550265063E+04  0.99995019697E+03 0.  0.
        4    1    3    3  502    0  0.17350062653E+03  0.70087616348E+02 -0.12031257242E+04  0.12175910078E+04  0.12699999809E+01 0.  1.
       -4    1    3    3    0  502 -0.17350062653E+03 -0.70087616348E+02  0.14614808125E+03  0.23743549845E+03  0.12699999809E+01 0. -1.
</event>
<event>
 5   0  0.2473312E-04  0.9996884E+03  0.7818609E-02  0.9308887E-01
       -2   -1    0    0    0  501  0.00000000000E+00  0.00000000000E+00  0.51718822084E+03  0.51718822085E+03  0.25500000920E-02 0.  1.
        2   -1    0    0  501    0  0.00000000000E+00  0.00000000000E+00 -0.48308185617E+03  0.48308185618E+03  0.25500000920E-02 0. -1.
    10030    2    1    2    0    0  0.00000000000E+00  0.00000000000E+00  0.34106364667E+02  0.10002700770E+04  0.99968844291E+03 0.  0.
        5    1    3    3  502    0  0.42509099325E+03 -0.15015594009E+03 -0.19888015547E+03  0.49277232585E+03  0.46999998093E+01 0. -1.
       -5    1    3    3    0  502 -0.42509099325E+03  0.15015594009E+03  0.23298652014E+03  0.50749775118E+03  0.46999998093E+01 0.  1.
</event>
<event>
 5   0  0.1506454E-04  0.9987186E+03  0.7818609E-02  0.9309951E-01
        1   -1    0    0  501    0  0.00000000000E+00  0.00000000000E+00  0.11112924338E+04  0.11112924338E+04  0.50400001928E-02 0. -1.
       -1   -1    0    0    0  501  0.00000000000E+00  0.00000000000E+00 -0.22438713851E+03  0.22438713857E+03  0.50400001928E-02 0.  1.
    10030    2    1    2    0    0  0.00000000000E+00  0.00000000000E+00  0.88690529525E+03  0.13356795723E+04  0.99871863767E+03 0.  0.
        3    1    3    3  502    0  0.15968125025E+03  0.37861759154E+03  0.63976090998E+02  0.41586335824E+03  0.10100000352E+00 0. -1.
       -3    1    3    3    0  502 -0.15968125025E+03 -0.37861759154E+03  0.82292920426E+03  0.91981621410E+03  0.10100000352E+00 0.  1.
</event>
<event>
 5   0  0.2503680E-04  0.1000337E+04  0.7818609E-02  0.9308175E-01
        2   -1    0    0  501    0  0.00000000000E+00  0.00000000000E+00  0.20941391998E+04  0.20941391998E+04  0.25500000920E-02 0. -1.
       -2   -1    0    0    0  501  0.00000000000E+00  0.00000000000E+00 -0.11946129215E+03  0.11946129218E+03  0.25500000920E-02 0.  1.
    10030    2    1    2    0    0  0.00000000000E+00  0.00000000000E+00  0.19746779077E+04  0.22136004920E+04  0.10003370928E+04 0.  0.
        2    1    3    3  502    0 -0.47979673359E+01 -0.27854845995E+03  0.19065564712E+04  0.19268030110E+04  0.25500000920E-02 0. -1.
       -2    1    3    3    0  502  0.47979673359E+01  0.27854845995E+03  0.68121436441E+02  0.28679748105E+03  0.25500000920E-02 0.  1.
</event>
<event>
 5   0  0.2353916E-04  0.9998956E+03  0.7818609E-02  0.9308659E-01
       -2   -1    0    0    0  501  0.00000000000E+00  0.00000000000E+00  0.30188039747E+03  0.30188039748E+03  0.25500000920E-02 0. -1.
        2   -1    0    0  501    0  0.00000000000E+00  0.00000000000E+00 -0.82796969043E+03  0.82796969043E+03  0.25500000920E-02 0.  1.
    10030    2    1    2    0    0  0.00000000000E+00  0.00000000000E+00 -0.52608929295E+03  0.11298500879E+04  0.99989563306E+03 0.  0.
        4    1    3    3  502    0  0.38146599133E+03 -0.28481404158E+03 -0.90522301860E+02  0.48459389271E+03  0.12699999809E+01 0. -1.
       -4    1    3    3    0  502 -0.38146599133E+03  0.28481404158E+03 -0.43556699109E+03  0.64525619520E+03  0.12699999809E+01 0.  1.
</event>
<event>
 5   0  0.2503680E-04  0.1005260E+04  0.7818609E-02  0.9302795E-01
        2   -1    0    0  501    0  0.00000000000E+00  0.00000000000E+00  0.11256129498E+04  0.11256129498E+04  0.25500000920E-02 0. -1.
       -2   -1    0    0    0  501  0.00000000000E+00  0.00000000000E+00 -0.22444384197E+03  0.22444384198E+03  0.25500000920E-02 0.  1.
    10030    2    1    2    0    0  0.00000000000E+00  0.00000000000E+00  0.90116910780E+03  0.13500567917E+04  0.10052599565E+04 0.  0.
        2    1    3    3  502    0  0.25342067733E+03 -0.33872523631E+03  0.81512747436E+03  0.91836246922E+03  0.25500000920E-02 0. -1.
       -2    1    3    3    0  502 -0.25342067733E+03  0.33872523631E+03  0.86041633436E+02  0.43169432253E+03  0.25500000920E-02 0.  1.
</event>
<event>
 5   0  0.1414165E-04  0.9996980E+03  0.7818609E-02  0.9308876E-01
        1   -1    0    0  501    0  0.00000000000E+00  0.00000000000E+00  0.12969011511E+04  0.12969011511E+04  0.50400001928E-02 0.  1.
       -1   -1    0    0    0  501  0.00000000000E+00  0.00000000000E+00 -0.19265077782E+03  0.19265077789E+03  0.50400001928E-02 0. -1.
    10030    2    1    2    0    0  0.00000000000E+00  0.00000000000E+00  0.11042503733E+04  0.14895519290E+04  0.99969798555E+03 0.  0.
        4    1    3    3  502    0 -0.46539194845E+03 -0.55831123215E+02  0.81080523971E+03  0.93654339443E+03  0.12699999809E+01 0.  1.
       -4    1    3    3    0  502  0.46539194845E+03  0.55831123215E+02  0.29344513357E+03  0.55300853458E+03  0.12699999809E+01 0. -1.
</event>
<event>
 5   0  0.2473312E-04  0.9974016E+03  0.7818609E-02  0.9311399E-01
        2   -1    0    0  501    0  0.00000000000E+00  0.00000000000E+00  0.93314602005E+03  0.93314602006E+03  0.25500000920E-02 0. -1.
       -2   -1    0    0    0  501  0.00000000000E+00  0.00000000000E+00 -0.26652043018E+03  0.26652043019E+03  0.25500000920E-02 0.  1.
    10030    2    1    2    0    0  0.00000000000E+00  0.00000000000E+00  0.66662558987E+03  0.11996664502E+04  0.99740158150E+03 0.  0.
        5    1    3    3  502    0 -0.31313717069E+03 -0.36336374472E+03  0.49731772528E+03  0.69096679263E+03  0.46999998093E+01 0.  1.
       -5    1    3    3    0  502  0.31313717069E+03  0.36336374472E+03  0.16930786459E+03  0.50869965761E+03  0.46999998093E+01 0. -1.
</event>
<event>
 5   0  0.1461334E-04  0.9998121E+03  0.7818609E-02  0.9308751E-01
       -1   -1    0    0    0  501  0.00000000000E+00  0.00000000000E+00  0.57013143658E+03  0.57013143660E+03  0.50400001928E-02 0.  1.
        1   -1    0    0  501    0  0.00000000000E+00  0.00000000000E+00 -0.43833061679E+03  0.43833061682E+03  0.50400001928E-02 0. -1.
    10030    2    1    2    0    0  0.00000000000E+00  0.00000000000E+00  0.13180081979E+03  0.10084620534E+04  0.99981211090E+03 0.  0.
        2    1    3    3  502    0  0.15422674318E+03  0.36012176815E+03  0.37912283958E+03  0.54516759231E+03  0.25500000920E-02 0.  1.
       -2    1    3    3    0  502 -0.15422674318E+03 -0.36012176815E+03 -0.24732201980E+03  0.46329446111E+03  0.25500000920E-02 0. -1.
</event>
<event>
 5   0  0.1453863E-04  0.9997227E+03  0.7818609E-02  0.9308849E-01
       -1   -1    0    0    0  501  0.00000000000E+00  0.00000000000E+00  0.15083622295E+03  0.15083622304E+03  0.50400001928E-02 0.  1.
        1   -1    0    0  501    0  0.00000000000E+00  0.00000000000E+00 -0.16565078523E+04  0.16565078523E+04  0.50400001928E-02 0. -1.
    10030    2    1    2    0    0  0.00000000000E+00  0.00000000000E+00 -0.15056716293E+04  0.18073440753E+04  0.99972273719E+03 0.  0.
        1    1    3    3  502    0 -0.52176902481E+02  0.47664316902E+03 -0.10081855548E+04  0.11164001311E+04  0.50400001928E-02 0.  1.
       -1    1    3    3    0  502  0.52176902481E+02 -0.47664316902E+03 -0.49748607452E+03  0.69094394424E+03  0.50400001928E-02 0. -1.
</event>
<event>
 5   0  0.1430675E-04  0.1001939E+04  0.7818609E-02  0.9306421E-01
       -1   -1    0    0    0  501  0.00000000000E+00  0.00000000000E+00  0.12711753539E+03  0.12711753549E+03  0.50400001928E-02 0.  1.
        1   -1    0    0  501    0  0.00000000000E+00  0.00000000000E+00 -0.19743167052E+04  0.19743167053E+04  0.50400001928E-02 0. -1.
    10030    2    1    2    0    0  0.00000000000E+00  0.00000000000E+00 -0.18471991699E+04  0.21014342407E+04  0.10019386683E+04 0.  0.
        5    1    3    3  502    0 -0.20362842588E+03  0.45414029514E+03 -0.10429882989E+04  0.11556619857E+04  0.46999998093E+01 0.  1.
       -5    1    3    3    0  502  0.20362842588E+03 -0.45414029514E+03 -0.80421087093E+03  0.94577225504E+03  0.46999998093E+01 0. -1.
</event>
<event>
 5   0  0.1414165E-04  0.1000330E+04  0.7818609E-02  0.9308183E-01
        1   -1    0    0  501    0  0.00000000000E+00  0.00000000000E+00  0.86164042703E+03  0.86164042704E+03  0.50400001928E-02 0. -1.
       -1   -1    0    0    0  501  0.00000000000E+00  0.00000000000E+00 -0.29033588915E+03  0.29033588919E+03  0.50400001928E-02 0.  1.
    10030    2    1    2    0    0  0.00000000000E+00  0.00000000000E+00  0.57130453788E+03  0.11519763162E+04  0.10003302246E+04 0.  0.
        4    1    3    3  502    0  0.44329455440E+03 -0.19975300916E+03  0.15060486208E+03  0.50901352046E+03  0.12699999809E+01 0.  1.
       -4    1    3    3    0  502 -0.44329455440E+03  0.19975300916E+03  0.42069967580E+03  0.64296279577E+03  0.12699999809E+01 0. -1.
</event>
<event>
 5   0  0.2403037E-04  0.9997761E+03  0.7818609E-02  0.9308790E-01
       -2   -1    0    0    0  501  0.00000000000E+00  0.00000000000E+00  0.10225528473E+03  0.10225528476E+03  0.25500000920E-02 0. -1.
        2   -1    0    0  501    0  0.00000000000E+00  0.00000000000E+00 -0.24437667247E+04  0.24437667247E+04  0.25500000920E-02 0.  1.
    10030    2    1    2    0    0  0.00000000000E+00  0.00000000000E+00 -0.23415114400E+04  0.25460220095E+04  0.99977609953E+03 0.  0.
        1    1    3    3  502    0  0.25706449245E+03  0.17457205575E+03 -0.21679360156E+04  0.21900922638E+04  0.50400001928E-02 0.  1.
       -1    1    3    3    0  502 -0.25706449245E+03 -0.17457205575E+03 -0.17357542438E+03  0.35592974573E+03  0.50400001928E-02 0. -1.
</event>
<event>
 5   0  0.1414165E-04  0.9925726E+03  0.7818609E-02  0.9316729E-01
       -1   -1    0    0    0  501  0.00000000000E+00  0.00000000000E+00  0.48127698167E+03  0.48127698169E+03  0.50400001928E-02 0.  1.
        1   -1    0    0  501    0  0.00000000000E+00  0.00000000000E+00 -0.51176373271E+03  0.51176373273E+03  0.50400001928E-02 0. -1.
    10030    2    1    2    0    0  0.00000000000E+00  0.00000000000E+00 -0.30486751040E+02  0.99304071442E+03  0.99257262631E+03 0.  0.
        4    1    3    3  502    0  0.10220494924E+03 -0.39876547456E+03 -0.29257210888E+03  0.50503446134E+03  0.12699999809E+01 0. -1.
       -4    1    3    3    0  502 -0.10220494924E+03  0.39876547456E+03  0.26208535784E+03  0.48800625308E+03  0.12699999809E+01 0.  1.
</event>
<event>
 5   0  0.2484904E-04  0.1000004E+04  0.7818609E-02  0.9308540E-01
       -2   -1    0    0    0  501  0.00000000000E+00  0.00000000000E+00  0.22219118121E+03  0.22219118123E+03  0.25500000920E-02 0.  1.
        2   -1    0    0  501    0  0.00000000000E+00  0.00000000000E+00 -0.11251666873E+04  0.11251666873E+04  0.25500000920E-02 0. -1.
    10030    2    1    2    0    0  0.00000000000E+00  0.00000000000E+00 -0.90297550607E+03  0.13473578685E+04  0.10000042306E+04 0.  0.
        3    1    3    3  502    0  0.92048126579E+02  0.39655959662E+03 -0.60361527676E+02  0.41155302879E+03  0.10100000352E+00 0. -1.
       -3    1    3    3    0  502 -0.92048126579E+02 -0.39655959662E+03 -0.84261397840E+03  0.93580483973E+03  0.10100000352E+00 0.  1.
</event>
<event>
 5   0  0.2403037E-04  0.1000555E+04  0.7818609E-02  0.9307937E-01
        2   -1    0    0  501    0  0.00000000000E+00  0.00000000000E+00  0.10832427883E+04  0.10832427883E+04  0.25500000920E-02 0. -1.
       -2   -1    0    0    0  501  0.00000000000E+00  0.00000000000E+00 -0.23104459973E+03  0.23104459975E+03  0.25500000920E-02 0.  1.
    10030    2    1    2    0    0  0.00000000000E+00  0.00000000000E+00  0.85219818859E+03  0.13142873881E+04  0.10005546391E+04 0.  0.
        1    1    3    3  502    0 -0.19825520954E+03  0.44684184522E+03  0.28643724853E+03  0.56658543938E+03  0.50400001928E-02 0.  1.
       -1    1    3    3    0  502  0.19825520954E+03 -0.44684184522E+03  0.56576094006E+03  0.74770194869E+03  0.50400001928E-02 0. -1.
</event>
<event>
 5   0  0.2403037E-04  0.1000674E+04  0.7818609E-02  0.9307805E-01
       -2   -1    0    0    0  501  0.00000000000E+00  0.00000000000E+00  0.10307532992E+03  0.10307532995E+03  0.25500000920E-02 0.  1.
        2   -1    0    0  501    0  0.00000000000E+00  0.00000000000E+00 -0.24286829681E+04  0.24286829681E+04  0.25500000920E-02 0. -1.
    10030    2    1    2    0    0  0.00000000000E+00  0.00000000000E+00 -0.23256076382E+04  0.25317582981E+04  0.10006743691E+04 0.  0.
        1    1    3    3  502    0  0.16557632243E+03 -0.17547572530E+03 -0.53815138488E+02  0.24719085314E+03  0.50400001928E-02 0.  1.
       -1    1    3    3    0  502 -0.16557632243E+03  0.17547572530E+03 -0.22717924997E+04  0.22845674449E+04  0.50400001928E-02 0. -1.
</event>
<event>
 5   0  0.2473312E-04  0.1000317E+04  0.7818609E-02  0.9308198E-01
        2   -1    0    0  501    0  0.00000000000E+00  0.00000000000E+00  0.22865280886E+03  0.22865280887E+03  0.25500000920E-02 0. -1.
       -2   -1    0    0    0  501  0.00000000000E+00  0.00000000000E+00 -0.10940531251E+04  0.10940531251E+04  0.25500000920E-02 0.  1.
    10030    2    1    2    0    0  0.00000000000E+00  0.00000000000E+00 -0.86540031625E+03  0.13227059340E+04  0.10003165901E+04 0.  0.
        5    1    3    3  502    0  0.11397210730E+03  0.19969992390E+03  0.15458974195E+03  0.27710968797E+03  0.46999998093E+01 0. -1.
       -5    1    3    3    0  502 -0.11397210730E+03 -0.19969992390E+03 -0.10199900582E+04  0.10455962460E+04  0.46999998093E+01 0.  1.
</event>
<event>
 5   0  0.1430675E-04  0.1000272E+04  0.7818609E-02  0.9308246E-01
       -1   -1    0    0    0  501  0.00000000000E+00  0.00000000000E+00  0.23269946011E+03  0.23269946016E+03  0.50400001928E-02 0. -1.
        1   -1    0    0  501    0  0.00000000000E+00  0.00000000000E+00 -0.10749326652E+04  0.10749326652E+04  0.50400001928E-02 0.  1.
    10030    2    1    2    0    0  0.00000000000E+00  0.00000000000E+00 -0.84223320508E+03  0.13076321254E+04  0.10002724647E+04 0.  0.
        5    1    3    3  502    0  0.66184203607E+02 -0.31002984419E+03  0.84539535034E+02  0.32812783496E+03  0.46999998093E+01 0. -1.
       -5    1    3    3    0  502 -0.66184203607E+02  0.31002984419E+03 -0.92677274012E+03  0.97950429040E+03  0.46999998093E+01 0.  1.
</event>
<event>
 5   0  0.2484904E-04  0.9980066E+03  0.7818609E-02  0.9310734E-01
        2   -1    0    0  501    0  0.00000000000E+00  0.00000000000E+00  0.22967044943E+03  0.22967044944E+03  0.25500000920E-02 0.  1.
       -2   -1    0    0    0  501  0.00000000000E+00  0.00000000000E+00 -0.10841807393E+04  0.10841807393E+04  0.25500000920E-02 0. -1.
    10030    2    1    2    0    0  0.00000000000E+00  0.00000000000E+00 -0.85451028986E+03  0.13138511887E+04  0.99800656844E+03 0.  0.
        3    1    3    3  502    0 -0.27145805260E+03 -0.89904502653E+02 -0.96561471323E+03  0.10070670675E+04  0.10100000352E+00 0. -1.
       -3    1    3    3    0  502  0.27145805260E+03  0.89904502653E+02  0.11110442337E+03  0.30678412119E+03  0.10100000352E+00 0.  1.
</event>
<event>
 5   0  0.1461334E-04  0.9983483E+03  0.7818609E-02  0.9310358E-01
       -1   -1    0    0    0  501  0.00000000000E+00  0.00000000000E+00  0.19336833685E+03  0.19336833691E+03  0.50400001928E-02 0. -1.
        1   -1    0    0  501    0  0.00000000000E+00  0.00000000000E+00 -0.12886020708E+04  0.12886020708E+04  0.50400001928E-02 0.  1.
    10030    2    1    2    0    0  0.00000000000E+00  0.00000000000E+00 -0.10952337339E+04  0.14819704077E+04  0.99834831465E+03 0.  0.
        2    1    3    3  502    0 -0.12957934817E+02 -0.28922928929E+03 -0.11512373115E+04  0.11870841745E+04  0.25500000920E-02 0.  1.
       -2    1    3    3    0  502  0.12957934817E+02  0.28922928929E+03  0.56003577560E+02  0.29488623325E+03  0.25500000920E-02 0. -1.
</event>
<event>
 5   0  0.1453863E-04  0.1000066E+04  0.7818609E-02  0.9308472E-01
       -1   -1    0    0    0  501  0.00000000000E+00  0.00000000000E+00  0.47680581758E+03  0.47680581760E+03  0.50400001928E-02 0.  1.
        1   -1    0    0  501    0  0.00000000000E+00  0.00000000000E+00 -0.52439201703E+03  0.52439201705E+03  0.50400001928E-02 0. -1.
    10030    2    1    2    0    0  0.00000000000E+00  0.00000000000E+00 -0.47586199449E+02  0.10011978347E+04  0.10000663267E+04 0.  0.
        1    1    3    3  502    0 -0.13624617602E+03 -0.19772341255E+03 -0.46289577849E+03  0.52146914590E+03  0.50400001928E-02 0. -1.
       -1    1    3    3    0  502  0.13624617602E+03  0.19772341255E+03  0.41530957904E+03  0.47972868876E+03  0.50400001928E-02 0.  1.
</event>
<event>
 5   0  0.1506454E-04  0.9993825E+03  0.7818609E-02  0.9309222E-01
        1   -1    0    0  501    0  0.00000000000E+00  0.00000000000E+00  0.59879601090E+03  0.59879601092E+03  0.50400001928E-02 0.  1.
       -1   -1    0    0    0  501  0.00000000000E+00  0.00000000000E+00 -0.41698901271E+03  0.41698901275E+03  0.50400001928E-02 0. -1.
    10030    2    1    2    0    0  0.00000000000E+00  0.00000000000E+00  0.18180699818E+03  0.10157850237E+04  0.99938252422E+03 0.  0.
        3    1    3    3  502    0  0.11431067126E+03  0.10127139121E+03 -0.39268734891E+03  0.42133856747E+03  0.10100000352E+00 0. -1.
       -3    1    3    3    0  502 -0.11431067126E+03 -0.10127139121E+03  0.57449434709E+03  0.59444645620E+03  0.10100000352E+00 0.  1.
</event>
<event>
 5   0  0.1506454E-04  0.1000076E+04  0.7818609E-02  0.9308461E-01
       -1   -1    0    0    0  501  0.00000000000E+00  0.00000000000E+00  0.22547299076E+03  0.22547299082E+03  0.50400001928E-02 0. -1.
        1   -1    0    0  501    0  0.00000000000E+00  0.00000000000E+00 -0.11089490771E+04  0.11089490771E+04  0.50400001928E-02 0.  1.
    10030    2    1    2    0    0  0.00000000000E+00  0.00000000000E+00 -0.88347608637E+03  0.13344220680E+04  0.10000761272E+04 0.  0.
        3    1    3    3  502    0  0.20530679988E+03  0.24089048619E+03 -0.95827511071E+03  0.10091928985E+04  0.10100000352E+00 0.  1.
       -3    1    3    3    0  502 -0.20530679988E+03 -0.24089048619E+03  0.74799024341E+02  0.32522916944E+03  0.10100000352E+00 0. -1.
</event>
<event>
 5   0  0.2503680E-04  0.1000306E+04  0.7818609E-02  0.9308209E-01
       -2   -1    0    0    0  501  0.00000000000E+00  0.00000000000E+00  0.61929803734E+03  0.61929803734E+03  0.25500000920E-02 0.  1.
        2   -1    0    0  501    0  0.00000000000E+00  0.00000000000E+00 -0.40393024299E+03  0.40393024299E+03  0.25500000920E-02 0. -1.
    10030    2    1    2    0    0  0.00000000000E+00  0.00000000000E+00  0.21536779435E+03  0.10232282803E+04  0.10003063665E+04 0.  0.
        2    1    3    3  502    0 -0.21098927073E+02 -0.45838529363E+03  0.31121816689E+03  0.55445377585E+03  0.25500000920E-02 0.  1.
       -2    1    3    3    0  502  0.21098927073E+02  0.45838529363E+03 -0.95850372534E+02  0.46877450449E+03  0.25500000920E-02 0. -1.
</event>
<event>
 5   0  0.1430675E-04  0.9997154E+03  0.7818609E-02  0.9308857E-01
       -1   -1    0    0    0  501  0.00000000000E+00  0.00000000000E+00  0.26380765198E+03  0.26380765203E+03  0.50400001928E-02 0.  1.
        1   -1    0    0  501    0  0.00000000000E+00  0.00000000000E+00 -0.94712090678E+03  0.94712090679E+03  0.50400001928E-02 0. -1.
    10030    2    1    2    0    0  0.00000000000E+00  0.00000000000E+00 -0.68331325480E+03  0.12109285588E+04  0.99971544471E+03 0.  0.
        5    1    3    3  502    0  0.22328516185E+03 -0.10330929726E+03  0.18536079545E+03  0.30807432365E+03  0.46999998093E+01 0.  1.
       -5    1    3    3    0  502 -0.22328516185E+03  0.10330929726E+03 -0.86867405025E+03  0.90285423517E+03  0.46999998093E+01 0. -1.
</event>
<event>
 5   0  0.2473312E-04  0.9998582E+03  0.7818609E-02  0.9308700E-01
       -2   -1    0    0    0  501  0.00000000000E+00  0.00000000000E+00  0.13682685690E+03  0.13682685692E+03  0.25500000920E-02 0.  1.
        2   -1    0    0  501    0  0.00000000000E+00  0.00000000000E+00 -0.18266084406E+04  0.18266084406E+04  0.25500000920E-02 0. -1.
    10030    2    1    2    0    0  0.00000000000E+00  0.00000000000E+00 -0.16897815837E+04  0.19634352976E+04  0.99985817344E+03 0.  0.
        5    1    3    3  502    0  0.17332238383E+03 -0.26634917954E+03 -0.16027023436E+04  0.16339092466E+04  0.46999998093E+01 0. -1.
       -5    1    3    3    0  502 -0.17332238383E+03  0.26634917954E+03 -0.87079240174E+02  0.32952605093E+03  0.46999998093E+01 0.  1.
</event>
<event>
 5   0  0.9650500E-05  0.1001404E+04  0.7818609E-02  0.9307006E-01
       -4   -1    0    0    0  501  0.00000000000E+00  0.00000000000E+00  0.39636738404E+03  0.39636941863E+03  0.12699999809E+01 0. -1.
        4   -1    0    0  501    0  0.00000000000E+00  0.00000000000E+00 -0.63249600192E+03  0.63249727695E+03  0.12699999809E+01 0.  1.
    10030    2    1    2    0    0  0.00000000000E+00  0.00000000000E+00 -0.23612861788E+03  0.10288666956E+04  0.10014039909E+04 0.  0.
        3    1    3    3  502    0 -0.25099150680E+03  0.33592334012E+03 -0.39917562737E+03  0.57894940937E+03  0.10100000352E+00 0.  1.
       -3    1    3    3    0  502  0.25099150680E+03 -0.33592334012E+03  0.16304700949E+03  0.44991728621E+03  0.10100000352E+00 0. -1.
</event>
<event>
 5   0  0.2473312E-04  0.9999143E+03  0.7818609E-02  0.9308639E-01
        2   -1    0    0  501    0  0.00000000000E+00  0.00000000000E+00  0.11666279141E+04  0.11666279141E+04  0.25500000920E-02 0. -1.
       -2   -1    0    0    0  501  0.00000000000E+00  0.00000000000E+00 -0.21425609904E+03  0.21425609906E+03  0.25500000920E-02 0.  1.
    10030    2    1    2    0    0  0.00000000000E+00  0.00000000000E+00  0.95237181503E+03  0.13808840131E+04  0.99991428816E+03 0.  0.
        5    1    3    3  502    0  0.15127033419E+03  0.39123203171E+03  0.85183337859E+03  0.94951956879E+03  0.46999998093E+01 0. -1.
       -5    1    3    3    0  502 -0.15127033419E+03 -0.39123203171E+03  0.10053843644E+03  0.43136444434E+03  0.46999998093E+01 0.  1.
</event>
<event>
 5   0  0.1453863E-04  0.1000213E+04  0.7818609E-02  0.9308311E-01
       -1   -1    0    0    0  501  0.00000000000E+00  0.00000000000E+00  0.46126650169E+03  0.46126650171E+03  0.50400001928E-02 0.  1.
        1   -1    0    0  501    0  0.00000000000E+00  0.00000000000E+00 -0.54221744719E+03  0.54221744721E+03  0.50400001928E-02 0. -1.
    10030    2    1    2    0    0  0.00000000000E+00  0.00000000000E+00 -0.80950945502E+02  0.10034839489E+04  0.10002134673E+04 0.  0.
        1    1    3    3  502    0  0.38334517702E+02 -0.28009187645E+03 -0.45436013207E+03  0.53513000676E+03  0.50400001928E-02 0. -1.
       -1    1    3    3    0  502 -0.38334517702E+02  0.28009187645E+03  0.37340918657E+03  0.46835394216E+03  0.50400001928E-02 0.  1.
</event>
<event>
 5   0  0.1461334E-04  0.9999857E+03  0.7818609E-02  0.9308560E-01
       -1   -1    0    0    0  501  0.00000000000E+00  0.00000000000E+00  0.84260321956E+03  0.84260321957E+03  0.50400001928E-02 0.  1.
        1   -1    0    0  501    0  0.00000000000E+00  0.00000000000E+00 -0.29669109417E+03  0.29669109421E+03  0.50400001928E-02 0. -1.
    10030    2    1    2    0    0  0.00000000000E+00  0.00000000000E+00  0.54591212539E+03  0.11392943138E+04  0.99998574228E+03 0.  0.
        2    1    3    3  502    0  0.70095185720E+02 -0.21884568368E+03  0.77887422859E+03  0.81206639648E+03  0.25500000920E-02 0.  1.
       -2    1    3    3    0  502 -0.70095185720E+02  0.21884568368E+03 -0.23296210320E+03  0.32722791730E+03  0.25500000920E-02 0. -1.
</event>
<event>
 5   0  0.2403037E-04  0.1000031E+04  0.7818609E-02  0.9308510E-01
        2   -1    0    0  501    0  0.00000000000E+00  0.00000000000E+00  0.15656512593E+04  0.15656512593E+04  0.25500000920E-02 0.  1.
       -2   -1    0    0    0  501  0.00000000000E+00  0.00000000000E+00 -0.15968801910E+03  0.15968801912E+03  0.25500000920E-02 0. -1.
    10030    2    1    2    0    0  0.00000000000E+00  0.00000000000E+00  0.14059632402E+04  0.17253392784E+04  0.10000314959E+04 0.  0.
        1    1    3    3  502    0  0.12279380592E+03  0.45034355769E+03  0.10122271399E+04  0.11146709925E+04  0.50400001928E-02 0.  1.
       -1    1    3    3    0  502 -0.12279380592E+03 -0.45034355769E+03  0.39373610028E+03  0.61066828591E+03  0.50400001928E-02 0. -1.
</event>
<event>
 5   0  0.2403037E-04  0.9998582E+03  0.7818609E-02  0.9308700E-01
        2   -1    0    0  501    0  0.00000000000E+00  0.00000000000E+00  0.10499924568E+04  0.10499924568E+04  0.25500000920E-02 0.  1.
       -2   -1    0    0    0  501  0.00000000000E+00  0.00000000000E+00 -0.23802943637E+03  0.23802943639E+03  0.25500000920E-02 0. -1.
    10030    2    1    2    0    0  0.00000000000E+00  0.00000000000E+00  0.81196302045E+03  0.12880218932E+04  0.99985821536E+03 0.  0.
        1    1    3    3  502    0  0.43170171421E+03 -0.20670849097E+03  0.22004069779E+03  0.52679472188E+03  0.50400001928E-02 0. -1.
       -1    1    3    3    0  502 -0.43170171421E+03  0.20670849097E+03  0.59192232266E+03  0.76122717134E+03  0.50400001928E-02 0.  1.
</event>
<event>
 5   0  0.1430675E-04  0.1000226E+04  0.7818609E-02  0.9308297E-01
       -1   -1    0    0    0  501  0.00000000000E+00  0.00000000000E+00  0.24585357376E+03  0.24585357381E+03  0.50400001928E-02 0.  1.
        1   -1    0    0  501    0  0.00000000000E+00  0.00000000000E+00 -0.10173255527E+04  0.10173255528E+04  0.50400001928E-02 0. -1.
    10030    2    1    2    0    0  0.00000000000E+00  0.00000000000E+00 -0.77147197898E+03  0.12631791266E+04  0.10002262201E+04 0.  0.
        5    1    3    3  502    0 -0.11650161598E+03 -0.47782288454E+03 -0.50012163316E+03  0.70144926650E+03  0.46999998093E+01 0.  1.
       -5    1    3    3    0  502  0.11650161598E+03  0.47782288454E+03 -0.27135034582E+03  0.56172986007E+03  0.46999998093E+01 0. -1.
</event>
<event>
 5   0  0.1414165E-04  0.1002472E+04  0.7818609E-02  0.9305837E-01
       -1   -1    0    0    0  501  0.00000000000E+00  0.00000000000E+00  0.10474625775E+04  0.10474625775E+04  0.50400001928E-02 0. -1.
        1   -1    0    0  501    0  0.00000000000E+00  0.00000000000E+00 -0.23985365172E+03  0.23985365177E+03  0.50400001928E-02 0.  1.
    10030    2    1    2    0    0  0.00000000000E+00  0.00000000000E+00  0.80760892573E+03  0.12873162292E+04  0.10024723922E+04 0.  0.
        4    1    3    3  502    0  0.20559058589E+01  0.40022730918E+03  0.79128756156E+03  0.88674897448E+03  0.12699999809E+01 0. -1.
       -4    1    3    3    0  502 -0.20559058589E+01 -0.40022730918E+03  0.16321364172E+02  0.40056725476E+03  0.12699999809E+01 0.  1.
</event>
<event>
 5   0  0.2473312E-04  0.9997822E+03  0.7818609E-02  0.9308784E-01
       -2   -1    0    0    0  501  0.00000000000E+00  0.00000000000E+00  0.11594881968E+04  0.11594881968E+04  0.25500000920E-02 0. -1.
        2   -1    0    0  501    0  0.00000000000E+00  0.00000000000E+00 -0.21551846485E+03  0.21551846486E+03  0.25500000920E-02 0.  1.
    10030    2    1    2    0    0  0.00000000000E+00  0.00000000000E+00  0.94396973198E+03  0.13750066617E+04  0.99978220868E+03 0.  0.
        5    1    3    3  502    0  0.28932701437E+03 -0.33532433468E+03  0.15323263446E+03  0.46867351209E+03  0.46999998093E+01 0.  1.
       -5    1    3    3    0  502 -0.28932701437E+03  0.33532433468E+03  0.79073709752E+03  0.90633314960E+03  0.46999998093E+01 0. -1.
</event>
<event>
 5   0  0.1430675E-04  0.1000246E+04  0.7818609E-02  0.9308275E-01
        1   -1    0    0  501    0  0.00000000000E+00  0.00000000000E+00  0.62195241457E+03  0.62195241460E+03  0.50400001928E-02 0. -1.
       -1   -1    0    0    0  501  0.00000000000E+00  0.00000000000E+00 -0.40215816920E+03  0.40215816923E+03  0.50400001928E-02 0.  1.
    10030    2    1    2    0    0  0.00000000000E+00  0.00000000000E+00  0.21979424537E+03  0.10241105838E+04  0.10002464584E+04 0.  0.
        5    1    3    3  502    0 -0.21494115838E+03  0.37711642077E+03 -0.14439236848E+03  0.45747977273E+03  0.46999998093E+01 0.  1.
       -5    1    3    3    0  502  0.21494115838E+03 -0.37711642077E+03  0.36418661385E+03  0.56663081110E+03  0.46999998093E+01 0. -1.
</event>
<event>
 5   0  0.1461334E-04  0.9996136E+03  0.7818609E-02  0.9308969E-01
       -1   -1    0    0    0  501  0.00000000000E+00  0.00000000000E+00  0.93443327380E+02  0.93443327516E+02  0.50400001928E-02 0. -1.
        1   -1    0    0  501    0  0.00000000000E+00  0.00000000000E+00 -0.26733514062E+04  0.26733514062E+04  0.50400001928E-02 0.  1.
    10030    2    1    2    0    0  0.00000000000E+00  0.00000000000E+00 -0.25799080788E+04  0.27667947337E+04  0.99961362705E+03 0.  0.
        2    1    3    3  502    0  0.38183653292E+03  0.26702024395E+02 -0.40037647140E+03  0.55390744248E+03  0.25500000920E-02 0. -1.
       -2    1    3    3    0  502 -0.38183653292E+03 -0.26702024395E+02 -0.21795316074E+04  0.22128872912E+04  0.25500000920E-02 0.  1.
</event>
<event>
 5   0  0.2473312E-04  0.1000125E+04  0.7818609E-02  0.9308407E-01
       -2   -1    0    0    0  501  0.00000000000E+00  0.00000000000E+00  0.23987997464E+03  0.23987997466E+03  0.25500000920E-02 0.  1.
        2   -1    0    0  501    0  0.00000000000E+00  0.00000000000E+00 -0.10424491749E+04  0.10424491749E+04  0.25500000920E-02 0. -1.
    10030    2    1    2    0    0  0.00000000000E+00  0.00000000000E+00 -0.80256920021E+03  0.12823291495E+04  0.10001253554E+04 0.  0.
        5    1    3    3  502    0  0.44187460745E+02  0.10153917342E+03  0.22393240312E+03  0.24986105457E+03  0.46999998093E+01 0.  1.
       -5    1    3    3    0  502 -0.44187460745E+02 -0.10153917342E+03 -0.10265016033E+04  0.10324680949E+04  0.46999998093E+01 0. -1.
</event>
<event>
 5   0  0.2403037E-04  0.1000465E+04  0.7818609E-02  0.9308035E-01
       -2   -1    0    0    0  501  0.00000000000E+00  0.00000000000E+00  0.24584422172E+03  0.24584422173E+03  0.25500000920E-02 0.  1.
        2   -1    0    0  501    0  0.00000000000E+00  0.00000000000E+00 -0.10178491068E+04  0.10178491068E+04  0.25500000920E-02 0. -1.
    10030    2    1    2    0    0  0.00000000000E+00  0.00000000000E+00 -0.77200488507E+03  0.12636933285E+04  0.10004645351E+04 0.  0.
        1    1    3    3  502    0 -0.18870541572E+03  0.28721728718E+03 -0.84513571740E+03  0.91233649759E+03  0.50400001928E-02 0. -1.
       -1    1    3    3    0  502  0.18870541572E+03 -0.28721728718E+03  0.73130832334E+02  0.35135683093E+03  0.50400001928E-02 0.  1.
</event>
<event>
 5   0  0.1461334E-04  0.1000079E+04  0.7818609E-02  0.9308458E-01
        1   -1    0    0  501    0  0.00000000000E+00  0.00000000000E+00  0.11513368187E+04  0.11513368188E+04  0.50400001928E-02 0.  1.
       -1   -1    0    0    0  501  0.00000000000E+00  0.00000000000E+00 -0.21717318248E+03  0.21717318254E+03  0.50400001928E-02 0. -1.
    10030    2    1    2    0    0  0.00000000000E+00  0.00000000000E+00  0.93416363627E+03  0.13685100013E+04  0.10000789590E+04 0.  0.
        2    1    3    3  502    0 -0.23288733272E+03  0.27692586113E+03 -0.51953861986E+01  0.36187212430E+03  0.25500000920E-02 0. -1.
       -2    1    3    3    0  502  0.23288733272E+03 -0.27692586113E+03  0.93935902247E+03  0.10066378770E+04  0.25500000920E-02 0.  1.
</event>
<event>
 5   0  0.1430675E-04  0.9995640E+03  0.7818609E-02  0.9309023E-01
        1   -1    0    0  501    0  0.00000000000E+00  0.00000000000E+00  0.40274253106E+03  0.40274253109E+03  0.50400001928E-02 0. -1.
       -1   -1    0    0    0  501  0.00000000000E+00  0.00000000000E+00 -0.62020276982E+03  0.62020276984E+03  0.50400001928E-02 0.  1.
    10030    2    1    2    0    0  0.00000000000E+00  0.00000000000E+00 -0.21746023877E+03  0.10229453009E+04  0.99956397156E+03 0.  0.
        5    1    3    3  502    0 -0.61003001178E+02 -0.14180688210E+03  0.37770864666E+03  0.40806429607E+03  0.46999998093E+01 0. -1.
       -5    1    3    3    0  502  0.61003001178E+02  0.14180688210E+03 -0.59516888543E+03  0.61488100486E+03  0.46999998093E+01 0.  1.
</event>
<event>
 5   0  0.1506454E-04  0.9993831E+03  0.7818609E-02  0.9309222E-01
        1   -1    0    0  501    0  0.00000000000E+00  0.00000000000E+00  0.10752665239E+04  0.10752665239E+04  0.50400001928E-02 0.  1.
       -1   -1    0    0    0  501  0.00000000000E+00  0.00000000000E+00 -0.23221374233E+03  0.23221374239E+03  0.50400001928E-02 0. -1.
    10030    2    1    2    0    0  0.00000000000E+00  0.00000000000E+00  0.84305278158E+03  0.13074802663E+04  0.99938313687E+03 0.  0.
        3    1    3    3  502    0 -0.79777066511E+02  0.26045632201E+03 -0.12653478389E+03  0.30035468658E+03  0.10100000352E+00 0. -1.
       -3    1    3    3    0  502  0.79777066511E+02 -0.26045632201E+03  0.96958756547E+03  0.10071255797E+04  0.10100000352E+00 0.  1.
</event>
<event>
 5   0  0.1506454E-04  0.1000219E+04  0.7818609E-02  0.9308305E-01
        1   -1    0    0  501    0  0.00000000000E+00  0.00000000000E+00  0.87334239955E+03  0.87334239957E+03  0.50400001928E-02 0.  1.
       -1   -1    0    0    0  501  0.00000000000E+00  0.00000000000E+00 -0.28638177089E+03  0.28638177093E+03  0.50400001928E-02 0. -1.
    10030    2    1    2    0    0  0.00000000000E+00  0.00000000000E+00  0.58696062867E+03  0.11597241705E+04  0.10002186621E+04 0.  0.
        3    1    3    3  502    0 -0.34731277357E+03  0.40141437592E+02 -0.12113678045E+03  0.37001571247E+03  0.10100000352E+00 0.  1.
       -3    1    3    3    0  502  0.34731277357E+03 -0.40141437592E+02  0.70809740911E+03  0.78970845803E+03  0.10100000352E+00 0. -1.
</event>
<event>
 5   0  0.1430675E-04  0.1000153E+04  0.7818609E-02  0.9308377E-01
        1   -1    0    0  501    0  0.00000000000E+00  0.00000000000E+00  0.11289500498E+04  0.11289500498E+04  0.50400001928E-02 0.  1.
       -1   -1    0    0    0  501  0.00000000000E+00  0.00000000000E+00 -0.22151239698E+03  0.22151239703E+03  0.50400001928E-02 0. -1.
    10030    2    1    2    0    0  0.00000000000E+00  0.00000000000E+00  0.90743765285E+03  0.13504624469E+04  0.10001528516E+04 0.  0.
        5    1    3    3  502    0  0.45003324868E+03  0.15942222738E+03  0.65448955321E+03  0.81013828249E+03  0.46999998093E+01 0. -1.
       -5    1    3    3    0  502 -0.45003324868E+03 -0.15942222738E+03  0.25294809964E+03  0.54032416438E+03  0.46999998093E+01 0.  1.
</event>
<event>
 5   0  0.1414165E-04  0.9998224E+03  0.7818609E-02  0.9308740E-01
        1   -1    0    0  501    0  0.00000000000E+00  0.00000000000E+00  0.95489925486E+03  0.95489925488E+03  0.50400001928E-02 0. -1.
       -1   -1    0    0    0  501  0.00000000000E+00  0.00000000000E+00 -0.26171472898E+03  0.26171472903E+03  0.50400001928E-02 0.  1.
    10030    2    1    2    0    0  0.00000000000E+00  0.00000000000E+00  0.69318452589E+03  0.12166139839E+04  0.99982238367E+03 0.  0.
        4    1    3    3  502    0 -0.13559306922E+03 -0.24472960980E+03  0.85070593798E+03  0.89553351034E+03  0.12699999809E+01 0. -1.
       -4    1    3    3    0  502  0.13559306922E+03  0.24472960980E+03 -0.15752141210E+03  0.32108047356E+03  0.12699999809E+01 0.  1.
</event>
<event>
 5   0  0.1506454E-04  0.9993023E+03  0.7818609E-02  0.9309310E-01
        1   -1    0    0  501    0  0.00000000000E+00  0.00000000000E+00  0.95126750387E+03  0.95126750388E+03  0.50400001928E-02 0.  1.
       -1   -1    0    0    0  501  0.00000000000E+00  0.00000000000E+00 -0.26244066673E+03  0.26244066678E+03  0.50400001928E-02 0. -1.
    10030    2    1    2    0    0  0.00000000000E+00  0.00000000000E+00  0.68882683713E+03  0.12137081707E+04  0.99930231260E+03 0.  0.
        3    1    3    3  502    0 -0.29273654594E+03 -0.30560591902E+03  0.66704108557E+03  0.78995789958E+03  0.10100000352E+00 0.  1.
       -3    1    3    3    0  502  0.29273654594E+03  0.30560591902E+03  0.21785751560E+02  0.42375027108E+03  0.10100000352E+00 0. -1.
</event>
<event>
 5   0  0.2353916E-04  0.1000441E+04  0.7818609E-02  0.9308061E-01
        2   -1    0    0  501    0  0.00000000000E+00  0.00000000000E+00  0.12511127098E+04  0.12511127098E+04  0.25500000920E-02 0. -1.
       -2   -1    0    0    0  501  0.00000000000E+00  0.00000000000E+00 -0.19999852285E+03  0.19999852286E+03  0.25500000920E-02 0.  1.
    10030    2    1    2    0    0  0.00000000000E+00  0.00000000000E+00  0.10511141869E+04  0.14511112326E+04  0.10004412904E+04 0.  0.
        4    1    3    3  502    0  0.25637435417E+03 -0.13645071400E+03 -0.65182741703E+02  0.29765249797E+03  0.12699999809E+01 0.  1.
       -4    1    3    3    0  502 -0.25637435417E+03  0.13645071400E+03  0.11162969286E+04  0.11534587347E+04  0.12699999809E+01 0. -1.
</event>
<event>
 5   0  0.1506454E-04  0.1000361E+04  0.7818609E-02  0.9308149E-01
        1   -1    0    0  501    0  0.00000000000E+00  0.00000000000E+00  0.26464597782E+04  0.26464597782E+04  0.50400001928E-02 0. -1.
       -1   -1    0    0    0  501  0.00000000000E+00  0.00000000000E+00 -0.94534092831E+02  0.94534092966E+02  0.50400001928E-02 0.  1.
    10030    2    1    2    0    0  0.00000000000E+00  0.00000000000E+00  0.25519256854E+04  0.27409938712E+04  0.10003612838E+04 0.  0.
        3    1    3    3  502    0 -0.10525126178E+03  0.15596624968E+03  0.25457924370E+04  0.25527362656E+04  0.10100000352E+00 0. -1.
       -3    1    3    3    0  502  0.10525126178E+03 -0.15596624968E+03  0.61332484299E+01  0.18825760565E+03  0.10100000352E+00 0.  1.
</event>
<event>
 5   0  0.2484904E-04  0.1000058E+04  0.7818609E-02  0.9308481E-01
        2   -1    0    0  501    0  0.00000000000E+00  0.00000000000E+00  0.77128778339E+03  0.77128778339E+03  0.25500000920E-02 0. -1.
       -2   -1    0    0    0  501  0.00000000000E+00  0.00000000000E+00 -0.32417074136E+03  0.32417074137E+03  0.25500000920E-02 0.  1.
    10030    2    1    2    0    0  0.00000000000E+00  0.00000000000E+00  0.44711704203E+03  0.10954585248E+04  0.10000578634E+04 0.  0.
        3    1    3    3  502    0 -0.10543528628E+03  0.33747805451E+03  0.61087154013E+03  0.70581306704E+03  0.10100000352E+00 0. -1.
       -3    1    3    3    0  502  0.10543528628E+03 -0.33747805451E+03 -0.16375449810E+03  0.38964545771E+03  0.10100000352E+00 0.  1.
</event>
<event>
 5   0  0.2484904E-04  0.9993378E+03  0.7818609E-02  0.9309271E-01
       -2   -1    0    0    0  501  0.00000000000E+00  0.00000000000E+00  0.36323326621E+03  0.36323326622E+03  0.25500000920E-02 0.  1.
        2   -1    0    0  501    0  0.00000000000E+00  0.00000000000E+00 -0.68735168968E+03  0.68735168969E+03  0.25500000920E-02 0. -1.
    10030    2    1    2    0    0  0.00000000000E+00  0.00000000000E+00 -0.32411842347E+03  0.10505849559E+04  0.99933777930E+03 0.  0.
        3    1    3    3  502    0 -0.25895957951E+03 -0.13997728270E+02 -0.61105963592E+03  0.66381464963E+03  0.10100000352E+00 0. -1.
       -3    1    3    3    0  502  0.25895957951E+03  0.13997728270E+02  0.28694121245E+03  0.38677030628E+03  0.10100000352E+00 0.  1.
</event>
<event>
 5   0  0.9650500E-05  0.1000090E+04  0.7818609E-02  0.9308446E-01
        4   -1    0    0  501    0  0.00000000000E+00  0.00000000000E+00  0.12485091226E+04  0.12485097685E+04  0.12699999809E+01 0.  1.
       -4   -1    0    0    0  501  0.00000000000E+00  0.00000000000E+00 -0.20027215263E+03  0.20027617936E+03  0.12699999809E+01 0. -1.
    10030    2    1    2    0    0  0.00000000000E+00  0.00000000000E+00  0.10482369699E+04  0.14487859479E+04  0.10000899847E+04 0.  0.
        2    1    3    3  502    0 -0.10995505452E+03  0.36281561443E+03  0.51759653936E+02  0.38262820840E+03  0.25500000920E-02 0. -1.
       -2    1    3    3    0  502  0.10995505452E+03 -0.36281561443E+03  0.99647731601E+03  0.10661577395E+04  0.25500000920E-02 0.  1.
</event>
<event>
 5   0  0.2473312E-04  0.1000645E+04  0.7818609E-02  0.9307837E-01
       -2   -1    0    0    0  501  0.00000000000E+00  0.00000000000E+00  0.17010236749E+03  0.17010236751E+03  0.25500000920E-02 0. -1.
        2   -1    0    0  501    0  0.00000000000E+00  0.00000000000E+00 -0.14716007448E+04  0.14716007448E+04  0.25500000920E-02 0.  1.
    10030    2    1    2    0    0  0.00000000000E+00  0.00000000000E+00 -0.13014983773E+04  0.16417031124E+04  0.10006453332E+04 0.  0.
        5    1    3    3  502    0  0.87038962787E+02  0.27140799249E+03  0.23838204528E+02  0.28605668918E+03  0.46999998093E+01 0. -1.
       -5    1    3    3    0  502 -0.87038962787E+02 -0.27140799249E+03 -0.13253365819E+04  0.13556464232E+04  0.46999998093E+01 0.  1.
</event>
<event>
 5   0  0.1430675E-04  0.1000065E+04  0.7818609E-02  0.9308474E-01
        1   -1    0    0  501    0  0.00000000000E+00  0.00000000000E+00  0.71703212775E+03  0.71703212777E+03  0.50400001928E-02 0. -1.
       -1   -1    0    0    0  501  0.00000000000E+00  0.00000000000E+00 -0.34870445813E+03  0.34870445817E+03  0.50400001928E-02 0.  1.
    10030    2    1    2    0    0  0.00000000000E+00  0.00000000000E+00  0.36832766962E+03  0.10657365859E+04  0.10000645971E+04 0.  0.
        5    1    3    3  502    0 -0.41510157460E+03 -0.26673153854E+03  0.97883049378E+02  0.50304891635E+03  0.46999998093E+01 0.  1.
       -5    1    3    3    0  502  0.41510157460E+03  0.26673153854E+03  0.27044462024E+03  0.56268766958E+03  0.46999998093E+01 0. -1.
</event>
<event>
 5   0  0.1461334E-04  0.1000168E+04  0.7818609E-02  0.9308361E-01
       -1   -1    0    0    0  501  0.00000000000E+00  0.00000000000E+00  0.26973593494E+03  0.26973593499E+03  0.50400001928E-02 0.  1.
        1   -1    0    0  501    0  0.00000000000E+00  0.00000000000E+00 -0.92714291616E+03  0.92714291618E+03  0.50400001928E-02 0. -1.
    10030    2    1    2    0    0  0.00000000000E+00  0.00000000000E+00 -0.65740698122E+03  0.11968788512E+04  0.10001675087E+04 0.  0.
        2    1    3    3  502    0 -0.26015797315E+03  0.39361053449E+03 -0.52705031772E+03  0.70738494561E+03  0.25500000920E-02 0. -1.
       -2    1    3    3    0  502  0.26015797315E+03 -0.39361053449E+03 -0.13035666350E+03  0.48949390556E+03  0.25500000920E-02 0.  1.
</event>
<event>
 5   0  0.2473312E-04  0.9993301E+03  0.7818609E-02  0.9309280E-01
        2   -1    0    0  501    0  0.00000000000E+00  0.00000000000E+00  0.45424752713E+03  0.45424752714E+03  0.25500000920E-02 0.  1.
       -2   -1    0    0    0  501  0.00000000000E+00  0.00000000000E+00 -0.54962365568E+03  0.54962365568E+03  0.25500000920E-02 0. -1.
    10030    2    1    2    0    0  0.00000000000E+00  0.00000000000E+00 -0.95376128544E+02  0.10038711828E+04  0.99933014855E+03 0.  0.
        5    1    3    3  502    0  0.51451918270E+02 -0.47904658317E+03  0.85239225679E+02  0.48930639106E+03  0.46999998093E+01 0.  1.
       -5    1    3    3    0  502 -0.51451918270E+02  0.47904658317E+03 -0.18061535422E+03  0.51456479176E+03  0.46999998093E+01 0. -1.
</event>
<event>
 5   0  0.2403037E-04  0.9988120E+03  0.7818609E-02  0.9309849E-01
       -2   -1    0    0    0  501  0.00000000000E+00  0.00000000000E+00  0.15989227990E+03  0.15989227992E+03  0.25500000920E-02 0.  1.
        2   -1    0    0  501    0  0.00000000000E+00  0.00000000000E+00 -0.15598397417E+04  0.15598397417E+04  0.25500000920E-02 0. -1.
    10030    2    1    2    0    0  0.00000000000E+00  0.00000000000E+00 -0.13999474618E+04  0.17197320216E+04  0.99881195948E+03 0.  0.
        1    1    3    3  502    0 -0.21000395736E+03 -0.20366299080E+03 -0.30768303363E+01  0.29255724711E+03  0.50400001928E-02 0.  1.
       -1    1    3    3    0  502  0.21000395736E+03  0.20366299080E+03 -0.13968706315E+04  0.14271747745E+04  0.50400001928E-02 0. -1.
</event>
<event>
 5   0  0.1461334E-04  0.9976677E+03  0.7818609E-02  0.9311106E-01
        1   -1    0    0  501    0  0.00000000000E+00  0.00000000000E+00  0.59055372495E+03  0.59055372497E+03  0.50400001928E-02 0.  1.
       -1   -1    0    0    0  501  0.00000000000E+00  0.00000000000E+00 -0.42135916471E+03  0.42135916474E+03  0.50400001928E-02 0. -1.
    10030    2    1    2    0    0  0.00000000000E+00  0.00000000000E+00  0.16919456023E+03  0.10119128897E+04  0.99766772883E+03 0.  0.
        2    1    3    3  502    0  0.42211915370E+03 -0.25343884695E+03  0.33321452206E+01  0.49236869546E+03  0.25500000920E-02 0. -1.
       -2    1    3    3    0  502 -0.42211915370E+03  0.25343884695E+03  0.16586241501E+03  0.51954419426E+03  0.25500000920E-02 0.  1.
</event>
<event>
 5   0  0.2403037E-04  0.1000345E+04  0.7818609E-02  0.9308166E-01
       -2   -1    0    0    0  501  0.00000000000E+00  0.00000000000E+00  0.12233762277E+03  0.12233762279E+03  0.25500000920E-02 0.  1.
        2   -1    0    0  501    0  0.00000000000E+00  0.00000000000E+00 -0.20449356699E+04  0.20449356699E+04  0.25500000920E-02 0. -1.
    10030    2    1    2    0    0  0.00000000000E+00  0.00000000000E+00 -0.19225980471E+04  0.21672732927E+04  0.10003450776E+04 0.  0.
        1    1    3    3  502    0  0.40477465501E+02 -0.83309686892E+02 -0.20261935330E+04  0.20283094346E+04  0.50400001928E-02 0. -1.
       -1    1    3    3    0  502 -0.40477465501E+02  0.83309686892E+02  0.10359548588E+03  0.13896385812E+03  0.50400001928E-02 0.  1.
</event>
<event>
 5   0  0.1414165E-04  0.9957767E+03  0.7818609E-02  0.9313189E-01
       -1   -1    0    0    0  501  0.00000000000E+00  0.00000000000E+00  0.16032827653E+03  0.16032827661E+03  0.50400001928E-02 0.  1.
        1   -1    0    0  501    0  0.00000000000E+00  0.00000000000E+00 -0.15461577035E+04  0.15461577035E+04  0.50400001928E-02 0. -1.
    10030    2    1    2    0    0  0.00000000000E+00  0.00000000000E+00 -0.13858294269E+04  0.17064859801E+04  0.99577668163E+03 0.  0.
        4    1    3    3  502    0  0.73065391481E+01 -0.27064209669E+03 -0.14089777769E+04  0.14347545152E+04  0.12699999809E+01 0. -1.
       -4    1    3    3    0  502 -0.73065391481E+01  0.27064209669E+03  0.23148350001E+02  0.27173146491E+03  0.12699999809E+01 0.  1.
</event>
<event>
 5   0  0.9650500E-05  0.1000239E+04  0.7818609E-02  0.9308283E-01
       -3   -1    0    0    0  501  0.00000000000E+00  0.00000000000E+00  0.52339855117E+03  0.52339856091E+03  0.10100000352E+00 0.  1.
        3   -1    0    0  501    0  0.00000000000E+00  0.00000000000E+00 -0.47787575841E+03  0.47787576908E+03  0.10100000352E+00 0. -1.
    10030    2    1    2    0    0  0.00000000000E+00  0.00000000000E+00  0.45522792761E+02  0.10012743300E+04  0.10002389511E+04 0.  0.
        3    1    3    3  502    0 -0.17014642293E+02  0.16792376321E+03  0.49402635848E+03  0.52206315842E+03  0.10100000352E+00 0.  1.
       -3    1    3    3    0  502  0.17014642293E+02 -0.16792376321E+03 -0.44850356572E+03  0.47921117158E+03  0.10100000352E+00 0. -1.
</event>
<event>
 5   0  0.2484904E-04  0.1000066E+04  0.7818609E-02  0.9308473E-01
        2   -1    0    0  501    0  0.00000000000E+00  0.00000000000E+00  0.10905619580E+04  0.10905619580E+04  0.25500000920E-02 0.  1.
       -2   -1    0    0    0  501  0.00000000000E+00  0.00000000000E+00 -0.22926973373E+03  0.22926973375E+03  0.25500000920E-02 0. -1.
    10030    2    1    2    0    0  0.00000000000E+00  0.00000000000E+00  0.86129222426E+03  0.13198316917E+04  0.10000656973E+04 0.  0.
        3    1    3    3  502    0 -0.39358430625E+02  0.22988862583E+03  0.10143777991E+04  0.10408459040E+04  0.10100000352E+00 0.  1.
       -3    1    3    3    0  502  0.39358430625E+02 -0.22988862583E+03 -0.15308557483E+03  0.27898578776E+03  0.10100000352E+00 0. -1.
</event>
<event>
 5   0  0.1414165E-04  0.1002363E+04  0.7818609E-02  0.9305957E-01
       -1   -1    0    0    0  501  0.00000000000E+00  0.00000000000E+00  0.23583897566E+03  0.23583897571E+03  0.50400001928E-02 0.  1.
        1   -1    0    0  501    0  0.00000000000E+00  0.00000000000E+00 -0.10650601527E+04  0.10650601527E+04  0.50400001928E-02 0. -1.
    10030    2    1    2    0    0  0.00000000000E+00  0.00000000000E+00 -0.82922117708E+03  0.13008991285E+04  0.10023626000E+04 0.  0.
        4    1    3    3  502    0 -0.25091287946E+03  0.40542449187E+03 -0.61506082633E+03  0.77822087139E+03  0.12699999809E+01 0. -1.
       -4    1    3    3    0  502  0.25091287946E+03 -0.40542449187E+03 -0.21416035075E+03  0.52267825707E+03  0.12699999809E+01 0.  1.
</event>
<event>
 5   0  0.2484904E-04  0.1000085E+04  0.7818609E-02  0.9308452E-01
       -2   -1    0    0    0  501  0.00000000000E+00  0.00000000000E+00  0.28543447170E+03  0.28543447171E+03  0.25500000920E-02 0. -1.
        2   -1    0    0  501    0  0.00000000000E+00  0.00000000000E+00 -0.87600599046E+03  0.87600599046E+03  0.25500000920E-02 0.  1.
    10030    2    1    2    0    0  0.00000000000E+00  0.00000000000E+00 -0.59057151876E+03  0.11614404622E+04  0.10000846106E+04 0.  0.
        3    1    3    3  502    0  0.40251130205E+03 -0.18813913918E+03 -0.28858031301E+02  0.44524653860E+03  0.10100000352E+00 0. -1.
       -3    1    3    3    0  502 -0.40251130205E+03  0.18813913918E+03 -0.56171348746E+03  0.71619392357E+03  0.10100000352E+00 0.  1.
</event>
<event>
 5   0  0.2353916E-04  0.9997593E+03  0.7818609E-02  0.9308809E-01
        2   -1    0    0  501    0  0.00000000000E+00  0.00000000000E+00  0.33670579848E+03  0.33670579849E+03  0.25500000920E-02 0. -1.
       -2   -1    0    0    0  501  0.00000000000E+00  0.00000000000E+00 -0.74213058506E+03  0.74213058507E+03  0.25500000920E-02 0.  1.
    10030    2    1    2    0    0  0.00000000000E+00  0.00000000000E+00 -0.40542478659E+03  0.10788363836E+04  0.99975931349E+03 0.  0.
        4    1    3    3  502    0  0.16144049460E+03 -0.34070489731E+03 -0.55690454437E+03  0.67252296971E+03  0.12699999809E+01 0.  1.
       -4    1    3    3    0  502 -0.16144049460E+03  0.34070489731E+03  0.15147975778E+03  0.40631341384E+03  0.12699999809E+01 0. -1.
</event>
<event>
 5   0  0.2503680E-04  0.1000099E+04  0.7818609E-02  0.9308437E-01
        2   -1    0    0  501    0  0.00000000000E+00  0.00000000000E+00  0.75846927315E+03  0.75846927315E+03  0.25500000920E-02 0.  1.
       -2   -1    0    0    0  501  0.00000000000E+00  0.00000000000E+00 -0.32967623182E+03  0.32967623183E+03  0.25500000920E-02 0. -1.
    10030    2    1    2    0    0  0.00000000000E+00  0.00000000000E+00  0.42879304133E+03  0.10881455050E+04  0.10000985790E+04 0.  0.
        2    1    3    3  502    0 -0.49791026978E+03  0.27244050441E+02  0.25499677961E+03  0.56007163172E+03  0.25500000920E-02 0.  1.
       -2    1    3    3    0  502  0.49791026978E+03 -0.27244050441E+02  0.17379626172E+03  0.52807387327E+03  0.25500000920E-02 0. -1.
</event>
<event>
 5   0  0.2503680E-04  0.1000070E+04  0.7818609E-02  0.9308468E-01
        2   -1    0    0  501    0  0.00000000000E+00  0.00000000000E+00  0.17334575098E+04  0.17334575098E+04  0.25500000920E-02 0. -1.
       -2   -1    0    0    0  501  0.00000000000E+00  0.00000000000E+00 -0.14424058077E+03  0.14424058079E+03  0.25500000920E-02 0.  1.
    10030    2    1    2    0    0  0.00000000000E+00  0.00000000000E+00  0.15892169290E+04  0.18776980906E+04  0.10000698335E+04 0.  0.
        2    1    3    3  502    0  0.14846436249E+03 -0.35723250274E+03  0.13894689450E+04  0.14423178142E+04  0.25500000920E-02 0. -1.
       -2    1    3    3    0  502 -0.14846436249E+03  0.35723250274E+03  0.19974798398E+03  0.43538027637E+03  0.25500000920E-02 0.  1.
</event>
<event>
 5   0  0.1461334E-04  0.9999123E+03  0.7818609E-02  0.9308641E-01
        1   -1    0    0  501    0  0.00000000000E+00  0.00000000000E+00  0.91301029809E+03  0.91301029810E+03  0.50400001928E-02 0.  1.
       -1   -1    0    0    0  501  0.00000000000E+00  0.00000000000E+00 -0.27377143824E+03  0.27377143829E+03  0.50400001928E-02 0. -1.
    10030    2    1    2    0    0  0.00000000000E+00  0.00000000000E+00  0.63923885985E+03  0.11867817364E+04  0.99991228110E+03 0.  0.
        2    1    3    3  502    0 -0.46622520686E+03  0.20269843928E+02  0.53253011953E+03  0.70807142175E+03  0.25500000920E-02 0.  1.
       -2    1    3    3    0  502  0.46622520686E+03 -0.20269843928E+02  0.10670874032E+03  0.47871031465E+03  0.25500000920E-02 0. -1.
</event>
<event>
 5   0  0.2503680E-04  0.9999798E+03  0.7818609E-02  0.9308567E-01
        2   -1    0    0  501    0  0.00000000000E+00  0.00000000000E+00  0.43586682329E+03  0.43586682329E+03  0.25500000920E-02 0. -1.
       -2   -1    0    0    0  501  0.00000000000E+00  0.00000000000E+00 -0.57354655043E+03  0.57354655043E+03  0.25500000920E-02 0.  1.
    10030    2    1    2    0    0  0.00000000000E+00  0.00000000000E+00 -0.13767972714E+03  0.10094133737E+04  0.99997982569E+03 0.  0.
        2    1    3    3  502    0 -0.96794038696E+02  0.20026682687E+03  0.38317237475E+03  0.44305412384E+03  0.25500000920E-02 0. -1.
       -2    1    3    3    0  502  0.96794038696E+02 -0.20026682687E+03 -0.52085210189E+03  0.56635924988E+03  0.25500000920E-02 0.  1.
</event>
<event>
 5   0  0.2473312E-04  0.1000103E+04  0.7818609E-02  0.9308431E-01
       -2   -1    0    0    0  501  0.00000000000E+00  0.00000000000E+00  0.87806835867E+03  0.87806835868E+03  0.25500000920E-02 0. -1.
        2   -1    0    0  501    0  0.00000000000E+00  0.00000000000E+00 -0.28477481289E+03  0.28477481291E+03  0.25500000920E-02 0.  1.
    10030    2    1    2    0    0  0.00000000000E+00  0.00000000000E+00  0.59329354578E+03  0.11628431716E+04  0.10001034998E+04 0.  0.
        5    1    3    3  502    0 -0.25828988979E+03 -0.42759531870E+03  0.27121956850E+03  0.56844838646E+03  0.46999998093E+01 0.  1.
       -5    1    3    3    0  502  0.25828988979E+03  0.42759531870E+03  0.32207397728E+03  0.59439478512E+03  0.46999998093E+01 0. -1.
</event>
<event>
 5   0  0.2473312E-04  0.9997487E+03  0.7818609E-02  0.9308820E-01
        2   -1    0    0  501    0  0.00000000000E+00  0.00000000000E+00  0.13170883112E+04  0.13170883112E+04  0.25500000920E-02 0. -1.
       -2   -1    0    0    0  501  0.00000000000E+00  0.00000000000E+00 -0.18971724340E+03  0.18971724342E+03  0.25500000920E-02 0.  1.
    10030    2    1    2    0    0  0.00000000000E+00  0.00000000000E+00  0.11273710678E+04  0.15068055547E+04  0.99974869590E+03 0.  0.
        5    1    3    3  502    0  0.21427437510E+03 -0.28178568822E+03  0.10955648611E+04  0.11513475308E+04  0.46999998093E+01 0. -1.
       -5    1    3    3    0  502 -0.21427437510E+03  0.28178568822E+03  0.31806206736E+02  0.35545802381E+03  0.46999998093E+01 0.  1.
</event>
<event>
 5   0  0.2484904E-04  0.1000005E+04  0.7818609E-02  0.9308539E-01
        2   -1    0    0  501    0  0.00000000000E+00  0.00000000000E+00  0.48453340925E+03  0.48453340925E+03  0.25500000920E-02 0. -1.
       -2   -1    0    0    0  501  0.00000000000E+00  0.00000000000E+00 -0.51596547486E+03  0.51596547486E+03  0.25500000920E-02 0.  1.
    10030    2    1    2    0    0  0.00000000000E+00  0.00000000000E+00 -0.31432065610E+02  0.10004988841E+04  0.10000050212E+04 0.  0.
        3    1    3    3  502    0 -0.13911844619E+03  0.28461969223E+03  0.37130855085E+03  0.48809052584E+03  0.10100000352E+00 0. -1.
       -3    1    3    3    0  502  0.13911844619E+03 -0.28461969223E+03 -0.40274061646E+03  0.51240835827E+03  0.10100000352E+00 0.  1.
</event>
<event>
 5   0  0.1430675E-04  0.1000025E+04  0.7818609E-02  0.9308517E-01
        1   -1    0    0  501    0  0.00000000000E+00  0.00000000000E+00  0.71968466238E+03  0.71968466239E+03  0.50400001928E-02 0.  1.
       -1   -1    0    0    0  501  0.00000000000E+00  0.00000000000E+00 -0.34739198564E+03  0.34739198567E+03  0.50400001928E-02 0. -1.
    10030    2    1    2    0    0  0.00000000000E+00  0.00000000000E+00  0.37229267674E+03  0.10670766481E+04  0.10000253675E+04 0.  0.
        5    1    3    3  502    0  0.30259298609E+02  0.26211505015E+03 -0.26703034580E+03  0.37542938117E+03  0.46999998093E+01 0. -1.
       -5    1    3    3    0  502 -0.30259298609E+02 -0.26211505015E+03  0.63932302254E+03  0.69164726690E+03  0.46999998093E+01 0.  1.
</event>
<event>
 5   0  0.1453863E-04  0.1000126E+04  0.7818609E-02  0.9308406E-01
        1   -1    0    0  501    0  0.00000000000E+00  0.00000000000E+00  0.13057798964E+04  0.13057798964E+04  0.50400001928E-02 0. -1.
       -1   -1    0    0    0  501  0.00000000000E+00  0.00000000000E+00 -0.19150476484E+03  0.19150476490E+03  0.50400001928E-02 0.  1.
    10030    2    1    2    0    0  0.00000000000E+00  0.00000000000E+00  0.11142751316E+04  0.14972846613E+04  0.10001261361E+04 0.  0.
        1    1    3    3  502    0  0.30215024794E+02 -0.44066858446E+03  0.20616094538E+03  0.48744649396E+03  0.50400001928E-02 0.  1.
       -1    1    3    3    0  502 -0.30215024794E+02  0.44066858446E+03  0.90811418618E+03  0.10098381673E+04  0.50400001928E-02 0. -1.
</event>
<event>
 5   0  0.2484904E-04  0.9999430E+03  0.7818609E-02  0.9308607E-01
        2   -1    0    0  501    0  0.00000000000E+00  0.00000000000E+00  0.10139515599E+04  0.10139515599E+04  0.25500000920E-02 0. -1.
       -2   -1    0    0    0  501  0.00000000000E+00  0.00000000000E+00 -0.24653198036E+03  0.24653198037E+03  0.25500000920E-02 0.  1.
    10030    2    1    2    0    0  0.00000000000E+00  0.00000000000E+00  0.76741957953E+03  0.12604835403E+04  0.99994297049E+03 0.  0.
        3    1    3    3  502    0 -0.20185780483E+02  0.42528314517E+03  0.71410580817E+03  0.83139661700E+03  0.10100000352E+00 0. -1.
       -3    1    3    3    0  502  0.20185780483E+02 -0.42528314517E+03  0.53313771361E+02  0.42908692327E+03  0.10100000352E+00 0.  1.
</event>
<event>
 5   0  0.9650500E-05  0.9989895E+03  0.7818609E-02  0.9309654E-01
        4   -1    0    0  501    0  0.00000000000E+00  0.00000000000E+00  0.31220959234E+03  0.31221217537E+03  0.12699999809E+01 0.  1.
       -4   -1    0    0    0  501  0.00000000000E+00  0.00000000000E+00 -0.79912032453E+03  0.79912133370E+03  0.12699999809E+01 0. -1.
    10030    2    1    2    0    0  0.00000000000E+00  0.00000000000E+00 -0.48691073220E+03  0.11113335091E+04  0.99898954312E+03 0.  0.
        4    1    3    3  502    0  0.35332663006E+03  0.34156030819E+02  0.14747032598E+03  0.38438971356E+03  0.12699999809E+01 0.  1.
       -4    1    3    3    0  502 -0.35332663006E+03 -0.34156030819E+02 -0.63438105818E+03  0.72694379551E+03  0.12699999809E+01 0. -1.
</event>
<event>
 5   0  0.2353916E-04  0.1000105E+04  0.7818609E-02  0.9308430E-01
       -2   -1    0    0    0  501  0.00000000000E+00  0.00000000000E+00  0.40469074878E+03  0.40469074879E+03  0.25500000920E-02 0. -1.
        2   -1    0    0  501    0  0.00000000000E+00  0.00000000000E+00 -0.61788501112E+03  0.61788501113E+03  0.25500000920E-02 0.  1.
    10030    2    1    2    0    0  0.00000000000E+00  0.00000000000E+00 -0.21319426234E+03  0.10225757599E+04  0.10001046902E+04 0.  0.
        4    1    3    3  502    0 -0.33758934231E+03  0.21092085131E+03  0.20285225398E+03  0.44677155170E+03  0.12699999809E+01 0. -1.
       -4    1    3    3    0  502  0.33758934231E+03 -0.21092085131E+03 -0.41604651633E+03  0.57580420822E+03  0.12699999809E+01 0.  1.
</event>
<event>
 5   0  0.9650500E-05  0.9999780E+03  0.7818609E-02  0.9308569E-01
        3   -1    0    0  501    0  0.00000000000E+00  0.00000000000E+00  0.18985832966E+03  0.18985835652E+03  0.10100000352E+00 0.  1.
       -3   -1    0    0    0  501  0.00000000000E+00  0.00000000000E+00 -0.13167132188E+04  0.13167132226E+04  0.10100000352E+00 0. -1.
    10030    2    1    2    0    0  0.00000000000E+00  0.00000000000E+00 -0.11268548891E+04  0.15065715791E+04  0.99997799077E+03 0.  0.
        4    1    3    3  502    0  0.46281437417E+03  0.15820249835E+03 -0.71972421460E+03  0.87018948132E+03  0.12699999809E+01 0. -1.
       -4    1    3    3    0  502 -0.46281437417E+03 -0.15820249835E+03 -0.40713067449E+03  0.63638209783E+03  0.12699999809E+01 0.  1.
</event>
<event>
 5   0  0.1414165E-04  0.9999307E+03  0.7818609E-02  0.9308621E-01
        1   -1    0    0  501    0  0.00000000000E+00  0.00000000000E+00  0.37528335996E+03  0.37528336000E+03  0.50400001928E-02 0.  1.
       -1   -1    0    0    0  501  0.00000000000E+00  0.00000000000E+00 -0.66607091721E+03  0.66607091723E+03  0.50400001928E-02 0. -1.
    10030    2    1    2    0    0  0.00000000000E+00  0.00000000000E+00 -0.29078755724E+03  0.10413542772E+04  0.99993066121E+03 0.  0.
        4    1    3    3  502    0 -0.41692245676E+03  0.62352906604E+02  0.13453790139E+03  0.44250907304E+03  0.12699999809E+01 0.  1.
       -4    1    3    3    0  502  0.41692245676E+03 -0.62352906604E+02 -0.42532545863E+03  0.59884520418E+03  0.12699999809E+01 0. -1.
</event>
<event>
 5   0  0.2353916E-04  0.9997892E+03  0.7818609E-02  0.9308776E-01
       -2   -1    0    0    0  501  0.00000000000E+00  0.00000000000E+00  0.32971423215E+03  0.32971423216E+03  0.25500000920E-02 0. -1.
        2   -1    0    0  501    0  0.00000000000E+00  0.00000000000E+00 -0.75791271093E+03  0.75791271094E+03  0.25500000920E-02 0.  1.
    10030    2    1    2    0    0  0.00000000000E+00  0.00000000000E+00 -0.42819847878E+03  0.10876269431E+04  0.99978919284E+03 0.  0.
        4    1    3    3  502    0 -0.44095403829E+03  0.16761746172E+03 -0.39402986838E+03  0.61465211904E+03  0.12699999809E+01 0.  1.
       -4    1    3    3    0  502  0.44095403829E+03 -0.16761746172E+03 -0.34168610398E+02  0.47297482406E+03  0.12699999809E+01 0. -1.
</event>
<event>
 5   0  0.2403037E-04  0.1000394E+04  0.7818609E-02  0.9308112E-01
        2   -1    0    0  501    0  0.00000000000E+00  0.00000000000E+00  0.36079266463E+03  0.36079266464E+03  0.25500000920E-02 0. -1.
       -2   -1    0    0    0  501  0.00000000000E+00  0.00000000000E+00 -0.69346540542E+03  0.69346540543E+03  0.25500000920E-02 0.  1.
    10030    2    1    2    0    0  0.00000000000E+00  0.00000000000E+00 -0.33267274079E+03  0.10542580701E+04  0.10003943851E+04 0.  0.
        1    1    3    3  502    0 -0.30131720526E+03 -0.37310382645E+03 -0.16562006651E+02  0.47986750629E+03  0.50400001928E-02 0. -1.
       -1    1    3    3    0  502  0.30131720526E+03  0.37310382645E+03 -0.31611073414E+03  0.57439056378E+03  0.50400001928E-02 0.  1.
</event>
<event>
 5   0  0.2503680E-04  0.9999264E+03  0.7818609E-02  0.9308626E-01
       -2   -1    0    0    0  501  0.00000000000E+00  0.00000000000E+00  0.17238764255E+03  0.17238764256E+03  0.25500000920E-02 0. -1.
        2   -1    0    0  501    0  0.00000000000E+00  0.00000000000E+00 -0.14500064954E+04  0.14500064954E+04  0.25500000920E-02 0.  1.
    10030    2    1    2    0    0  0.00000000000E+00  0.00000000000E+00 -0.12776188529E+04  0.16223941380E+04  0.99992640017E+03 0.  0.
        2    1    3    3  502    0  0.37517194213E+03  0.11696308932E+03 -0.13732712445E+03  0.41628486585E+03  0.25500000920E-02 0. -1.
       -2    1    3    3    0  502 -0.37517194213E+03 -0.11696308932E+03 -0.11402917284E+04  0.12061092721E+04  0.25500000920E-02 0.  1.
</event>
<event>
 5   0  0.1506454E-04  0.1000758E+04  0.7818609E-02  0.9307714E-01
        1   -1    0    0  501    0  0.00000000000E+00  0.00000000000E+00  0.80058595172E+03  0.80058595174E+03  0.50400001928E-02 0.  1.
       -1   -1    0    0    0  501  0.00000000000E+00  0.00000000000E+00 -0.31274494716E+03  0.31274494720E+03  0.50400001928E-02 0. -1.
    10030    2    1    2    0    0  0.00000000000E+00  0.00000000000E+00  0.48784100456E+03  0.11133308989E+04  0.10007581350E+04 0.  0.
        3    1    3    3  502    0  0.48040069879E+03 -0.13120588662E+03  0.29818646160E+03  0.58044378898E+03  0.10100000352E+00 0.  1.
       -3    1    3    3    0  502 -0.48040069879E+03  0.13120588662E+03  0.18965454297E+03  0.53288710995E+03  0.10100000352E+00 0. -1.
</event>
<event>
 5   0  0.9650500E-05  0.1000158E+04  0.7818609E-02  0.9308371E-01
       -3   -1    0    0    0  501  0.00000000000E+00  0.00000000000E+00  0.30648617260E+03  0.30648618924E+03  0.10100000352E+00 0. -1.
        3   -1    0    0  501    0  0.00000000000E+00  0.00000000000E+00 -0.81595540312E+03  0.81595540937E+03  0.10100000352E+00 0.  1.
    10030    2    1    2    0    0  0.00000000000E+00  0.00000000000E+00 -0.50946923052E+03  0.11224415986E+04  0.10001581102E+04 0.  0.
        4    1    3    3  502    0 -0.51063889856E+02 -0.32483587743E+03  0.16809481564E+03  0.36930116173E+03  0.12699999809E+01 0. -1.
       -4    1    3    3    0  502  0.51063889856E+02  0.32483587743E+03 -0.67756404616E+03  0.75314043688E+03  0.12699999809E+01 0.  1.
</event>
<event>
 5   0  0.1414165E-04  0.9991721E+03  0.7818609E-02  0.9309453E-01
        1   -1    0    0  501    0  0.00000000000E+00  0.00000000000E+00  0.80026444030E+03  0.80026444032E+03  0.50400001928E-02 0.  1.
       -1   -1    0    0    0  501  0.00000000000E+00  0.00000000000E+00 -0.31187969272E+03  0.31187969276E+03  0.50400001928E-02 0. -1.
    10030    2    1    2    0    0  0.00000000000E+00  0.00000000000E+00  0.48838474759E+03  0.11121441331E+04  0.99917211283E+03 0.  0.
        4    1    3    3  502    0  0.32993040882E+03 -0.36762322126E+03  0.16101942550E+03  0.51954766457E+03  0.12699999809E+01 0. -1.
       -4    1    3    3    0  502 -0.32993040882E+03  0.36762322126E+03  0.32736532208E+03  0.59259646850E+03  0.12699999809E+01 0.  1.
</event>
<event>
 5   0  0.1461334E-04  0.9999097E+03  0.7818609E-02  0.9308644E-01
       -1   -1    0    0    0  501  0.00000000000E+00  0.00000000000E+00  0.31152803848E+03  0.31152803852E+03  0.50400001928E-02 0. -1.
        1   -1    0    0  501    0  0.00000000000E+00  0.00000000000E+00 -0.80235113469E+03  0.80235113471E+03  0.50400001928E-02 0.  1.
    10030    2    1    2    0    0  0.00000000000E+00  0.00000000000E+00 -0.49082309622E+03  0.11138791732E+04  0.99990974631E+03 0.  0.
        2    1    3    3  502    0  0.15333111457E+03  0.37311097639E+03 -0.57442738264E+03  0.70191812153E+03  0.25500000920E-02 0.  1.
       -2    1    3    3    0  502 -0.15333111457E+03 -0.37311097639E+03  0.83604286421E+02  0.41196105170E+03  0.25500000920E-02 0. -1.
</event>
<event>
 5   0  0.2503680E-04  0.1000637E+04  0.7818609E-02  0.9307847E-01
       -2   -1    0    0    0  501  0.00000000000E+00  0.00000000000E+00  0.32839448043E+03  0.32839448044E+03  0.25500000920E-02 0.  1.
        2   -1    0    0  501    0  0.00000000000E+00  0.00000000000E+00 -0.76224956645E+03  0.76224956645E+03  0.25500000920E-02 0. -1.
    10030    2    1    2    0    0  0.00000000000E+00  0.00000000000E+00 -0.43385508602E+03  0.10906440469E+04  0.10006368979E+04 0.  0.
        2    1    3    3  502    0  0.14084515108E+03 -0.46571804599E+03 -0.34397986817E+03  0.59586307542E+03  0.25500000920E-02 0. -1.
       -2    1    3    3    0  502 -0.14084515108E+03  0.46571804599E+03 -0.89875217849E+02  0.49478097147E+03  0.25500000920E-02 0.  1.
</event>
<event>
 5   0  0.2473312E-04  0.1000193E+04  0.7818609E-02  0.9308334E-01
        2   -1    0    0  501    0  0.00000000000E+00  0.00000000000E+00  0.24672252227E+03  0.24672252229E+03  0.25500000920E-02 0.  1.
       -2   -1    0    0    0  501  0.00000000000E+00  0.00000000000E+00 -0.10136743907E+04  0.10136743907E+04  0.25500000920E-02 0. -1.
    10030    2    1    2    0    0  0.00000000000E+00  0.00000000000E+00 -0.76695186839E+03  0.12603969130E+04  0.10001925863E+04 0.  0.
        5    1    3    3  502    0 -0.23268942006E+03  0.34284725262E+03 -0.73628672872E+03  0.84488392204E+03  0.46999998093E+01 0. -1.
       -5    1    3    3    0  502  0.23268942006E+03 -0.34284725262E+03 -0.30665139678E+02  0.41551299092E+03  0.46999998093E+01 0.  1.
</event>
<event>
 5   0  0.1453863E-04  0.9997300E+03  0.7818609E-02  0.9308841E-01
        1   -1    0    0  501    0  0.00000000000E+00  0.00000000000E+00  0.30486402601E+03  0.30486402605E+03  0.50400001928E-02 0.  1.
       -1   -1    0    0    0  501  0.00000000000E+00  0.00000000000E+00 -0.81959496303E+03  0.81959496305E+03  0.50400001928E-02 0. -1.
    10030    2    1    2    0    0  0.00000000000E+00  0.00000000000E+00 -0.51473093702E+03  0.11244589891E+04  0.99973000387E+03 0.  0.
        1    1    3    3  502    0  0.14097728649E+03  0.26388148459E+03  0.19304122706E+03  0.35605189030E+03  0.50400001928E-02 0.  1.
       -1    1    3    3    0  502 -0.14097728649E+03 -0.26388148459E+03 -0.70777216408E+03  0.76840709880E+03  0.50400001928E-02 0. -1.
</event>
<event>
 5   0  0.2403037E-04  0.1000042E+04  0.7818609E-02  0.9308498E-01
        2   -1    0    0  501    0  0.00000000000E+00  0.00000000000E+00  0.82722201526E+03  0.82722201527E+03  0.25500000920E-02 0. -1.
       -2   -1    0    0    0  501  0.00000000000E+00  0.00000000000E+00 -0.30224185429E+03  0.30224185430E+03  0.25500000920E-02 0.  1.
    10030    2    1    2    0    0  0.00000000000E+00  0.00000000000E+00  0.52498016098E+03  0.11294638696E+04  0.10000422307E+04 0.  0.
        1    1    3    3  502    0 -0.13270913003E+03  0.38439910719E+03  0.59108367467E+03  0.71746379511E+03  0.50400001928E-02 0. -1.
       -1    1    3    3    0  502  0.13270913003E+03 -0.38439910719E+03 -0.66103513699E+02  0.41200007445E+03  0.50400001928E-02 0.  1.
</event>
<event>
 5   0  0.1414165E-04  0.1000177E+04  0.7818609E-02  0.9308350E-01
       -1   -1    0    0    0  501  0.00000000000E+00  0.00000000000E+00  0.31893515109E+03  0.31893515113E+03  0.50400001928E-02 0. -1.
        1   -1    0    0  501    0  0.00000000000E+00  0.00000000000E+00 -0.78413638039E+03  0.78413638041E+03  0.50400001928E-02 0.  1.
    10030    2    1    2    0    0  0.00000000000E+00  0.00000000000E+00 -0.46520122931E+03  0.11030715315E+04  0.10001772943E+04 0.  0.
        4    1    3    3  502    0 -0.34967539048E+03  0.89839611999E+02  0.14903752144E+03  0.39058652088E+03  0.12699999809E+01 0. -1.
       -4    1    3    3    0  502  0.34967539048E+03 -0.89839611999E+02 -0.61423875075E+03  0.71248501066E+03  0.12699999809E+01 0.  1.
</event>
<event>
 5   0  0.2473312E-04  0.9998999E+03  0.7818609E-02  0.9308655E-01
        2   -1    0    0  501    0  0.00000000000E+00  0.00000000000E+00  0.44788387205E+03  0.44788387206E+03  0.25500000920E-02 0. -1.
       -2   -1    0    0    0  501  0.00000000000E+00  0.00000000000E+00 -0.55806862804E+03  0.55806862805E+03  0.25500000920E-02 0.  1.
    10030    2    1    2    0    0  0.00000000000E+00  0.00000000000E+00 -0.11018475599E+03  0.10059525001E+04  0.99989987099E+03 0.  0.
        5    1    3    3  502    0 -0.22809978464E+02  0.12169381981E+03 -0.54237763218E+03  0.55634994993E+03  0.46999998093E+01 0.  1.
       -5    1    3    3    0  502  0.22809978464E+02 -0.12169381981E+03  0.43219287619E+03  0.44960255017E+03  0.46999998093E+01 0. -1.
</event>
<event>
 5   0  0.2353916E-04  0.9999982E+03  0.7818609E-02  0.9308547E-01
        2   -1    0    0  501    0  0.00000000000E+00  0.00000000000E+00  0.89713834870E+03  0.89713834870E+03  0.25500000920E-02 0. -1.
       -2   -1    0    0    0  501  0.00000000000E+00  0.00000000000E+00 -0.27866280756E+03  0.27866280757E+03  0.25500000920E-02 0.  1.
    10030    2    1    2    0    0  0.00000000000E+00  0.00000000000E+00  0.61847554114E+03  0.11758011563E+04  0.99999818204E+03 0.  0.
        4    1    3    3  502    0 -0.38255170094E+03 -0.28019610062E+03  0.12280037653E+03  0.48983385354E+03  0.12699999809E+01 0.  1.
       -4    1    3    3    0  502  0.38255170094E+03  0.28019610062E+03  0.49567516462E+03  0.68596730273E+03  0.12699999809E+01 0. -1.
</event>
<event>
 5   0  0.2473312E-04  0.1000385E+04  0.7818609E-02  0.9308123E-01
        2   -1    0    0  501    0  0.00000000000E+00  0.00000000000E+00  0.12417110199E+04  0.12417110199E+04  0.25500000920E-02 0.  1.
       -2   -1    0    0    0  501  0.00000000000E+00  0.00000000000E+00 -0.20149015408E+03  0.20149015409E+03  0.25500000920E-02 0. -1.
    10030    2    1    2    0    0  0.00000000000E+00  0.00000000000E+00  0.10402208658E+04  0.14432011740E+04  0.10003850153E+04 0.  0.
        5    1    3    3  502    0  0.39242814646E+03  0.10610652475E+03  0.99728293235E+02  0.41860036694E+03  0.46999998093E+01 0. -1.
       -5    1    3    3    0  502 -0.39242814646E+03 -0.10610652475E+03  0.94049257255E+03  0.10246008070E+04  0.46999998093E+01 0.  1.
</event>
<event>
 5   0  0.2473312E-04  0.1000199E+04  0.7818609E-02  0.9308326E-01
        2   -1    0    0  501    0  0.00000000000E+00  0.00000000000E+00  0.62475449457E+03  0.62475449458E+03  0.25500000920E-02 0.  1.
       -2   -1    0    0    0  501  0.00000000000E+00  0.00000000000E+00 -0.40031666791E+03  0.40031666792E+03  0.25500000920E-02 0. -1.
    10030    2    1    2    0    0  0.00000000000E+00  0.00000000000E+00  0.22443782666E+03  0.10250711625E+04  0.10001992552E+04 0.  0.
        5    1    3    3  502    0  0.63876550984E+02 -0.24730966410E+03 -0.32839672297E+03  0.41606343432E+03  0.46999998093E+01 0. -1.
       -5    1    3    3    0  502 -0.63876550984E+02  0.24730966410E+03  0.55283454963E+03  0.60900772818E+03  0.46999998093E+01 0.  1.
</event>
<event>
 5   0  0.9650500E-05  0.1000121E+04  0.7818609E-02  0.9308412E-01
       -4   -1    0    0    0  501  0.00000000000E+00  0.00000000000E+00  0.19006795176E+03  0.19007219467E+03  0.12699999809E+01 0. -1.
        4   -1    0    0  501    0  0.00000000000E+00  0.00000000000E+00 -0.13156192977E+04  0.13156199107E+04  0.12699999809E+01 0.  1.
    10030    2    1    2    0    0  0.00000000000E+00  0.00000000000E+00 -0.11255513459E+04  0.15056921053E+04  0.10001214345E+04 0.  0.
        2    1    3    3  502    0 -0.37601207594E+03  0.25826430505E+03 -0.25432923068E+03  0.52227281194E+03  0.25500000920E-02 0. -1.
       -2    1    3    3    0  502  0.37601207594E+03 -0.25826430505E+03 -0.87122211524E+03  0.98341929339E+03  0.25500000920E-02 0.  1.
</event>
<event>
 5   0  0.2403037E-04  0.1000276E+04  0.7818609E-02  0.9308242E-01
        2   -1    0    0  501    0  0.00000000000E+00  0.00000000000E+00  0.24859916124E+03  0.24859916125E+03  0.25500000920E-02 0. -1.
       -2   -1    0    0    0  501  0.00000000000E+00  0.00000000000E+00 -0.10061904770E+04  0.10061904770E+04  0.25500000920E-02 0.  1.
    10030    2    1    2    0    0  0.00000000000E+00  0.00000000000E+00 -0.75759131579E+03  0.12547896383E+04  0.10002761792E+04 0.  0.
        1    1    3    3  502    0  0.55204093306E+02 -0.43373471092E+03 -0.68340798584E+03  0.81130744266E+03  0.50400001928E-02 0.  1.
       -1    1    3    3    0  502 -0.55204093306E+02  0.43373471092E+03 -0.74183329949E+02  0.44348219563E+03  0.50400001928E-02 0. -1.
</event>
<event>
 5   0  0.1461334E-04  0.9990185E+03  0.7818609E-02  0.9309622E-01
        1   -1    0    0  501    0  0.00000000000E+00  0.00000000000E+00  0.60574334101E+03  0.60574334103E+03  0.50400001928E-02 0. -1.
       -1   -1    0    0    0  501  0.00000000000E+00  0.00000000000E+00 -0.41190632427E+03  0.41190632430E+03  0.50400001928E-02 0.  1.
    10030    2    1    2    0    0  0.00000000000E+00  0.00000000000E+00  0.19383701674E+03  0.10176496653E+04  0.99901854452E+03 0.  0.
        2    1    3    3  502    0  0.14184136736E+03 -0.30438370165E+03 -0.27976298323E+03  0.43707635273E+03  0.25500000920E-02 0.  1.
       -2    1    3    3    0  502 -0.14184136736E+03  0.30438370165E+03  0.47359999997E+03  0.58057331260E+03  0.25500000920E-02 0. -1.
</event>
<event>
 5   0  0.2353916E-04  0.1001203E+04  0.7818609E-02  0.9307226E-01
        2   -1    0    0  501    0  0.00000000000E+00  0.00000000000E+00  0.82822495573E+03  0.82822495573E+03  0.25500000920E-02 0.  1.
       -2   -1    0    0    0  501  0.00000000000E+00  0.00000000000E+00 -0.30257704235E+03  0.30257704236E+03  0.25500000920E-02 0. -1.
    10030    2    1    2    0    0  0.00000000000E+00  0.00000000000E+00  0.52564791338E+03  0.11308019981E+04  0.10012029914E+04 0.  0.
        4    1    3    3  502    0 -0.12361066876E+03  0.69841904305E+02 -0.27935912106E+03  0.31336978229E+03  0.12699999809E+01 0. -1.
       -4    1    3    3    0  502  0.12361066876E+03 -0.69841904305E+02  0.80500703444E+03  0.81743221580E+03  0.12699999809E+01 0.  1.
</event>
<event>
 5   0  0.1506454E-04  0.1000177E+04  0.7818609E-02  0.9308350E-01
        1   -1    0    0  501    0  0.00000000000E+00  0.00000000000E+00  0.40173872060E+03  0.40173872063E+03  0.50400001928E-02 0.  1.
       -1   -1    0    0    0  501  0.00000000000E+00  0.00000000000E+00 -0.62251591058E+03  0.62251591060E+03  0.50400001928E-02 0. -1.
    10030    2    1    2    0    0  0.00000000000E+00  0.00000000000E+00 -0.22077718998E+03  0.10242546312E+04  0.10001774752E+04 0.  0.
        3    1    3    3  502    0  0.48273543411E+03  0.12366258061E+03 -0.67392140332E+02  0.50285946742E+03  0.10100000352E+00 0.  1.
       -3    1    3    3    0  502 -0.48273543411E+03 -0.12366258061E+03 -0.15338504965E+03  0.52139516381E+03  0.10100000352E+00 0. -1.
</event>
<event>
 5   0  0.2484904E-04  0.1000433E+04  0.7818609E-02  0.9308070E-01
        2   -1    0    0  501    0  0.00000000000E+00  0.00000000000E+00  0.43148405865E+03  0.43148405866E+03  0.25500000920E-02 0.  1.
       -2   -1    0    0    0  501  0.00000000000E+00  0.00000000000E+00 -0.57989760573E+03  0.57989760573E+03  0.25500000920E-02 0. -1.
    10030    2    1    2    0    0  0.00000000000E+00  0.00000000000E+00 -0.14841354707E+03  0.10113816644E+04  0.10004330513E+04 0.  0.
        3    1    3    3  502    0 -0.39266284538E+03 -0.30453441230E+03 -0.13220398051E+03  0.51420153741E+03  0.10100000352E+00 0. -1.
       -3    1    3    3    0  502  0.39266284538E+03  0.30453441230E+03 -0.16209566565E+02  0.49718012698E+03  0.10100000352E+00 0.  1.
</event>
<event>
 5   0  0.1414165E-04  0.9998851E+03  0.7818609E-02  0.9308671E-01
        1   -1    0    0  501    0  0.00000000000E+00  0.00000000000E+00  0.24224632863E+03  0.24224632868E+03  0.50400001928E-02 0.  1.
       -1   -1    0    0    0  501  0.00000000000E+00  0.00000000000E+00 -0.10317702623E+04  0.10317702623E+04  0.50400001928E-02 0. -1.
    10030    2    1    2    0    0  0.00000000000E+00  0.00000000000E+00 -0.78952393369E+03  0.12740165910E+04  0.99988510956E+03 0.  0.
        4    1    3    3  502    0 -0.85191107953E+02 -0.44959931450E+03 -0.65132118242E+03  0.79600123370E+03  0.12699999809E+01 0. -1.
       -4    1    3    3    0  502  0.85191107953E+02  0.44959931450E+03 -0.13820275126E+03  0.47801535732E+03  0.12699999809E+01 0.  1.
</event>
<event>
 5   0  0.2403037E-04  0.9997212E+03  0.7818609E-02  0.9308851E-01
        2   -1    0    0  501    0  0.00000000000E+00  0.00000000000E+00  0.70066719488E+03  0.70066719489E+03  0.25500000920E-02 0.  1.
       -2   -1    0    0    0  501  0.00000000000E+00  0.00000000000E+00 -0.35660386545E+03  0.35660386546E+03  0.25500000920E-02 0. -1.
    10030    2    1    2    0    0  0.00000000000E+00  0.00000000000E+00  0.34406332943E+03  0.10572710603E+04  0.99972122134E+03 0.  0.
        1    1    3    3  502    0  0.29558956699E+03 -0.40262806407E+03  0.19259527083E+03  0.53532745909E+03  0.50400001928E-02 0. -1.
       -1    1    3    3    0  502 -0.29558956699E+03  0.40262806407E+03  0.15146805860E+03  0.52194360126E+03  0.50400001928E-02 0.  1.
</event>
<event>
 5   0  0.1430675E-04  0.9999603E+03  0.7818609E-02  0.9308588E-01
        1   -1    0    0  501    0  0.00000000000E+00  0.00000000000E+00  0.10797395405E+04  0.10797395405E+04  0.50400001928E-02 0.  1.
       -1   -1    0    0    0  501  0.00000000000E+00  0.00000000000E+00 -0.23151895712E+03  0.23151895718E+03  0.50400001928E-02 0. -1.
    10030    2    1    2    0    0  0.00000000000E+00  0.00000000000E+00  0.84822058335E+03  0.13112584977E+04  0.99996034405E+03 0.  0.
        5    1    3    3  502    0  0.36228727241E+03 -0.11164098645E+03 -0.33091574326E+01  0.37914221359E+03  0.46999998093E+01 0. -1.
       -5    1    3    3    0  502 -0.36228727241E+03  0.11164098645E+03  0.85152974078E+03  0.93211628408E+03  0.46999998093E+01 0.  1.
</event>
<event>
 5   0  0.1414165E-04  0.9996667E+03  0.7818609E-02  0.9308910E-01
        1   -1    0    0  501    0  0.00000000000E+00  0.00000000000E+00  0.83351802386E+03  0.83351802388E+03  0.50400001928E-02 0. -1.
       -1   -1    0    0    0  501  0.00000000000E+00  0.00000000000E+00 -0.29973364724E+03  0.29973364728E+03  0.50400001928E-02 0.  1.
    10030    2    1    2    0    0  0.00000000000E+00  0.00000000000E+00  0.53378437662E+03  0.11332516712E+04  0.99966673920E+03 0.  0.
        4    1    3    3  502    0 -0.16812986492E+03 -0.25444708871E+03 -0.18203196765E+03  0.35517351052E+03  0.12699999809E+01 0.  1.
       -4    1    3    3    0  502  0.16812986492E+03  0.25444708871E+03  0.71581634427E+03  0.77807816064E+03  0.12699999809E+01 0. -1.
</event>
<event>
 5   0  0.2484904E-04  0.1001227E+04  0.7818609E-02  0.9307200E-01
       -2   -1    0    0    0  501  0.00000000000E+00  0.00000000000E+00  0.44472310765E+03  0.44472310766E+03  0.25500000920E-02 0.  1.
        2   -1    0    0  501    0  0.00000000000E+00  0.00000000000E+00 -0.56352771659E+03  0.56352771659E+03  0.25500000920E-02 0. -1.
    10030    2    1    2    0    0  0.00000000000E+00  0.00000000000E+00 -0.11880460894E+03  0.10082508243E+04  0.10012268422E+04 0.  0.
        3    1    3    3  502    0  0.18190309407E+03  0.13660615087E+03 -0.50847223979E+03  0.55704039793E+03  0.10100000352E+00 0. -1.
       -3    1    3    3    0  502 -0.18190309407E+03 -0.13660615087E+03  0.38966763086E+03  0.45121042632E+03  0.10100000352E+00 0.  1.
</event>
<event>
 5   0  0.1430675E-04  0.9999809E+03  0.7818609E-02  0.9308566E-01
        1   -1    0    0  501    0  0.00000000000E+00  0.00000000000E+00  0.75235784900E+03  0.75235784902E+03  0.50400001928E-02 0. -1.
       -1   -1    0    0    0  501  0.00000000000E+00  0.00000000000E+00 -0.33227602415E+03  0.33227602419E+03  0.50400001928E-02 0.  1.
    10030    2    1    2    0    0  0.00000000000E+00  0.00000000000E+00  0.42008182485E+03  0.10846338732E+04  0.99998094949E+03 0.  0.
        5    1    3    3  502    0  0.27021493029E+03  0.37799880967E+02 -0.24438072727E+03  0.36631812597E+03  0.46999998093E+01 0.  1.
       -5    1    3    3    0  502 -0.27021493029E+03 -0.37799880967E+02  0.66446255213E+03  0.71831574724E+03  0.46999998093E+01 0. -1.
</event>
<event>
 5   0  0.1506454E-04  0.9987852E+03  0.7818609E-02  0.9309878E-01
       -1   -1    0    0    0  501  0.00000000000E+00  0.00000000000E+00  0.19585293436E+03  0.19585293443E+03  0.50400001928E-02 0.  1.
        1   -1    0    0  501    0  0.00000000000E+00  0.00000000000E+00 -0.12733684648E+04  0.12733684648E+04  0.50400001928E-02 0. -1.
    10030    2    1    2    0    0  0.00000000000E+00  0.00000000000E+00 -0.10775155305E+04  0.14692213993E+04  0.99878516292E+03 0.  0.
        3    1    3    3  502    0 -0.14127103623E+02  0.94016119941E+02  0.18241803004E+03  0.20570598861E+03  0.10100000352E+00 0.  1.
       -3    1    3    3    0  502  0.14127103623E+02 -0.94016119941E+02 -0.12599335605E+04  0.12635154107E+04  0.10100000352E+00 0. -1.
</event>
<event>
 5   0  0.1461334E-04  0.1000073E+04  0.7818609E-02  0.9308464E-01
       -1   -1    0    0    0  501  0.00000000000E+00  0.00000000000E+00  0.89917614888E+03  0.89917614889E+03  0.50400001928E-02 0. -1.
        1   -1    0    0  501    0  0.00000000000E+00  0.00000000000E+00 -0.27807312314E+03  0.27807312318E+03  0.50400001928E-02 0.  1.
    10030    2    1    2    0    0  0.00000000000E+00  0.00000000000E+00  0.62110302574E+03  0.11772492721E+04  0.10000734373E+04 0.  0.
        2    1    3    3  502    0  0.28619714621E+03 -0.13747970875E+03  0.76528883114E+03  0.82853875703E+03  0.25500000920E-02 0. -1.
       -2    1    3    3    0  502 -0.28619714621E+03  0.13747970875E+03 -0.14418580540E+03  0.34871051505E+03  0.25500000920E-02 0.  1.
</event>
<event>
 5   0  0.2503680E-04  0.1000157E+04  0.7818609E-02  0.9308373E-01
       -2   -1    0    0    0  501  0.00000000000E+00  0.00000000000E+00  0.38500697253E+03  0.38500697253E+03  0.25500000920E-02 0.  1.
        2   -1    0    0  501    0  0.00000000000E+00  0.00000000000E+00 -0.64954250923E+03  0.64954250923E+03  0.25500000920E-02 0. -1.
    10030    2    1    2    0    0  0.00000000000E+00  0.00000000000E+00 -0.26453553670E+03  0.10345494818E+04  0.10001567777E+04 0.  0.
        2    1    3    3  502    0  0.21949356961E+03 -0.41944539148E+03  0.34414789383E+02  0.47465381202E+03  0.25500000920E-02 0.  1.
       -2    1    3    3    0  502 -0.21949356961E+03  0.41944539148E+03 -0.29895032608E+03  0.55989566975E+03  0.25500000920E-02 0. -1.
</event>
<event>
 5   0  0.1461334E-04  0.9997885E+03  0.7818609E-02  0.9308777E-01
       -1   -1    0    0    0  501  0.00000000000E+00  0.00000000000E+00  0.20676032561E+03  0.20676032568E+03  0.50400001928E-02 0.  1.
        1   -1    0    0  501    0  0.00000000000E+00  0.00000000000E+00 -0.12086181047E+04  0.12086181047E+04  0.50400001928E-02 0. -1.
    10030    2    1    2    0    0  0.00000000000E+00  0.00000000000E+00 -0.10018577791E+04  0.14153784304E+04  0.99978852350E+03 0.  0.
        2    1    3    3  502    0  0.23037659725E+03 -0.16963335525E+03 -0.10812625583E+04  0.11184710867E+04  0.25500000920E-02 0. -1.
       -2    1    3    3    0  502 -0.23037659725E+03  0.16963335525E+03  0.79404779212E+02  0.29690734370E+03  0.25500000920E-02 0.  1.
</event>
<event>
 5   0  0.1461334E-04  0.1000171E+04  0.7818609E-02  0.9308358E-01
        1   -1    0    0  501    0  0.00000000000E+00  0.00000000000E+00  0.29820748817E+03  0.29820748822E+03  0.50400001928E-02 0.  1.
       -1   -1    0    0    0  501  0.00000000000E+00  0.00000000000E+00 -0.83862841699E+03  0.83862841701E+03  0.50400001928E-02 0. -1.
    10030    2    1    2    0    0  0.00000000000E+00  0.00000000000E+00 -0.54042092882E+03  0.11368359052E+04  0.10001705330E+04 0.  0.
        2    1    3    3  502    0 -0.17764512615E+03  0.37389329450E+02 -0.79985337504E+03  0.82019581465E+03  0.25500000920E-02 0. -1.
       -2    1    3    3    0  502  0.17764512615E+03 -0.37389329450E+02  0.25943244622E+03  0.31664009057E+03  0.25500000920E-02 0.  1.
</event>
<event>
 5   0  0.1506454E-04  0.1000148E+04  0.7818609E-02  0.9308382E-01
       -1   -1    0    0    0  501  0.00000000000E+00  0.00000000000E+00  0.25832808239E+03  0.25832808244E+03  0.50400001928E-02 0.  1.
        1   -1    0    0  501    0  0.00000000000E+00  0.00000000000E+00 -0.96804874588E+03  0.96804874589E+03  0.50400001928E-02 0. -1.
    10030    2    1    2    0    0  0.00000000000E+00  0.00000000000E+00 -0.70972066349E+03  0.12263768283E+04  0.10001483414E+04 0.  0.
        3    1    3    3  502    0  0.24807889355E+03  0.40754345554E+03 -0.17117911211E+03  0.50688963710E+03  0.10100000352E+00 0.  1.
       -3    1    3    3    0  502 -0.24807889355E+03 -0.40754345554E+03 -0.53854155138E+03  0.71948719123E+03  0.10100000352E+00 0. -1.
</event>
<event>
 5   0  0.2403037E-04  0.9999000E+03  0.7818609E-02  0.9308654E-01
        2   -1    0    0  501    0  0.00000000000E+00  0.00000000000E+00  0.69919276015E+03  0.69919276015E+03  0.25500000920E-02 0.  1.
       -2   -1    0    0    0  501  0.00000000000E+00  0.00000000000E+00 -0.35748370920E+03  0.35748370921E+03  0.25500000920E-02 0. -1.
    10030    2    1    2    0    0  0.00000000000E+00  0.00000000000E+00  0.34170905095E+03  0.10566764694E+04  0.99990003770E+03 0.  0.
        1    1    3    3  502    0 -0.16706072383E+03 -0.22811790878E+03  0.60658073847E+03  0.66924379569E+03  0.50400001928E-02 0.  1.
       -1    1    3    3    0  502  0.16706072383E+03  0.22811790878E+03 -0.26487168752E+03  0.38743267367E+03  0.50400001928E-02 0. -1.
</event>
<event>
 5   0  0.9650500E-05  0.9998531E+03  0.7818609E-02  0.9308706E-01
        3   -1    0    0  501    0  0.00000000000E+00  0.00000000000E+00  0.66858894057E+03  0.66858894819E+03  0.10100000352E+00 0.  1.
       -3   -1    0    0    0  501  0.00000000000E+00  0.00000000000E+00 -0.37381197992E+03  0.37381199357E+03  0.10100000352E+00 0. -1.
    10030    2    1    2    0    0  0.00000000000E+00  0.00000000000E+00  0.29477696064E+03  0.10424009418E+04  0.99985312264E+03 0.  0.
        3    1    3    3  502    0 -0.38027510500E+03 -0.12878229599E+03 -0.16316757287E+03  0.43337939762E+03  0.10100000352E+00 0. -1.
       -3    1    3    3    0  502  0.38027510500E+03  0.12878229599E+03  0.45794453351E+03  0.60902154414E+03  0.10100000352E+00 0.  1.
</event>
<event>
 5   0  0.2353916E-04  0.1000294E+04  0.7818609E-02  0.9308222E-01
       -2   -1    0    0    0  501  0.00000000000E+00  0.00000000000E+00  0.23520327894E+03  0.23520327896E+03  0.25500000920E-02 0.  1.
        2   -1    0    0  501    0  0.00000000000E+00  0.00000000000E+00 -0.10635353169E+04  0.10635353169E+04  0.25500000920E-02 0. -1.
    10030    2    1    2    0    0  0.00000000000E+00  0.00000000000E+00 -0.82833203797E+03  0.12987385959E+04  0.10002939444E+04 0.  0.
        4    1    3    3  502    0  0.25228538873E+03 -0.13821684937E+03 -0.94537265062E+03  0.98817148120E+03  0.12699999809E+01 0. -1.
       -4    1    3    3    0  502 -0.25228538873E+03  0.13821684937E+03  0.11704061264E+03  0.31056711468E+03  0.12699999809E+01 0.  1.
</event>
<event>
 5   0  0.1453863E-04  0.1000693E+04  0.7818609E-02  0.9307785E-01
       -1   -1    0    0    0  501  0.00000000000E+00  0.00000000000E+00  0.26542120887E+03  0.26542120891E+03  0.50400001928E-02 0.  1.
        1   -1    0    0  501    0  0.00000000000E+00  0.00000000000E+00 -0.94320568283E+03  0.94320568284E+03  0.50400001928E-02 0. -1.
    10030    2    1    2    0    0  0.00000000000E+00  0.00000000000E+00 -0.67778447396E+03  0.12086268918E+04  0.10006933448E+04 0.  0.
        1    1    3    3  502    0  0.29613946404E+03 -0.23086625605E+03 -0.73828354962E+03  0.82828763724E+03  0.50400001928E-02 0. -1.
       -1    1    3    3    0  502 -0.29613946404E+03  0.23086625605E+03  0.60499075660E+02  0.38033925451E+03  0.50400001928E-02 0.  1.
</event>
<event>
 5   0  0.2403037E-04  0.9998174E+03  0.7818609E-02  0.9308745E-01
        2   -1    0    0  501    0  0.00000000000E+00  0.00000000000E+00  0.12588254135E+04  0.12588254135E+04  0.25500000920E-02 0. -1.
       -2   -1    0    0    0  501  0.00000000000E+00  0.00000000000E+00 -0.19852529346E+03  0.19852529348E+03  0.25500000920E-02 0.  1.
    10030    2    1    2    0    0  0.00000000000E+00  0.00000000000E+00  0.10603001201E+04  0.14573507070E+04  0.99981735263E+03 0.  0.
        1    1    3    3  502    0  0.34950639235E+03 -0.19907325147E+03  0.97446935708E+02  0.41386082570E+03  0.50400001928E-02 0.  1.
       -1    1    3    3    0  502 -0.34950639235E+03  0.19907325147E+03  0.96285318435E+03  0.10434898813E+04  0.50400001928E-02 0. -1.
</event>
<event>
 5   0  0.2353916E-04  0.9999910E+03  0.7818609E-02  0.9308555E-01
       -2   -1    0    0    0  501  0.00000000000E+00  0.00000000000E+00  0.23279800436E+03  0.23279800437E+03  0.25500000920E-02 0.  1.
        2   -1    0    0  501    0  0.00000000000E+00  0.00000000000E+00 -0.10738730040E+04  0.10738730040E+04  0.25500000920E-02 0. -1.
    10030    2    1    2    0    0  0.00000000000E+00  0.00000000000E+00 -0.84107499963E+03  0.13066710084E+04  0.99999098450E+03 0.  0.
        4    1    3    3  502    0 -0.37837608131E+03  0.16508374870E+03 -0.78913503470E+03  0.89059352057E+03  0.12699999809E+01 0. -1.
       -4    1    3    3    0  502  0.37837608131E+03 -0.16508374870E+03 -0.51939964932E+02  0.41607748779E+03  0.12699999809E+01 0.  1.
</event>
<event>
 5   0  0.2473312E-04  0.9998517E+03  0.7818609E-02  0.9308707E-01
       -2   -1    0    0    0  501  0.00000000000E+00  0.00000000000E+00  0.11885181263E+03  0.11885181266E+03  0.25500000920E-02 0.  1.
        2   -1    0    0  501    0  0.00000000000E+00  0.00000000000E+00 -0.21028359977E+04  0.21028359977E+04  0.25500000920E-02 0. -1.
    10030    2    1    2    0    0  0.00000000000E+00  0.00000000000E+00 -0.19839841851E+04  0.22216878104E+04  0.99985172907E+03 0.  0.
        5    1    3    3  502    0 -0.27036828572E+03 -0.12290079977E+03 -0.18855087633E+04  0.19087611174E+04  0.46999998093E+01 0. -1.
       -5    1    3    3    0  502  0.27036828572E+03  0.12290079977E+03 -0.98475421724E+02  0.31292669300E+03  0.46999998093E+01 0.  1.
</event>
<event>
 5   0  0.2403037E-04  0.1001171E+04  0.7818609E-02  0.9307261E-01
        2   -1    0    0  501    0  0.00000000000E+00  0.00000000000E+00  0.20595088316E+04  0.20595088316E+04  0.25500000920E-02 0. -1.
       -2   -1    0    0    0  501  0.00000000000E+00  0.00000000000E+00 -0.12167273145E+03  0.12167273148E+03  0.25500000920E-02 0.  1.
    10030    2    1    2    0    0  0.00000000000E+00  0.00000000000E+00  0.19378361001E+04  0.21811815630E+04  0.10011714439E+04 0.  0.
        1    1    3    3  502    0  0.20356557174E+03  0.44375183259E+03  0.12098653442E+04  0.13046565763E+04  0.50400001928E-02 0.  1.
       -1    1    3    3    0  502 -0.20356557174E+03 -0.44375183259E+03  0.72797075588E+03  0.87652498674E+03  0.50400001928E-02 0. -1.
</event>
<event>
 5   0  0.2473312E-04  0.1001337E+04  0.7818609E-02  0.9307080E-01
        2   -1    0    0  501    0  0.00000000000E+00  0.00000000000E+00  0.45186733041E+03  0.45186733041E+03  0.25500000920E-02 0. -1.
       -2   -1    0    0    0  501  0.00000000000E+00  0.00000000000E+00 -0.55474012134E+03  0.55474012134E+03  0.25500000920E-02 0.  1.
    10030    2    1    2    0    0  0.00000000000E+00  0.00000000000E+00 -0.10287279093E+03  0.10066074518E+04  0.10013369816E+04 0.  0.
        5    1    3    3  502    0  0.90777523839E+02 -0.21602572561E+03 -0.49618926787E+03  0.54875636899E+03  0.46999998093E+01 0.  1.
       -5    1    3    3    0  502 -0.90777523839E+02  0.21602572561E+03  0.39331647694E+03  0.45785108277E+03  0.46999998093E+01 0. -1.
</event>
<event>
 5   0  0.2403037E-04  0.1000128E+04  0.7818609E-02  0.9308404E-01
       -2   -1    0    0    0  501  0.00000000000E+00  0.00000000000E+00  0.34693403943E+03  0.34693403944E+03  0.25500000920E-02 0. -1.
        2   -1    0    0  501    0  0.00000000000E+00  0.00000000000E+00 -0.72078250946E+03  0.72078250947E+03  0.25500000920E-02 0.  1.
    10030    2    1    2    0    0  0.00000000000E+00  0.00000000000E+00 -0.37384847004E+03  0.10677165489E+04  0.10001279669E+04 0.  0.
        1    1    3    3  502    0 -0.42248311432E+03  0.16440462502E+03  0.38391095956E+02  0.45496674482E+03  0.50400001928E-02 0. -1.
       -1    1    3    3    0  502  0.42248311432E+03 -0.16440462502E+03 -0.41223956599E+03  0.61274980409E+03  0.50400001928E-02 0.  1.
</event>
<event>
 5   0  0.1414165E-04  0.9995269E+03  0.7818609E-02  0.9309064E-01
       -1   -1    0    0    0  501  0.00000000000E+00  0.00000000000E+00  0.34727749144E+03  0.34727749147E+03  0.50400001928E-02 0.  1.
        1   -1    0    0  501    0  0.00000000000E+00  0.00000000000E+00 -0.71920448199E+03  0.71920448201E+03  0.50400001928E-02 0. -1.
    10030    2    1    2    0    0  0.00000000000E+00  0.00000000000E+00 -0.37192699055E+03  0.10664819735E+04  0.99952694484E+03 0.  0.
        4    1    3    3  502    0 -0.25262456318E+03  0.66565830458E+02  0.26861759701E+03  0.37470949552E+03  0.12699999809E+01 0.  1.
       -4    1    3    3    0  502  0.25262456318E+03 -0.66565830458E+02 -0.64054458757E+03  0.69177247796E+03  0.12699999809E+01 0. -1.
</event>
<event>
 5   0  0.1506454E-04  0.9989208E+03  0.7818609E-02  0.9309729E-01
        1   -1    0    0  501    0  0.00000000000E+00  0.00000000000E+00  0.47747672144E+03  0.47747672147E+03  0.50400001928E-02 0. -1.
       -1   -1    0    0    0  501  0.00000000000E+00  0.00000000000E+00 -0.52245622369E+03  0.52245622371E+03  0.50400001928E-02 0.  1.
    10030    2    1    2    0    0  0.00000000000E+00  0.00000000000E+00 -0.44979502250E+02  0.99993294518E+03  0.99892078726E+03 0.  0.
        3    1    3    3  502    0  0.21911038194E+03  0.42879092316E+03  0.11027064545E+03  0.49399457559E+03  0.10100000352E+00 0.  1.
       -3    1    3    3    0  502 -0.21911038194E+03 -0.42879092316E+03 -0.15525014770E+03  0.50593836959E+03  0.10100000352E+00 0. -1.
</event>
<event>
 5   0  0.2403037E-04  0.9993880E+03  0.7818609E-02  0.9309216E-01
       -2   -1    0    0    0  501  0.00000000000E+00  0.00000000000E+00  0.11547957991E+03  0.11547957994E+03  0.25500000920E-02 0. -1.
        2   -1    0    0  501    0  0.00000000000E+00  0.00000000000E+00 -0.21622357802E+04  0.21622357802E+04  0.25500000920E-02 0.  1.
    10030    2    1    2    0    0  0.00000000000E+00  0.00000000000E+00 -0.20467562003E+04  0.22777153602E+04  0.99938797193E+03 0.  0.
        1    1    3    3  502    0 -0.45617794743E+03 -0.11050679755E+03 -0.63269839987E+03  0.78779269941E+03  0.50400001928E-02 0. -1.
       -1    1    3    3    0  502  0.45617794743E+03  0.11050679755E+03 -0.14140578004E+04  0.14899226607E+04  0.50400001928E-02 0.  1.
</event>
<event>
 5   0  0.1461334E-04  0.1000241E+04  0.7818609E-02  0.9308280E-01
        1   -1    0    0  501    0  0.00000000000E+00  0.00000000000E+00  0.55445962294E+03  0.55445962296E+03  0.50400001928E-02 0. -1.
       -1   -1    0    0    0  501  0.00000000000E+00  0.00000000000E+00 -0.45110714111E+03  0.45110714114E+03  0.50400001928E-02 0.  1.
    10030    2    1    2    0    0  0.00000000000E+00  0.00000000000E+00  0.10335248183E+03  0.10055667641E+04  0.10002413617E+04 0.  0.
        2    1    3    3  502    0 -0.33974519785E+03 -0.79029549566E+02  0.41198113141E+03  0.53981563687E+03  0.25500000920E-02 0. -1.
       -2    1    3    3    0  502  0.33974519785E+03  0.79029549566E+02 -0.30862864958E+03  0.46575112723E+03  0.25500000920E-02 0.  1.
</event>
<event>
 5   0  0.2503680E-04  0.9994886E+03  0.7818609E-02  0.9309106E-01
       -2   -1    0    0    0  501  0.00000000000E+00  0.00000000000E+00  0.46657711420E+03  0.46657711421E+03  0.25500000920E-02 0. -1.
        2   -1    0    0  501    0  0.00000000000E+00  0.00000000000E+00 -0.53526925636E+03  0.53526925637E+03  0.25500000920E-02 0.  1.
    10030    2    1    2    0    0  0.00000000000E+00  0.00000000000E+00 -0.68692142161E+02  0.10018463706E+04  0.99948863917E+03 0.  0.
        2    1    3    3  502    0  0.30651179394E+03  0.91386597087E+02  0.35054330915E+03  0.47453303526E+03  0.25500000920E-02 0. -1.
       -2    1    3    3    0  502 -0.30651179394E+03 -0.91386597087E+02 -0.41923545131E+03  0.52731333531E+03  0.25500000920E-02 0.  1.
</event>
<event>
 5   0  0.1414165E-04  0.1000063E+04  0.7818609E-02  0.9308476E-01
        1   -1    0    0  501    0  0.00000000000E+00  0.00000000000E+00  0.94524407148E+03  0.94524407150E+03  0.50400001928E-02 0.  1.
       -1   -1    0    0    0  501  0.00000000000E+00  0.00000000000E+00 -0.26451517619E+03  0.26451517624E+03  0.50400001928E-02 0. -1.
    10030    2    1    2    0    0  0.00000000000E+00  0.00000000000E+00  0.68072889529E+03  0.12097592477E+04  0.10000628023E+04 0.  0.
        4    1    3    3  502    0  0.29100791781E+03 -0.34628237414E+03  0.59820780213E+03  0.74996751816E+03  0.12699999809E+01 0. -1.
       -4    1    3    3    0  502 -0.29100791781E+03  0.34628237414E+03  0.82521093163E+02  0.45979172957E+03  0.12699999809E+01 0.  1.
</event>
<event>
 5   0  0.2473312E-04  0.9998776E+03  0.7818609E-02  0.9308679E-01
       -2   -1    0    0    0  501  0.00000000000E+00  0.00000000000E+00  0.21323270042E+03  0.21323270043E+03  0.25500000920E-02 0. -1.
        2   -1    0    0  501    0  0.00000000000E+00  0.00000000000E+00 -0.11721410270E+04  0.11721410270E+04  0.25500000920E-02 0.  1.
    10030    2    1    2    0    0  0.00000000000E+00  0.00000000000E+00 -0.95890832655E+03  0.13853737274E+04  0.99987758543E+03 0.  0.
        5    1    3    3  502    0 -0.27072962362E+03  0.14777361961E+03  0.65656577351E+02  0.31537984702E+03  0.46999998093E+01 0. -1.
       -5    1    3    3    0  502  0.27072962362E+03 -0.14777361961E+03 -0.10245649039E+04  0.10699938804E+04  0.46999998093E+01 0.  1.
</event>
<event>
 5   0  0.1414165E-04  0.1000053E+04  0.7818609E-02  0.9308486E-01
        1   -1    0    0  501    0  0.00000000000E+00  0.00000000000E+00  0.16085549744E+04  0.16085549744E+04  0.50400001928E-02 0.  1.
       -1   -1    0    0    0  501  0.00000000000E+00  0.00000000000E+00 -0.15543560645E+03  0.15543560654E+03  0.50400001928E-02 0. -1.
    10030    2    1    2    0    0  0.00000000000E+00  0.00000000000E+00  0.14531193679E+04  0.17639905809E+04  0.10000534346E+04 0.  0.
        4    1    3    3  502    0 -0.48570890446E+03 -0.11859605832E+03  0.71447471388E+03  0.87204007626E+03  0.12699999809E+01 0.  1.
       -4    1    3    3    0  502  0.48570890446E+03  0.11859605832E+03  0.73864465404E+03  0.89195050466E+03  0.12699999809E+01 0. -1.
</event>
<event>
 5   0  0.2403037E-04  0.9999246E+03  0.7818609E-02  0.9308628E-01
       -2   -1    0    0    0  501  0.00000000000E+00  0.00000000000E+00  0.38436107142E+03  0.38436107143E+03  0.25500000920E-02 0.  1.
        2   -1    0    0  501    0  0.00000000000E+00  0.00000000000E+00 -0.65033198604E+03  0.65033198605E+03  0.25500000920E-02 0. -1.
    10030    2    1    2    0    0  0.00000000000E+00  0.00000000000E+00 -0.26597091462E+03  0.10346930575E+04  0.99992459504E+03 0.  0.
        1    1    3    3  502    0 -0.16242407597E+03  0.45214930124E+03 -0.27614979649E+03  0.55414734610E+03  0.50400001928E-02 0. -1.
       -1    1    3    3    0  502  0.16242407597E+03 -0.45214930124E+03  0.10178881872E+02  0.48054571138E+03  0.50400001928E-02 0.  1.
</event>
<event>
 5   0  0.1461334E-04  0.9986808E+03  0.7818609E-02  0.9309993E-01
       -1   -1    0    0    0  501  0.00000000000E+00  0.00000000000E+00  0.30041949414E+03  0.30041949418E+03  0.50400001928E-02 0. -1.
        1   -1    0    0  501    0  0.00000000000E+00  0.00000000000E+00 -0.82997549980E+03  0.82997549981E+03  0.50400001928E-02 0.  1.
    10030    2    1    2    0    0  0.00000000000E+00  0.00000000000E+00 -0.52955600566E+03  0.11303949940E+04  0.99868076948E+03 0.  0.
        2    1    3    3  502    0 -0.16002759291E+03 -0.42399971925E+02  0.26845336024E+03  0.31539466505E+03  0.25500000920E-02 0. -1.
       -2    1    3    3    0  502  0.16002759291E+03  0.42399971925E+02 -0.79800936590E+03  0.81500032894E+03  0.25500000920E-02 0.  1.
</event>
<event>
 5   0  0.1461334E-04  0.9997592E+03  0.7818609E-02  0.9308809E-01
       -1   -1    0    0    0  501  0.00000000000E+00  0.00000000000E+00  0.50247714490E+03  0.50247714492E+03  0.50400001928E-02 0. -1.
        1   -1    0    0  501    0  0.00000000000E+00  0.00000000000E+00 -0.49729544554E+03  0.49729544556E+03  0.50400001928E-02 0.  1.
    10030    2    1    2    0    0  0.00000000000E+00  0.00000000000E+00  0.51816993574E+01  0.99977259048E+03  0.99975916234E+03 0.  0.
        2    1    3    3  502    0  0.20167693879E+03  0.17447434453E+03 -0.42022058970E+03  0.49769491514E+03  0.25500000920E-02 0.  1.
       -2    1    3    3    0  502 -0.20167693879E+03 -0.17447434453E+03  0.42540228906E+03  0.50207767535E+03  0.25500000920E-02 0. -1.
</event>
<event>
 5   0  0.1506454E-04  0.9986282E+03  0.7818609E-02  0.9310051E-01
        1   -1    0    0  501    0  0.00000000000E+00  0.00000000000E+00  0.83983520529E+03  0.83983520531E+03  0.50400001928E-02 0. -1.
       -1   -1    0    0    0  501  0.00000000000E+00  0.00000000000E+00 -0.29686130651E+03  0.29686130655E+03  0.50400001928E-02 0.  1.
    10030    2    1    2    0    0  0.00000000000E+00  0.00000000000E+00  0.54297389878E+03  0.11366965119E+04  0.99862821176E+03 0.  0.
        3    1    3    3  502    0  0.94379887813E+02 -0.19196799418E+03 -0.24206205935E+03  0.32303765228E+03  0.10100000352E+00 0.  1.
       -3    1    3    3    0  502 -0.94379887813E+02  0.19196799418E+03  0.78503595813E+03  0.81365885958E+03  0.10100000352E+00 0. -1.
</event>
<event>
 5   0  0.1430675E-04  0.1000763E+04  0.7818609E-02  0.9307708E-01
       -1   -1    0    0    0  501  0.00000000000E+00  0.00000000000E+00  0.73351228408E+03  0.73351228410E+03  0.50400001928E-02 0.  1.
        1   -1    0    0  501    0  0.00000000000E+00  0.00000000000E+00 -0.34134649379E+03  0.34134649383E+03  0.50400001928E-02 0. -1.
    10030    2    1    2    0    0  0.00000000000E+00  0.00000000000E+00  0.39216579029E+03  0.10748587779E+04  0.10007634013E+04 0.  0.
        5    1    3    3  502    0  0.37064528168E+03  0.17089917308E+03  0.50695231283E+03  0.65085112712E+03  0.46999998093E+01 0.  1.
       -5    1    3    3    0  502 -0.37064528168E+03 -0.17089917308E+03 -0.11478652255E+03  0.42400765081E+03  0.46999998093E+01 0. -1.
</event>
<event>
 5   0  0.1414165E-04  0.9998952E+03  0.7818609E-02  0.9308660E-01
       -1   -1    0    0    0  501  0.00000000000E+00  0.00000000000E+00  0.23220084240E+03  0.23220084245E+03  0.50400001928E-02 0. -1.
        1   -1    0    0  501    0  0.00000000000E+00  0.00000000000E+00 -0.10764284437E+04  0.10764284437E+04  0.50400001928E-02 0.  1.
    10030    2    1    2    0    0  0.00000000000E+00  0.00000000000E+00 -0.84422760133E+03  0.13086292862E+04  0.99989517743E+03 0.  0.
        4    1    3    3  502    0  0.45405089285E+03 -0.12057004554E+03 -0.64593440928E+03  0.79870659392E+03  0.12699999809E+01 0.  1.
       -4    1    3    3    0  502 -0.45405089285E+03  0.12057004554E+03 -0.19829319205E+03  0.50992269227E+03  0.12699999809E+01 0. -1.
</event>
<event>
 5   0  0.2353916E-04  0.1000718E+04  0.7818609E-02  0.9307757E-01
       -2   -1    0    0    0  501  0.00000000000E+00  0.00000000000E+00  0.64816373393E+03  0.64816373393E+03  0.25500000920E-02 0.  1.
        2   -1    0    0  501    0  0.00000000000E+00  0.00000000000E+00 -0.38625930952E+03  0.38625930953E+03  0.25500000920E-02 0. -1.
    10030    2    1    2    0    0  0.00000000000E+00  0.00000000000E+00  0.26190442440E+03  0.10344230435E+04  0.10007182947E+04 0.  0.
        4    1    3    3  502    0 -0.33578221983E+03 -0.41455580488E+02  0.51199972947E+03  0.61368852049E+03  0.12699999809E+01 0.  1.
       -4    1    3    3    0  502  0.33578221983E+03  0.41455580488E+02 -0.25009530507E+03  0.42073452297E+03  0.12699999809E+01 0. -1.
</event>
<event>
 5   0  0.2403037E-04  0.9995503E+03  0.7818609E-02  0.9309038E-01
        2   -1    0    0  501    0  0.00000000000E+00  0.00000000000E+00  0.25673103594E+03  0.25673103596E+03  0.25500000920E-02 0.  1.
       -2   -1    0    0    0  501  0.00000000000E+00  0.00000000000E+00 -0.97290609747E+03  0.97290609747E+03  0.25500000920E-02 0. -1.
    10030    2    1    2    0    0  0.00000000000E+00  0.00000000000E+00 -0.71617506152E+03  0.12296371334E+04  0.99955027945E+03 0.  0.
        1    1    3    3  502    0  0.23647950708E+03 -0.45905253705E+02  0.18059728586E+03  0.30107346159E+03  0.50400001928E-02 0.  1.
       -1    1    3    3    0  502 -0.23647950708E+03  0.45905253705E+02 -0.89677234739E+03  0.92856367184E+03  0.50400001928E-02 0. -1.
</event>
<event>
 5   0  0.2473312E-04  0.9999574E+03  0.7818609E-02  0.9308591E-01
       -2   -1    0    0    0  501  0.00000000000E+00  0.00000000000E+00  0.57876029185E+03  0.57876029185E+03  0.25500000920E-02 0. -1.
        2   -1    0    0  501    0  0.00000000000E+00  0.00000000000E+00 -0.43192100043E+03  0.43192100044E+03  0.25500000920E-02 0.  1.
    10030    2    1    2    0    0  0.00000000000E+00  0.00000000000E+00  0.14683929142E+03  0.10106812923E+04  0.99995744764E+03 0.  0.
        5    1    3    3  502    0  0.24715248186E+03  0.30910457390E+03  0.38218996010E+03  0.55020109278E+03  0.46999998093E+01 0. -1.
       -5    1    3    3    0  502 -0.24715248186E+03 -0.30910457390E+03 -0.23535066868E+03  0.46048019951E+03  0.46999998093E+01 0.  1.
</event>
<event>
 5   0  0.2503680E-04  0.9999002E+03  0.7818609E-02  0.9308654E-01
       -2   -1    0    0    0  501  0.00000000000E+00  0.00000000000E+00  0.23548740057E+03  0.23548740058E+03  0.25500000920E-02 0. -1.
        2   -1    0    0  501    0  0.00000000000E+00  0.00000000000E+00 -0.10614159941E+04  0.10614159941E+04  0.25500000920E-02 0.  1.
    10030    2    1    2    0    0  0.00000000000E+00  0.00000000000E+00 -0.82592859351E+03  0.12969033947E+04  0.99990018176E+03 0.  0.
        2    1    3    3  502    0 -0.21909468234E+03 -0.12163004006E+03  0.14814858978E+03  0.29110883040E+03  0.25500000920E-02 0. -1.
       -2    1    3    3    0  502  0.21909468234E+03  0.12163004006E+03 -0.97407718329E+03  0.10057945643E+04  0.25500000920E-02 0.  1.
</event>
<event>
 5   0  0.1461334E-04  0.9998765E+03  0.7818609E-02  0.9308680E-01
       -1   -1    0    0    0  501  0.00000000000E+00  0.00000000000E+00  0.59699767694E+03  0.59699767696E+03  0.50400001928E-02 0.  1.
        1   -1    0    0  501    0  0.00000000000E+00  0.00000000000E+00 -0.41865868564E+03  0.41865868567E+03  0.50400001928E-02 0. -1.
    10030    2    1    2    0    0  0.00000000000E+00  0.00000000000E+00  0.17833899130E+03  0.10156563626E+04  0.99987651794E+03 0.  0.
        2    1    3    3  502    0  0.12991351166E+03  0.11797221264E+03  0.56468482538E+03  0.59132386684E+03  0.25500000920E-02 0.  1.
       -2    1    3    3    0  502 -0.12991351166E+03 -0.11797221264E+03 -0.38634583408E+03  0.42433249579E+03  0.25500000920E-02 0. -1.
</event>
<event>
 5   0  0.1453863E-04  0.1000322E+04  0.7818609E-02  0.9308192E-01
        1   -1    0    0  501    0  0.00000000000E+00  0.00000000000E+00  0.24918306587E+03  0.24918306592E+03  0.50400001928E-02 0.  1.
       -1   -1    0    0    0  501  0.00000000000E+00  0.00000000000E+00 -0.10039239352E+04  0.10039239352E+04  0.50400001928E-02 0. -1.
    10030    2    1    2    0    0  0.00000000000E+00  0.00000000000E+00 -0.75474086932E+03  0.12531070011E+04  0.10003216365E+04 0.  0.
        1    1    3    3  502    0 -0.34764866943E+03  0.27331564017E+03 -0.67008480902E+03  0.80285408875E+03  0.50400001928E-02 0. -1.
       -1    1    3    3    0  502  0.34764866943E+03 -0.27331564017E+03 -0.84656060304E+02  0.45025291237E+03  0.50400001928E-02 0.  1.
</event>
<event>
 5   0  0.2473312E-04  0.1002094E+04  0.7818609E-02  0.9306251E-01
        2   -1    0    0  501    0  0.00000000000E+00  0.00000000000E+00  0.21368753503E+04  0.21368753503E+04  0.25500000920E-02 0. -1.
       -2   -1    0    0    0  501  0.00000000000E+00  0.00000000000E+00 -0.11748367613E+03  0.11748367616E+03  0.25500000920E-02 0.  1.
    10030    2    1    2    0    0  0.00000000000E+00  0.00000000000E+00  0.20193916742E+04  0.22543590265E+04  0.10020937514E+04 0.  0.
        5    1    3    3  502    0  0.43236739063E+02 -0.29569429018E+03  0.19143829650E+04  0.19375729033E+04  0.46999998093E+01 0. -1.
       -5    1    3    3    0  502 -0.43236739063E+02  0.29569429018E+03  0.10500870918E+03  0.31678612320E+03  0.46999998093E+01 0.  1.
</event>
<event>
 5   0  0.2403037E-04  0.1000549E+04  0.7818609E-02  0.9307943E-01
        2   -1    0    0  501    0  0.00000000000E+00  0.00000000000E+00  0.10109965754E+04  0.10109965754E+04  0.25500000920E-02 0.  1.
       -2   -1    0    0    0  501  0.00000000000E+00  0.00000000000E+00 -0.24755234635E+03  0.24755234637E+03  0.25500000920E-02 0. -1.
    10030    2    1    2    0    0  0.00000000000E+00  0.00000000000E+00  0.76344422906E+03  0.12585489218E+04  0.10005489981E+04 0.  0.
        1    1    3    3  502    0  0.23000096995E+02  0.26553807516E+03  0.91425112585E+03  0.95231013592E+03  0.50400001928E-02 0.  1.
       -1    1    3    3    0  502 -0.23000096995E+02 -0.26553807516E+03 -0.15080689680E+03  0.30623878586E+03  0.50400001928E-02 0. -1.
</event>
<event>
 5   0  0.1430675E-04  0.9998529E+03  0.7818609E-02  0.9308706E-01
       -1   -1    0    0    0  501  0.00000000000E+00  0.00000000000E+00  0.18350736984E+03  0.18350736990E+03  0.50400001928E-02 0.  1.
        1   -1    0    0  501    0  0.00000000000E+00  0.00000000000E+00 -0.13619423435E+04  0.13619423435E+04  0.50400001928E-02 0. -1.
    10030    2    1    2    0    0  0.00000000000E+00  0.00000000000E+00 -0.11784349736E+04  0.15454497134E+04  0.99985290393E+03 0.  0.
        5    1    3    3  502    0 -0.15044734535E+03 -0.69236494048E+02  0.13983805386E+03  0.21680605881E+03  0.46999998093E+01 0.  1.
       -5    1    3    3    0  502  0.15044734535E+03  0.69236494048E+02 -0.13182730275E+04  0.13286436546E+04  0.46999998093E+01 0. -1.
</event>
<event>
 5   0  0.1506454E-04  0.9976222E+03  0.7818609E-02  0.9311157E-01
       -1   -1    0    0    0  501  0.00000000000E+00  0.00000000000E+00  0.13629727841E+03  0.13629727850E+03  0.50400001928E-02 0. -1.
        1   -1    0    0  501    0  0.00000000000E+00  0.00000000000E+00 -0.18255133925E+04  0.18255133925E+04  0.50400001928E-02 0.  1.
    10030    2    1    2    0    0  0.00000000000E+00  0.00000000000E+00 -0.16892161141E+04  0.19618106710E+04  0.99762218738E+03 0.  0.
        3    1    3    3  502    0  0.49401798934E+03 -0.61633263135E+02 -0.90553944931E+03  0.10333702809E+04  0.10100000352E+00 0. -1.
       -3    1    3    3    0  502 -0.49401798934E+03  0.61633263135E+02 -0.78367666476E+03  0.92844039012E+03  0.10100000352E+00 0.  1.
</event>
<event>
 5   0  0.2473312E-04  0.9962021E+03  0.7818609E-02  0.9312720E-01
        2   -1    0    0  501    0  0.00000000000E+00  0.00000000000E+00  0.92643328946E+03  0.92643328946E+03  0.25500000920E-02 0.  1.
       -2   -1    0    0    0  501  0.00000000000E+00  0.00000000000E+00 -0.26780626451E+03  0.26780626453E+03  0.25500000920E-02 0. -1.
    10030    2    1    2    0    0  0.00000000000E+00  0.00000000000E+00  0.65862702494E+03  0.11942395540E+04  0.99620206500E+03 0.  0.
        5    1    3    3  502    0  0.30588398499E+03 -0.10910736787E+03 -0.12340030711E+03  0.34744662294E+03  0.46999998093E+01 0. -1.
       -5    1    3    3    0  502 -0.30588398499E+03  0.10910736787E+03  0.78202733206E+03  0.84679293105E+03  0.46999998093E+01 0.  1.
</event>
<event>
 5   0  0.1506454E-04  0.1000085E+04  0.7818609E-02  0.9308451E-01
       -1   -1    0    0    0  501  0.00000000000E+00  0.00000000000E+00  0.38147489280E+03  0.38147489283E+03  0.50400001928E-02 0. -1.
        1   -1    0    0  501    0  0.00000000000E+00  0.00000000000E+00 -0.65546263356E+03  0.65546263357E+03  0.50400001928E-02 0.  1.
    10030    2    1    2    0    0  0.00000000000E+00  0.00000000000E+00 -0.27398774076E+03  0.10369375264E+04  0.10000850722E+04 0.  0.
        3    1    3    3  502    0  0.33403076283E+03 -0.17937498004E+03 -0.47502995550E+03  0.60778730062E+03  0.10100000352E+00 0.  1.
       -3    1    3    3    0  502 -0.33403076283E+03  0.17937498004E+03  0.20104221474E+03  0.42915022578E+03  0.10100000352E+00 0. -1.
</event>
<event>
 5   0  0.2484904E-04  0.1000282E+04  0.7818609E-02  0.9308236E-01
        2   -1    0    0  501    0  0.00000000000E+00  0.00000000000E+00  0.26896355026E+03  0.26896355027E+03  0.25500000920E-02 0. -1.
       -2   -1    0    0    0  501  0.00000000000E+00  0.00000000000E+00 -0.93001753462E+03  0.93001753462E+03  0.25500000920E-02 0.  1.
    10030    2    1    2    0    0  0.00000000000E+00  0.00000000000E+00 -0.66105398437E+03  0.11989810849E+04  0.10002815962E+04 0.  0.
        3    1    3    3  502    0 -0.51432504474E+02 -0.42628970846E+02  0.26359199394E+03  0.27192513886E+03  0.10100000352E+00 0. -1.
       -3    1    3    3    0  502  0.51432504474E+02  0.42628970846E+02 -0.92464597831E+03  0.92705594603E+03  0.10100000352E+00 0.  1.
</event>
<event>
 5   0  0.1461334E-04  0.1000322E+04  0.7818609E-02  0.9308192E-01
        1   -1    0    0  501    0  0.00000000000E+00  0.00000000000E+00  0.63937750410E+03  0.63937750412E+03  0.50400001928E-02 0.  1.
       -1   -1    0    0    0  501  0.00000000000E+00  0.00000000000E+00 -0.39125693952E+03  0.39125693956E+03  0.50400001928E-02 0. -1.
    10030    2    1    2    0    0  0.00000000000E+00  0.00000000000E+00  0.24812056458E+03  0.10306344437E+04  0.10003217192E+04 0.  0.
        2    1    3    3  502    0  0.93533071042E+02  0.22483284014E+03  0.57417728887E+03  0.62368084823E+03  0.25500000920E-02 0.  1.
       -2    1    3    3    0  502 -0.93533071042E+02 -0.22483284014E+03 -0.32605672429E+03  0.40695359545E+03  0.25500000920E-02 0. -1.
</event>
<event>
 5   0  0.2403037E-04  0.1004053E+04  0.7818609E-02  0.9304110E-01
        2   -1    0    0  501    0  0.00000000000E+00  0.00000000000E+00  0.98767642534E+03  0.98767642534E+03  0.25500000920E-02 0. -1.
       -2   -1    0    0    0  501  0.00000000000E+00  0.00000000000E+00 -0.25517536555E+03  0.25517536556E+03  0.25500000920E-02 0.  1.
    10030    2    1    2    0    0  0.00000000000E+00  0.00000000000E+00  0.73250105979E+03  0.12428517909E+04  0.10040531717E+04 0.  0.
        1    1    3    3  502    0 -0.19781456597E+02  0.24005454612E+03  0.91147868138E+03  0.94276766904E+03  0.50400001928E-02 0. -1.
       -1    1    3    3    0  502  0.19781456597E+02 -0.24005454612E+03 -0.17897762159E+03  0.30008412187E+03  0.50400001928E-02 0.  1.
</event>
<event>
 5   0  0.1461334E-04  0.1000659E+04  0.7818609E-02  0.9307822E-01
        1   -1    0    0  501    0  0.00000000000E+00  0.00000000000E+00  0.67153469701E+03  0.67153469703E+03  0.50400001928E-02 0.  1.
       -1   -1    0    0    0  501  0.00000000000E+00  0.00000000000E+00 -0.37277250336E+03  0.37277250340E+03  0.50400001928E-02 0. -1.
    10030    2    1    2    0    0  0.00000000000E+00  0.00000000000E+00  0.29876219364E+03  0.10443072004E+04  0.10006591230E+04 0.  0.
        2    1    3    3  502    0  0.39087397309E+03  0.17504232847E+03  0.41932850328E+03  0.59938190936E+03  0.25500000920E-02 0.  1.
       -2    1    3    3    0  502 -0.39087397309E+03 -0.17504232847E+03 -0.12056630964E+03  0.44492529106E+03  0.25500000920E-02 0. -1.
</event>
<event>
 5   0  0.2353916E-04  0.9998696E+03  0.7818609E-02  0.9308688E-01
       -2   -1    0    0    0  501  0.00000000000E+00  0.00000000000E+00  0.31159561063E+03  0.31159561064E+03  0.25500000920E-02 0.  1.
        2   -1    0    0  501    0  0.00000000000E+00  0.00000000000E+00 -0.80211268221E+03  0.80211268222E+03  0.25500000920E-02 0. -1.
    10030    2    1    2    0    0  0.00000000000E+00  0.00000000000E+00 -0.49051707159E+03  0.11137082929E+04  0.99986957352E+03 0.  0.
        4    1    3    3  502    0  0.30747194439E+03 -0.69396305589E+02  0.18696592882E+03  0.36648699193E+03  0.12699999809E+01 0.  1.
       -4    1    3    3    0  502 -0.30747194439E+03  0.69396305589E+02 -0.67748300041E+03  0.74722130093E+03  0.12699999809E+01 0. -1.
</event>
<event>
 5   0  0.1461334E-04  0.9994320E+03  0.7818609E-02  0.9309168E-01
       -1   -1    0    0    0  501  0.00000000000E+00  0.00000000000E+00  0.40617595980E+03  0.40617595983E+03  0.50400001928E-02 0. -1.
        1   -1    0    0  501    0  0.00000000000E+00  0.00000000000E+00 -0.61479782835E+03  0.61479782837E+03  0.50400001928E-02 0.  1.
    10030    2    1    2    0    0  0.00000000000E+00  0.00000000000E+00 -0.20862186855E+03  0.10209737882E+04  0.99943203478E+03 0.  0.
        2    1    3    3  502    0 -0.42479410461E+03 -0.22907610832E+03  0.28058985065E+02  0.48343893241E+03  0.25500000920E-02 0. -1.
       -2    1    3    3    0  502  0.42479410461E+03  0.22907610832E+03 -0.23668085362E+03  0.53753485579E+03  0.25500000920E-02 0.  1.
</event>
<event>
 5   0  0.9650500E-05  0.9997473E+03  0.7818609E-02  0.9308822E-01
        4   -1    0    0  501    0  0.00000000000E+00  0.00000000000E+00  0.37587743093E+03  0.37587957644E+03  0.12699999809E+01 0. -1.
       -4   -1    0    0    0  501  0.00000000000E+00  0.00000000000E+00 -0.66476966739E+03  0.66477088052E+03  0.12699999809E+01 0.  1.
    10030    2    1    2    0    0  0.00000000000E+00  0.00000000000E+00 -0.28889223646E+03  0.10406504570E+04  0.99974729271E+03 0.  0.
        4    1    3    3  502    0  0.17686038481E+03  0.48833910214E+02 -0.62845153695E+03  0.65468869984E+03  0.12699999809E+01 0.  1.
       -4    1    3    3    0  502 -0.17686038481E+03 -0.48833910214E+02  0.33955930050E+03  0.38596175711E+03  0.12699999809E+01 0. -1.
</event>
<event>
 5   0  0.1506454E-04  0.9993384E+03  0.7818609E-02  0.9309271E-01
        1   -1    0    0  501    0  0.00000000000E+00  0.00000000000E+00  0.11870961142E+04  0.11870961142E+04  0.50400001928E-02 0. -1.
       -1   -1    0    0    0  501  0.00000000000E+00  0.00000000000E+00 -0.21031939061E+03  0.21031939067E+03  0.50400001928E-02 0.  1.
    10030    2    1    2    0    0  0.00000000000E+00  0.00000000000E+00  0.97677672362E+03  0.13974155049E+04  0.99933844395E+03 0.  0.
        3    1    3    3  502    0 -0.45029788916E+03 -0.21314801327E+03  0.54198434398E+03  0.73617070293E+03  0.10100000352E+00 0.  1.
       -3    1    3    3    0  502  0.45029788916E+03  0.21314801327E+03  0.43479237964E+03  0.66124480197E+03  0.10100000352E+00 0. -1.
</event>
<event>
 5   0  0.1461334E-04  0.9999233E+03  0.7818609E-02  0.9308629E-01
       -1   -1    0    0    0  501  0.00000000000E+00  0.00000000000E+00  0.35295459345E+03  0.35295459349E+03  0.50400001928E-02 0.  1.
        1   -1    0    0  501    0  0.00000000000E+00  0.00000000000E+00 -0.70819772693E+03  0.70819772695E+03  0.50400001928E-02 0. -1.
    10030    2    1    2    0    0  0.00000000000E+00  0.00000000000E+00 -0.35524313348E+03  0.10611523204E+04  0.99992327869E+03 0.  0.
        2    1    3    3  502    0 -0.46651212647E+03  0.12294389260E+03 -0.38389981352E+02  0.48396544871E+03  0.25500000920E-02 0.  1.
       -2    1    3    3    0  502  0.46651212647E+03 -0.12294389260E+03 -0.31685315213E+03  0.57718687172E+03  0.25500000920E-02 0. -1.
</event>
<event>
 5   0  0.1506454E-04  0.1000146E+04  0.7818609E-02  0.9308385E-01
       -1   -1    0    0    0  501  0.00000000000E+00  0.00000000000E+00  0.12609989775E+03  0.12609989785E+03  0.50400001928E-02 0.  1.
        1   -1    0    0  501    0  0.00000000000E+00  0.00000000000E+00 -0.19831333135E+04  0.19831333135E+04  0.50400001928E-02 0. -1.
    10030    2    1    2    0    0  0.00000000000E+00  0.00000000000E+00 -0.18570334158E+04  0.21092332114E+04  0.10001458057E+04 0.  0.
        3    1    3    3  502    0 -0.20265051483E+03  0.76540819489E+01  0.35488628618E+02  0.20587682991E+03  0.10100000352E+00 0.  1.
       -3    1    3    3    0  502  0.20265051483E+03 -0.76540819489E+01 -0.18925220444E+04  0.19033563814E+04  0.10100000352E+00 0. -1.
</event>
<event>
 5   0  0.1430675E-04  0.9996784E+03  0.7818609E-02  0.9308898E-01
        1   -1    0    0  501    0  0.00000000000E+00  0.00000000000E+00  0.71871467461E+03  0.71871467462E+03  0.50400001928E-02 0. -1.
       -1   -1    0    0    0  501  0.00000000000E+00  0.00000000000E+00 -0.34761949082E+03  0.34761949086E+03  0.50400001928E-02 0.  1.
    10030    2    1    2    0    0  0.00000000000E+00  0.00000000000E+00  0.37109518378E+03  0.10663341655E+04  0.99967840682E+03 0.  0.
        5    1    3    3  502    0 -0.32322870510E+03 -0.36987752543E+03  0.87025878367E+02  0.49888051989E+03  0.46999998093E+01 0.  1.
       -5    1    3    3    0  502  0.32322870510E+03  0.36987752543E+03  0.28406930541E+03  0.56745364559E+03  0.46999998093E+01 0. -1.
</event>
<event>
 5   0  0.1430675E-04  0.9999820E+03  0.7818609E-02  0.9308564E-01
        1   -1    0    0  501    0  0.00000000000E+00  0.00000000000E+00  0.89911926758E+03  0.89911926759E+03  0.50400001928E-02 0. -1.
       -1   -1    0    0    0  501  0.00000000000E+00  0.00000000000E+00 -0.27803989204E+03  0.27803989209E+03  0.50400001928E-02 0.  1.
    10030    2    1    2    0    0  0.00000000000E+00  0.00000000000E+00  0.62107937554E+03  0.11771591597E+04  0.99998204808E+03 0.  0.
        5    1    3    3  502    0  0.19852337965E+03 -0.44811430440E+03  0.19429665330E+03  0.52724874733E+03  0.46999998093E+01 0. -1.
       -5    1    3    3    0  502 -0.19852337965E+03  0.44811430440E+03  0.42678272224E+03  0.64991041235E+03  0.46999998093E+01 0.  1.
</event>
<event>
 5   0  0.1430675E-04  0.9997059E+03  0.7818609E-02  0.9308867E-01
        1   -1    0    0  501    0  0.00000000000E+00  0.00000000000E+00  0.44673804659E+03  0.44673804662E+03  0.50400001928E-02 0.  1.
       -1   -1    0    0    0  501  0.00000000000E+00  0.00000000000E+00 -0.55928298864E+03  0.55928298867E+03  0.50400001928E-02 0. -1.
    10030    2    1    2    0    0  0.00000000000E+00  0.00000000000E+00 -0.11254494205E+03  0.10060210353E+04  0.99970593649E+03 0.  0.
        5    1    3    3  502    0 -0.28288641677E+03 -0.76478732376E+02 -0.46374657056E+03  0.54859519958E+03  0.46999998093E+01 0. -1.
       -5    1    3    3    0  502  0.28288641677E+03  0.76478732376E+02  0.35120162851E+03  0.45742583570E+03  0.46999998093E+01 0.  1.
</event>
<event>
 5   0  0.2353916E-04  0.1000848E+04  0.7818609E-02  0.9307615E-01
       -2   -1    0    0    0  501  0.00000000000E+00  0.00000000000E+00  0.51512563683E+03  0.51512563683E+03  0.25500000920E-02 0.  1.
        2   -1    0    0  501    0  0.00000000000E+00  0.00000000000E+00 -0.48614198162E+03  0.48614198162E+03  0.25500000920E-02 0. -1.
    10030    2    1    2    0    0  0.00000000000E+00  0.00000000000E+00  0.28983655210E+02  0.10012676185E+04  0.10008480362E+04 0.  0.
        4    1    3    3  502    0  0.33002538069E+03  0.36489051367E+03 -0.76983620881E+02  0.49798587294E+03  0.12699999809E+01 0. -1.
       -4    1    3    3    0  502 -0.33002538069E+03 -0.36489051367E+03  0.10596727609E+03  0.50328174552E+03  0.12699999809E+01 0.  1.
</event>
<event>
 5   0  0.1414165E-04  0.9996301E+03  0.7818609E-02  0.9308951E-01
        1   -1    0    0  501    0  0.00000000000E+00  0.00000000000E+00  0.84669943693E+03  0.84669943695E+03  0.50400001928E-02 0. -1.
       -1   -1    0    0    0  501  0.00000000000E+00  0.00000000000E+00 -0.29504575268E+03  0.29504575272E+03  0.50400001928E-02 0.  1.
    10030    2    1    2    0    0  0.00000000000E+00  0.00000000000E+00  0.55165368425E+03  0.11417451897E+04  0.99963007697E+03 0.  0.
        4    1    3    3  502    0 -0.12325921828E+03  0.47476960369E+03  0.16618797359E+03  0.51789870336E+03  0.12699999809E+01 0.  1.
       -4    1    3    3    0  502  0.12325921828E+03 -0.47476960369E+03  0.38546571066E+03  0.62384648630E+03  0.12699999809E+01 0. -1.
</event>
<event>
 5   0  0.2484904E-04  0.1000732E+04  0.7818609E-02  0.9307742E-01
       -2   -1    0    0    0  501  0.00000000000E+00  0.00000000000E+00  0.56400775385E+03  0.56400775386E+03  0.25500000920E-02 0. -1.
        2   -1    0    0  501    0  0.00000000000E+00  0.00000000000E+00 -0.44390550227E+03  0.44390550227E+03  0.25500000920E-02 0.  1.
    10030    2    1    2    0    0  0.00000000000E+00  0.00000000000E+00  0.12010225159E+03  0.10079132561E+04  0.10007320226E+04 0.  0.
        3    1    3    3  502    0 -0.36724675155E+03 -0.85375768005E+02  0.39135988000E+03  0.54343515175E+03  0.10100000352E+00 0. -1.
       -3    1    3    3    0  502  0.36724675155E+03  0.85375768005E+02 -0.27125762841E+03  0.46447810439E+03  0.10100000352E+00 0.  1.
</event>
<event>
 5   0  0.2403037E-04  0.1000314E+04  0.7818609E-02  0.9308201E-01
       -2   -1    0    0    0  501  0.00000000000E+00  0.00000000000E+00  0.25408507967E+03  0.25408507969E+03  0.25500000920E-02 0. -1.
        2   -1    0    0  501    0  0.00000000000E+00  0.00000000000E+00 -0.98454004474E+03  0.98454004474E+03  0.25500000920E-02 0.  1.
    10030    2    1    2    0    0  0.00000000000E+00  0.00000000000E+00 -0.73045496507E+03  0.12386251244E+04  0.10003138222E+04 0.  0.
        1    1    3    3  502    0  0.47437307634E+03  0.13123956487E+03 -0.25514765011E+03  0.55439513194E+03  0.50400001928E-02 0. -1.
       -1    1    3    3    0  502 -0.47437307634E+03 -0.13123956487E+03 -0.47530731496E+03  0.68422999249E+03  0.50400001928E-02 0.  1.
</event>
<event>
 5   0  0.1414165E-04  0.9999325E+03  0.7818609E-02  0.9308619E-01
       -1   -1    0    0    0  501  0.00000000000E+00  0.00000000000E+00  0.15593134848E+03  0.15593134856E+03  0.50400001928E-02 0.  1.
        1   -1    0    0  501    0  0.00000000000E+00  0.00000000000E+00 -0.16030530953E+04  0.16030530953E+04  0.50400001928E-02 0. -1.
    10030    2    1    2    0    0  0.00000000000E+00  0.00000000000E+00 -0.14471217468E+04  0.17589844439E+04  0.99993245954E+03 0.  0.
        4    1    3    3  502    0 -0.35106552279E+03  0.31697127577E+03 -0.10085509492E+04  0.11139544071E+04  0.12699999809E+01 0.  1.
       -4    1    3    3    0  502  0.35106552279E+03 -0.31697127577E+03 -0.43857079758E+03  0.64503003678E+03  0.12699999809E+01 0. -1.
</event>
<event>
 5   0  0.2403037E-04  0.9998894E+03  0.7818609E-02  0.9308666E-01
        2   -1    0    0  501    0  0.00000000000E+00  0.00000000000E+00  0.58515488751E+03  0.58515488752E+03  0.25500000920E-02 0.  1.
       -2   -1    0    0    0  501  0.00000000000E+00  0.00000000000E+00 -0.42714285228E+03  0.42714285229E+03  0.25500000920E-02 0. -1.
    10030    2    1    2    0    0  0.00000000000E+00  0.00000000000E+00  0.15801203523E+03  0.10122977398E+04  0.99988944925E+03 0.  0.
        1    1    3    3  502    0 -0.14107244826E+03 -0.10158330467E+03  0.55357041376E+03  0.58022478960E+03  0.50400001928E-02 0.  1.
       -1    1    3    3    0  502  0.14107244826E+03  0.10158330467E+03 -0.39555837853E+03  0.43207295020E+03  0.50400001928E-02 0. -1.
</event>
<event>
 5   0  0.2403037E-04  0.9998443E+03  0.7818609E-02  0.9308716E-01
        2   -1    0    0  501    0  0.00000000000E+00  0.00000000000E+00  0.11126227663E+04  0.11126227663E+04  0.25500000920E-02 0.  1.
       -2   -1    0    0    0  501  0.00000000000E+00  0.00000000000E+00 -0.22462433099E+03  0.22462433100E+03  0.25500000920E-02 0. -1.
    10030    2    1    2    0    0  0.00000000000E+00  0.00000000000E+00  0.88799843536E+03  0.13372470973E+04  0.99984427696E+03 0.  0.
        1    1    3    3  502    0 -0.21052573519E+03  0.45015383510E+03  0.51679641198E+03  0.71696449835E+03  0.50400001928E-02 0.  1.
       -1    1    3    3    0  502  0.21052573519E+03 -0.45015383510E+03  0.37120202338E+03  0.62028259900E+03  0.50400001928E-02 0. -1.
</event>
<event>
 5   0  0.1461334E-04  0.1000539E+04  0.7818609E-02  0.9307954E-01
        1   -1    0    0  501    0  0.00000000000E+00  0.00000000000E+00  0.49506331602E+03  0.49506331604E+03  0.50400001928E-02 0.  1.
       -1   -1    0    0    0  501  0.00000000000E+00  0.00000000000E+00 -0.50553015848E+03  0.50553015850E+03  0.50400001928E-02 0. -1.
    10030    2    1    2    0    0  0.00000000000E+00  0.00000000000E+00 -0.10466842462E+02  0.10005934745E+04  0.10005387281E+04 0.  0.
        2    1    3    3  502    0  0.67605705423E+02 -0.44266535692E+03  0.21781753949E+03  0.49796348273E+03  0.25500000920E-02 0.  1.
       -2    1    3    3    0  502 -0.67605705423E+02  0.44266535692E+03 -0.22828438195E+03  0.50262999181E+03  0.25500000920E-02 0. -1.
</event>
<event>
 5   0  0.2403037E-04  0.9998536E+03  0.7818609E-02  0.9308705E-01
        2   -1    0    0  501    0  0.00000000000E+00  0.00000000000E+00  0.98358324298E+03  0.98358324298E+03  0.25500000920E-02 0. -1.
       -2   -1    0    0    0  501  0.00000000000E+00  0.00000000000E+00 -0.25409828165E+03  0.25409828166E+03  0.25500000920E-02 0.  1.
    10030    2    1    2    0    0  0.00000000000E+00  0.00000000000E+00  0.72948496133E+03  0.12376815246E+04  0.99985361311E+03 0.  0.
        1    1    3    3  502    0 -0.55322310767E+02 -0.25608754670E+03 -0.16231008162E+03  0.30819791086E+03  0.50400001928E-02 0.  1.
       -1    1    3    3    0  502  0.55322310767E+02  0.25608754670E+03  0.89179504294E+03  0.92948361378E+03  0.50400001928E-02 0. -1.
</event>
<event>
 5   0  0.1414165E-04  0.9997037E+03  0.7818609E-02  0.9308870E-01
       -1   -1    0    0    0  501  0.00000000000E+00  0.00000000000E+00  0.36054967781E+03  0.36054967785E+03  0.50400001928E-02 0.  1.
        1   -1    0    0  501    0  0.00000000000E+00  0.00000000000E+00 -0.69297489212E+03  0.69297489214E+03  0.50400001928E-02 0. -1.
    10030    2    1    2    0    0  0.00000000000E+00  0.00000000000E+00 -0.33242521431E+03  0.10535245700E+04  0.99970370433E+03 0.  0.
        4    1    3    3  502    0  0.22373814770E+03  0.42072051326E+02 -0.63516578136E+03  0.67473402089E+03  0.12699999809E+01 0. -1.
       -4    1    3    3    0  502 -0.22373814770E+03 -0.42072051326E+02  0.30274056705E+03  0.37879054909E+03  0.12699999809E+01 0.  1.
</event>
<event>
 5   0  0.9650500E-05  0.1000189E+04  0.7818609E-02  0.9308337E-01
        4   -1    0    0  501    0  0.00000000000E+00  0.00000000000E+00  0.19517780253E+03  0.19518193436E+03  0.12699999809E+01 0.  1.
       -4   -1    0    0    0  501  0.00000000000E+00  0.00000000000E+00 -0.12813499745E+04  0.12813506039E+04  0.12699999809E+01 0. -1.
    10030    2    1    2    0    0  0.00000000000E+00  0.00000000000E+00 -0.10861721720E+04  0.14765325382E+04  0.10001891568E+04 0.  0.
        1    1    3    3  502    0 -0.12663237390E+03 -0.58227695439E+02 -0.12521002289E+04  0.12598338009E+04  0.50400001928E-02 0. -1.
       -1    1    3    3    0  502  0.12663237390E+03  0.58227695439E+02  0.16592805697E+03  0.21669873731E+03  0.50400001928E-02 0.  1.
</event>
<event>
 5   0  0.1414165E-04  0.1001956E+04  0.7818609E-02  0.9306402E-01
       -1   -1    0    0    0  501  0.00000000000E+00  0.00000000000E+00  0.51104835035E+03  0.51104835038E+03  0.50400001928E-02 0. -1.
        1   -1    0    0  501    0  0.00000000000E+00  0.00000000000E+00 -0.49110636907E+03  0.49110636910E+03  0.50400001928E-02 0.  1.
    10030    2    1    2    0    0  0.00000000000E+00  0.00000000000E+00  0.19941981279E+02  0.10021547195E+04  0.10019562860E+04 0.  0.
        4    1    3    3  502    0  0.33320171745E+03 -0.27678617170E+03  0.26170221610E+03  0.50608658565E+03  0.12699999809E+01 0. -1.
       -4    1    3    3    0  502 -0.33320171745E+03  0.27678617170E+03 -0.24176023482E+03  0.49606813383E+03  0.12699999809E+01 0.  1.
</event>
<event>
 5   0  0.2403037E-04  0.1002857E+04  0.7818609E-02  0.9305417E-01
        2   -1    0    0  501    0  0.00000000000E+00  0.00000000000E+00  0.11484559341E+04  0.11484559341E+04  0.25500000920E-02 0.  1.
       -2   -1    0    0    0  501  0.00000000000E+00  0.00000000000E+00 -0.21892913023E+03  0.21892913024E+03  0.25500000920E-02 0. -1.
    10030    2    1    2    0    0  0.00000000000E+00  0.00000000000E+00  0.92952680384E+03  0.13673850643E+04  0.10028568368E+04 0.  0.
        1    1    3    3  502    0 -0.10924922089E+03  0.46740599118E+03  0.66247744277E+03  0.81809541929E+03  0.50400001928E-02 0.  1.
       -1    1    3    3    0  502  0.10924922089E+03 -0.46740599118E+03  0.26704936107E+03  0.54928964503E+03  0.50400001928E-02 0. -1.
</event>
<event>
 5   0  0.1453863E-04  0.1000407E+04  0.7818609E-02  0.9308098E-01
        1   -1    0    0  501    0  0.00000000000E+00  0.00000000000E+00  0.83799177051E+03  0.83799177053E+03  0.50400001928E-02 0. -1.
       -1   -1    0    0    0  501  0.00000000000E+00  0.00000000000E+00 -0.29857538216E+03  0.29857538220E+03  0.50400001928E-02 0.  1.
    10030    2    1    2    0    0  0.00000000000E+00  0.00000000000E+00  0.53941638835E+03  0.11365671527E+04  0.10004073434E+04 0.  0.
        1    1    3    3  502    0  0.27857664385E+02  0.32195263634E+03 -0.16406080341E+03  0.36241619273E+03  0.50400001928E-02 0.  1.
       -1    1    3    3    0  502 -0.27857664385E+02 -0.32195263634E+03  0.70347719176E+03  0.77415096000E+03  0.50400001928E-02 0. -1.
</event>
<event>
 5   0  0.1461334E-04  0.1000139E+04  0.7818609E-02  0.9308392E-01
       -1   -1    0    0    0  501  0.00000000000E+00  0.00000000000E+00  0.19591846836E+03  0.19591846843E+03  0.50400001928E-02 0.  1.
        1   -1    0    0  501    0  0.00000000000E+00  0.00000000000E+00 -0.12763958158E+04  0.12763958158E+04  0.50400001928E-02 0. -1.
    10030    2    1    2    0    0  0.00000000000E+00  0.00000000000E+00 -0.10804773475E+04  0.14723142843E+04  0.10001390170E+04 0.  0.
        2    1    3    3  502    0 -0.36606578314E+03  0.28885255084E+03 -0.27432188252E+03  0.54101058118E+03  0.25500000920E-02 0.  1.
       -2    1    3    3    0  502  0.36606578314E+03 -0.28885255084E+03 -0.80615546495E+03  0.93130370309E+03  0.25500000920E-02 0. -1.
</event>
<event>
 5   0  0.2503680E-04  0.9999486E+03  0.7818609E-02  0.9308601E-01
       -2   -1    0    0    0  501  0.00000000000E+00  0.00000000000E+00  0.16672148663E+03  0.16672148665E+03  0.25500000920E-02 0.  1.
        2   -1    0    0  501    0  0.00000000000E+00  0.00000000000E+00 -0.14993527177E+04  0.14993527177E+04  0.25500000920E-02 0. -1.
    10030    2    1    2    0    0  0.00000000000E+00  0.00000000000E+00 -0.13326312310E+04  0.16660742043E+04  0.99994862685E+03 0.  0.
        2    1    3    3  502    0 -0.12721508215E+03 -0.44200553134E+03 -0.99290736344E+03  0.10942657809E+04  0.25500000920E-02 0. -1.
       -2    1    3    3    0  502  0.12721508215E+03  0.44200553134E+03 -0.33972386760E+03  0.57180842341E+03  0.25500000920E-02 0.  1.
</event>
<event>
 5   0  0.2503680E-04  0.9993164E+03  0.7818609E-02  0.9309295E-01
        2   -1    0    0  501    0  0.00000000000E+00  0.00000000000E+00  0.98277706641E+03  0.98277706642E+03  0.25500000920E-02 0.  1.
       -2   -1    0    0    0  501  0.00000000000E+00  0.00000000000E+00 -0.25403350333E+03  0.25403350334E+03  0.25500000920E-02 0. -1.
    10030    2    1    2    0    0  0.00000000000E+00  0.00000000000E+00  0.72874356308E+03  0.12368105698E+04  0.99931636869E+03 0.  0.
        2    1    3    3  502    0 -0.88658680528E+02  0.44715857004E+02  0.97044257532E+03  0.97550943691E+03  0.25500000920E-02 0.  1.
       -2    1    3    3    0  502  0.88658680528E+02 -0.44715857004E+02 -0.24169901224E+03  0.26130113284E+03  0.25500000920E-02 0. -1.
</event>
<event>
 5   0  0.2473312E-04  0.9999369E+03  0.7818609E-02  0.9308614E-01
        2   -1    0    0  501    0  0.00000000000E+00  0.00000000000E+00  0.36767142379E+03  0.36767142379E+03  0.25500000920E-02 0. -1.
       -2   -1    0    0    0  501  0.00000000000E+00  0.00000000000E+00 -0.67986916596E+03  0.67986916596E+03  0.25500000920E-02 0.  1.
    10030    2    1    2    0    0  0.00000000000E+00  0.00000000000E+00 -0.31219774217E+03  0.10475405898E+04  0.99993692650E+03 0.  0.
        5    1    3    3  502    0  0.36505207170E+03 -0.28266961423E+02 -0.51272291918E+03  0.63005469446E+03  0.46999998093E+01 0.  1.
       -5    1    3    3    0  502 -0.36505207170E+03  0.28266961423E+02  0.20052517700E+03  0.41748589530E+03  0.46999998093E+01 0. -1.
</event>
<event>
 5   0  0.2403037E-04  0.1000611E+04  0.7818609E-02  0.9307875E-01
        2   -1    0    0  501    0  0.00000000000E+00  0.00000000000E+00  0.79590391827E+03  0.79590391827E+03  0.25500000920E-02 0. -1.
       -2   -1    0    0    0  501  0.00000000000E+00  0.00000000000E+00 -0.31449202021E+03  0.31449202022E+03  0.25500000920E-02 0.  1.
    10030    2    1    2    0    0  0.00000000000E+00  0.00000000000E+00  0.48141189805E+03  0.11103959385E+04  0.10006106759E+04 0.  0.
        1    1    3    3  502    0 -0.58835209286E+02  0.76470289300E+02  0.78548171426E+03  0.79138537417E+03  0.50400001928E-02 0. -1.
       -1    1    3    3    0  502  0.58835209286E+02 -0.76470289300E+02 -0.30406981620E+03  0.31901056432E+03  0.50400001928E-02 0.  1.
</event>
<event>
 5   0  0.1506454E-04  0.1000302E+04  0.7818609E-02  0.9308214E-01
        1   -1    0    0  501    0  0.00000000000E+00  0.00000000000E+00  0.12583019305E+04  0.12583019305E+04  0.50400001928E-02 0.  1.
       -1   -1    0    0    0  501  0.00000000000E+00  0.00000000000E+00 -0.19880043377E+03  0.19880043384E+03  0.50400001928E-02 0. -1.
    10030    2    1    2    0    0  0.00000000000E+00  0.00000000000E+00  0.10595014967E+04  0.14571023643E+04  0.10003018937E+04 0.  0.
        3    1    3    3  502    0 -0.30322082108E+03  0.13458498081E+03  0.10749688328E+04  0.11249951044E+04  0.10100000352E+00 0.  1.
       -3    1    3    3    0  502  0.30322082108E+03 -0.13458498081E+03 -0.15467336046E+02  0.33210725990E+03  0.10100000352E+00 0. -1.
</event>
<event>
 5   0  0.2353916E-04  0.1004405E+04  0.7818609E-02  0.9303726E-01
       -2   -1    0    0    0  501  0.00000000000E+00  0.00000000000E+00  0.85035136202E+03  0.85035136203E+03  0.25500000920E-02 0.  1.
        2   -1    0    0  501    0  0.00000000000E+00  0.00000000000E+00 -0.29659216286E+03  0.29659216287E+03  0.25500000920E-02 0. -1.
    10030    2    1    2    0    0  0.00000000000E+00  0.00000000000E+00  0.55375919916E+03  0.11469435249E+04  0.10044053956E+04 0.  0.
        4    1    3    3  502    0 -0.17876035950E+03 -0.51097436721E+02 -0.25584417458E+03  0.31626581974E+03  0.12699999809E+01 0. -1.
       -4    1    3    3    0  502  0.17876035950E+03  0.51097436721E+02  0.80960337374E+03  0.83067770516E+03  0.12699999809E+01 0.  1.
</event>
<event>
 5   0  0.2473312E-04  0.9998998E+03  0.7818609E-02  0.9308655E-01
        2   -1    0    0  501    0  0.00000000000E+00  0.00000000000E+00  0.12091061861E+03  0.12091061864E+03  0.25500000920E-02 0.  1.
       -2   -1    0    0    0  501  0.00000000000E+00  0.00000000000E+00 -0.20672286591E+04  0.20672286591E+04  0.25500000920E-02 0. -1.
    10030    2    1    2    0    0  0.00000000000E+00  0.00000000000E+00 -0.19463180405E+04  0.21881392777E+04  0.99989978700E+03 0.  0.
        5    1    3    3  502    0 -0.25423247445E+03  0.28842504045E+03 -0.16724231466E+04  0.17160549019E+04  0.46999998093E+01 0. -1.
       -5    1    3    3    0  502  0.25423247445E+03 -0.28842504045E+03 -0.27389489390E+03  0.47208437585E+03  0.46999998093E+01 0.  1.
</event>
<event>
 5   0  0.2403037E-04  0.9996815E+03  0.7818609E-02  0.9308894E-01
        2   -1    0    0  501    0  0.00000000000E+00  0.00000000000E+00  0.10229580717E+04  0.10229580717E+04  0.25500000920E-02 0.  1.
       -2   -1    0    0    0  501  0.00000000000E+00  0.00000000000E+00 -0.24423364690E+03  0.24423364691E+03  0.25500000920E-02 0. -1.
    10030    2    1    2    0    0  0.00000000000E+00  0.00000000000E+00  0.77872442480E+03  0.12671917186E+04  0.99968151026E+03 0.  0.
        1    1    3    3  502    0 -0.12809973787E+03 -0.66142023017E+02  0.99603141485E+03  0.10064108949E+04  0.50400001928E-02 0.  1.
       -1    1    3    3    0  502  0.12809973787E+03  0.66142023017E+02 -0.21730699005E+03  0.26078082368E+03  0.50400001928E-02 0. -1.
</event>
<event>
 5   0  0.1453863E-04  0.1001531E+04  0.7818609E-02  0.9306867E-01
       -1   -1    0    0    0  501  0.00000000000E+00  0.00000000000E+00  0.45884120267E+03  0.45884120270E+03  0.50400001928E-02 0.  1.
        1   -1    0    0  501    0  0.00000000000E+00  0.00000000000E+00 -0.54652029308E+03  0.54652029310E+03  0.50400001928E-02 0. -1.
    10030    2    1    2    0    0  0.00000000000E+00  0.00000000000E+00 -0.87679090410E+02  0.10053614958E+04  0.10015308854E+04 0.  0.
        1    1    3    3  502    0  0.42227069642E+03  0.15694026405E+03  0.17568212798E+03  0.48353593212E+03  0.50400001928E-02 0.  1.
       -1    1    3    3    0  502 -0.42227069642E+03 -0.15694026405E+03 -0.26336121839E+03  0.52182556368E+03  0.50400001928E-02 0. -1.
</event>
<event>
 5   0  0.9650500E-05  0.9999669E+03  0.7818609E-02  0.9308581E-01
       -4   -1    0    0    0  501  0.00000000000E+00  0.00000000000E+00  0.13066707637E+03  0.13067324801E+03  0.12699999809E+01 0. -1.
        4   -1    0    0  501    0  0.00000000000E+00  0.00000000000E+00 -0.19130811767E+04  0.19130815983E+04  0.12699999809E+01 0.  1.
    10030    2    1    2    0    0  0.00000000000E+00  0.00000000000E+00 -0.17824141004E+04  0.20437548463E+04  0.99996692274E+03 0.  0.
        4    1    3    3  502    0 -0.27394352692E+03  0.41798728963E+03 -0.92175645432E+03  0.10485203881E+04  0.12699999809E+01 0. -1.
       -4    1    3    3    0  502  0.27394352692E+03 -0.41798728963E+03 -0.86065764605E+03  0.99523445822E+03  0.12699999809E+01 0.  1.
</event>
<event>
 5   0  0.1461334E-04  0.9999103E+03  0.7818609E-02  0.9308643E-01
       -1   -1    0    0    0  501  0.00000000000E+00  0.00000000000E+00  0.17079929511E+03  0.17079929518E+03  0.50400001928E-02 0.  1.
        1   -1    0    0  501    0  0.00000000000E+00  0.00000000000E+00 -0.14634438021E+04  0.14634438021E+04  0.50400001928E-02 0. -1.
    10030    2    1    2    0    0  0.00000000000E+00  0.00000000000E+00 -0.12926445070E+04  0.16342430973E+04  0.99991033577E+03 0.  0.
        2    1    3    3  502    0  0.16804370912E+03  0.13377899443E+03 -0.13841901930E+04  0.14007562236E+04  0.25500000920E-02 0. -1.
       -2    1    3    3    0  502 -0.16804370912E+03 -0.13377899443E+03  0.91545686061E+02  0.23348687365E+03  0.25500000920E-02 0.  1.
</event>
<event>
 5   0  0.2503680E-04  0.9998995E+03  0.7818609E-02  0.9308655E-01
       -2   -1    0    0    0  501  0.00000000000E+00  0.00000000000E+00  0.19761962132E+03  0.19761962133E+03  0.25500000920E-02 0. -1.
        2   -1    0    0  501    0  0.00000000000E+00  0.00000000000E+00 -0.12648023448E+04  0.12648023448E+04  0.25500000920E-02 0.  1.
    10030    2    1    2    0    0  0.00000000000E+00  0.00000000000E+00 -0.10671827235E+04  0.14624219661E+04  0.99989951582E+03 0.  0.
        2    1    3    3  502    0  0.40877568602E+02 -0.26813834440E+03 -0.11478365563E+04  0.11794481368E+04  0.25500000920E-02 0.  1.
       -2    1    3    3    0  502 -0.40877568602E+02  0.26813834440E+03  0.80653832814E+02  0.28297382936E+03  0.25500000920E-02 0. -1.
</event>
<event>
 5   0  0.2353916E-04  0.1001152E+04  0.7818609E-02  0.9307282E-01
        2   -1    0    0  501    0  0.00000000000E+00  0.00000000000E+00  0.11216637774E+04  0.11216637774E+04  0.25500000920E-02 0. -1.
       -2   -1    0    0    0  501  0.00000000000E+00  0.00000000000E+00 -0.22339693709E+03  0.22339693710E+03  0.25500000920E-02 0.  1.
    10030    2    1    2    0    0  0.00000000000E+00  0.00000000000E+00  0.89826684027E+03  0.13450607145E+04  0.10011518413E+04 0.  0.
        4    1    3    3  502    0 -0.46798861583E+03  0.81357806026E+02  0.23695103046E+03  0.53082938962E+03  0.12699999809E+01 0.  1.
       -4    1    3    3    0  502  0.46798861583E+03 -0.81357806026E+02  0.66131580981E+03  0.81423132484E+03  0.12699999809E+01 0. -1.
</event>
<event>
 5   0  0.2473312E-04  0.9997619E+03  0.7818609E-02  0.9308806E-01
        2   -1    0    0  501    0  0.00000000000E+00  0.00000000000E+00  0.78446867226E+03  0.78446867227E+03  0.25500000920E-02 0.  1.
       -2   -1    0    0    0  501  0.00000000000E+00  0.00000000000E+00 -0.31853528931E+03  0.31853528932E+03  0.25500000920E-02 0. -1.
    10030    2    1    2    0    0  0.00000000000E+00  0.00000000000E+00  0.46593338296E+03  0.11030039616E+04  0.99976188261E+03 0.  0.
        5    1    3    3  502    0  0.48732110855E+03  0.10606226064E+03  0.19591598873E+03  0.53585094066E+03  0.46999998093E+01 0.  1.
       -5    1    3    3    0  502 -0.48732110855E+03 -0.10606226064E+03  0.27001739422E+03  0.56715302093E+03  0.46999998093E+01 0. -1.
</event>
<event>
 5   0  0.1414165E-04  0.1000212E+04  0.7818609E-02  0.9308312E-01
        1   -1    0    0  501    0  0.00000000000E+00  0.00000000000E+00  0.82738744430E+03  0.82738744431E+03  0.50400001928E-02 0. -1.
       -1   -1    0    0    0  501  0.00000000000E+00  0.00000000000E+00 -0.30228402586E+03  0.30228402590E+03  0.50400001928E-02 0.  1.
    10030    2    1    2    0    0  0.00000000000E+00  0.00000000000E+00  0.52510341844E+03  0.11296714702E+04  0.10002119928E+04 0.  0.
        4    1    3    3  502    0  0.31850756631E+02  0.12582928514E+03 -0.28292645097E+03  0.31128197708E+03  0.12699999809E+01 0.  1.
       -4    1    3    3    0  502 -0.31850756631E+02 -0.12582928514E+03  0.80802986942E+03  0.81838949313E+03  0.12699999809E+01 0. -1.
</event>
<event>
 5   0  0.1414165E-04  0.9999884E+03  0.7818609E-02  0.9308557E-01
       -1   -1    0    0    0  501  0.00000000000E+00  0.00000000000E+00  0.49542717284E+03  0.49542717286E+03  0.50400001928E-02 0. -1.
        1   -1    0    0  501    0  0.00000000000E+00  0.00000000000E+00 -0.50460337088E+03  0.50460337090E+03  0.50400001928E-02 0.  1.
    10030    2    1    2    0    0  0.00000000000E+00  0.00000000000E+00 -0.91761980420E+01  0.10000305438E+04  0.99998844286E+03 0.  0.
        4    1    3    3  502    0  0.32834879676E+03  0.37245773974E+03  0.54192843981E+02  0.49947590278E+03  0.12699999809E+01 0. -1.
       -4    1    3    3    0  502 -0.32834879676E+03 -0.37245773974E+03 -0.63369042023E+02  0.50055464098E+03  0.12699999809E+01 0.  1.
</event>
<event>
 5   0  0.2503680E-04  0.9990232E+03  0.7818609E-02  0.9309617E-01
        2   -1    0    0  501    0  0.00000000000E+00  0.00000000000E+00  0.79925751678E+03  0.79925751678E+03  0.25500000920E-02 0.  1.
       -2   -1    0    0    0  501  0.00000000000E+00  0.00000000000E+00 -0.31217954026E+03  0.31217954027E+03  0.25500000920E-02 0. -1.
    10030    2    1    2    0    0  0.00000000000E+00  0.00000000000E+00  0.48707797652E+03  0.11114370570E+04  0.99902321123E+03 0.  0.
        2    1    3    3  502    0 -0.24995718939E+03 -0.40827659114E+03  0.40221885961E+03  0.62525865242E+03  0.25500000920E-02 0.  1.
       -2    1    3    3    0  502  0.24995718939E+03  0.40827659114E+03  0.84859116909E+02  0.48617840463E+03  0.25500000920E-02 0. -1.
</event>
<event>
 5   0  0.2403037E-04  0.9998825E+03  0.7818609E-02  0.9308674E-01
        2   -1    0    0  501    0  0.00000000000E+00  0.00000000000E+00  0.75792142152E+03  0.75792142153E+03  0.25500000920E-02 0.  1.
       -2   -1    0    0    0  501  0.00000000000E+00  0.00000000000E+00 -0.32977200735E+03  0.32977200736E+03  0.25500000920E-02 0. -1.
    10030    2    1    2    0    0  0.00000000000E+00  0.00000000000E+00  0.42814941417E+03  0.10876934289E+04  0.99988253029E+03 0.  0.
        1    1    3    3  502    0 -0.12023170537E+03 -0.18864155372E+03  0.70044146982E+03  0.73529555380E+03  0.50400001928E-02 0.  1.
       -1    1    3    3    0  502  0.12023170537E+03  0.18864155372E+03 -0.27229205565E+03  0.35239787508E+03  0.50400001928E-02 0. -1.
</event>
<event>
 5   0  0.2403037E-04  0.9997917E+03  0.7818609E-02  0.9308773E-01
       -2   -1    0    0    0  501  0.00000000000E+00  0.00000000000E+00  0.21356673444E+03  0.21356673446E+03  0.25500000920E-02 0.  1.
        2   -1    0    0  501    0  0.00000000000E+00  0.00000000000E+00 -0.11701066866E+04  0.11701066867E+04  0.25500000920E-02 0. -1.
    10030    2    1    2    0    0  0.00000000000E+00  0.00000000000E+00 -0.95653995220E+03  0.13836734211E+04  0.99979170637E+03 0.  0.
        1    1    3    3  502    0  0.30700528857E+03  0.38648050003E+03 -0.58791293723E+03  0.76763340593E+03  0.50400001928E-02 0.  1.
       -1    1    3    3    0  502 -0.30700528857E+03 -0.38648050003E+03 -0.36862701497E+03  0.61604001518E+03  0.50400001928E-02 0. -1.
</event>
<event>
 5   0  0.1461334E-04  0.9998929E+03  0.7818609E-02  0.9308662E-01
       -1   -1    0    0    0  501  0.00000000000E+00  0.00000000000E+00  0.29259992743E+03  0.29259992747E+03  0.50400001928E-02 0. -1.
        1   -1    0    0  501    0  0.00000000000E+00  0.00000000000E+00 -0.85422591707E+03  0.85422591709E+03  0.50400001928E-02 0.  1.
    10030    2    1    2    0    0  0.00000000000E+00  0.00000000000E+00 -0.56162598964E+03  0.11468258446E+04  0.99989287701E+03 0.  0.
        2    1    3    3  502    0 -0.30914088326E+03  0.23039727497E+03 -0.64585174505E+03  0.75218047476E+03  0.25500000920E-02 0.  1.
       -2    1    3    3    0  502  0.30914088326E+03 -0.23039727497E+03  0.84225755411E+02  0.39464536979E+03  0.25500000920E-02 0. -1.
</event>
<event>
 5   0  0.2473312E-04  0.9997966E+03  0.7818609E-02  0.9308768E-01
       -2   -1    0    0    0  501  0.00000000000E+00  0.00000000000E+00  0.26784112149E+03  0.26784112150E+03  0.25500000920E-02 0. -1.
        2   -1    0    0  501    0  0.00000000000E+00  0.00000000000E+00 -0.93300943575E+03  0.93300943575E+03  0.25500000920E-02 0.  1.
    10030    2    1    2    0    0  0.00000000000E+00  0.00000000000E+00 -0.66516831426E+03  0.12008505572E+04  0.99979656658E+03 0.  0.
        5    1    3    3  502    0 -0.40436981971E+03 -0.51178257770E+02 -0.68015960188E+03  0.79295229314E+03  0.46999998093E+01 0.  1.
       -5    1    3    3    0  502  0.40436981971E+03  0.51178257770E+02  0.14991287620E+02  0.40789826411E+03  0.46999998093E+01 0. -1.
</event>
<event>
 5   0  0.1414165E-04  0.1000077E+04  0.7818609E-02  0.9308461E-01
       -1   -1    0    0    0  501  0.00000000000E+00  0.00000000000E+00  0.48553863722E+03  0.48553863725E+03  0.50400001928E-02 0.  1.
        1   -1    0    0  501    0  0.00000000000E+00  0.00000000000E+00 -0.51497116212E+03  0.51497116214E+03  0.50400001928E-02 0. -1.
    10030    2    1    2    0    0  0.00000000000E+00  0.00000000000E+00 -0.29432524897E+02  0.10005097994E+04  0.10000767896E+04 0.  0.
        4    1    3    3  502    0  0.96464498179E+02 -0.31897059351E+03  0.35825763555E+03  0.48928292966E+03  0.12699999809E+01 0.  1.
       -4    1    3    3    0  502 -0.96464498179E+02  0.31897059351E+03 -0.38769016044E+03  0.51122686973E+03  0.12699999809E+01 0. -1.
</event>
<event>
 5   0  0.1453863E-04  0.1000022E+04  0.7818609E-02  0.9308520E-01
       -1   -1    0    0    0  501  0.00000000000E+00  0.00000000000E+00  0.48799203511E+03  0.48799203513E+03  0.50400001928E-02 0. -1.
        1   -1    0    0  501    0  0.00000000000E+00  0.00000000000E+00 -0.51232627348E+03  0.51232627351E+03  0.50400001928E-02 0.  1.
    10030    2    1    2    0    0  0.00000000000E+00  0.00000000000E+00 -0.24334238374E+02  0.10003183086E+04  0.10000222815E+04 0.  0.
        1    1    3    3  502    0 -0.26213396572E+03  0.61611904380E+02  0.40926615131E+03  0.48990715996E+03  0.50400001928E-02 0. -1.
       -1    1    3    3    0  502  0.26213396572E+03 -0.61611904380E+02 -0.43360038968E+03  0.51041114869E+03  0.50400001928E-02 0.  1.
</event>
<event>
 5   0  0.1453863E-04  0.9975888E+03  0.7818609E-02  0.9311193E-01
       -1   -1    0    0    0  501  0.00000000000E+00  0.00000000000E+00  0.42287022090E+03  0.42287022093E+03  0.50400001928E-02 0. -1.
        1   -1    0    0  501    0  0.00000000000E+00  0.00000000000E+00 -0.58835032198E+03  0.58835032200E+03  0.50400001928E-02 0.  1.
    10030    2    1    2    0    0  0.00000000000E+00  0.00000000000E+00 -0.16548010108E+03  0.10112205429E+04  0.99758875424E+03 0.  0.
        1    1    3    3  502    0 -0.23883956978E+03  0.34049294820E+03 -0.36184972824E+03  0.55128487529E+03  0.50400001928E-02 0.  1.
       -1    1    3    3    0  502  0.23883956978E+03 -0.34049294820E+03  0.19636962717E+03  0.45993566764E+03  0.50400001928E-02 0. -1.
</event>
<event>
 5   0  0.9650500E-05  0.1000151E+04  0.7818609E-02  0.9308379E-01
        4   -1    0    0  501    0  0.00000000000E+00  0.00000000000E+00  0.43775705438E+03  0.43775889660E+03  0.12699999809E+01 0. -1.
       -4   -1    0    0    0  501  0.00000000000E+00  0.00000000000E+00 -0.57126185423E+03  0.57126326593E+03  0.12699999809E+01 0.  1.
    10030    2    1    2    0    0  0.00000000000E+00  0.00000000000E+00 -0.13350479985E+03  0.10090221625E+04  0.10001510850E+04 0.  0.
        5    1    3    3  502    0 -0.19316624348E+03  0.20883888100E+03  0.34814530397E+03  0.44961552299E+03  0.46999998093E+01 0. -1.
       -5    1    3    3    0  502  0.19316624348E+03 -0.20883888100E+03 -0.48165010383E+03  0.55940663954E+03  0.46999998093E+01 0.  1.
</event>
<event>
 5   0  0.9650500E-05  0.1000183E+04  0.7818609E-02  0.9308344E-01
       -3   -1    0    0    0  501  0.00000000000E+00  0.00000000000E+00  0.12202051721E+04  0.12202051763E+04  0.10100000352E+00 0. -1.
        3   -1    0    0  501    0  0.00000000000E+00  0.00000000000E+00 -0.20495866095E+03  0.20495868583E+03  0.10100000352E+00 0.  1.
    10030    2    1    2    0    0  0.00000000000E+00  0.00000000000E+00  0.10152465111E+04  0.14251638621E+04  0.10001832609E+04 0.  0.
        3    1    3    3  502    0  0.46506849615E+03 -0.72417405404E+02  0.74842187645E+03  0.88412007220E+03  0.10100000352E+00 0.  1.
       -3    1    3    3    0  502 -0.46506849615E+03  0.72417405404E+02  0.26682463469E+03  0.54104378990E+03  0.10100000352E+00 0. -1.
</event>
<event>
 5   0  0.1453863E-04  0.9998459E+03  0.7818609E-02  0.9308714E-01
       -1   -1    0    0    0  501  0.00000000000E+00  0.00000000000E+00  0.33682116604E+03  0.33682116608E+03  0.50400001928E-02 0. -1.
        1   -1    0    0  501    0  0.00000000000E+00  0.00000000000E+00 -0.74200487275E+03  0.74200487277E+03  0.50400001928E-02 0.  1.
    10030    2    1    2    0    0  0.00000000000E+00  0.00000000000E+00 -0.40518370671E+03  0.10788260388E+04  0.99984588108E+03 0.  0.
        1    1    3    3  502    0 -0.27951029157E+03  0.38270377395E+03 -0.37433396418E+03  0.60391563852E+03  0.50400001928E-02 0.  1.
       -1    1    3    3    0  502  0.27951029157E+03 -0.38270377395E+03 -0.30849742530E+02  0.47491040032E+03  0.50400001928E-02 0. -1.
</event>
<event>
 5   0  0.2403037E-04  0.9992827E+03  0.7818609E-02  0.9309332E-01
        2   -1    0    0  501    0  0.00000000000E+00  0.00000000000E+00  0.81050923018E+03  0.81050923019E+03  0.25500000920E-02 0.  1.
       -2   -1    0    0    0  501  0.00000000000E+00  0.00000000000E+00 -0.30800574626E+03  0.30800574627E+03  0.25500000920E-02 0. -1.
    10030    2    1    2    0    0  0.00000000000E+00  0.00000000000E+00  0.50250348392E+03  0.11185149765E+04  0.99928274337E+03 0.  0.
        1    1    3    3  502    0  0.26778837549E+03 -0.13474211624E+03  0.69866457664E+03  0.76026195657E+03  0.50400001928E-02 0.  1.
       -1    1    3    3    0  502 -0.26778837549E+03  0.13474211624E+03 -0.19616109272E+03  0.35825301988E+03  0.50400001928E-02 0. -1.
</event>
<event>
 5   0  0.1453863E-04  0.9999367E+03  0.7818609E-02  0.9308614E-01
        1   -1    0    0  501    0  0.00000000000E+00  0.00000000000E+00  0.79968575113E+03  0.79968575114E+03  0.50400001928E-02 0.  1.
       -1   -1    0    0    0  501  0.00000000000E+00  0.00000000000E+00 -0.31258319395E+03  0.31258319399E+03  0.50400001928E-02 0. -1.
    10030    2    1    2    0    0  0.00000000000E+00  0.00000000000E+00  0.48710255717E+03  0.11122689451E+04  0.99993665055E+03 0.  0.
        1    1    3    3  502    0  0.10612793003E+03 -0.13035552827E+03 -0.28020897341E+03  0.32676102902E+03  0.50400001928E-02 0. -1.
       -1    1    3    3    0  502 -0.10612793003E+03  0.13035552827E+03  0.76731153059E+03  0.78550791611E+03  0.50400001928E-02 0.  1.
</event>
<event>
 5   0  0.2353916E-04  0.1000076E+04  0.7818609E-02  0.9308461E-01
        2   -1    0    0  501    0  0.00000000000E+00  0.00000000000E+00  0.13205364419E+04  0.13205364419E+04  0.25500000920E-02 0. -1.
       -2   -1    0    0    0  501  0.00000000000E+00  0.00000000000E+00 -0.18934581375E+03  0.18934581377E+03  0.25500000920E-02 0.  1.
    10030    2    1    2    0    0  0.00000000000E+00  0.00000000000E+00  0.11311906281E+04  0.15098822557E+04  0.10000760915E+04 0.  0.
        4    1    3    3  502    0 -0.35754037295E+03 -0.30744581300E+03  0.81677264056E+03  0.94312099196E+03  0.12699999809E+01 0.  1.
       -4    1    3    3    0  502  0.35754037295E+03  0.30744581300E+03  0.31441798759E+03  0.56676126371E+03  0.12699999809E+01 0. -1.
</event>
<event>
 5   0  0.2484904E-04  0.1001214E+04  0.7818609E-02  0.9307214E-01
        2   -1    0    0  501    0  0.00000000000E+00  0.00000000000E+00  0.11614701078E+04  0.11614701078E+04  0.25500000920E-02 0. -1.
       -2   -1    0    0    0  501  0.00000000000E+00  0.00000000000E+00 -0.21576731909E+03  0.21576731911E+03  0.25500000920E-02 0.  1.
    10030    2    1    2    0    0  0.00000000000E+00  0.00000000000E+00  0.94570278868E+03  0.13772374269E+04  0.10012138460E+04 0.  0.
        3    1    3    3  502    0  0.14912613217E+03 -0.61868735557E+02  0.11246744759E+04  0.11362037804E+04  0.10100000352E+00 0. -1.
       -3    1    3    3    0  502 -0.14912613217E+03  0.61868735557E+02 -0.17897168717E+03  0.24103364650E+03  0.10100000352E+00 0.  1.
</event>
<event>
 5   0  0.2503680E-04  0.9993939E+03  0.7818609E-02  0.9309210E-01
       -2   -1    0    0    0  501  0.00000000000E+00  0.00000000000E+00  0.43589867977E+03  0.43589867978E+03  0.25500000920E-02 0.  1.
        2   -1    0    0  501    0  0.00000000000E+00  0.00000000000E+00 -0.57283270551E+03  0.57283270551E+03  0.25500000920E-02 0. -1.
    10030    2    1    2    0    0  0.00000000000E+00  0.00000000000E+00 -0.13693402573E+03  0.10087313853E+04  0.99939385643E+03 0.  0.
        2    1    3    3  502    0  0.13007386398E+03 -0.37608570991E+02  0.41702958630E+03  0.43846013565E+03  0.25500000920E-02 0.  1.
       -2    1    3    3    0  502 -0.13007386398E+03  0.37608570991E+02 -0.55396361203E+03  0.57027124964E+03  0.25500000920E-02 0. -1.
</event>
<event>
 5   0  0.1430675E-04  0.9999855E+03  0.7818609E-02  0.9308561E-01
        1   -1    0    0  501    0  0.00000000000E+00  0.00000000000E+00  0.85245516051E+03  0.85245516052E+03  0.50400001928E-02 0. -1.
       -1   -1    0    0    0  501  0.00000000000E+00  0.00000000000E+00 -0.29326202877E+03  0.29326202882E+03  0.50400001928E-02 0.  1.
    10030    2    1    2    0    0  0.00000000000E+00  0.00000000000E+00  0.55919313174E+03  0.11457171893E+04  0.99998545958E+03 0.  0.
        5    1    3    3  502    0 -0.28608899823E+03 -0.12261572616E+03 -0.16869017210E+03  0.35406213491E+03  0.46999998093E+01 0.  1.
       -5    1    3    3    0  502  0.28608899823E+03  0.12261572616E+03  0.72788330384E+03  0.79165505444E+03  0.46999998093E+01 0. -1.
</event>
<event>
 5   0  0.1453863E-04  0.1000340E+04  0.7818609E-02  0.9308172E-01
        1   -1    0    0  501    0  0.00000000000E+00  0.00000000000E+00  0.97626588711E+03  0.97626588712E+03  0.50400001928E-02 0. -1.
       -1   -1    0    0    0  501  0.00000000000E+00  0.00000000000E+00 -0.25625186817E+03  0.25625186822E+03  0.50400001928E-02 0.  1.
    10030    2    1    2    0    0  0.00000000000E+00  0.00000000000E+00  0.72001401894E+03  0.12325177553E+04  0.10003398571E+04 0.  0.
        1    1    3    3  502    0 -0.29302810542E+02  0.49906672963E+03  0.34077276039E+03  0.60502258600E+03  0.50400001928E-02 0. -1.
       -1    1    3    3    0  502  0.29302810542E+02 -0.49906672963E+03  0.37924125856E+03  0.62749516934E+03  0.50400001928E-02 0.  1.
</event>
<event>
 5   0  0.2353916E-04  0.1000599E+04  0.7818609E-02  0.9307888E-01
       -2   -1    0    0    0  501  0.00000000000E+00  0.00000000000E+00  0.17352724905E+03  0.17352724907E+03  0.25500000920E-02 0. -1.
        2   -1    0    0  501    0  0.00000000000E+00  0.00000000000E+00 -0.14424218151E+04  0.14424218151E+04  0.25500000920E-02 0.  1.
    10030    2    1    2    0    0  0.00000000000E+00  0.00000000000E+00 -0.12688945660E+04  0.16159490641E+04  0.10005987998E+04 0.  0.
        4    1    3    3  502    0  0.44419752848E+03  0.13521908209E+03 -0.93529477499E+03  0.10442095448E+04  0.12699999809E+01 0.  1.
       -4    1    3    3    0  502 -0.44419752848E+03 -0.13521908209E+03 -0.33359979101E+03  0.57173951930E+03  0.12699999809E+01 0. -1.
</event>
<event>
 5   0  0.2353916E-04  0.1000228E+04  0.7818609E-02  0.9308295E-01
       -2   -1    0    0    0  501  0.00000000000E+00  0.00000000000E+00  0.48986957650E+03  0.48986957651E+03  0.25500000920E-02 0.  1.
        2   -1    0    0  501    0  0.00000000000E+00  0.00000000000E+00 -0.51057231130E+03  0.51057231131E+03  0.25500000920E-02 0. -1.
    10030    2    1    2    0    0  0.00000000000E+00  0.00000000000E+00 -0.20702734803E+02  0.10004418878E+04  0.10002276579E+04 0.  0.
        4    1    3    3  502    0  0.56149606245E+02 -0.19449345092E+03  0.44705582759E+03  0.49075554670E+03  0.12699999809E+01 0.  1.
       -4    1    3    3    0  502 -0.56149606245E+02  0.19449345092E+03 -0.46775856240E+03  0.50968634112E+03  0.12699999809E+01 0. -1.
</event>
<event>
 5   0  0.2473312E-04  0.1000176E+04  0.7818609E-02  0.9308352E-01
        2   -1    0    0  501    0  0.00000000000E+00  0.00000000000E+00  0.85108870018E+03  0.85108870019E+03  0.25500000920E-02 0. -1.
       -2   -1    0    0    0  501  0.00000000000E+00  0.00000000000E+00 -0.29384466987E+03  0.29384466988E+03  0.25500000920E-02 0.  1.
    10030    2    1    2    0    0  0.00000000000E+00  0.00000000000E+00  0.55724403032E+03  0.11449333701E+04  0.10001757408E+04 0.  0.
        5    1    3    3  502    0  0.25701876535E+03 -0.12357401843E+03  0.74885008400E+03  0.80132872286E+03  0.46999998093E+01 0. -1.
       -5    1    3    3    0  502 -0.25701876535E+03  0.12357401843E+03 -0.19160605369E+03  0.34360464720E+03  0.46999998093E+01 0.  1.
</event>
<event>
 5   0  0.2484904E-04  0.1000071E+04  0.7818609E-02  0.9308467E-01
       -2   -1    0    0    0  501  0.00000000000E+00  0.00000000000E+00  0.38860561690E+03  0.38860561690E+03  0.25500000920E-02 0. -1.
        2   -1    0    0  501    0  0.00000000000E+00  0.00000000000E+00 -0.64341719361E+03  0.64341719362E+03  0.25500000920E-02 0.  1.
    10030    2    1    2    0    0  0.00000000000E+00  0.00000000000E+00 -0.25481157672E+03  0.10320228105E+04  0.10000710684E+04 0.  0.
        3    1    3    3  502    0 -0.35292408968E+03 -0.77580559224E+01  0.23805576929E+03  0.42577712479E+03  0.10100000352E+00 0. -1.
       -3    1    3    3    0  502  0.35292408968E+03  0.77580559224E+01 -0.49286734600E+03  0.60624568573E+03  0.10100000352E+00 0.  1.
</event>
<event>
 5   0  0.2353916E-04  0.1000252E+04  0.7818609E-02  0.9308269E-01
        2   -1    0    0  501    0  0.00000000000E+00  0.00000000000E+00  0.26456281836E+04  0.26456281836E+04  0.25500000920E-02 0.  1.
       -2   -1    0    0    0  501  0.00000000000E+00  0.00000000000E+00 -0.94543132319E+02  0.94543132353E+02  0.25500000920E-02 0. -1.
    10030    2    1    2    0    0  0.00000000000E+00  0.00000000000E+00  0.25510850513E+04  0.27401713159E+04  0.10002519192E+04 0.  0.
        4    1    3    3  502    0  0.70288761092E+02  0.10394828240E+03 -0.50713307621E+02  0.13534846811E+03  0.12699999809E+01 0. -1.
       -4    1    3    3    0  502 -0.70288761092E+02 -0.10394828240E+03  0.26017983589E+04  0.26048228478E+04  0.12699999809E+01 0.  1.
</event>
<event>
 5   0  0.9650500E-05  0.9990929E+03  0.7818609E-02  0.9309540E-01
        3   -1    0    0  501    0  0.00000000000E+00  0.00000000000E+00  0.51590283214E+03  0.51590284202E+03  0.10100000352E+00 0.  1.
       -3   -1    0    0    0  501  0.00000000000E+00  0.00000000000E+00 -0.48370865658E+03  0.48370866712E+03  0.10100000352E+00 0. -1.
    10030    2    1    2    0    0  0.00000000000E+00  0.00000000000E+00  0.32194175562E+02  0.99961150915E+03  0.99909294076E+03 0.  0.
        3    1    3    3  502    0 -0.26386605624E+03 -0.42317467287E+03  0.45173597571E+02  0.50074221264E+03  0.10100000352E+00 0.  1.
       -3    1    3    3    0  502  0.26386605624E+03  0.42317467287E+03 -0.12979422008E+02  0.49886929651E+03  0.10100000352E+00 0. -1.
</event>
<event>
 5   0  0.1430675E-04  0.1000295E+04  0.7818609E-02  0.9308221E-01
       -1   -1    0    0    0  501  0.00000000000E+00  0.00000000000E+00  0.58820981011E+03  0.58820981014E+03  0.50400001928E-02 0.  1.
        1   -1    0    0  501    0  0.00000000000E+00  0.00000000000E+00 -0.42526953447E+03  0.42526953450E+03  0.50400001928E-02 0. -1.
    10030    2    1    2    0    0  0.00000000000E+00  0.00000000000E+00  0.16294027565E+03  0.10134793446E+04  0.10002953807E+04 0.  0.
        5    1    3    3  502    0 -0.23742127033E+03 -0.29317707546E+03  0.41413275947E+03  0.56022289282E+03  0.46999998093E+01 0.  1.
       -5    1    3    3    0  502  0.23742127033E+03  0.29317707546E+03 -0.25119248382E+03  0.45325645181E+03  0.46999998093E+01 0. -1.
</event>
<event>
 5   0  0.1461334E-04  0.1000093E+04  0.7818609E-02  0.9308442E-01
       -1   -1    0    0    0  501  0.00000000000E+00  0.00000000000E+00  0.43839213397E+03  0.43839213400E+03  0.50400001928E-02 0.  1.
        1   -1    0    0  501    0  0.00000000000E+00  0.00000000000E+00 -0.57037214005E+03  0.57037214007E+03  0.50400001928E-02 0. -1.
    10030    2    1    2    0    0  0.00000000000E+00  0.00000000000E+00 -0.13198000608E+03  0.10087642741E+04  0.10000933150E+04 0.  0.
        2    1    3    3  502    0  0.23415743549E+03  0.36201231242E+03  0.18951241915E+03  0.47095390003E+03  0.25500000920E-02 0.  1.
       -2    1    3    3    0  502 -0.23415743549E+03 -0.36201231242E+03 -0.32149242523E+03  0.53781037404E+03  0.25500000920E-02 0. -1.
</event>
<event>
 5   0  0.9650500E-05  0.1000238E+04  0.7818609E-02  0.9308284E-01
        3   -1    0    0  501    0  0.00000000000E+00  0.00000000000E+00  0.48706819452E+03  0.48706820499E+03  0.10100000352E+00 0. -1.
       -3   -1    0    0    0  501  0.00000000000E+00  0.00000000000E+00 -0.51351942159E+03  0.51351943153E+03  0.10100000352E+00 0.  1.
    10030    2    1    2    0    0  0.00000000000E+00  0.00000000000E+00 -0.26451227071E+02  0.10005876365E+04  0.10002379472E+04 0.  0.
        1    1    3    3  502    0 -0.92004737119E+02 -0.21201269099E+03 -0.45689474401E+03  0.51202251896E+03  0.50400001928E-02 0.  1.
       -1    1    3    3    0  502  0.92004737119E+02  0.21201269099E+03  0.43044351694E+03  0.48856511756E+03  0.50400001928E-02 0. -1.
</event>
<event>
 5   0  0.2353916E-04  0.1000678E+04  0.7818609E-02  0.9307802E-01
       -2   -1    0    0    0  501  0.00000000000E+00  0.00000000000E+00  0.10667516276E+04  0.10667516276E+04  0.25500000920E-02 0.  1.
        2   -1    0    0  501    0  0.00000000000E+00  0.00000000000E+00 -0.23467401439E+03  0.23467401440E+03  0.25500000920E-02 0. -1.
    10030    2    1    2    0    0  0.00000000000E+00  0.00000000000E+00  0.83207761322E+03  0.13014256420E+04  0.10006775441E+04 0.  0.
        4    1    3    3  502    0  0.23937026048E+03  0.43814611274E+03  0.37355385447E+03  0.62354970355E+03  0.12699999809E+01 0. -1.
       -4    1    3    3    0  502 -0.23937026048E+03 -0.43814611274E+03  0.45852375875E+03  0.67787593846E+03  0.12699999809E+01 0.  1.
</event>
<event>
 5   0  0.2484904E-04  0.9999663E+03  0.7818609E-02  0.9308582E-01
        2   -1    0    0  501    0  0.00000000000E+00  0.00000000000E+00  0.10442808064E+04  0.10442808064E+04  0.25500000920E-02 0. -1.
       -2   -1    0    0    0  501  0.00000000000E+00  0.00000000000E+00 -0.23938309013E+03  0.23938309015E+03  0.25500000920E-02 0.  1.
    10030    2    1    2    0    0  0.00000000000E+00  0.00000000000E+00  0.80489771622E+03  0.12836638965E+04  0.99996633224E+03 0.  0.
        3    1    3    3  502    0  0.26182806132E+03 -0.22405707277E+03  0.86747634670E+03  0.93341883838E+03  0.10100000352E+00 0. -1.
       -3    1    3    3    0  502 -0.26182806132E+03  0.22405707277E+03 -0.62578630473E+02  0.35024505813E+03  0.10100000352E+00 0.  1.
</event>
<event>
 5   0  0.1430675E-04  0.9999266E+03  0.7818609E-02  0.9308625E-01
       -1   -1    0    0    0  501  0.00000000000E+00  0.00000000000E+00  0.21614142419E+03  0.21614142425E+03  0.50400001928E-02 0.  1.
        1   -1    0    0  501    0  0.00000000000E+00  0.00000000000E+00 -0.11564803708E+04  0.11564803708E+04  0.50400001928E-02 0. -1.
    10030    2    1    2    0    0  0.00000000000E+00  0.00000000000E+00 -0.94033894658E+03  0.13726217950E+04  0.99992662618E+03 0.  0.
        5    1    3    3  502    0 -0.45101024825E+02  0.31853999734E+03 -0.99547469300E+03  0.10461805708E+04  0.46999998093E+01 0. -1.
       -5    1    3    3    0  502  0.45101024825E+02 -0.31853999734E+03  0.55135746411E+02  0.32644122423E+03  0.46999998093E+01 0.  1.
</event>
<event>
 5   0  0.2503680E-04  0.1000319E+04  0.7818609E-02  0.9308195E-01
       -2   -1    0    0    0  501  0.00000000000E+00  0.00000000000E+00  0.44115921777E+03  0.44115921778E+03  0.25500000920E-02 0.  1.
        2   -1    0    0  501    0  0.00000000000E+00  0.00000000000E+00 -0.56705076376E+03  0.56705076377E+03  0.25500000920E-02 0. -1.
    10030    2    1    2    0    0  0.00000000000E+00  0.00000000000E+00 -0.12589154600E+03  0.10082099815E+04  0.10003192918E+04 0.  0.
        2    1    3    3  502    0 -0.22703860183E+03  0.29693163677E+02  0.38523191875E+03  0.44814265800E+03  0.25500000920E-02 0.  1.
       -2    1    3    3    0  502  0.22703860183E+03 -0.29693163677E+02 -0.51112346474E+03  0.56006732355E+03  0.25500000920E-02 0. -1.
</event>
<event>
 5   0  0.9650500E-05  0.9998351E+03  0.7818609E-02  0.9308726E-01
        3   -1    0    0  501    0  0.00000000000E+00  0.00000000000E+00  0.38039556075E+03  0.38039557415E+03  0.10100000352E+00 0.  1.
       -3   -1    0    0    0  501  0.00000000000E+00  0.00000000000E+00 -0.65699383375E+03  0.65699384152E+03  0.10100000352E+00 0. -1.
    10030    2    1    2    0    0  0.00000000000E+00  0.00000000000E+00 -0.27659827301E+03  0.10373894157E+04  0.99983508396E+03 0.  0.
        5    1    3    3  502    0  0.24853251552E+03 -0.25957118347E+03 -0.49884186201E+03  0.61482591345E+03  0.46999998093E+01 0. -1.
       -5    1    3    3    0  502 -0.24853251552E+03  0.25957118347E+03  0.22224358900E+03  0.42256350222E+03  0.46999998093E+01 0.  1.
</event>
<event>
 5   0  0.2353916E-04  0.1000524E+04  0.7818609E-02  0.9307971E-01
       -2   -1    0    0    0  501  0.00000000000E+00  0.00000000000E+00  0.22932425373E+03  0.22932425375E+03  0.25500000920E-02 0.  1.
        2   -1    0    0  501    0  0.00000000000E+00  0.00000000000E+00 -0.10913012490E+04  0.10913012490E+04  0.25500000920E-02 0. -1.
    10030    2    1    2    0    0  0.00000000000E+00  0.00000000000E+00 -0.86197699524E+03  0.13206255027E+04  0.10005235520E+04 0.  0.
        4    1    3    3  502    0 -0.16126663759E+03  0.47347786747E+03 -0.41978752953E+03  0.65300183938E+03  0.12699999809E+01 0.  1.
       -4    1    3    3    0  502  0.16126663759E+03 -0.47347786747E+03 -0.44218946571E+03  0.66762366335E+03  0.12699999809E+01 0. -1.
</event>
<event>
 5   0  0.1453863E-04  0.1000524E+04  0.7818609E-02  0.9307970E-01
       -1   -1    0    0    0  501  0.00000000000E+00  0.00000000000E+00  0.10130294873E+04  0.10130294873E+04  0.50400001928E-02 0.  1.
        1   -1    0    0  501    0  0.00000000000E+00  0.00000000000E+00 -0.24704313015E+03  0.24704313020E+03  0.50400001928E-02 0. -1.
    10030    2    1    2    0    0  0.00000000000E+00  0.00000000000E+00  0.76598635717E+03  0.12600726175E+04  0.10005238139E+04 0.  0.
        1    1    3    3  502    0 -0.13718839375E+03  0.15921051672E+03 -0.18874884439E+03  0.28247968122E+03  0.50400001928E-02 0. -1.
       -1    1    3    3    0  502  0.13718839375E+03 -0.15921051672E+03  0.95473520157E+03  0.97759293632E+03  0.50400001928E-02 0.  1.
</event>
<event>
 5   0  0.2503680E-04  0.1003419E+04  0.7818609E-02  0.9304803E-01
        2   -1    0    0  501    0  0.00000000000E+00  0.00000000000E+00  0.87940752888E+03  0.87940752888E+03  0.25500000920E-02 0. -1.
       -2   -1    0    0    0  501  0.00000000000E+00  0.00000000000E+00 -0.28622966008E+03  0.28622966009E+03  0.25500000920E-02 0.  1.
    10030    2    1    2    0    0  0.00000000000E+00  0.00000000000E+00  0.59317786880E+03  0.11656371890E+04  0.10034191907E+04 0.  0.
        2    1    3    3  502    0  0.42669930827E+02 -0.44094784291E+03  0.57015257528E+03  0.72203163523E+03  0.25500000920E-02 0. -1.
       -2    1    3    3    0  502 -0.42669930827E+02  0.44094784291E+03  0.23025293517E+02  0.44360555375E+03  0.25500000920E-02 0.  1.
</event>
<event>
 5   0  0.1430675E-04  0.1000112E+04  0.7818609E-02  0.9308422E-01
        1   -1    0    0  501    0  0.00000000000E+00  0.00000000000E+00  0.38352620612E+03  0.38352620615E+03  0.50400001928E-02 0. -1.
       -1   -1    0    0    0  501  0.00000000000E+00  0.00000000000E+00 -0.65199145742E+03  0.65199145744E+03  0.50400001928E-02 0.  1.
    10030    2    1    2    0    0  0.00000000000E+00  0.00000000000E+00 -0.26846525131E+03  0.10355176636E+04  0.10001116140E+04 0.  0.
        5    1    3    3  502    0  0.42474911292E+03 -0.83200027095E+02  0.12503103980E+03  0.45054289956E+03  0.46999998093E+01 0. -1.
       -5    1    3    3    0  502 -0.42474911292E+03  0.83200027095E+02 -0.39349629110E+03  0.58497476403E+03  0.46999998093E+01 0.  1.
</event>
<event>
 5   0  0.9650500E-05  0.1000010E+04  0.7818609E-02  0.9308533E-01
       -3   -1    0    0    0  501  0.00000000000E+00  0.00000000000E+00  0.52925825040E+03  0.52925826004E+03  0.10100000352E+00 0. -1.
        3   -1    0    0  501    0  0.00000000000E+00  0.00000000000E+00 -0.47236892157E+03  0.47236893237E+03  0.10100000352E+00 0.  1.
    10030    2    1    2    0    0  0.00000000000E+00  0.00000000000E+00  0.56889328832E+02  0.10016271924E+04  0.10000103184E+04 0.  0.
        4    1    3    3  502    0  0.46866310307E+03  0.15407404959E+03 -0.53047989672E+02  0.49618506532E+03  0.12699999809E+01 0.  1.
       -4    1    3    3    0  502 -0.46866310307E+03 -0.15407404959E+03  0.10993731850E+03  0.50544212709E+03  0.12699999809E+01 0. -1.
</event>
<event>
 5   0  0.1453863E-04  0.1000029E+04  0.7818609E-02  0.9308513E-01
        1   -1    0    0  501    0  0.00000000000E+00  0.00000000000E+00  0.28307024002E+03  0.28307024007E+03  0.50400001928E-02 0. -1.
       -1   -1    0    0    0  501  0.00000000000E+00  0.00000000000E+00 -0.88322386613E+03  0.88322386614E+03  0.50400001928E-02 0.  1.
    10030    2    1    2    0    0  0.00000000000E+00  0.00000000000E+00 -0.60015362610E+03  0.11662941062E+04  0.10000287832E+04 0.  0.
        1    1    3    3  502    0 -0.67479409759E+02  0.32224292664E+03  0.13881604682E+03  0.35730081079E+03  0.50400001928E-02 0.  1.
       -1    1    3    3    0  502  0.67479409759E+02 -0.32224292664E+03 -0.73896967292E+03  0.80899329542E+03  0.50400001928E-02 0. -1.
</event>
<event>
 5   0  0.2473312E-04  0.9996064E+03  0.7818609E-02  0.9308977E-01
       -2   -1    0    0    0  501  0.00000000000E+00  0.00000000000E+00  0.18007484920E+03  0.18007484922E+03  0.25500000920E-02 0. -1.
        2   -1    0    0  501    0  0.00000000000E+00  0.00000000000E+00 -0.13872188764E+04  0.13872188764E+04  0.25500000920E-02 0.  1.
    10030    2    1    2    0    0  0.00000000000E+00  0.00000000000E+00 -0.12071440272E+04  0.15672937256E+04  0.99960638252E+03 0.  0.
        5    1    3    3  502    0  0.96646952707E+02  0.38651710110E+03 -0.13047575545E+03  0.41926377815E+03  0.46999998093E+01 0. -1.
       -5    1    3    3    0  502 -0.96646952707E+02 -0.38651710110E+03 -0.10766682718E+04  0.11480299475E+04  0.46999998093E+01 0.  1.
</event>
<event>
 5   0  0.1430675E-04  0.1000025E+04  0.7818609E-02  0.9308517E-01
       -1   -1    0    0    0  501  0.00000000000E+00  0.00000000000E+00  0.38365993617E+03  0.38365993620E+03  0.50400001928E-02 0.  1.
        1   -1    0    0  501    0  0.00000000000E+00  0.00000000000E+00 -0.65165123696E+03  0.65165123698E+03  0.50400001928E-02 0. -1.
    10030    2    1    2    0    0  0.00000000000E+00  0.00000000000E+00 -0.26799130079E+03  0.10353111732E+04  0.10000249437E+04 0.  0.
        5    1    3    3  502    0  0.13745664421E+03  0.21269370967E+03  0.31232814579E+03  0.40212423928E+03  0.46999998093E+01 0.  1.
       -5    1    3    3    0  502 -0.13745664421E+03 -0.21269370967E+03 -0.58031944658E+03  0.63318693389E+03  0.46999998093E+01 0. -1.
</event>
<event>
 5   0  0.2484904E-04  0.1000688E+04  0.7818609E-02  0.9307790E-01
       -2   -1    0    0    0  501  0.00000000000E+00  0.00000000000E+00  0.15683553086E+03  0.15683553088E+03  0.25500000920E-02 0.  1.
        2   -1    0    0  501    0  0.00000000000E+00  0.00000000000E+00 -0.15962210863E+04  0.15962210863E+04  0.25500000920E-02 0. -1.
    10030    2    1    2    0    0  0.00000000000E+00  0.00000000000E+00 -0.14393855555E+04  0.17530566172E+04  0.10006881262E+04 0.  0.
        3    1    3    3  502    0  0.22253660072E+03  0.97910309508E+02  0.46399557797E+02  0.24751140687E+03  0.10100000352E+00 0.  1.
       -3    1    3    3    0  502 -0.22253660072E+03 -0.97910309508E+02 -0.14857851133E+04  0.15055452103E+04  0.10100000352E+00 0. -1.
</event>
<event>
 5   0  0.1453863E-04  0.9997751E+03  0.7818609E-02  0.9308791E-01
       -1   -1    0    0    0  501  0.00000000000E+00  0.00000000000E+00  0.28690943446E+03  0.28690943450E+03  0.50400001928E-02 0.  1.
        1   -1    0    0  501    0  0.00000000000E+00  0.00000000000E+00 -0.87096324306E+03  0.87096324307E+03  0.50400001928E-02 0. -1.
    10030    2    1    2    0    0  0.00000000000E+00  0.00000000000E+00 -0.58405380860E+03  0.11578726776E+04  0.99977511778E+03 0.  0.
        1    1    3    3  502    0 -0.94945474755E+02  0.31966216228E+03 -0.72332698353E+03  0.79649260279E+03  0.50400001928E-02 0. -1.
       -1    1    3    3    0  502  0.94945474755E+02 -0.31966216228E+03  0.13927317493E+03  0.36138007478E+03  0.50400001928E-02 0.  1.
</event>
<event>
 5   0  0.1506454E-04  0.9999680E+03  0.7818609E-02  0.9308580E-01
        1   -1    0    0  501    0  0.00000000000E+00  0.00000000000E+00  0.10883783266E+04  0.10883783266E+04  0.50400001928E-02 0. -1.
       -1   -1    0    0    0  501  0.00000000000E+00  0.00000000000E+00 -0.22968484263E+03  0.22968484268E+03  0.50400001928E-02 0.  1.
    10030    2    1    2    0    0  0.00000000000E+00  0.00000000000E+00  0.85869348398E+03  0.13180631693E+04  0.99996800891E+03 0.  0.
        3    1    3    3  502    0 -0.34365004637E+03 -0.40713694619E+02  0.90501849778E+03  0.96892283017E+03  0.10100000352E+00 0. -1.
       -3    1    3    3    0  502  0.34365004637E+03  0.40713694619E+02 -0.46325013806E+02  0.34914033913E+03  0.10100000352E+00 0.  1.
</event>
<event>
 5   0  0.2484904E-04  0.1000034E+04  0.7818609E-02  0.9308507E-01
        2   -1    0    0  501    0  0.00000000000E+00  0.00000000000E+00  0.23301828647E+03  0.23301828648E+03  0.25500000920E-02 0. -1.
       -2   -1    0    0    0  501  0.00000000000E+00  0.00000000000E+00 -0.10729511255E+04  0.10729511255E+04  0.25500000920E-02 0.  1.
    10030    2    1    2    0    0  0.00000000000E+00  0.00000000000E+00 -0.83993283899E+03  0.13059694119E+04  0.10000344649E+04 0.  0.
        3    1    3    3  502    0 -0.44847327053E+03 -0.49026961940E+02 -0.70152961185E+03  0.83407177382E+03  0.10100000352E+00 0.  1.
       -3    1    3    3    0  502  0.44847327053E+03  0.49026961940E+02 -0.13840322714E+03  0.47189763812E+03  0.10100000352E+00 0. -1.
</event>
<event>
 5   0  0.2473312E-04  0.1000549E+04  0.7818609E-02  0.9307943E-01
       -2   -1    0    0    0  501  0.00000000000E+00  0.00000000000E+00  0.13902035877E+03  0.13902035879E+03  0.25500000920E-02 0.  1.
        2   -1    0    0  501    0  0.00000000000E+00  0.00000000000E+00 -0.18002739868E+04  0.18002739868E+04  0.25500000920E-02 0. -1.
    10030    2    1    2    0    0  0.00000000000E+00  0.00000000000E+00 -0.16612536281E+04  0.19392943456E+04  0.10005493202E+04 0.  0.
        5    1    3    3  502    0  0.32410812359E+03  0.35377016819E+03 -0.55615517053E+03  0.73452710731E+03  0.46999998093E+01 0.  1.
       -5    1    3    3    0  502 -0.32410812359E+03 -0.35377016819E+03 -0.11050984575E+04  0.12047672383E+04  0.46999998093E+01 0. -1.
</event>
<event>
 5   0  0.2473312E-04  0.9999419E+03  0.7818609E-02  0.9308608E-01
       -2   -1    0    0    0  501  0.00000000000E+00  0.00000000000E+00  0.27209967232E+03  0.27209967233E+03  0.25500000920E-02 0.  1.
        2   -1    0    0  501    0  0.00000000000E+00  0.00000000000E+00 -0.91867427031E+03  0.91867427031E+03  0.25500000920E-02 0. -1.
    10030    2    1    2    0    0  0.00000000000E+00  0.00000000000E+00 -0.64657459799E+03  0.11907739426E+04  0.99994193416E+03 0.  0.
        5    1    3    3  502    0  0.22233159276E+03 -0.14403889741E+03  0.18162221830E+03  0.32122774052E+03  0.46999998093E+01 0. -1.
       -5    1    3    3    0  502 -0.22233159276E+03  0.14403889741E+03 -0.82819681629E+03  0.86954620212E+03  0.46999998093E+01 0.  1.
</event>
<event>
 5   0  0.1414165E-04  0.1000007E+04  0.7818609E-02  0.9308537E-01
       -1   -1    0    0    0  501  0.00000000000E+00  0.00000000000E+00  0.32921584578E+03  0.32921584582E+03  0.50400001928E-02 0.  1.
        1   -1    0    0  501    0  0.00000000000E+00  0.00000000000E+00 -0.75939120768E+03  0.75939120770E+03  0.50400001928E-02 0. -1.
    10030    2    1    2    0    0  0.00000000000E+00  0.00000000000E+00 -0.43017536190E+03  0.10886070535E+04  0.10000072375E+04 0.  0.
        4    1    3    3  502    0 -0.34697318898E+02 -0.12696708997E+01  0.32790018572E+03  0.32973574374E+03  0.12699999809E+01 0.  1.
       -4    1    3    3    0  502  0.34697318898E+02  0.12696708997E+01 -0.75807554762E+03  0.75887130978E+03  0.12699999809E+01 0. -1.
</event>
<event>
 5   0  0.1430675E-04  0.9992244E+03  0.7818609E-02  0.9309396E-01
       -1   -1    0    0    0  501  0.00000000000E+00  0.00000000000E+00  0.33663118929E+03  0.33663118933E+03  0.50400001928E-02 0. -1.
        1   -1    0    0  501    0  0.00000000000E+00  0.00000000000E+00 -0.74150100003E+03  0.74150100005E+03  0.50400001928E-02 0.  1.
    10030    2    1    2    0    0  0.00000000000E+00  0.00000000000E+00 -0.40486981075E+03  0.10781321894E+04  0.99922442630E+03 0.  0.
        5    1    3    3  502    0 -0.65261753791E+02 -0.14034815841E+03  0.31008510907E+03  0.34660001001E+03  0.46999998093E+01 0. -1.
       -5    1    3    3    0  502  0.65261753791E+02  0.14034815841E+03 -0.71495491982E+03  0.73153217936E+03  0.46999998093E+01 0.  1.
</event>
<event>
 5   0  0.1461334E-04  0.9998460E+03  0.7818609E-02  0.9308714E-01
        1   -1    0    0  501    0  0.00000000000E+00  0.00000000000E+00  0.17026675224E+04  0.17026675224E+04  0.50400001928E-02 0.  1.
       -1   -1    0    0    0  501  0.00000000000E+00  0.00000000000E+00 -0.14678321303E+03  0.14678321312E+03  0.50400001928E-02 0. -1.
    10030    2    1    2    0    0  0.00000000000E+00  0.00000000000E+00  0.15558843094E+04  0.18494507355E+04  0.99984600764E+03 0.  0.
        2    1    3    3  502    0  0.22176417273E+03 -0.42829950737E+02 -0.47025930745E+02  0.23070585419E+03  0.25500000920E-02 0. -1.
       -2    1    3    3    0  502 -0.22176417273E+03  0.42829950737E+02  0.16029102401E+04  0.16187448814E+04  0.25500000920E-02 0.  1.
</event>
<event>
 5   0  0.1453863E-04  0.9999856E+03  0.7818609E-02  0.9308561E-01
        1   -1    0    0  501    0  0.00000000000E+00  0.00000000000E+00  0.14791062377E+04  0.14791062378E+04  0.50400001928E-02 0. -1.
       -1   -1    0    0    0  501  0.00000000000E+00  0.00000000000E+00 -0.16901611359E+03  0.16901611367E+03  0.50400001928E-02 0.  1.
    10030    2    1    2    0    0  0.00000000000E+00  0.00000000000E+00  0.13100901242E+04  0.16481223514E+04  0.99998557582E+03 0.  0.
        1    1    3    3  502    0 -0.18699189675E+03 -0.32512787585E+02 -0.10733563222E+03  0.21804584100E+03  0.50400001928E-02 0.  1.
       -1    1    3    3    0  502  0.18699189675E+03  0.32512787585E+02  0.14174257564E+04  0.14300765104E+04  0.50400001928E-02 0. -1.
</event>
<event>
 5   0  0.9650500E-05  0.9982992E+03  0.7818609E-02  0.9310412E-01
        3   -1    0    0  501    0  0.00000000000E+00  0.00000000000E+00  0.62043355589E+03  0.62043356411E+03  0.10100000352E+00 0.  1.
       -3   -1    0    0    0  501  0.00000000000E+00  0.00000000000E+00 -0.40157448825E+03  0.40157450095E+03  0.10100000352E+00 0. -1.
    10030    2    1    2    0    0  0.00000000000E+00  0.00000000000E+00  0.21885906764E+03  0.10220080651E+04  0.99829915033E+03 0.  0.
        3    1    3    3  502    0 -0.31280395192E+03 -0.38475029898E+03  0.50876950483E+02  0.49846522365E+03  0.10100000352E+00 0.  1.
       -3    1    3    3    0  502  0.31280395192E+03  0.38475029898E+03  0.16798211716E+03  0.52354284140E+03  0.10100000352E+00 0. -1.
</event>
<event>
 5   0  0.1414165E-04  0.9939625E+03  0.7818609E-02  0.9315192E-01
        1   -1    0    0  501    0  0.00000000000E+00  0.00000000000E+00  0.10021252372E+04  0.10021252373E+04  0.50400001928E-02 0.  1.
       -1   -1    0    0    0  501  0.00000000000E+00  0.00000000000E+00 -0.24646656704E+03  0.24646656710E+03  0.50400001928E-02 0. -1.
    10030    2    1    2    0    0  0.00000000000E+00  0.00000000000E+00  0.75565867020E+03  0.12485918043E+04  0.99396250837E+03 0.  0.
        4    1    3    3  502    0  0.37408151970E+02 -0.13914433027E+03  0.97531003985E+03  0.98589644548E+03  0.12699999809E+01 0.  1.
       -4    1    3    3    0  502 -0.37408151970E+02  0.13914433027E+03 -0.21965136965E+03  0.26269535887E+03  0.12699999809E+01 0. -1.
</event>
<event>
 5   0  0.2484904E-04  0.9999465E+03  0.7818609E-02  0.9308604E-01
       -2   -1    0    0    0  501  0.00000000000E+00  0.00000000000E+00  0.37714727221E+03  0.37714727222E+03  0.25500000920E-02 0. -1.
        2   -1    0    0  501    0  0.00000000000E+00  0.00000000000E+00 -0.66280005885E+03  0.66280005885E+03  0.25500000920E-02 0.  1.
    10030    2    1    2    0    0  0.00000000000E+00  0.00000000000E+00 -0.28565278664E+03  0.10399473311E+04  0.99994646702E+03 0.  0.
        3    1    3    3  502    0  0.32627266574E+03  0.23796070832E+03 -0.44939640568E+03  0.60418233237E+03  0.10100000352E+00 0. -1.
       -3    1    3    3    0  502 -0.32627266574E+03 -0.23796070832E+03  0.16374361904E+03  0.43576499870E+03  0.10100000352E+00 0.  1.
</event>
<event>
 5   0  0.2473312E-04  0.1000338E+04  0.7818609E-02  0.9308174E-01
       -2   -1    0    0    0  501  0.00000000000E+00  0.00000000000E+00  0.49048591755E+03  0.49048591756E+03  0.25500000920E-02 0. -1.
        2   -1    0    0  501    0  0.00000000000E+00  0.00000000000E+00 -0.51004316186E+03  0.51004316186E+03  0.25500000920E-02 0.  1.
    10030    2    1    2    0    0  0.00000000000E+00  0.00000000000E+00 -0.19557244307E+02  0.10005290794E+04  0.10003379194E+04 0.  0.
        5    1    3    3  502    0  0.99899415155E+02  0.36628177845E+03  0.31586716971E+03  0.49389917319E+03  0.46999998093E+01 0. -1.
       -5    1    3    3    0  502 -0.99899415155E+02 -0.36628177845E+03 -0.33542441402E+03  0.50662990623E+03  0.46999998093E+01 0.  1.
</event>
<event>
 5   0  0.2473312E-04  0.9993171E+03  0.7818609E-02  0.9309294E-01
        2   -1    0    0  501    0  0.00000000000E+00  0.00000000000E+00  0.12102655335E+04  0.12102655335E+04  0.25500000920E-02 0.  1.
       -2   -1    0    0    0  501  0.00000000000E+00  0.00000000000E+00 -0.20628421788E+03  0.20628421790E+03  0.25500000920E-02 0. -1.
    10030    2    1    2    0    0  0.00000000000E+00  0.00000000000E+00  0.10039813156E+04  0.14165497514E+04  0.99931712488E+03 0.  0.
        5    1    3    3  502    0 -0.22241759370E+03  0.10795941146E+03  0.11174476872E+04  0.11444807749E+04  0.46999998093E+01 0.  1.
       -5    1    3    3    0  502  0.22241759370E+03 -0.10795941146E+03 -0.11346637156E+03  0.27206897652E+03  0.46999998093E+01 0. -1.
</event>
<event>
 5   0  0.1453863E-04  0.1000016E+04  0.7818609E-02  0.9308527E-01
       -1   -1    0    0    0  501  0.00000000000E+00  0.00000000000E+00  0.41212415396E+03  0.41212415399E+03  0.50400001928E-02 0.  1.
        1   -1    0    0  501    0  0.00000000000E+00  0.00000000000E+00 -0.60663261852E+03  0.60663261854E+03  0.50400001928E-02 0. -1.
    10030    2    1    2    0    0  0.00000000000E+00  0.00000000000E+00 -0.19450846457E+03  0.10187567725E+04  0.10000159093E+04 0.  0.
        1    1    3    3  502    0 -0.60547480167E+02 -0.35213626658E+03  0.25907495731E+03  0.44134542156E+03  0.50400001928E-02 0.  1.
       -1    1    3    3    0  502  0.60547480167E+02  0.35213626658E+03 -0.45358342188E+03  0.57741135097E+03  0.50400001928E-02 0. -1.
</event>
<event>
 5   0  0.2403037E-04  0.1000176E+04  0.7818609E-02  0.9308352E-01
       -2   -1    0    0    0  501  0.00000000000E+00  0.00000000000E+00  0.11661243394E+03  0.11661243396E+03  0.25500000920E-02 0.  1.
        2   -1    0    0  501    0  0.00000000000E+00  0.00000000000E+00 -0.21446076866E+04  0.21446076866E+04  0.25500000920E-02 0. -1.
    10030    2    1    2    0    0  0.00000000000E+00  0.00000000000E+00 -0.20279952527E+04  0.22612201206E+04  0.10001758290E+04 0.  0.
        1    1    3    3  502    0 -0.32962070562E+02 -0.34563328439E+03 -0.18277023772E+04  0.18603883587E+04  0.50400001928E-02 0. -1.
       -1    1    3    3    0  502  0.32962070562E+02  0.34563328439E+03 -0.20029287547E+03  0.40083176192E+03  0.50400001928E-02 0.  1.
</event>
<event>
 5   0  0.2403037E-04  0.9988985E+03  0.7818609E-02  0.9309754E-01
        2   -1    0    0  501    0  0.00000000000E+00  0.00000000000E+00  0.24199792689E+03  0.24199792690E+03  0.25500000920E-02 0. -1.
       -2   -1    0    0    0  501  0.00000000000E+00  0.00000000000E+00 -0.10307920397E+04  0.10307920397E+04  0.25500000920E-02 0.  1.
    10030    2    1    2    0    0  0.00000000000E+00  0.00000000000E+00 -0.78879411277E+03  0.12727899666E+04  0.99889846663E+03 0.  0.
        1    1    3    3  502    0 -0.28286732550E+03  0.32852805671E+03 -0.78394674233E+02  0.44055684406E+03  0.50400001928E-02 0. -1.
       -1    1    3    3    0  502  0.28286732550E+03 -0.32852805671E+03 -0.71039943853E+03  0.83223312249E+03  0.50400001928E-02 0.  1.
</event>
<event>
 5   0  0.1453863E-04  0.1000411E+04  0.7818609E-02  0.9308094E-01
        1   -1    0    0  501    0  0.00000000000E+00  0.00000000000E+00  0.29536515749E+03  0.29536515753E+03  0.50400001928E-02 0.  1.
       -1   -1    0    0    0  501  0.00000000000E+00  0.00000000000E+00 -0.84710588210E+03  0.84710588212E+03  0.50400001928E-02 0. -1.
    10030    2    1    2    0    0  0.00000000000E+00  0.00000000000E+00 -0.55174072461E+03  0.11424710396E+04  0.10004110401E+04 0.  0.
        1    1    3    3  502    0 -0.18391088253E+01 -0.49970813369E+03 -0.30125161740E+03  0.58349304898E+03  0.50400001928E-02 0.  1.
       -1    1    3    3    0  502  0.18391088253E+01  0.49970813369E+03 -0.25048910722E+03  0.55897799067E+03  0.50400001928E-02 0. -1.
</event>
<event>
 5   0  0.2353916E-04  0.1000157E+04  0.7818609E-02  0.9308372E-01
       -2   -1    0    0    0  501  0.00000000000E+00  0.00000000000E+00  0.29113350658E+03  0.29113350659E+03  0.25500000920E-02 0. -1.
        2   -1    0    0  501    0  0.00000000000E+00  0.00000000000E+00 -0.85898304308E+03  0.85898304309E+03  0.25500000920E-02 0.  1.
    10030    2    1    2    0    0  0.00000000000E+00  0.00000000000E+00 -0.56784953651E+03  0.11501165497E+04  0.10001574785E+04 0.  0.
        4    1    3    3  502    0  0.10017416431E+03 -0.12340864229E+03  0.26131028319E+03  0.30585819130E+03  0.12699999809E+01 0. -1.
       -4    1    3    3    0  502 -0.10017416431E+03  0.12340864229E+03 -0.82915981969E+03  0.84425835837E+03  0.12699999809E+01 0.  1.
</event>
<event>
 5   0  0.1461334E-04  0.9998955E+03  0.7818609E-02  0.9308659E-01
        1   -1    0    0  501    0  0.00000000000E+00  0.00000000000E+00  0.91774840678E+03  0.91774840679E+03  0.50400001928E-02 0. -1.
       -1   -1    0    0    0  501  0.00000000000E+00  0.00000000000E+00 -0.27234886730E+03  0.27234886735E+03  0.50400001928E-02 0.  1.
    10030    2    1    2    0    0  0.00000000000E+00  0.00000000000E+00  0.64539953948E+03  0.11900972741E+04  0.99989547272E+03 0.  0.
        2    1    3    3  502    0 -0.46884223596E+03  0.89831885508E+02  0.14590104516E+03  0.49916923469E+03  0.25500000920E-02 0.  1.
       -2    1    3    3    0  502  0.46884223596E+03 -0.89831885508E+02  0.49949849432E+03  0.69092803945E+03  0.25500000920E-02 0. -1.
</event>
<event>
 5   0  0.2503680E-04  0.9998592E+03  0.7818609E-02  0.9308699E-01
       -2   -1    0    0    0  501  0.00000000000E+00  0.00000000000E+00  0.24593279791E+03  0.24593279792E+03  0.25500000920E-02 0. -1.
        2   -1    0    0  501    0  0.00000000000E+00  0.00000000000E+00 -0.10162516192E+04  0.10162516192E+04  0.25500000920E-02 0.  1.
    10030    2    1    2    0    0  0.00000000000E+00  0.00000000000E+00 -0.77031882126E+03  0.12621844171E+04  0.99985919827E+03 0.  0.
        2    1    3    3  502    0 -0.16426814093E+03  0.37264798885E+03 -0.19119966284E+02  0.40769611089E+03  0.25500000920E-02 0. -1.
       -2    1    3    3    0  502  0.16426814093E+03 -0.37264798885E+03 -0.75119885497E+03  0.85448830620E+03  0.25500000920E-02 0.  1.
</event>
<event>
 5   0  0.1453863E-04  0.1000033E+04  0.7818609E-02  0.9308509E-01
       -1   -1    0    0    0  501  0.00000000000E+00  0.00000000000E+00  0.17057821174E+03  0.17057821182E+03  0.50400001928E-02 0.  1.
        1   -1    0    0  501    0  0.00000000000E+00  0.00000000000E+00 -0.14657001039E+04  0.14657001039E+04  0.50400001928E-02 0. -1.
    10030    2    1    2    0    0  0.00000000000E+00  0.00000000000E+00 -0.12951218921E+04  0.16362783157E+04  0.10000330049E+04 0.  0.
        1    1    3    3  502    0  0.46258047794E+03 -0.66822455902E+02 -0.93828703674E+03  0.10482502099E+04  0.50400001928E-02 0.  1.
       -1    1    3    3    0  502 -0.46258047794E+03  0.66822455902E+02 -0.35683485538E+03  0.58802810581E+03  0.50400001928E-02 0. -1.
</event>
<event>
 5   0  0.2503680E-04  0.9998561E+03  0.7818609E-02  0.9308703E-01
       -2   -1    0    0    0  501  0.00000000000E+00  0.00000000000E+00  0.20805239788E+03  0.20805239790E+03  0.25500000920E-02 0. -1.
        2   -1    0    0  501    0  0.00000000000E+00  0.00000000000E+00 -0.12012746076E+04  0.12012746076E+04  0.25500000920E-02 0.  1.
    10030    2    1    2    0    0  0.00000000000E+00  0.00000000000E+00 -0.99322220972E+03  0.14093270055E+04  0.99985611493E+03 0.  0.
        2    1    3    3  502    0 -0.70832698406E+02 -0.99512363928E+01  0.20080248992E+03  0.21316176541E+03  0.25500000920E-02 0. -1.
       -2    1    3    3    0  502  0.70832698406E+02  0.99512363928E+01 -0.11940246996E+04  0.11961652401E+04  0.25500000920E-02 0.  1.
</event>
<event>
 5   0  0.2473312E-04  0.1000570E+04  0.7818609E-02  0.9307920E-01
       -2   -1    0    0    0  501  0.00000000000E+00  0.00000000000E+00  0.20128713698E+03  0.20128713699E+03  0.25500000920E-02 0.  1.
        2   -1    0    0  501    0  0.00000000000E+00  0.00000000000E+00 -0.12434233724E+04  0.12434233724E+04  0.25500000920E-02 0. -1.
    10030    2    1    2    0    0  0.00000000000E+00  0.00000000000E+00 -0.10421362354E+04  0.14447105094E+04  0.10005700989E+04 0.  0.
        5    1    3    3  502    0 -0.14985380143E+03 -0.74281156142E+02  0.15968945672E+03  0.23129345980E+03  0.46999998093E+01 0.  1.
       -5    1    3    3    0  502  0.14985380143E+03  0.74281156142E+02 -0.12018256921E+04  0.12134170496E+04  0.46999998093E+01 0. -1.
</event>
<event>
 5   0  0.2473312E-04  0.1000196E+04  0.7818609E-02  0.9308329E-01
       -2   -1    0    0    0  501  0.00000000000E+00  0.00000000000E+00  0.53469829487E+03  0.53469829487E+03  0.25500000920E-02 0.  1.
        2   -1    0    0  501    0  0.00000000000E+00  0.00000000000E+00 -0.46773701597E+03  0.46773701598E+03  0.25500000920E-02 0. -1.
    10030    2    1    2    0    0  0.00000000000E+00  0.00000000000E+00  0.66961278890E+02  0.10024353109E+04  0.10001963505E+04 0.  0.
        5    1    3    3  502    0 -0.26775429075E+03 -0.39066147503E+03 -0.12740079893E+03  0.49047100001E+03  0.46999998093E+01 0.  1.
       -5    1    3    3    0  502  0.26775429075E+03  0.39066147503E+03  0.19436207782E+03  0.51196431084E+03  0.46999998093E+01 0. -1.
</event>
<event>
 5   0  0.2473312E-04  0.9995704E+03  0.7818609E-02  0.9309016E-01
        2   -1    0    0  501    0  0.00000000000E+00  0.00000000000E+00  0.12869022670E+04  0.12869022671E+04  0.25500000920E-02 0. -1.
       -2   -1    0    0    0  501  0.00000000000E+00  0.00000000000E+00 -0.19409808545E+03  0.19409808547E+03  0.25500000920E-02 0.  1.
    10030    2    1    2    0    0  0.00000000000E+00  0.00000000000E+00  0.10928041816E+04  0.14810003525E+04  0.99957044015E+03 0.  0.
        5    1    3    3  502    0  0.48218207881E+03 -0.37119393500E+02  0.73314576039E+03  0.87829505434E+03  0.46999998093E+01 0.  1.
       -5    1    3    3    0  502 -0.48218207881E+03  0.37119393500E+02  0.35965842121E+03  0.60270529818E+03  0.46999998093E+01 0. -1.
</event>
<event>
 5   0  0.1453863E-04  0.9998338E+03  0.7818609E-02  0.9308727E-01
        1   -1    0    0  501    0  0.00000000000E+00  0.00000000000E+00  0.49796642533E+03  0.49796642536E+03  0.50400001928E-02 0. -1.
       -1   -1    0    0    0  501  0.00000000000E+00  0.00000000000E+00 -0.50187503469E+03  0.50187503471E+03  0.50400001928E-02 0.  1.
    10030    2    1    2    0    0  0.00000000000E+00  0.00000000000E+00 -0.39086093519E+01  0.99984146007E+03  0.99983382022E+03 0.  0.
        1    1    3    3  502    0 -0.14437661806E+03 -0.89473733362E+02 -0.47213526834E+03  0.50175877515E+03  0.50400001928E-02 0.  1.
       -1    1    3    3    0  502  0.14437661806E+03  0.89473733362E+02  0.46822665899E+03  0.49808268492E+03  0.50400001928E-02 0. -1.
</event>
<event>
 5   0  0.1453863E-04  0.9991568E+03  0.7818609E-02  0.9309470E-01
        1   -1    0    0  501    0  0.00000000000E+00  0.00000000000E+00  0.28452017473E+03  0.28452017477E+03  0.50400001928E-02 0. -1.
       -1   -1    0    0    0  501  0.00000000000E+00  0.00000000000E+00 -0.87719113248E+03  0.87719113250E+03  0.50400001928E-02 0.  1.
    10030    2    1    2    0    0  0.00000000000E+00  0.00000000000E+00 -0.59267095776E+03  0.11617113073E+04  0.99915679313E+03 0.  0.
        1    1    3    3  502    0 -0.46439964519E+03 -0.80131024782E+02 -0.48911299749E+03  0.67920507649E+03  0.50400001928E-02 0.  1.
       -1    1    3    3    0  502  0.46439964519E+03  0.80131024782E+02 -0.10355796026E+03  0.48250623078E+03  0.50400001928E-02 0. -1.
</event>
<event>
 5   0  0.1506454E-04  0.1000165E+04  0.7818609E-02  0.9308364E-01
       -1   -1    0    0    0  501  0.00000000000E+00  0.00000000000E+00  0.12194208083E+04  0.12194208083E+04  0.50400001928E-02 0. -1.
        1   -1    0    0  501    0  0.00000000000E+00  0.00000000000E+00 -0.20508293584E+03  0.20508293590E+03  0.50400001928E-02 0.  1.
    10030    2    1    2    0    0  0.00000000000E+00  0.00000000000E+00  0.10143378725E+04  0.14245037442E+04  0.10001647853E+04 0.  0.
        3    1    3    3  502    0  0.48415341517E+03  0.10318515067E+03  0.60818852036E+03  0.78418428398E+03  0.10100000352E+00 0.  1.
       -3    1    3    3    0  502 -0.48415341517E+03 -0.10318515067E+03  0.40614935210E+03  0.64031946024E+03  0.10100000352E+00 0. -1.
</event>
<event>
 5   0  0.2403037E-04  0.1000020E+04  0.7818609E-02  0.9308523E-01
       -2   -1    0    0    0  501  0.00000000000E+00  0.00000000000E+00  0.29470543192E+03  0.29470543193E+03  0.25500000920E-02 0. -1.
        2   -1    0    0  501    0  0.00000000000E+00  0.00000000000E+00 -0.84833895827E+03  0.84833895827E+03  0.25500000920E-02 0.  1.
    10030    2    1    2    0    0  0.00000000000E+00  0.00000000000E+00 -0.55363352635E+03  0.11430443902E+04  0.10000201980E+04 0.  0.
        1    1    3    3  502    0 -0.42924540620E+03  0.21473620581E+03 -0.43703085191E+03  0.64912188561E+03  0.50400001928E-02 0.  1.
       -1    1    3    3    0  502  0.42924540620E+03 -0.21473620581E+03 -0.11660267444E+03  0.49392250459E+03  0.50400001928E-02 0. -1.
</event>
<event>
 5   0  0.1430675E-04  0.9997181E+03  0.7818609E-02  0.9308854E-01
        1   -1    0    0  501    0  0.00000000000E+00  0.00000000000E+00  0.23525317117E+04  0.23525317117E+04  0.50400001928E-02 0. -1.
       -1   -1    0    0    0  501  0.00000000000E+00  0.00000000000E+00 -0.10620858316E+03  0.10620858327E+03  0.50400001928E-02 0.  1.
    10030    2    1    2    0    0  0.00000000000E+00  0.00000000000E+00  0.22463231285E+04  0.24587402950E+04  0.99971808042E+03 0.  0.
        5    1    3    3  502    0  0.33984942093E+02 -0.29458656431E+02 -0.10116758618E+03  0.11081407501E+03  0.46999998093E+01 0.  1.
       -5    1    3    3    0  502 -0.33984942093E+02  0.29458656431E+02  0.23474907147E+04  0.23479262200E+04  0.46999998093E+01 0. -1.
</event>
<event>
 5   0  0.2403037E-04  0.9999369E+03  0.7818609E-02  0.9308614E-01
       -2   -1    0    0    0  501  0.00000000000E+00  0.00000000000E+00  0.25420918784E+03  0.25420918785E+03  0.25500000920E-02 0. -1.
        2   -1    0    0  501    0  0.00000000000E+00  0.00000000000E+00 -0.98331789342E+03  0.98331789342E+03  0.25500000920E-02 0.  1.
    10030    2    1    2    0    0  0.00000000000E+00  0.00000000000E+00 -0.72910870557E+03  0.12375270813E+04  0.99993688418E+03 0.  0.
        1    1    3    3  502    0 -0.24344607786E+03 -0.51301995186E+02 -0.90126786228E+03  0.93497681636E+03  0.50400001928E-02 0.  1.
       -1    1    3    3    0  502  0.24344607786E+03  0.51301995186E+02  0.17215915670E+03  0.30255026491E+03  0.50400001928E-02 0. -1.
</event>
<event>
 5   0  0.2484904E-04  0.1000051E+04  0.7818609E-02  0.9308489E-01
       -2   -1    0    0    0  501  0.00000000000E+00  0.00000000000E+00  0.66790384440E+03  0.66790384440E+03  0.25500000920E-02 0.  1.
        2   -1    0    0  501    0  0.00000000000E+00  0.00000000000E+00 -0.37434369170E+03  0.37434369171E+03  0.25500000920E-02 0. -1.
    10030    2    1    2    0    0  0.00000000000E+00  0.00000000000E+00  0.29356015269E+03  0.10422475361E+04  0.10000511803E+04 0.  0.
        3    1    3    3  502    0 -0.44256639295E+03 -0.17385936233E+03 -0.14452083517E+02  0.47571100782E+03  0.10100000352E+00 0.  1.
       -3    1    3    3    0  502  0.44256639295E+03  0.17385936233E+03  0.30801223621E+03  0.56653652830E+03  0.10100000352E+00 0. -1.
</event>
<event>
 5   0  0.2503680E-04  0.1000911E+04  0.7818609E-02  0.9307547E-01
        2   -1    0    0  501    0  0.00000000000E+00  0.00000000000E+00  0.74715426146E+03  0.74715426147E+03  0.25500000920E-02 0. -1.
       -2   -1    0    0    0  501  0.00000000000E+00  0.00000000000E+00 -0.33521263550E+03  0.33521263550E+03  0.25500000920E-02 0.  1.
    10030    2    1    2    0    0  0.00000000000E+00  0.00000000000E+00  0.41194162597E+03  0.10823668970E+04  0.10009106836E+04 0.  0.
        2    1    3    3  502    0 -0.15028690326E+03 -0.33146961021E+03  0.57743350279E+03  0.68255967207E+03  0.25500000920E-02 0. -1.
       -2    1    3    3    0  502  0.15028690326E+03  0.33146961021E+03 -0.16549187682E+03  0.39980722490E+03  0.25500000920E-02 0.  1.
</event>
<event>
 5   0  0.1461334E-04  0.9997910E+03  0.7818609E-02  0.9308774E-01
        1   -1    0    0  501    0  0.00000000000E+00  0.00000000000E+00  0.42407268600E+03  0.42407268603E+03  0.50400001928E-02 0. -1.
       -1   -1    0    0    0  501  0.00000000000E+00  0.00000000000E+00 -0.58927515782E+03  0.58927515784E+03  0.50400001928E-02 0.  1.
    10030    2    1    2    0    0  0.00000000000E+00  0.00000000000E+00 -0.16520247183E+03  0.10133478439E+04  0.99979097614E+03 0.  0.
        2    1    3    3  502    0  0.33563773153E+02  0.19443772923E+03 -0.54813632550E+03  0.58256844126E+03  0.25500000920E-02 0.  1.
       -2    1    3    3    0  502 -0.33563773153E+02 -0.19443772923E+03  0.38293385367E+03  0.43077940261E+03  0.25500000920E-02 0. -1.
</event>
<event>
 5   0  0.2473312E-04  0.9998460E+03  0.7818609E-02  0.9308714E-01
       -2   -1    0    0    0  501  0.00000000000E+00  0.00000000000E+00  0.28247543350E+03  0.28247543351E+03  0.25500000920E-02 0.  1.
        2   -1    0    0  501    0  0.00000000000E+00  0.00000000000E+00 -0.88476005859E+03  0.88476005859E+03  0.25500000920E-02 0. -1.
    10030    2    1    2    0    0  0.00000000000E+00  0.00000000000E+00 -0.60228462509E+03  0.11672354921E+04  0.99984595035E+03 0.  0.
        5    1    3    3  502    0 -0.18076069976E+03  0.19154441979E+03 -0.79717322106E+03  0.83956591743E+03  0.46999998093E+01 0. -1.
       -5    1    3    3    0  502  0.18076069976E+03 -0.19154441979E+03  0.19488859597E+03  0.32766957468E+03  0.46999998093E+01 0.  1.
</event>
<event>
 5   0  0.1430675E-04  0.9996375E+03  0.7818609E-02  0.9308942E-01
       -1   -1    0    0    0  501  0.00000000000E+00  0.00000000000E+00  0.12012073940E+04  0.12012073941E+04  0.50400001928E-02 0. -1.
        1   -1    0    0  501    0  0.00000000000E+00  0.00000000000E+00 -0.20797306150E+03  0.20797306157E+03  0.50400001928E-02 0.  1.
    10030    2    1    2    0    0  0.00000000000E+00  0.00000000000E+00  0.99323433254E+03  0.14091804556E+04  0.99963749288E+03 0.  0.
        5    1    3    3  502    0 -0.30143895336E+03 -0.38933950489E+03  0.61744011664E+03  0.78975001127E+03  0.46999998093E+01 0. -1.
       -5    1    3    3    0  502  0.30143895336E+03  0.38933950489E+03  0.37579421590E+03  0.61943044434E+03  0.46999998093E+01 0.  1.
</event>
<event>
 5   0  0.2473312E-04  0.9998790E+03  0.7818609E-02  0.9308678E-01
       -2   -1    0    0    0  501  0.00000000000E+00  0.00000000000E+00  0.28460517903E+03  0.28460517905E+03  0.25500000920E-02 0. -1.
        2   -1    0    0  501    0  0.00000000000E+00  0.00000000000E+00 -0.87819733050E+03  0.87819733051E+03  0.25500000920E-02 0.  1.
    10030    2    1    2    0    0  0.00000000000E+00  0.00000000000E+00 -0.59359215147E+03  0.11628025096E+04  0.99987900965E+03 0.  0.
        5    1    3    3  502    0  0.97934644125E+02 -0.44823086808E+03 -0.52767856606E+03  0.69926308690E+03  0.46999998093E+01 0.  1.
       -5    1    3    3    0  502 -0.97934644125E+02  0.44823086808E+03 -0.65913585408E+02  0.46353942266E+03  0.46999998093E+01 0. -1.
</event>
<event>
 5   0  0.2403037E-04  0.9995383E+03  0.7818609E-02  0.9309051E-01
        2   -1    0    0  501    0  0.00000000000E+00  0.00000000000E+00  0.55058928311E+03  0.55058928312E+03  0.25500000920E-02 0. -1.
       -2   -1    0    0    0  501  0.00000000000E+00  0.00000000000E+00 -0.45363974187E+03  0.45363974188E+03  0.25500000920E-02 0.  1.
    10030    2    1    2    0    0  0.00000000000E+00  0.00000000000E+00  0.96949541238E+02  0.10042290250E+04  0.99953825395E+03 0.  0.
        1    1    3    3  502    0  0.32274801703E+03 -0.33195177881E+03 -0.14058621591E+03  0.48386232554E+03  0.50400001928E-02 0.  1.
       -1    1    3    3    0  502 -0.32274801703E+03  0.33195177881E+03  0.23753575715E+03  0.52036669945E+03  0.50400001928E-02 0. -1.
</event>
<event>
 5   0  0.2353916E-04  0.9999924E+03  0.7818609E-02  0.9308553E-01
        2   -1    0    0  501    0  0.00000000000E+00  0.00000000000E+00  0.22831700680E+03  0.22831700681E+03  0.25500000920E-02 0.  1.
       -2   -1    0    0    0  501  0.00000000000E+00  0.00000000000E+00 -0.10949520807E+04  0.10949520807E+04  0.25500000920E-02 0. -1.
    10030    2    1    2    0    0  0.00000000000E+00  0.00000000000E+00 -0.86663507394E+03  0.13232690876E+04  0.99999236332E+03 0.  0.
        4    1    3    3  502    0 -0.31377626290E+03  0.12256692171E+03  0.55609279725E+02  0.34142671007E+03  0.12699999809E+01 0.  1.
       -4    1    3    3    0  502  0.31377626290E+03 -0.12256692171E+03 -0.92224435366E+03  0.98184237748E+03  0.12699999809E+01 0. -1.
</event>
<event>
 5   0  0.1461334E-04  0.9999438E+03  0.7818609E-02  0.9308606E-01
        1   -1    0    0  501    0  0.00000000000E+00  0.00000000000E+00  0.12620200314E+04  0.12620200314E+04  0.50400001928E-02 0. -1.
       -1   -1    0    0    0  501  0.00000000000E+00  0.00000000000E+00 -0.19807284083E+03  0.19807284089E+03  0.50400001928E-02 0.  1.
    10030    2    1    2    0    0  0.00000000000E+00  0.00000000000E+00  0.10639471905E+04  0.14600928723E+04  0.99994378413E+03 0.  0.
        2    1    3    3  502    0  0.39879393343E+03 -0.15706714380E+02  0.97169866065E+03  0.10504673195E+04  0.25500000920E-02 0. -1.
       -2    1    3    3    0  502 -0.39879393343E+03  0.15706714380E+02  0.92248529888E+02  0.40962555278E+03  0.25500000920E-02 0.  1.
</event>
<event>
 5   0  0.1461334E-04  0.9997972E+03  0.7818609E-02  0.9308767E-01
       -1   -1    0    0    0  501  0.00000000000E+00  0.00000000000E+00  0.33226348640E+03  0.33226348644E+03  0.50400001928E-02 0. -1.
        1   -1    0    0  501    0  0.00000000000E+00  0.00000000000E+00 -0.75210977349E+03  0.75210977350E+03  0.50400001928E-02 0.  1.
    10030    2    1    2    0    0  0.00000000000E+00  0.00000000000E+00 -0.41984628709E+03  0.10843732599E+04  0.99979721048E+03 0.  0.
        2    1    3    3  502    0  0.44036318773E+03  0.12265550594E+01 -0.46653288512E+03  0.64154046984E+03  0.25500000920E-02 0.  1.
       -2    1    3    3    0  502 -0.44036318773E+03 -0.12265550594E+01  0.46686598032E+02  0.44283279010E+03  0.25500000920E-02 0. -1.
</event>
<event>
 5   0  0.2473312E-04  0.1000080E+04  0.7818609E-02  0.9308457E-01
       -2   -1    0    0    0  501  0.00000000000E+00  0.00000000000E+00  0.61796914738E+03  0.61796914738E+03  0.25500000920E-02 0.  1.
        2   -1    0    0  501    0  0.00000000000E+00  0.00000000000E+00 -0.40461547890E+03  0.40461547891E+03  0.25500000920E-02 0. -1.
    10030    2    1    2    0    0  0.00000000000E+00  0.00000000000E+00  0.21335366848E+03  0.10225846263E+04  0.10000797619E+04 0.  0.
        5    1    3    3  502    0  0.10854747575E+03  0.41794498007E+03  0.36445558025E+03  0.56507567709E+03  0.46999998093E+01 0.  1.
       -5    1    3    3    0  502 -0.10854747575E+03 -0.41794498007E+03 -0.15110191178E+03  0.45750894920E+03  0.46999998093E+01 0. -1.
</event>
<event>
 5   0  0.2484904E-04  0.9993709E+03  0.7818609E-02  0.9309235E-01
       -2   -1    0    0    0  501  0.00000000000E+00  0.00000000000E+00  0.74633811162E+03  0.74633811163E+03  0.25500000920E-02 0. -1.
        2   -1    0    0  501    0  0.00000000000E+00  0.00000000000E+00 -0.33454750797E+03  0.33454750798E+03  0.25500000920E-02 0.  1.
    10030    2    1    2    0    0  0.00000000000E+00  0.00000000000E+00  0.41179060365E+03  0.10808856196E+04  0.99937091283E+03 0.  0.
        3    1    3    3  502    0 -0.20640223749E+03  0.16929913143E+03  0.66274841132E+03  0.71449250972E+03  0.10100000352E+00 0. -1.
       -3    1    3    3    0  502  0.20640223749E+03 -0.16929913143E+03 -0.25095780767E+03  0.36639310989E+03  0.10100000352E+00 0.  1.
</event>
<event>
 5   0  0.1461334E-04  0.9995670E+03  0.7818609E-02  0.9309020E-01
        1   -1    0    0  501    0  0.00000000000E+00  0.00000000000E+00  0.27227301440E+03  0.27227301444E+03  0.50400001928E-02 0. -1.
       -1   -1    0    0    0  501  0.00000000000E+00  0.00000000000E+00 -0.91740108142E+03  0.91740108143E+03  0.50400001928E-02 0.  1.
    10030    2    1    2    0    0  0.00000000000E+00  0.00000000000E+00 -0.64512806702E+03  0.11896740959E+04  0.99956702203E+03 0.  0.
        2    1    3    3  502    0 -0.23340421061E+03  0.37304683172E+03 -0.60457135800E+03  0.74776198828E+03  0.25500000920E-02 0.  1.
       -2    1    3    3    0  502  0.23340421061E+03 -0.37304683172E+03 -0.40556709022E+02  0.44191210760E+03  0.25500000920E-02 0. -1.
</event>
<event>
 5   0  0.2353916E-04  0.1001582E+04  0.7818609E-02  0.9306811E-01
       -2   -1    0    0    0  501  0.00000000000E+00  0.00000000000E+00  0.19526678350E+03  0.19526678352E+03  0.25500000920E-02 0. -1.
        2   -1    0    0  501    0  0.00000000000E+00  0.00000000000E+00 -0.12843543623E+04  0.12843543623E+04  0.25500000920E-02 0.  1.
    10030    2    1    2    0    0  0.00000000000E+00  0.00000000000E+00 -0.10890875788E+04  0.14796211458E+04  0.10015822387E+04 0.  0.
        4    1    3    3  502    0  0.47200606203E+03  0.10435138124E+03 -0.35130062730E+03  0.59757231947E+03  0.12699999809E+01 0.  1.
       -4    1    3    3    0  502 -0.47200606203E+03 -0.10435138124E+03 -0.73778695146E+03  0.88204882632E+03  0.12699999809E+01 0. -1.
</event>
<event>
 5   0  0.1461334E-04  0.1000163E+04  0.7818609E-02  0.9308366E-01
        1   -1    0    0  501    0  0.00000000000E+00  0.00000000000E+00  0.41469517129E+03  0.41469517132E+03  0.50400001928E-02 0. -1.
       -1   -1    0    0    0  501  0.00000000000E+00  0.00000000000E+00 -0.60304856350E+03  0.60304856353E+03  0.50400001928E-02 0.  1.
    10030    2    1    2    0    0  0.00000000000E+00  0.00000000000E+00 -0.18835339221E+03  0.10177437348E+04  0.10001626415E+04 0.  0.
        2    1    3    3  502    0  0.20227052887E+03 -0.45731549148E+03 -0.88556773982E+02  0.50783179087E+03  0.25500000920E-02 0.  1.
       -2    1    3    3    0  502 -0.20227052887E+03  0.45731549148E+03 -0.99796618231E+02  0.50991194398E+03  0.25500000920E-02 0. -1.
</event>
<event>
 5   0  0.9650500E-05  0.9992307E+03  0.7818609E-02  0.9309389E-01
       -3   -1    0    0    0  501  0.00000000000E+00  0.00000000000E+00  0.50519558149E+03  0.50519559159E+03  0.10100000352E+00 0. -1.
        3   -1    0    0  501    0  0.00000000000E+00  0.00000000000E+00 -0.49409671614E+03  0.49409672646E+03  0.10100000352E+00 0.  1.
    10030    2    1    2    0    0  0.00000000000E+00  0.00000000000E+00  0.11098865354E+02  0.99929231805E+03  0.99923068013E+03 0.  0.
        5    1    3    3  502    0  0.18487398335E+03 -0.21954326348E+03  0.41449489841E+03  0.50418820401E+03  0.46999998093E+01 0. -1.
       -5    1    3    3    0  502 -0.18487398335E+03  0.21954326348E+03 -0.40339603306E+03  0.49510411404E+03  0.46999998093E+01 0.  1.
</event>
<event>
 5   0  0.1506454E-04  0.1000444E+04  0.7818609E-02  0.9308058E-01
        1   -1    0    0  501    0  0.00000000000E+00  0.00000000000E+00  0.10856235620E+04  0.10856235621E+04  0.50400001928E-02 0.  1.
       -1   -1    0    0    0  501  0.00000000000E+00  0.00000000000E+00 -0.23048707365E+03  0.23048707370E+03  0.50400001928E-02 0. -1.
    10030    2    1    2    0    0  0.00000000000E+00  0.00000000000E+00  0.85513648839E+03  0.13161106358E+04  0.10004442972E+04 0.  0.
        3    1    3    3  502    0 -0.35741642497E+03 -0.22349986027E+03  0.73294586331E+02  0.42786773069E+03  0.10100000352E+00 0. -1.
       -3    1    3    3    0  502  0.35741642497E+03  0.22349986027E+03  0.78184190206E+03  0.88824290506E+03  0.10100000352E+00 0.  1.
</event>
<event>
 5   0  0.2403037E-04  0.1000091E+04  0.7818609E-02  0.9308445E-01
        2   -1    0    0  501    0  0.00000000000E+00  0.00000000000E+00  0.45477695849E+03  0.45477695849E+03  0.25500000920E-02 0. -1.
       -2   -1    0    0    0  501  0.00000000000E+00  0.00000000000E+00 -0.54982001090E+03  0.54982001091E+03  0.25500000920E-02 0.  1.
    10030    2    1    2    0    0  0.00000000000E+00  0.00000000000E+00 -0.95043052418E+02  0.10045969694E+04  0.10000909404E+04 0.  0.
        1    1    3    3  502    0 -0.25283755499E+03 -0.36019516240E+03  0.19098899542E+03  0.47973344748E+03  0.50400001928E-02 0. -1.
       -1    1    3    3    0  502  0.25283755499E+03  0.36019516240E+03 -0.28603204784E+03  0.52486352193E+03  0.50400001928E-02 0.  1.
</event>
<event>
 5   0  0.1461334E-04  0.9974321E+03  0.7818609E-02  0.9311366E-01
       -1   -1    0    0    0  501  0.00000000000E+00  0.00000000000E+00  0.43250263410E+03  0.43250263413E+03  0.50400001928E-02 0. -1.
        1   -1    0    0  501    0  0.00000000000E+00  0.00000000000E+00 -0.57506634568E+03  0.57506634570E+03  0.50400001928E-02 0.  1.
    10030    2    1    2    0    0  0.00000000000E+00  0.00000000000E+00 -0.14256371158E+03  0.10075689798E+04  0.99743212163E+03 0.  0.
        2    1    3    3  502    0  0.45583835060E+02 -0.21095098952E+03  0.38288667125E+03  0.43952293345E+03  0.25500000920E-02 0. -1.
       -2    1    3    3    0  502 -0.45583835060E+02  0.21095098952E+03 -0.52545038283E+03  0.56804604639E+03  0.25500000920E-02 0.  1.
</event>
<event>
 5   0  0.2403037E-04  0.9999257E+03  0.7818609E-02  0.9308626E-01
       -2   -1    0    0    0  501  0.00000000000E+00  0.00000000000E+00  0.16386640908E+03  0.16386640910E+03  0.25500000920E-02 0.  1.
        2   -1    0    0  501    0  0.00000000000E+00  0.00000000000E+00 -0.15254062875E+04  0.15254062875E+04  0.25500000920E-02 0. -1.
    10030    2    1    2    0    0  0.00000000000E+00  0.00000000000E+00 -0.13615398785E+04  0.16892726966E+04  0.99992569874E+03 0.  0.
        1    1    3    3  502    0  0.14070266916E+03 -0.34346653713E+03 -0.11489378680E+03  0.38854483075E+03  0.50400001928E-02 0.  1.
       -1    1    3    3    0  502 -0.14070266916E+03  0.34346653713E+03 -0.12466460917E+04  0.13007278659E+04  0.50400001928E-02 0. -1.
</event>
<event>
 5   0  0.2484904E-04  0.9999684E+03  0.7818609E-02  0.9308579E-01
        2   -1    0    0  501    0  0.00000000000E+00  0.00000000000E+00  0.21688801194E+04  0.21688801194E+04  0.25500000920E-02 0. -1.
       -2   -1    0    0    0  501  0.00000000000E+00  0.00000000000E+00 -0.11525958034E+03  0.11525958037E+03  0.25500000920E-02 0.  1.
    10030    2    1    2    0    0  0.00000000000E+00  0.00000000000E+00  0.20536205391E+04  0.22841396998E+04  0.99996842430E+03 0.  0.
        3    1    3    3  502    0  0.24773440971E+03  0.12620016802E+03  0.77596207483E+02  0.28865204274E+03  0.10100000352E+00 0.  1.
       -3    1    3    3    0  502 -0.24773440971E+03 -0.12620016802E+03  0.19760243316E+04  0.19954876570E+04  0.10100000352E+00 0. -1.
</event>
<event>
 5   0  0.1453863E-04  0.1000161E+04  0.7818609E-02  0.9308368E-01
       -1   -1    0    0    0  501  0.00000000000E+00  0.00000000000E+00  0.20192462646E+03  0.20192462652E+03  0.50400001928E-02 0. -1.
        1   -1    0    0  501    0  0.00000000000E+00  0.00000000000E+00 -0.12384844615E+04  0.12384844615E+04  0.50400001928E-02 0.  1.
    10030    2    1    2    0    0  0.00000000000E+00  0.00000000000E+00 -0.10365598351E+04  0.14404090881E+04  0.10001610117E+04 0.  0.
        1    1    3    3  502    0  0.29275876531E+03  0.21513714448E+03 -0.23376633403E+02  0.36405789734E+03  0.50400001928E-02 0. -1.
       -1    1    3    3    0  502 -0.29275876531E+03 -0.21513714448E+03 -0.10131832017E+04  0.10763511907E+04  0.50400001928E-02 0.  1.
</event>
<event>
 5   0  0.1453863E-04  0.1000604E+04  0.7818609E-02  0.9307883E-01
       -1   -1    0    0    0  501  0.00000000000E+00  0.00000000000E+00  0.34526479871E+03  0.34526479875E+03  0.50400001928E-02 0. -1.
        1   -1    0    0  501    0  0.00000000000E+00  0.00000000000E+00 -0.72495643495E+03  0.72495643497E+03  0.50400001928E-02 0.  1.
    10030    2    1    2    0    0  0.00000000000E+00  0.00000000000E+00 -0.37969163623E+03  0.10702212337E+04  0.10006036930E+04 0.  0.
        1    1    3    3  502    0  0.19233441590E+03  0.27639488972E+02 -0.68294852569E+03  0.71005292595E+03  0.50400001928E-02 0.  1.
       -1    1    3    3    0  502 -0.19233441590E+03 -0.27639488972E+02  0.30325688945E+03  0.36016830776E+03  0.50400001928E-02 0. -1.
</event>
<event>
 5   0  0.2403037E-04  0.1000610E+04  0.7818609E-02  0.9307876E-01
       -2   -1    0    0    0  501  0.00000000000E+00  0.00000000000E+00  0.40800722476E+03  0.40800722477E+03  0.25500000920E-02 0.  1.
        2   -1    0    0  501    0  0.00000000000E+00  0.00000000000E+00 -0.61348248910E+03  0.61348248911E+03  0.25500000920E-02 0. -1.
    10030    2    1    2    0    0  0.00000000000E+00  0.00000000000E+00 -0.20547526434E+03  0.10214897139E+04  0.10006103894E+04 0.  0.
        1    1    3    3  502    0  0.19200032316E+03  0.12133694314E+03 -0.55781805288E+03  0.60228544562E+03  0.50400001928E-02 0. -1.
       -1    1    3    3    0  502 -0.19200032316E+03 -0.12133694314E+03  0.35234278854E+03  0.41920426826E+03  0.50400001928E-02 0.  1.
</event>
<event>
 5   0  0.1461334E-04  0.9999205E+03  0.7818609E-02  0.9308632E-01
        1   -1    0    0  501    0  0.00000000000E+00  0.00000000000E+00  0.95730238238E+03  0.95730238239E+03  0.50400001928E-02 0. -1.
       -1   -1    0    0    0  501  0.00000000000E+00  0.00000000000E+00 -0.26110897353E+03  0.26110897358E+03  0.50400001928E-02 0.  1.
    10030    2    1    2    0    0  0.00000000000E+00  0.00000000000E+00  0.69619340884E+03  0.12184113560E+04  0.99992048176E+03 0.  0.
        2    1    3    3  502    0 -0.35283021989E+03  0.35329419894E+03  0.37926497807E+03  0.62701505457E+03  0.25500000920E-02 0.  1.
       -2    1    3    3    0  502  0.35283021989E+03 -0.35329419894E+03  0.31692843077E+03  0.59139630140E+03  0.25500000920E-02 0. -1.
</event>
<event>
 5   0  0.1453863E-04  0.9997103E+03  0.7818609E-02  0.9308863E-01
       -1   -1    0    0    0  501  0.00000000000E+00  0.00000000000E+00  0.49250923222E+03  0.49250923225E+03  0.50400001928E-02 0.  1.
        1   -1    0    0  501    0  0.00000000000E+00  0.00000000000E+00 -0.50731065299E+03  0.50731065301E+03  0.50400001928E-02 0. -1.
    10030    2    1    2    0    0  0.00000000000E+00  0.00000000000E+00 -0.14801420761E+02  0.99981988526E+03  0.99971031849E+03 0.  0.
        1    1    3    3  502    0 -0.18287851847E+03 -0.26469794523E+03 -0.38999410520E+03  0.50557388861E+03  0.50400001928E-02 0. -1.
       -1    1    3    3    0  502  0.18287851847E+03  0.26469794523E+03  0.37519268444E+03  0.49424599665E+03  0.50400001928E-02 0.  1.
</event>
<event>
 5   0  0.2484904E-04  0.1000121E+04  0.7818609E-02  0.9308412E-01
       -2   -1    0    0    0  501  0.00000000000E+00  0.00000000000E+00  0.81363082575E+03  0.81363082575E+03  0.25500000920E-02 0. -1.
        2   -1    0    0  501    0  0.00000000000E+00  0.00000000000E+00 -0.30733880183E+03  0.30733880184E+03  0.25500000920E-02 0.  1.
    10030    2    1    2    0    0  0.00000000000E+00  0.00000000000E+00  0.50629202392E+03  0.11209696276E+04  0.10001206390E+04 0.  0.
        3    1    3    3  502    0  0.12237901830E+03  0.47964391445E+03  0.33260205850E+03  0.59637156900E+03  0.10100000352E+00 0.  1.
       -3    1    3    3    0  502 -0.12237901830E+03 -0.47964391445E+03  0.17368996541E+03  0.52459805859E+03  0.10100000352E+00 0. -1.
</event>
<event>
 5   0  0.1414165E-04  0.1001855E+04  0.7818609E-02  0.9306513E-01
       -1   -1    0    0    0  501  0.00000000000E+00  0.00000000000E+00  0.35158068130E+03  0.35158068133E+03  0.50400001928E-02 0. -1.
        1   -1    0    0  501    0  0.00000000000E+00  0.00000000000E+00 -0.71371423370E+03  0.71371423372E+03  0.50400001928E-02 0.  1.
    10030    2    1    2    0    0  0.00000000000E+00  0.00000000000E+00 -0.36213355240E+03  0.10652949151E+04  0.10018545534E+04 0.  0.
        4    1    3    3  502    0  0.18481176921E+03  0.12055705857E+03 -0.65925141811E+03  0.69520028739E+03  0.12699999809E+01 0.  1.
       -4    1    3    3    0  502 -0.18481176921E+03 -0.12055705857E+03  0.29711786570E+03  0.37009462767E+03  0.12699999809E+01 0. -1.
</event>
<event>
 5   0  0.1414165E-04  0.1000341E+04  0.7818609E-02  0.9308171E-01
       -1   -1    0    0    0  501  0.00000000000E+00  0.00000000000E+00  0.23837078962E+03  0.23837078967E+03  0.50400001928E-02 0. -1.
        1   -1    0    0  501    0  0.00000000000E+00  0.00000000000E+00 -0.10495017987E+04  0.10495017987E+04  0.50400001928E-02 0.  1.
    10030    2    1    2    0    0  0.00000000000E+00  0.00000000000E+00 -0.81113100908E+03  0.12878725884E+04  0.10003410868E+04 0.  0.
        4    1    3    3  502    0 -0.21553472441E+03  0.31969346933E+03 -0.81574962019E+03  0.90227943980E+03  0.12699999809E+01 0.  1.
       -4    1    3    3    0  502  0.21553472441E+03 -0.31969346933E+03  0.46186111042E+01  0.38559314858E+03  0.12699999809E+01 0. -1.
</event>
<event>
 5   0  0.1414165E-04  0.1000419E+04  0.7818609E-02  0.9308085E-01
        1   -1    0    0  501    0  0.00000000000E+00  0.00000000000E+00  0.77901272715E+03  0.77901272717E+03  0.50400001928E-02 0. -1.
       -1   -1    0    0    0  501  0.00000000000E+00  0.00000000000E+00 -0.32118824317E+03  0.32118824321E+03  0.50400001928E-02 0.  1.
    10030    2    1    2    0    0  0.00000000000E+00  0.00000000000E+00  0.45782448398E+03  0.11002009704E+04  0.10004193706E+04 0.  0.
        4    1    3    3  502    0 -0.52413377226E+02 -0.37197012061E+03  0.59215810926E+03  0.70125727946E+03  0.12699999809E+01 0. -1.
       -4    1    3    3    0  502  0.52413377226E+02  0.37197012061E+03 -0.13433362528E+03  0.39894369091E+03  0.12699999809E+01 0.  1.
</event>
<event>
 5   0  0.2503680E-04  0.1000063E+04  0.7818609E-02  0.9308475E-01
       -2   -1    0    0    0  501  0.00000000000E+00  0.00000000000E+00  0.92448485652E+02  0.92448485687E+02  0.25500000920E-02 0. -1.
        2   -1    0    0  501    0  0.00000000000E+00  0.00000000000E+00 -0.27045512168E+04  0.27045512168E+04  0.25500000920E-02 0.  1.
    10030    2    1    2    0    0  0.00000000000E+00  0.00000000000E+00 -0.26121027312E+04  0.27969997025E+04  0.10000633268E+04 0.  0.
        2    1    3    3  502    0  0.11916778172E+03  0.42271825897E+03 -0.63749973561E+03  0.77414313895E+03  0.25500000920E-02 0. -1.
       -2    1    3    3    0  502 -0.11916778172E+03 -0.42271825897E+03 -0.19746029956E+04  0.20228565636E+04  0.25500000920E-02 0.  1.
</event>
<event>
 5   0  0.2353916E-04  0.1000054E+04  0.7818609E-02  0.9308486E-01
        2   -1    0    0  501    0  0.00000000000E+00  0.00000000000E+00  0.14748666090E+04  0.14748666090E+04  0.25500000920E-02 0.  1.
       -2   -1    0    0    0  501  0.00000000000E+00  0.00000000000E+00 -0.16952513292E+03  0.16952513294E+03  0.25500000920E-02 0. -1.
    10030    2    1    2    0    0  0.00000000000E+00  0.00000000000E+00  0.13053414760E+04  0.16443917419E+04  0.10000539144E+04 0.  0.
        4    1    3    3  502    0  0.54224770712E+02 -0.46779250053E+03  0.92906627944E+03  0.10416025700E+04  0.12699999809E+01 0.  1.
       -4    1    3    3    0  502 -0.54224770712E+02  0.46779250053E+03  0.37627519660E+03  0.60278917192E+03  0.12699999809E+01 0. -1.
</event>
<event>
 5   0  0.2484904E-04  0.9998957E+03  0.7818609E-02  0.9308659E-01
       -2   -1    0    0    0  501  0.00000000000E+00  0.00000000000E+00  0.21241897181E+03  0.21241897183E+03  0.25500000920E-02 0.  1.
        2   -1    0    0  501    0  0.00000000000E+00  0.00000000000E+00 -0.11766738523E+04  0.11766738523E+04  0.25500000920E-02 0. -1.
    10030    2    1    2    0    0  0.00000000000E+00  0.00000000000E+00 -0.96425488052E+03  0.13890928242E+04  0.99989569433E+03 0.  0.
        3    1    3    3  502    0 -0.90859824912E+02 -0.13422849859E+03 -0.11391576422E+04  0.11506315404E+04  0.10100000352E+00 0. -1.
       -3    1    3    3    0  502  0.90859824912E+02  0.13422849859E+03  0.17490276172E+03  0.23846128380E+03  0.10100000352E+00 0.  1.
</event>
<event>
 5   0  0.1506454E-04  0.1000206E+04  0.7818609E-02  0.9308319E-01
       -1   -1    0    0    0  501  0.00000000000E+00  0.00000000000E+00  0.40968860458E+03  0.40968860461E+03  0.50400001928E-02 0. -1.
        1   -1    0    0  501    0  0.00000000000E+00  0.00000000000E+00 -0.61047046054E+03  0.61047046056E+03  0.50400001928E-02 0.  1.
    10030    2    1    2    0    0  0.00000000000E+00  0.00000000000E+00 -0.20078185597E+03  0.10201590652E+04  0.10002055612E+04 0.  0.
        3    1    3    3  502    0  0.31071986190E+03 -0.96364886018E+02 -0.48779687076E+03  0.58632654823E+03  0.10100000352E+00 0.  1.
       -3    1    3    3    0  502 -0.31071986190E+03  0.96364886018E+02  0.28701501480E+03  0.43383251694E+03  0.10100000352E+00 0. -1.
</event>
<event>
 5   0  0.2484904E-04  0.1000173E+04  0.7818609E-02  0.9308355E-01
       -2   -1    0    0    0  501  0.00000000000E+00  0.00000000000E+00  0.39439714134E+03  0.39439714135E+03  0.25500000920E-02 0.  1.
        2   -1    0    0  501    0  0.00000000000E+00  0.00000000000E+00 -0.63409848007E+03  0.63409848008E+03  0.25500000920E-02 0. -1.
    10030    2    1    2    0    0  0.00000000000E+00  0.00000000000E+00 -0.23970133873E+03  0.10284956214E+04  0.10001732407E+04 0.  0.
        3    1    3    3  502    0 -0.40310424097E+03  0.28352702443E+03 -0.20714274034E+03  0.53459211344E+03  0.10100000352E+00 0.  1.
       -3    1    3    3    0  502  0.40310424097E+03 -0.28352702443E+03 -0.32558598387E+02  0.49390350799E+03  0.10100000352E+00 0. -1.
</event>
<event>
 5   0  0.9650500E-05  0.1000033E+04  0.7818609E-02  0.9308509E-01
        3   -1    0    0  501    0  0.00000000000E+00  0.00000000000E+00  0.34588136756E+03  0.34588138230E+03  0.10100000352E+00 0. -1.
       -3   -1    0    0    0  501  0.00000000000E+00  0.00000000000E+00 -0.72283851303E+03  0.72283852009E+03  0.10100000352E+00 0.  1.
    10030    2    1    2    0    0  0.00000000000E+00  0.00000000000E+00 -0.37695714547E+03  0.10687199024E+04  0.10000327696E+04 0.  0.
        3    1    3    3  502    0  0.30129600406E+03  0.19733159132E+03  0.18218309076E+03  0.40362077220E+03  0.10100000352E+00 0. -1.
       -3    1    3    3    0  502 -0.30129600406E+03 -0.19733159132E+03 -0.55914023624E+03  0.66509913019E+03  0.10100000352E+00 0.  1.
</event>
<event>
 5   0  0.2503680E-04  0.9998086E+03  0.7818609E-02  0.9308755E-01
       -2   -1    0    0    0  501  0.00000000000E+00  0.00000000000E+00  0.34711654664E+03  0.34711654665E+03  0.25500000920E-02 0.  1.
        2   -1    0    0  501    0  0.00000000000E+00  0.00000000000E+00 -0.71994354076E+03  0.71994354077E+03  0.25500000920E-02 0. -1.
    10030    2    1    2    0    0  0.00000000000E+00  0.00000000000E+00 -0.37282699413E+03  0.10670600874E+04  0.99980861299E+03 0.  0.
        2    1    3    3  502    0  0.38363795048E+03 -0.63405950321E+02  0.14889426831E+03  0.41637470471E+03  0.25500000920E-02 0.  1.
       -2    1    3    3    0  502 -0.38363795048E+03  0.63405950321E+02 -0.52172126243E+03  0.65068538270E+03  0.25500000920E-02 0. -1.
</event>
<event>
 5   0  0.1506454E-04  0.9996990E+03  0.7818609E-02  0.9308875E-01
        1   -1    0    0  501    0  0.00000000000E+00  0.00000000000E+00  0.19709276971E+04  0.19709276971E+04  0.50400001928E-02 0. -1.
       -1   -1    0    0    0  501  0.00000000000E+00  0.00000000000E+00 -0.12676747614E+03  0.12676747624E+03  0.50400001928E-02 0.  1.
    10030    2    1    2    0    0  0.00000000000E+00  0.00000000000E+00  0.18441602210E+04  0.20976951734E+04  0.99969901455E+03 0.  0.
        3    1    3    3  502    0 -0.73271621934E+02 -0.21582866087E+03  0.18555378728E+04  0.18694843003E+04  0.10100000352E+00 0. -1.
       -3    1    3    3    0  502  0.73271621934E+02  0.21582866087E+03 -0.11377651808E+02  0.22821087308E+03  0.10100000352E+00 0.  1.
</event>
<event>
 5   0  0.2473312E-04  0.1000367E+04  0.7818609E-02  0.9308142E-01
       -2   -1    0    0    0  501  0.00000000000E+00  0.00000000000E+00  0.13803700384E+03  0.13803700386E+03  0.25500000920E-02 0.  1.
        2   -1    0    0  501    0  0.00000000000E+00  0.00000000000E+00 -0.18124387036E+04  0.18124387036E+04  0.25500000920E-02 0. -1.
    10030    2    1    2    0    0  0.00000000000E+00  0.00000000000E+00 -0.16744016997E+04  0.19504757074E+04  0.10003671492E+04 0.  0.
        5    1    3    3  502    0 -0.29649842507E+03  0.35951765234E+03 -0.11913776115E+04  0.12792837690E+04  0.46999998093E+01 0. -1.
       -5    1    3    3    0  502  0.29649842507E+03 -0.35951765234E+03 -0.48302408822E+03  0.67119193843E+03  0.46999998093E+01 0.  1.
</event>
<event>
 5   0  0.1430675E-04  0.1000713E+04  0.7818609E-02  0.9307763E-01
       -1   -1    0    0    0  501  0.00000000000E+00  0.00000000000E+00  0.42715529674E+03  0.42715529676E+03  0.50400001928E-02 0. -1.
        1   -1    0    0  501    0  0.00000000000E+00  0.00000000000E+00 -0.58610231039E+03  0.58610231041E+03  0.50400001928E-02 0.  1.
    10030    2    1    2    0    0  0.00000000000E+00  0.00000000000E+00 -0.15894701366E+03  0.10132576072E+04  0.10007131584E+04 0.  0.
        5    1    3    3  502    0  0.23763964697E+03 -0.19054027420E+03 -0.48138304453E+03  0.56967527896E+03  0.46999998093E+01 0.  1.
       -5    1    3    3    0  502 -0.23763964697E+03  0.19054027420E+03  0.32243603087E+03  0.44358232822E+03  0.46999998093E+01 0. -1.
</event>
<event>
 5   0  0.2473312E-04  0.9996950E+03  0.7818609E-02  0.9308879E-01
        2   -1    0    0  501    0  0.00000000000E+00  0.00000000000E+00  0.63527718172E+03  0.63527718172E+03  0.25500000920E-02 0.  1.
       -2   -1    0    0    0  501  0.00000000000E+00  0.00000000000E+00 -0.39328901992E+03  0.39328901993E+03  0.25500000920E-02 0. -1.
    10030    2    1    2    0    0  0.00000000000E+00  0.00000000000E+00  0.24198816180E+03  0.10285662017E+04  0.99969503386E+03 0.  0.
        5    1    3    3  502    0  0.68641723579E+02 -0.51374034512E+02  0.62763204099E+03  0.63347852885E+03  0.46999998093E+01 0.  1.
       -5    1    3    3    0  502 -0.68641723579E+02  0.51374034512E+02 -0.38564387919E+03  0.39508767280E+03  0.46999998093E+01 0. -1.
</event>
<event>
 5   0  0.2403037E-04  0.1000019E+04  0.7818609E-02  0.9308524E-01
       -2   -1    0    0    0  501  0.00000000000E+00  0.00000000000E+00  0.23429817522E+03  0.23429817524E+03  0.25500000920E-02 0.  1.
        2   -1    0    0  501    0  0.00000000000E+00  0.00000000000E+00 -0.10670563219E+04  0.10670563219E+04  0.25500000920E-02 0. -1.
    10030    2    1    2    0    0  0.00000000000E+00  0.00000000000E+00 -0.83275814672E+03  0.13013544972E+04  0.10000186980E+04 0.  0.
        1    1    3    3  502    0  0.44815183497E+03 -0.22174141220E+03 -0.41616127594E+03  0.65053787644E+03  0.50400001928E-02 0.  1.
       -1    1    3    3    0  502 -0.44815183497E+03  0.22174141220E+03 -0.41659687078E+03  0.65081662074E+03  0.50400001928E-02 0. -1.
</event>
<event>
 5   0  0.2353916E-04  0.1001010E+04  0.7818609E-02  0.9307438E-01
       -2   -1    0    0    0  501  0.00000000000E+00  0.00000000000E+00  0.33221431932E+03  0.33221431933E+03  0.25500000920E-02 0.  1.
        2   -1    0    0  501    0  0.00000000000E+00  0.00000000000E+00 -0.75404642111E+03  0.75404642111E+03  0.25500000920E-02 0. -1.
    10030    2    1    2    0    0  0.00000000000E+00  0.00000000000E+00 -0.42183210178E+03  0.10862607404E+04  0.10010095275E+04 0.  0.
        4    1    3    3  502    0 -0.45395944513E+03  0.19454174949E+03 -0.12290563444E+03  0.50895292316E+03  0.12699999809E+01 0.  1.
       -4    1    3    3    0  502  0.45395944513E+03 -0.19454174949E+03 -0.29892646735E+03  0.57730781728E+03  0.12699999809E+01 0. -1.
</event>
<event>
 5   0  0.1506454E-04  0.9999843E+03  0.7818609E-02  0.9308562E-01
        1   -1    0    0  501    0  0.00000000000E+00  0.00000000000E+00  0.65326283342E+03  0.65326283344E+03  0.50400001928E-02 0.  1.
       -1   -1    0    0    0  501  0.00000000000E+00  0.00000000000E+00 -0.38268235157E+03  0.38268235160E+03  0.50400001928E-02 0. -1.
    10030    2    1    2    0    0  0.00000000000E+00  0.00000000000E+00  0.27058048185E+03  0.10359451850E+04  0.99998431450E+03 0.  0.
        3    1    3    3  502    0  0.13964090393E+03  0.46738885682E+03  0.21616323193E+02  0.48828188699E+03  0.10100000352E+00 0. -1.
       -3    1    3    3    0  502 -0.13964090393E+03 -0.46738885682E+03  0.24896415866E+03  0.54766329805E+03  0.10100000352E+00 0.  1.
</event>
<event>
 5   0  0.1414165E-04  0.9999379E+03  0.7818609E-02  0.9308613E-01
        1   -1    0    0  501    0  0.00000000000E+00  0.00000000000E+00  0.21833573541E+04  0.21833573541E+04  0.50400001928E-02 0.  1.
       -1   -1    0    0    0  501  0.00000000000E+00  0.00000000000E+00 -0.11448833531E+03  0.11448833542E+03  0.50400001928E-02 0. -1.
    10030    2    1    2    0    0  0.00000000000E+00  0.00000000000E+00  0.20688690187E+04  0.22978456895E+04  0.99993789604E+03 0.  0.
        4    1    3    3  502    0  0.11204780468E+03 -0.39002054965E+03  0.17055753750E+04  0.17531855898E+04  0.12699999809E+01 0. -1.
       -4    1    3    3    0  502 -0.11204780468E+03  0.39002054965E+03  0.36329364379E+03  0.54466009969E+03  0.12699999809E+01 0.  1.
</event>
<event>
 5   0  0.2403037E-04  0.9995420E+03  0.7818609E-02  0.9309047E-01
       -2   -1    0    0    0  501  0.00000000000E+00  0.00000000000E+00  0.15377927591E+04  0.15377927591E+04  0.25500000920E-02 0. -1.
        2   -1    0    0  501    0  0.00000000000E+00  0.00000000000E+00 -0.16242180497E+03  0.16242180499E+03  0.25500000920E-02 0.  1.
    10030    2    1    2    0    0  0.00000000000E+00  0.00000000000E+00  0.13753709541E+04  0.17002145641E+04  0.99954204637E+03 0.  0.
        1    1    3    3  502    0  0.11219850115E+03  0.47897430959E+03  0.83758714505E+03  0.97136868309E+03  0.50400001928E-02 0. -1.
       -1    1    3    3    0  502 -0.11219850115E+03 -0.47897430959E+03  0.53778380907E+03  0.72884588099E+03  0.50400001928E-02 0.  1.
</event>
<event>
 5   0  0.1414165E-04  0.9995117E+03  0.7818609E-02  0.9309081E-01
        1   -1    0    0  501    0  0.00000000000E+00  0.00000000000E+00  0.92674997952E+03  0.92674997953E+03  0.50400001928E-02 0. -1.
       -1   -1    0    0    0  501  0.00000000000E+00  0.00000000000E+00 -0.26949652113E+03  0.26949652117E+03  0.50400001928E-02 0.  1.
    10030    2    1    2    0    0  0.00000000000E+00  0.00000000000E+00  0.65725345839E+03  0.11962465007E+04  0.99951167171E+03 0.  0.
        4    1    3    3  502    0  0.12407643301E+03  0.43854795636E+03  0.83247162746E+02  0.46330440777E+03  0.12699999809E+01 0. -1.
       -4    1    3    3    0  502 -0.12407643301E+03 -0.43854795636E+03  0.57400629564E+03  0.73294209293E+03  0.12699999809E+01 0.  1.
</event>
<event>
 5   0  0.2353916E-04  0.1000085E+04  0.7818609E-02  0.9308451E-01
        2   -1    0    0  501    0  0.00000000000E+00  0.00000000000E+00  0.91812712142E+03  0.91812712142E+03  0.25500000920E-02 0.  1.
       -2   -1    0    0    0  501  0.00000000000E+00  0.00000000000E+00 -0.27233991326E+03  0.27233991327E+03  0.25500000920E-02 0. -1.
    10030    2    1    2    0    0  0.00000000000E+00  0.00000000000E+00  0.64578720816E+03  0.11904670347E+04  0.10000853176E+04 0.  0.
        4    1    3    3  502    0  0.23410577678E+03  0.14063627728E+03  0.82150894423E+03  0.86571510069E+03  0.12699999809E+01 0.  1.
       -4    1    3    3    0  502 -0.23410577678E+03 -0.14063627728E+03 -0.17572173607E+03  0.32475193400E+03  0.12699999809E+01 0. -1.
</event>
<event>
 5   0  0.2484904E-04  0.1000484E+04  0.7818609E-02  0.9308015E-01
        2   -1    0    0  501    0  0.00000000000E+00  0.00000000000E+00  0.12439005595E+04  0.12439005595E+04  0.25500000920E-02 0. -1.
       -2   -1    0    0    0  501  0.00000000000E+00  0.00000000000E+00 -0.20117509761E+03  0.20117509762E+03  0.25500000920E-02 0.  1.
    10030    2    1    2    0    0  0.00000000000E+00  0.00000000000E+00  0.10427254619E+04  0.14450756571E+04  0.10004835161E+04 0.  0.
        3    1    3    3  502    0  0.33298750828E+03  0.37328163010E+03  0.52812979513E+03  0.72742074946E+03  0.10100000352E+00 0.  1.
       -3    1    3    3    0  502 -0.33298750828E+03 -0.37328163010E+03  0.51459566677E+03  0.71765490767E+03  0.10100000352E+00 0. -1.
</event>
<event>
 5   0  0.2473312E-04  0.9993144E+03  0.7818609E-02  0.9309297E-01
        2   -1    0    0  501    0  0.00000000000E+00  0.00000000000E+00  0.70653281042E+03  0.70653281042E+03  0.25500000920E-02 0.  1.
       -2   -1    0    0    0  501  0.00000000000E+00  0.00000000000E+00 -0.35335557176E+03  0.35335557177E+03  0.25500000920E-02 0. -1.
    10030    2    1    2    0    0  0.00000000000E+00  0.00000000000E+00  0.35317723866E+03  0.10598883822E+04  0.99931437536E+03 0.  0.
        5    1    3    3  502    0 -0.57619015467E+02  0.10658640038E+03  0.69069142758E+03  0.70125412642E+03  0.46999998093E+01 0.  1.
       -5    1    3    3    0  502  0.57619015467E+02 -0.10658640038E+03 -0.33751418892E+03  0.35863425577E+03  0.46999998093E+01 0. -1.
</event>
<event>
 5   0  0.1461334E-04  0.9999860E+03  0.7818609E-02  0.9308560E-01
        1   -1    0    0  501    0  0.00000000000E+00  0.00000000000E+00  0.73634344267E+03  0.73634344268E+03  0.50400001928E-02 0. -1.
       -1   -1    0    0    0  501  0.00000000000E+00  0.00000000000E+00 -0.33950597771E+03  0.33950597775E+03  0.50400001928E-02 0.  1.
    10030    2    1    2    0    0  0.00000000000E+00  0.00000000000E+00  0.39683746496E+03  0.10758494204E+04  0.99998600083E+03 0.  0.
        2    1    3    3  502    0 -0.12453634417E+03  0.96722464027E+01 -0.32244875043E+03  0.34579770102E+03  0.25500000920E-02 0.  1.
       -2    1    3    3    0  502  0.12453634417E+03 -0.96722464027E+01  0.71928621539E+03  0.73005171941E+03  0.25500000920E-02 0. -1.
</event>
<event>
 5   0  0.1414165E-04  0.9999762E+03  0.7818609E-02  0.9308571E-01
       -1   -1    0    0    0  501  0.00000000000E+00  0.00000000000E+00  0.14565880080E+03  0.14565880088E+03  0.50400001928E-02 0.  1.
        1   -1    0    0  501    0  0.00000000000E+00  0.00000000000E+00 -0.17162581657E+04  0.17162581657E+04  0.50400001928E-02 0. -1.
    10030    2    1    2    0    0  0.00000000000E+00  0.00000000000E+00 -0.15705993649E+04  0.18619169666E+04  0.99997621244E+03 0.  0.
        4    1    3    3  502    0  0.91455080009E+02  0.22862794080E+03  0.24924637604E+02  0.24750276247E+03  0.12699999809E+01 0.  1.
       -4    1    3    3    0  502 -0.91455080009E+02 -0.22862794080E+03 -0.15955240025E+04  0.16144142041E+04  0.12699999809E+01 0. -1.
</event>
<event>
 5   0  0.9650500E-05  0.9998568E+03  0.7818609E-02  0.9308702E-01
       -3   -1    0    0    0  501  0.00000000000E+00  0.00000000000E+00  0.76437275191E+03  0.76437275858E+03  0.10100000352E+00 0.  1.
        3   -1    0    0  501    0  0.00000000000E+00  0.00000000000E+00 -0.32697184395E+03  0.32697185955E+03  0.10100000352E+00 0. -1.
    10030    2    1    2    0    0  0.00000000000E+00  0.00000000000E+00  0.43740090796E+03  0.10913446181E+04  0.99985675035E+03 0.  0.
        1    1    3    3  502    0  0.79075718040E+02 -0.29594397276E+03 -0.21253578742E+03  0.37283678085E+03  0.50400001928E-02 0. -1.
       -1    1    3    3    0  502 -0.79075718040E+02  0.29594397276E+03  0.64993669538E+03  0.71850783727E+03  0.50400001928E-02 0.  1.
</event>
<event>
 5   0  0.1453863E-04  0.9988036E+03  0.7818609E-02  0.9309858E-01
       -1   -1    0    0    0  501  0.00000000000E+00  0.00000000000E+00  0.24299419712E+03  0.24299419717E+03  0.50400001928E-02 0. -1.
        1   -1    0    0  501    0  0.00000000000E+00  0.00000000000E+00 -0.10263709379E+04  0.10263709380E+04  0.50400001928E-02 0.  1.
    10030    2    1    2    0    0  0.00000000000E+00  0.00000000000E+00 -0.78337674083E+03  0.12693651351E+04  0.99880364848E+03 0.  0.
        1    1    3    3  502    0  0.66565479793E+02 -0.21705327701E+03  0.17361874705E+03  0.28580860294E+03  0.50400001928E-02 0. -1.
       -1    1    3    3    0  502 -0.66565479793E+02  0.21705327701E+03 -0.95699548788E+03  0.98355653219E+03  0.50400001928E-02 0.  1.
</event>
<event>
 5   0  0.2473312E-04  0.9999209E+03  0.7818609E-02  0.9308632E-01
        2   -1    0    0  501    0  0.00000000000E+00  0.00000000000E+00  0.15854286664E+04  0.15854286664E+04  0.25500000920E-02 0. -1.
       -2   -1    0    0    0  501  0.00000000000E+00  0.00000000000E+00 -0.15766110651E+03  0.15766110653E+03  0.25500000920E-02 0.  1.
    10030    2    1    2    0    0  0.00000000000E+00  0.00000000000E+00  0.14277675599E+04  0.17430897730E+04  0.99992087258E+03 0.  0.
        5    1    3    3  502    0  0.22118091541E+03  0.44457792961E+03  0.81504830240E+03  0.95440890507E+03  0.46999998093E+01 0. -1.
       -5    1    3    3    0  502 -0.22118091541E+03 -0.44457792961E+03  0.61271925753E+03  0.78868086790E+03  0.46999998093E+01 0.  1.
</event>
<event>
 5   0  0.2353916E-04  0.9998547E+03  0.7818609E-02  0.9308704E-01
       -2   -1    0    0    0  501  0.00000000000E+00  0.00000000000E+00  0.70923744058E+03  0.70923744059E+03  0.25500000920E-02 0.  1.
        2   -1    0    0  501    0  0.00000000000E+00  0.00000000000E+00 -0.35238883899E+03  0.35238883900E+03  0.25500000920E-02 0. -1.
    10030    2    1    2    0    0  0.00000000000E+00  0.00000000000E+00  0.35684860160E+03  0.10616262796E+04  0.99985470597E+03 0.  0.
        4    1    3    3  502    0 -0.39932336645E+03  0.16447217631E+03  0.44580648569E+03  0.62068936140E+03  0.12699999809E+01 0.  1.
       -4    1    3    3    0  502  0.39932336645E+03 -0.16447217631E+03 -0.88957884090E+02  0.44093691818E+03  0.12699999809E+01 0. -1.
</event>
<event>
 5   0  0.2403037E-04  0.9996668E+03  0.7818609E-02  0.9308910E-01
       -2   -1    0    0    0  501  0.00000000000E+00  0.00000000000E+00  0.25615026278E+03  0.25615026280E+03  0.25500000920E-02 0.  1.
        2   -1    0    0  501    0  0.00000000000E+00  0.00000000000E+00 -0.97533940933E+03  0.97533940933E+03  0.25500000920E-02 0. -1.
    10030    2    1    2    0    0  0.00000000000E+00  0.00000000000E+00 -0.71918914655E+03  0.12314896721E+04  0.99966683653E+03 0.  0.
        1    1    3    3  502    0 -0.28893533736E+03 -0.34445517349E+03 -0.90542261220E+02  0.45861846541E+03  0.50400001928E-02 0.  1.
       -1    1    3    3    0  502  0.28893533736E+03  0.34445517349E+03 -0.62864688533E+03  0.77287120672E+03  0.50400001928E-02 0. -1.
</event>
<event>
 5   0  0.2403037E-04  0.9996301E+03  0.7818609E-02  0.9308951E-01
       -2   -1    0    0    0  501  0.00000000000E+00  0.00000000000E+00  0.17511361716E+03  0.17511361718E+03  0.25500000920E-02 0.  1.
        2   -1    0    0  501    0  0.00000000000E+00  0.00000000000E+00 -0.14265886004E+04  0.14265886004E+04  0.25500000920E-02 0. -1.
    10030    2    1    2    0    0  0.00000000000E+00  0.00000000000E+00 -0.12514749833E+04  0.16017022176E+04  0.99963011167E+03 0.  0.
        1    1    3    3  502    0 -0.75165104851E+02  0.45900216810E+03 -0.91892815236E+03  0.10299328777E+04  0.50400001928E-02 0. -1.
       -1    1    3    3    0  502  0.75165104851E+02 -0.45900216810E+03 -0.33254683090E+03  0.57176933993E+03  0.50400001928E-02 0.  1.
</event>
<event>
 5   0  0.1461334E-04  0.1000005E+04  0.7818609E-02  0.9308540E-01
        1   -1    0    0  501    0  0.00000000000E+00  0.00000000000E+00  0.12597852941E+04  0.12597852941E+04  0.50400001928E-02 0. -1.
       -1   -1    0    0    0  501  0.00000000000E+00  0.00000000000E+00 -0.19844831840E+03  0.19844831847E+03  0.50400001928E-02 0.  1.
    10030    2    1    2    0    0  0.00000000000E+00  0.00000000000E+00  0.10613369757E+04  0.14582336125E+04  0.10000045464E+04 0.  0.
        2    1    3    3  502    0 -0.38087285831E+03 -0.18701026243E+03  0.14495352836E+03  0.44838431935E+03  0.25500000920E-02 0.  1.
       -2    1    3    3    0  502  0.38087285831E+03  0.18701026243E+03  0.91638344729E+03  0.10098492932E+04  0.25500000920E-02 0. -1.
</event>
<event>
 5   0  0.1430675E-04  0.1000478E+04  0.7818609E-02  0.9308020E-01
        1   -1    0    0  501    0  0.00000000000E+00  0.00000000000E+00  0.64348189086E+03  0.64348189088E+03  0.50400001928E-02 0. -1.
       -1   -1    0    0    0  501  0.00000000000E+00  0.00000000000E+00 -0.38888306455E+03  0.38888306459E+03  0.50400001928E-02 0.  1.
    10030    2    1    2    0    0  0.00000000000E+00  0.00000000000E+00  0.25459882630E+03  0.10323649555E+04  0.10004783051E+04 0.  0.
        5    1    3    3  502    0 -0.19541779008E+03 -0.70114301176E+02  0.59690066844E+03  0.63199416602E+03  0.46999998093E+01 0. -1.
       -5    1    3    3    0  502  0.19541779008E+03  0.70114301176E+02 -0.34230184213E+03  0.40037078944E+03  0.46999998093E+01 0.  1.
</event>
<event>
 5   0  0.2473312E-04  0.9963729E+03  0.7818609E-02  0.9312532E-01
        2   -1    0    0  501    0  0.00000000000E+00  0.00000000000E+00  0.17034744127E+03  0.17034744129E+03  0.25500000920E-02 0.  1.
       -2   -1    0    0    0  501  0.00000000000E+00  0.00000000000E+00 -0.14569619639E+04  0.14569619639E+04  0.25500000920E-02 0. -1.
    10030    2    1    2    0    0  0.00000000000E+00  0.00000000000E+00 -0.12866145227E+04  0.16273094052E+04  0.99637290731E+03 0.  0.
        5    1    3    3  502    0 -0.47434144683E+03 -0.55029339844E+01 -0.39487555426E+03  0.61723486925E+03  0.46999998093E+01 0.  1.
       -5    1    3    3    0  502  0.47434144683E+03  0.55029339844E+01 -0.89173896841E+03  0.10100745360E+04  0.46999998093E+01 0. -1.
</event>
<event>
 5   0  0.1414165E-04  0.9999280E+03  0.7818609E-02  0.9308624E-01
       -1   -1    0    0    0  501  0.00000000000E+00  0.00000000000E+00  0.82723735146E+03  0.82723735148E+03  0.50400001928E-02 0. -1.
        1   -1    0    0  501    0  0.00000000000E+00  0.00000000000E+00 -0.30216719197E+03  0.30216719201E+03  0.50400001928E-02 0.  1.
    10030    2    1    2    0    0  0.00000000000E+00  0.00000000000E+00  0.52507015949E+03  0.11294045435E+04  0.99992797263E+03 0.  0.
        4    1    3    3  502    0 -0.27102686301E+03 -0.74045341189E+02  0.72963465430E+03  0.78186099447E+03  0.12699999809E+01 0. -1.
       -4    1    3    3    0  502  0.27102686301E+03  0.74045341189E+02 -0.20456449480E+03  0.34754354901E+03  0.12699999809E+01 0.  1.
</event>
<event>
 5   0  0.2503680E-04  0.9966709E+03  0.7818609E-02  0.9312204E-01
       -2   -1    0    0    0  501  0.00000000000E+00  0.00000000000E+00  0.24287650105E+03  0.24287650107E+03  0.25500000920E-02 0. -1.
        2   -1    0    0  501    0  0.00000000000E+00  0.00000000000E+00 -0.10224875550E+04  0.10224875550E+04  0.25500000920E-02 0.  1.
    10030    2    1    2    0    0  0.00000000000E+00  0.00000000000E+00 -0.77961105390E+03  0.12653640560E+04  0.99667085786E+03 0.  0.
        2    1    3    3  502    0  0.14976138816E+03  0.33544640155E+02  0.21212573356E+03  0.26182254126E+03  0.25500000920E-02 0. -1.
       -2    1    3    3    0  502 -0.14976138816E+03 -0.33544640155E+02 -0.99173678745E+03  0.10035415148E+04  0.25500000920E-02 0.  1.
</event>
<event>
 5   0  0.1453863E-04  0.9990258E+03  0.7818609E-02  0.9309614E-01
        1   -1    0    0  501    0  0.00000000000E+00  0.00000000000E+00  0.12520193229E+04  0.12520193229E+04  0.50400001928E-02 0. -1.
       -1   -1    0    0    0  501  0.00000000000E+00  0.00000000000E+00 -0.19928857472E+03  0.19928857478E+03  0.50400001928E-02 0.  1.
    10030    2    1    2    0    0  0.00000000000E+00  0.00000000000E+00  0.10527307482E+04  0.14513078977E+04  0.99902581835E+03 0.  0.
        1    1    3    3  502    0 -0.59506269784E+02  0.41376285831E+03  0.92360598794E+03  0.10137991517E+04  0.50400001928E-02 0. -1.
       -1    1    3    3    0  502  0.59506269784E+02 -0.41376285831E+03  0.12912476024E+03  0.43750874596E+03  0.50400001928E-02 0.  1.
</event>
<event>
 5   0  0.2484904E-04  0.1000262E+04  0.7818609E-02  0.9308257E-01
        2   -1    0    0  501    0  0.00000000000E+00  0.00000000000E+00  0.81186880590E+03  0.81186880590E+03  0.25500000920E-02 0.  1.
       -2   -1    0    0    0  501  0.00000000000E+00  0.00000000000E+00 -0.30809297013E+03  0.30809297014E+03  0.25500000920E-02 0. -1.
    10030    2    1    2    0    0  0.00000000000E+00  0.00000000000E+00  0.50377583576E+03  0.11199617760E+04  0.10002621092E+04 0.  0.
        3    1    3    3  502    0  0.43941155981E+03 -0.16153229695E+03  0.54890371112E+02  0.47136839616E+03  0.10100000352E+00 0. -1.
       -3    1    3    3    0  502 -0.43941155981E+03  0.16153229695E+03  0.44888546465E+03  0.64859337988E+03  0.10100000352E+00 0.  1.
</event>
<event>
 5   0  0.2473312E-04  0.9997436E+03  0.7818609E-02  0.9308826E-01
       -2   -1    0    0    0  501  0.00000000000E+00  0.00000000000E+00  0.33680405103E+03  0.33680405104E+03  0.25500000920E-02 0. -1.
        2   -1    0    0  501    0  0.00000000000E+00  0.00000000000E+00 -0.74189078457E+03  0.74189078458E+03  0.25500000920E-02 0.  1.
    10030    2    1    2    0    0  0.00000000000E+00  0.00000000000E+00 -0.40508673354E+03  0.10786948356E+04  0.99974361049E+03 0.  0.
        5    1    3    3  502    0 -0.14746914684E+03 -0.15022532225E+03  0.28661871804E+03  0.35565035673E+03  0.46999998093E+01 0. -1.
       -5    1    3    3    0  502  0.14746914684E+03  0.15022532225E+03 -0.69170545158E+03  0.72304447889E+03  0.46999998093E+01 0.  1.
</event>
<event>
 5   0  0.1453863E-04  0.1000853E+04  0.7818609E-02  0.9307609E-01
        1   -1    0    0  501    0  0.00000000000E+00  0.00000000000E+00  0.30851778991E+03  0.30851778995E+03  0.50400001928E-02 0.  1.
       -1   -1    0    0    0  501  0.00000000000E+00  0.00000000000E+00 -0.81170942552E+03  0.81170942554E+03  0.50400001928E-02 0. -1.
    10030    2    1    2    0    0  0.00000000000E+00  0.00000000000E+00 -0.50319163561E+03  0.11202272155E+04  0.10008532321E+04 0.  0.
        1    1    3    3  502    0 -0.48743155622E+02 -0.17477943561E+03 -0.77359329113E+03  0.79458814894E+03  0.50400001928E-02 0. -1.
       -1    1    3    3    0  502  0.48743155622E+02  0.17477943561E+03  0.27040165552E+03  0.32563906655E+03  0.50400001928E-02 0.  1.
</event>
<event>
 5   0  0.1414165E-04  0.9996755E+03  0.7818609E-02  0.9308901E-01
        1   -1    0    0  501    0  0.00000000000E+00  0.00000000000E+00  0.68762007744E+03  0.68762007745E+03  0.50400001928E-02 0. -1.
       -1   -1    0    0    0  501  0.00000000000E+00  0.00000000000E+00 -0.36333692895E+03  0.36333692898E+03  0.50400001928E-02 0.  1.
    10030    2    1    2    0    0  0.00000000000E+00  0.00000000000E+00  0.32428314849E+03  0.10509570064E+04  0.99967548184E+03 0.  0.
        4    1    3    3  502    0  0.19869799599E+03 -0.12929789848E+03 -0.30047419685E+03  0.38273384490E+03  0.12699999809E+01 0.  1.
       -4    1    3    3    0  502 -0.19869799599E+03  0.12929789848E+03  0.62475734533E+03  0.66822316154E+03  0.12699999809E+01 0. -1.
</event>
<event>
 5   0  0.1430675E-04  0.9998694E+03  0.7818609E-02  0.9308688E-01
       -1   -1    0    0    0  501  0.00000000000E+00  0.00000000000E+00  0.56996359432E+03  0.56996359434E+03  0.50400001928E-02 0. -1.
        1   -1    0    0  501    0  0.00000000000E+00  0.00000000000E+00 -0.43850991616E+03  0.43850991619E+03  0.50400001928E-02 0.  1.
    10030    2    1    2    0    0  0.00000000000E+00  0.00000000000E+00  0.13145367816E+03  0.10084735105E+04  0.99986936744E+03 0.  0.
        5    1    3    3  502    0  0.88177714423E+02 -0.49173478505E+03  0.47288667540E+02  0.50183335504E+03  0.46999998093E+01 0.  1.
       -5    1    3    3    0  502 -0.88177714423E+02  0.49173478505E+03  0.84165010621E+02  0.50664015550E+03  0.46999998093E+01 0. -1.
</event>
<event>
 5   0  0.1430675E-04  0.1000538E+04  0.7818609E-02  0.9307955E-01
        1   -1    0    0  501    0  0.00000000000E+00  0.00000000000E+00  0.46606087893E+03  0.46606087896E+03  0.50400001928E-02 0.  1.
       -1   -1    0    0    0  501  0.00000000000E+00  0.00000000000E+00 -0.53698812245E+03  0.53698812247E+03  0.50400001928E-02 0. -1.
    10030    2    1    2    0    0  0.00000000000E+00  0.00000000000E+00 -0.70927243515E+02  0.10030490014E+04  0.10005381679E+04 0.  0.
        5    1    3    3  502    0  0.20029437055E+03 -0.31772928102E+03 -0.36671274303E+03  0.52494767052E+03  0.46999998093E+01 0. -1.
       -5    1    3    3    0  502 -0.20029437055E+03  0.31772928102E+03  0.29578549951E+03  0.47810133090E+03  0.46999998093E+01 0.  1.
</event>
<event>
 5   0  0.2473312E-04  0.9986937E+03  0.7818609E-02  0.9309979E-01
        2   -1    0    0  501    0  0.00000000000E+00  0.00000000000E+00  0.63281488012E+03  0.63281488013E+03  0.25500000920E-02 0. -1.
       -2   -1    0    0    0  501  0.00000000000E+00  0.00000000000E+00 -0.39402878808E+03  0.39402878808E+03  0.25500000920E-02 0.  1.
    10030    2    1    2    0    0  0.00000000000E+00  0.00000000000E+00  0.23878609204E+03  0.10268436682E+04  0.99869370740E+03 0.  0.
        5    1    3    3  502    0  0.37491115436E+03  0.31775700118E+02  0.45690954450E+03  0.59190919120E+03  0.46999998093E+01 0. -1.
       -5    1    3    3    0  502 -0.37491115436E+03 -0.31775700118E+02 -0.21812345245E+03  0.43493447701E+03  0.46999998093E+01 0.  1.
</event>
<event>
 5   0  0.2473312E-04  0.1000101E+04  0.7818609E-02  0.9308434E-01
        2   -1    0    0  501    0  0.00000000000E+00  0.00000000000E+00  0.15174034360E+04  0.15174034360E+04  0.25500000920E-02 0.  1.
       -2   -1    0    0    0  501  0.00000000000E+00  0.00000000000E+00 -0.16478837547E+03  0.16478837549E+03  0.25500000920E-02 0. -1.
    10030    2    1    2    0    0  0.00000000000E+00  0.00000000000E+00  0.13526150605E+04  0.16821918115E+04  0.10001008892E+04 0.  0.
        5    1    3    3  502    0 -0.34414582286E+02  0.42805309227E+03  0.24545191412E+03  0.49465396533E+03  0.46999998093E+01 0. -1.
       -5    1    3    3    0  502  0.34414582286E+02 -0.42805309227E+03  0.11071631464E+04  0.11875378461E+04  0.46999998093E+01 0.  1.
</event>
<event>
 5   0  0.2484904E-04  0.1000556E+04  0.7818609E-02  0.9307935E-01
        2   -1    0    0  501    0  0.00000000000E+00  0.00000000000E+00  0.22191903646E+04  0.22191903646E+04  0.25500000920E-02 0.  1.
       -2   -1    0    0    0  501  0.00000000000E+00  0.00000000000E+00 -0.11277903918E+03  0.11277903921E+03  0.25500000920E-02 0. -1.
    10030    2    1    2    0    0  0.00000000000E+00  0.00000000000E+00  0.21064113254E+04  0.23319694038E+04  0.10005561596E+04 0.  0.
        3    1    3    3  502    0 -0.15589806142E+03  0.47262033596E+03  0.11721375969E+04  0.12734130295E+04  0.10100000352E+00 0.  1.
       -3    1    3    3    0  502  0.15589806142E+03 -0.47262033596E+03  0.93427372854E+03  0.10585563743E+04  0.10100000352E+00 0. -1.
</event>
<event>
 5   0  0.2473312E-04  0.9999433E+03  0.7818609E-02  0.9308607E-01
        2   -1    0    0  501    0  0.00000000000E+00  0.00000000000E+00  0.76522392345E+03  0.76522392345E+03  0.25500000920E-02 0.  1.
       -2   -1    0    0    0  501  0.00000000000E+00  0.00000000000E+00 -0.32666470627E+03  0.32666470628E+03  0.25500000920E-02 0. -1.
    10030    2    1    2    0    0  0.00000000000E+00  0.00000000000E+00  0.43855921718E+03  0.10918886297E+04  0.99994329477E+03 0.  0.
        5    1    3    3  502    0  0.19982515608E+03  0.12609236217E+03 -0.26182366858E+03  0.35270823669E+03  0.46999998093E+01 0. -1.
       -5    1    3    3    0  502 -0.19982515608E+03 -0.12609236217E+03  0.70038288576E+03  0.73918039304E+03  0.46999998093E+01 0.  1.
</event>
<event>
 5   0  0.1461334E-04  0.1001953E+04  0.7818609E-02  0.9306405E-01
       -1   -1    0    0    0  501  0.00000000000E+00  0.00000000000E+00  0.15757496659E+03  0.15757496667E+03  0.50400001928E-02 0. -1.
        1   -1    0    0  501    0  0.00000000000E+00  0.00000000000E+00 -0.15927493906E+04  0.15927493906E+04  0.50400001928E-02 0.  1.
    10030    2    1    2    0    0  0.00000000000E+00  0.00000000000E+00 -0.14351744240E+04  0.17503243573E+04  0.10019529572E+04 0.  0.
        2    1    3    3  502    0  0.17194279226E+03 -0.32422500746E+03 -0.12186371581E+03  0.38670007048E+03  0.25500000920E-02 0. -1.
       -2    1    3    3    0  502 -0.17194279226E+03  0.32422500746E+03 -0.13133107082E+04  0.13636242868E+04  0.25500000920E-02 0.  1.
</event>
<event>
 5   0  0.2484904E-04  0.1000069E+04  0.7818609E-02  0.9308469E-01
        2   -1    0    0  501    0  0.00000000000E+00  0.00000000000E+00  0.15140553097E+04  0.15140553097E+04  0.25500000920E-02 0. -1.
       -2   -1    0    0    0  501  0.00000000000E+00  0.00000000000E+00 -0.16514216740E+03  0.16514216742E+03  0.25500000920E-02 0.  1.
    10030    2    1    2    0    0  0.00000000000E+00  0.00000000000E+00  0.13489131423E+04  0.16791974771E+04  0.10000687485E+04 0.  0.
        3    1    3    3  502    0  0.44333390051E+03 -0.11309183677E+03  0.33571595166E+03  0.56748561328E+03  0.10100000352E+00 0. -1.
       -3    1    3    3    0  502 -0.44333390051E+03  0.11309183677E+03  0.10131971907E+04  0.11117118639E+04  0.10100000352E+00 0.  1.
</event>
<event>
 5   0  0.2353916E-04  0.9997823E+03  0.7818609E-02  0.9308784E-01
        2   -1    0    0  501    0  0.00000000000E+00  0.00000000000E+00  0.26001740364E+03  0.26001740366E+03  0.25500000920E-02 0.  1.
       -2   -1    0    0    0  501  0.00000000000E+00  0.00000000000E+00 -0.96105543789E+03  0.96105543789E+03  0.25500000920E-02 0. -1.
    10030    2    1    2    0    0  0.00000000000E+00  0.00000000000E+00 -0.70103803425E+03  0.12210728415E+04  0.99978225575E+03 0.  0.
        4    1    3    3  502    0 -0.17919148411E+02 -0.69227141166E+02 -0.95477449226E+03  0.95744944354E+03  0.12699999809E+01 0. -1.
       -4    1    3    3    0  502  0.17919148411E+02  0.69227141166E+02  0.25373645802E+03  0.26362339801E+03  0.12699999809E+01 0.  1.
</event>
<event>
 5   0  0.2484904E-04  0.1000240E+04  0.7818609E-02  0.9308281E-01
        2   -1    0    0  501    0  0.00000000000E+00  0.00000000000E+00  0.70247062118E+03  0.70247062119E+03  0.25500000920E-02 0. -1.
       -2   -1    0    0    0  501  0.00000000000E+00  0.00000000000E+00 -0.35605790878E+03  0.35605790879E+03  0.25500000920E-02 0.  1.
    10030    2    1    2    0    0  0.00000000000E+00  0.00000000000E+00  0.34641271240E+03  0.10585285300E+04  0.10002404118E+04 0.  0.
        3    1    3    3  502    0 -0.22420034949E+03  0.41330394335E+03 -0.71176637481E+01  0.47025165352E+03  0.10100000352E+00 0.  1.
       -3    1    3    3    0  502  0.22420034949E+03 -0.41330394335E+03  0.35353037615E+03  0.58827687645E+03  0.10100000352E+00 0. -1.
</event>
<event>
 5   0  0.9650500E-05  0.9998513E+03  0.7818609E-02  0.9308708E-01
        4   -1    0    0  501    0  0.00000000000E+00  0.00000000000E+00  0.16062389779E+03  0.16062891845E+03  0.12699999809E+01 0. -1.
       -4   -1    0    0    0  501  0.00000000000E+00  0.00000000000E+00 -0.15559383465E+04  0.15559388648E+04  0.12699999809E+01 0.  1.
    10030    2    1    2    0    0  0.00000000000E+00  0.00000000000E+00 -0.13953144487E+04  0.17165677832E+04  0.99985126079E+03 0.  0.
        5    1    3    3  502    0 -0.65990653879E+02  0.24396915747E+03 -0.14381392458E+04  0.14601857061E+04  0.46999998093E+01 0.  1.
       -5    1    3    3    0  502  0.65990653879E+02 -0.24396915747E+03  0.42824797107E+02  0.25638207707E+03  0.46999998093E+01 0. -1.
</event>
<event>
 5   0  0.2503680E-04  0.1000148E+04  0.7818609E-02  0.9308383E-01
        2   -1    0    0  501    0  0.00000000000E+00  0.00000000000E+00  0.19912005452E+04  0.19912005452E+04  0.25500000920E-02 0. -1.
       -2   -1    0    0    0  501  0.00000000000E+00  0.00000000000E+00 -0.12558954263E+03  0.12558954265E+03  0.25500000920E-02 0.  1.
    10030    2    1    2    0    0  0.00000000000E+00  0.00000000000E+00  0.18656110026E+04  0.21167900879E+04  0.10001479206E+04 0.  0.
        2    1    3    3  502    0  0.38515015108E+03 -0.11454855997E+03  0.30277769961E+03  0.50312657141E+03  0.25500000920E-02 0.  1.
       -2    1    3    3    0  502 -0.38515015108E+03  0.11454855997E+03  0.15628333030E+04  0.16136635165E+04  0.25500000920E-02 0. -1.
</event>
<event>
 5   0  0.1414165E-04  0.1000212E+04  0.7818609E-02  0.9308312E-01
        1   -1    0    0  501    0  0.00000000000E+00  0.00000000000E+00  0.21252763862E+03  0.21252763868E+03  0.50400001928E-02 0.  1.
       -1   -1    0    0    0  501  0.00000000000E+00  0.00000000000E+00 -0.11768161388E+04  0.11768161388E+04  0.50400001928E-02 0. -1.
    10030    2    1    2    0    0  0.00000000000E+00  0.00000000000E+00 -0.96428850018E+03  0.13893437775E+04  0.10002118878E+04 0.  0.
        4    1    3    3  502    0  0.11555280222E+02  0.19985295467E+03  0.15444305808E+03  0.25284184598E+03  0.12699999809E+01 0.  1.
       -4    1    3    3    0  502 -0.11555280222E+02 -0.19985295467E+03 -0.11187315583E+04  0.11365019315E+04  0.12699999809E+01 0. -1.
</event>
<event>
 5   0  0.1461334E-04  0.1000533E+04  0.7818609E-02  0.9307961E-01
       -1   -1    0    0    0  501  0.00000000000E+00  0.00000000000E+00  0.15124778864E+03  0.15124778873E+03  0.50400001928E-02 0.  1.
        1   -1    0    0  501    0  0.00000000000E+00  0.00000000000E+00 -0.16546781436E+04  0.16546781436E+04  0.50400001928E-02 0. -1.
    10030    2    1    2    0    0  0.00000000000E+00  0.00000000000E+00 -0.15034303549E+04  0.18059259323E+04  0.10005326786E+04 0.  0.
        2    1    3    3  502    0  0.38559070173E+02  0.49723297242E+03 -0.82252362427E+03  0.96191088113E+03  0.25500000920E-02 0.  1.
       -2    1    3    3    0  502 -0.38559070173E+02 -0.49723297242E+03 -0.68090673066E+03  0.84401505118E+03  0.25500000920E-02 0. -1.
</event>
<event>
 5   0  0.2353916E-04  0.1001750E+04  0.7818609E-02  0.9306628E-01
       -2   -1    0    0    0  501  0.00000000000E+00  0.00000000000E+00  0.54367645333E+03  0.54367645333E+03  0.25500000920E-02 0.  1.
        2   -1    0    0  501    0  0.00000000000E+00  0.00000000000E+00 -0.46144292945E+03  0.46144292946E+03  0.25500000920E-02 0. -1.
    10030    2    1    2    0    0  0.00000000000E+00  0.00000000000E+00  0.82233523876E+02  0.10051193828E+04  0.10017497797E+04 0.  0.
        4    1    3    3  502    0 -0.12559452049E+02  0.12667640900E+03  0.52717310448E+03  0.54232623708E+03  0.12699999809E+01 0.  1.
       -4    1    3    3    0  502  0.12559452049E+02 -0.12667640900E+03 -0.44493958060E+03  0.46279314572E+03  0.12699999809E+01 0. -1.
</event>
<event>
 5   0  0.1506454E-04  0.9998820E+03  0.7818609E-02  0.9308674E-01
       -1   -1    0    0    0  501  0.00000000000E+00  0.00000000000E+00  0.33857485779E+03  0.33857485783E+03  0.50400001928E-02 0. -1.
        1   -1    0    0  501    0  0.00000000000E+00  0.00000000000E+00 -0.73821485183E+03  0.73821485184E+03  0.50400001928E-02 0.  1.
    10030    2    1    2    0    0  0.00000000000E+00  0.00000000000E+00 -0.39963999403E+03  0.10767897097E+04  0.99988197005E+03 0.  0.
        3    1    3    3  502    0 -0.29167376551E+02  0.21061292577E+03 -0.68709652092E+03  0.71924278211E+03  0.10100000352E+00 0.  1.
       -3    1    3    3    0  502  0.29167376551E+02 -0.21061292577E+03  0.28745652689E+03  0.35754692756E+03  0.10100000352E+00 0. -1.
</event>
<event>
 5   0  0.9650500E-05  0.9993929E+03  0.7818609E-02  0.9309211E-01
       -4   -1    0    0    0  501  0.00000000000E+00  0.00000000000E+00  0.19790667071E+04  0.19790671146E+04  0.12699999809E+01 0.  1.
        4   -1    0    0  501    0  0.00000000000E+00  0.00000000000E+00 -0.12616522504E+03  0.12617161690E+03  0.12699999809E+01 0. -1.
    10030    2    1    2    0    0  0.00000000000E+00  0.00000000000E+00  0.18529014821E+04  0.21052387315E+04  0.99939292291E+03 0.  0.
        4    1    3    3  502    0  0.40926460669E+03  0.10733344962E+03  0.36643015627E+03  0.55972373545E+03  0.12699999809E+01 0. -1.
       -4    1    3    3    0  502 -0.40926460669E+03 -0.10733344962E+03  0.14864713258E+04  0.15455149961E+04  0.12699999809E+01 0.  1.
</event>
<event>
 5   0  0.2403037E-04  0.9996196E+03  0.7818609E-02  0.9308962E-01
        2   -1    0    0  501    0  0.00000000000E+00  0.00000000000E+00  0.10505356263E+04  0.10505356263E+04  0.25500000920E-02 0. -1.
       -2   -1    0    0    0  501  0.00000000000E+00  0.00000000000E+00 -0.23779282754E+03  0.23779282756E+03  0.25500000920E-02 0.  1.
    10030    2    1    2    0    0  0.00000000000E+00  0.00000000000E+00  0.81274279877E+03  0.12883284539E+04  0.99961960170E+03 0.  0.
        1    1    3    3  502    0  0.41034063900E+03  0.67258372553E+02  0.76378736367E+03  0.86964030818E+03  0.50400001928E-02 0. -1.
       -1    1    3    3    0  502 -0.41034063900E+03 -0.67258372553E+02  0.48955435108E+02  0.41868814570E+03  0.50400001928E-02 0.  1.
</event>
<event>
 5   0  0.2484904E-04  0.9994959E+03  0.7818609E-02  0.9309098E-01
        2   -1    0    0  501    0  0.00000000000E+00  0.00000000000E+00  0.14243990315E+04  0.14243990315E+04  0.25500000920E-02 0.  1.
       -2   -1    0    0    0  501  0.00000000000E+00  0.00000000000E+00 -0.17533570545E+03  0.17533570547E+03  0.25500000920E-02 0. -1.
    10030    2    1    2    0    0  0.00000000000E+00  0.00000000000E+00  0.12490633261E+04  0.15997347370E+04  0.99949589104E+03 0.  0.
        3    1    3    3  502    0  0.12302755535E+03 -0.28145717265E+03 -0.64027216232E+01  0.30723757006E+03  0.10100000352E+00 0. -1.
       -3    1    3    3    0  502 -0.12302755535E+03  0.28145717265E+03  0.12554660477E+04  0.12924971669E+04  0.10100000352E+00 0.  1.
</event>
<event>
 5   0  0.2353916E-04  0.1002533E+04  0.7818609E-02  0.9305771E-01
        2   -1    0    0  501    0  0.00000000000E+00  0.00000000000E+00  0.44068002177E+03  0.44068002178E+03  0.25500000920E-02 0.  1.
       -2   -1    0    0    0  501  0.00000000000E+00  0.00000000000E+00 -0.57018249605E+03  0.57018249606E+03  0.25500000920E-02 0. -1.
    10030    2    1    2    0    0  0.00000000000E+00  0.00000000000E+00 -0.12950247428E+03  0.10108625178E+04  0.10025328619E+04 0.  0.
        4    1    3    3  502    0 -0.20674961260E+03  0.17970099700E+03 -0.48803502643E+03  0.55965851245E+03  0.12699999809E+01 0. -1.
       -4    1    3    3    0  502  0.20674961260E+03 -0.17970099700E+03  0.35853255215E+03  0.45120400539E+03  0.12699999809E+01 0.  1.
</event>
<event>
 5   0  0.1453863E-04  0.9995539E+03  0.7818609E-02  0.9309034E-01
        1   -1    0    0  501    0  0.00000000000E+00  0.00000000000E+00  0.10160285561E+04  0.10160285562E+04  0.50400001928E-02 0.  1.
       -1   -1    0    0    0  501  0.00000000000E+00  0.00000000000E+00 -0.24583660476E+03  0.24583660481E+03  0.50400001928E-02 0. -1.
    10030    2    1    2    0    0  0.00000000000E+00  0.00000000000E+00  0.77019195139E+03  0.12618651610E+04  0.99955392174E+03 0.  0.
        1    1    3    3  502    0  0.10540231931E+03  0.31722313473E+03  0.85412987668E+03  0.91721208692E+03  0.50400001928E-02 0.  1.
       -1    1    3    3    0  502 -0.10540231931E+03 -0.31722313473E+03 -0.83937925287E+02  0.34465307405E+03  0.50400001928E-02 0. -1.
</event>
<event>
 5   0  0.2353916E-04  0.1000039E+04  0.7818609E-02  0.9308502E-01
        2   -1    0    0  501    0  0.00000000000E+00  0.00000000000E+00  0.71237738758E+03  0.71237738759E+03  0.25500000920E-02 0. -1.
       -2   -1    0    0    0  501  0.00000000000E+00  0.00000000000E+00 -0.35096489223E+03  0.35096489224E+03  0.25500000920E-02 0.  1.
    10030    2    1    2    0    0  0.00000000000E+00  0.00000000000E+00  0.36141249535E+03  0.10633422798E+04  0.10000389054E+04 0.  0.
        4    1    3    3  502    0 -0.48980938289E+03  0.67369214713E+02  0.10137803123E+03  0.50470878809E+03  0.12699999809E+01 0.  1.
       -4    1    3    3    0  502  0.48980938289E+03 -0.67369214713E+02  0.26003446412E+03  0.55863349174E+03  0.12699999809E+01 0. -1.
</event>
<event>
 5   0  0.1453863E-04  0.1000329E+04  0.7818609E-02  0.9308184E-01
       -1   -1    0    0    0  501  0.00000000000E+00  0.00000000000E+00  0.23518470060E+03  0.23518470065E+03  0.50400001928E-02 0.  1.
        1   -1    0    0  501    0  0.00000000000E+00  0.00000000000E+00 -0.10636947609E+04  0.10636947609E+04  0.50400001928E-02 0. -1.
    10030    2    1    2    0    0  0.00000000000E+00  0.00000000000E+00 -0.82851006033E+03  0.12988794616E+04  0.10003294136E+04 0.  0.
        1    1    3    3  502    0 -0.19787239814E+03 -0.10756801555E+03 -0.99412730730E+03  0.10193201004E+04  0.50400001928E-02 0. -1.
       -1    1    3    3    0  502  0.19787239814E+03  0.10756801555E+03  0.16561724697E+03  0.27955936120E+03  0.50400001928E-02 0.  1.
</event>
<event>
 5   0  0.2484904E-04  0.9999747E+03  0.7818609E-02  0.9308573E-01
        2   -1    0    0  501    0  0.00000000000E+00  0.00000000000E+00  0.13233418644E+04  0.13233418644E+04  0.25500000920E-02 0. -1.
       -2   -1    0    0    0  501  0.00000000000E+00  0.00000000000E+00 -0.18890610370E+03  0.18890610372E+03  0.25500000920E-02 0.  1.
    10030    2    1    2    0    0  0.00000000000E+00  0.00000000000E+00  0.11344357607E+04  0.15122479681E+04  0.99997471064E+03 0.  0.
        3    1    3    3  502    0 -0.18509286677E+03  0.31060973243E+03  0.10894485864E+04  0.11478832727E+04  0.10100000352E+00 0. -1.
       -3    1    3    3    0  502  0.18509286677E+03 -0.31060973243E+03  0.44987174326E+02  0.36436469541E+03  0.10100000352E+00 0.  1.
</event>
<event>
 5   0  0.2484904E-04  0.1000503E+04  0.7818609E-02  0.9307993E-01
       -2   -1    0    0    0  501  0.00000000000E+00  0.00000000000E+00  0.14871160334E+03  0.14871160336E+03  0.25500000920E-02 0. -1.
        2   -1    0    0  501    0  0.00000000000E+00  0.00000000000E+00 -0.16827973422E+04  0.16827973422E+04  0.25500000920E-02 0.  1.
    10030    2    1    2    0    0  0.00000000000E+00  0.00000000000E+00 -0.15340857388E+04  0.18315089455E+04  0.10005028553E+04 0.  0.
        3    1    3    3  502    0 -0.39946014131E+03  0.10576943413E+02 -0.13179593741E+04  0.13772063019E+04  0.10100000352E+00 0.  1.
       -3    1    3    3    0  502  0.39946014131E+03 -0.10576943413E+02 -0.21612636477E+03  0.45430264360E+03  0.10100000352E+00 0. -1.
</event>
<event>
 5   0  0.1414165E-04  0.9999917E+03  0.7818609E-02  0.9308554E-01
        1   -1    0    0  501    0  0.00000000000E+00  0.00000000000E+00  0.81587493759E+03  0.81587493760E+03  0.50400001928E-02 0. -1.
       -1   -1    0    0    0  501  0.00000000000E+00  0.00000000000E+00 -0.30641440685E+03  0.30641440689E+03  0.50400001928E-02 0.  1.
    10030    2    1    2    0    0  0.00000000000E+00  0.00000000000E+00  0.50946053074E+03  0.11222893445E+04  0.99999167016E+03 0.  0.
        4    1    3    3  502    0  0.12363343476E+03 -0.19191493166E+03 -0.24450681500E+03  0.33451720833E+03  0.12699999809E+01 0.  1.
       -4    1    3    3    0  502 -0.12363343476E+03  0.19191493166E+03  0.75396734573E+03  0.78777213617E+03  0.12699999809E+01 0. -1.
</event>
<event>
 5   0  0.1453863E-04  0.1000228E+04  0.7818609E-02  0.9308295E-01
        1   -1    0    0  501    0  0.00000000000E+00  0.00000000000E+00  0.23947245912E+03  0.23947245917E+03  0.50400001928E-02 0.  1.
       -1   -1    0    0    0  501  0.00000000000E+00  0.00000000000E+00 -0.10444378343E+04  0.10444378343E+04  0.50400001928E-02 0. -1.
    10030    2    1    2    0    0  0.00000000000E+00  0.00000000000E+00 -0.80496537517E+03  0.12839102935E+04  0.10002281672E+04 0.  0.
        1    1    3    3  502    0  0.34588211239E+02 -0.17072701427E+03 -0.10042378749E+04  0.10192339119E+04  0.50400001928E-02 0. -1.
       -1    1    3    3    0  502 -0.34588211239E+02  0.17072701427E+03  0.19927249976E+03  0.26467638154E+03  0.50400001928E-02 0.  1.
</event>
<event>
 5   0  0.2403037E-04  0.1000716E+04  0.7818609E-02  0.9307760E-01
        2   -1    0    0  501    0  0.00000000000E+00  0.00000000000E+00  0.12391709910E+04  0.12391709910E+04  0.25500000920E-02 0. -1.
       -2   -1    0    0    0  501  0.00000000000E+00  0.00000000000E+00 -0.20203662028E+03  0.20203662029E+03  0.25500000920E-02 0.  1.
    10030    2    1    2    0    0  0.00000000000E+00  0.00000000000E+00  0.10371343707E+04  0.14412076113E+04  0.10007155819E+04 0.  0.
        1    1    3    3  502    0  0.44365845547E+03  0.22262527200E+03  0.42790369800E+03  0.65535975741E+03  0.50400001928E-02 0.  1.
       -1    1    3    3    0  502 -0.44365845547E+03 -0.22262527200E+03  0.60923067273E+03  0.78584785389E+03  0.50400001928E-02 0. -1.
</event>
<event>
 5   0  0.1461334E-04  0.9997341E+03  0.7818609E-02  0.9308837E-01
        1   -1    0    0  501    0  0.00000000000E+00  0.00000000000E+00  0.62066240594E+03  0.62066240596E+03  0.50400001928E-02 0. -1.
       -1   -1    0    0    0  501  0.00000000000E+00  0.00000000000E+00 -0.40258124965E+03  0.40258124968E+03  0.50400001928E-02 0.  1.
    10030    2    1    2    0    0  0.00000000000E+00  0.00000000000E+00  0.21808115629E+03  0.10232436556E+04  0.99973405868E+03 0.  0.
        2    1    3    3  502    0 -0.26731805574E+03 -0.36441111236E+03  0.32763405741E+03  0.55821006558E+03  0.25500000920E-02 0. -1.
       -2    1    3    3    0  502  0.26731805574E+03  0.36441111236E+03 -0.10955290112E+03  0.46503359006E+03  0.25500000920E-02 0.  1.
</event>
<event>
 5   0  0.2473312E-04  0.9999016E+03  0.7818609E-02  0.9308653E-01
        2   -1    0    0  501    0  0.00000000000E+00  0.00000000000E+00  0.21082256958E+04  0.21082256958E+04  0.25500000920E-02 0. -1.
       -2   -1    0    0    0  501  0.00000000000E+00  0.00000000000E+00 -0.11855979258E+03  0.11855979261E+03  0.25500000920E-02 0.  1.
    10030    2    1    2    0    0  0.00000000000E+00  0.00000000000E+00  0.19896659032E+04  0.22267854884E+04  0.99990159762E+03 0.  0.
        5    1    3    3  502    0  0.10037451680E+03  0.29017621191E+03  0.11621983447E+03  0.32833887601E+03  0.46999998093E+01 0.  1.
       -5    1    3    3    0  502 -0.10037451680E+03 -0.29017621191E+03  0.18734460687E+04  0.18984466124E+04  0.46999998093E+01 0. -1.
</event>
<event>
 5   0  0.1461334E-04  0.1000186E+04  0.7818609E-02  0.9308341E-01
       -1   -1    0    0    0  501  0.00000000000E+00  0.00000000000E+00  0.24053114352E+03  0.24053114357E+03  0.50400001928E-02 0.  1.
        1   -1    0    0  501    0  0.00000000000E+00  0.00000000000E+00 -0.10397523703E+04  0.10397523703E+04  0.50400001928E-02 0. -1.
    10030    2    1    2    0    0  0.00000000000E+00  0.00000000000E+00 -0.79922122674E+03  0.12802835138E+04  0.10001856360E+04 0.  0.
        2    1    3    3  502    0 -0.26962929813E+03  0.38028615397E+03 -0.16787171431E+03  0.49547798113E+03  0.25500000920E-02 0.  1.
       -2    1    3    3    0  502  0.26962929813E+03 -0.38028615397E+03 -0.63134951243E+03  0.78480553271E+03  0.25500000920E-02 0. -1.
</event>
<event>
 5   0  0.1430675E-04  0.9991801E+03  0.7818609E-02  0.9309444E-01
        1   -1    0    0  501    0  0.00000000000E+00  0.00000000000E+00  0.82002200926E+03  0.82002200928E+03  0.50400001928E-02 0. -1.
       -1   -1    0    0    0  501  0.00000000000E+00  0.00000000000E+00 -0.30437016177E+03  0.30437016181E+03  0.50400001928E-02 0.  1.
    10030    2    1    2    0    0  0.00000000000E+00  0.00000000000E+00  0.51565184749E+03  0.11243921711E+04  0.99918012720E+03 0.  0.
        5    1    3    3  502    0  0.27132769053E+03 -0.41701494083E+03  0.30875142399E+03  0.58555077349E+03  0.46999998093E+01 0. -1.
       -5    1    3    3    0  502 -0.27132769053E+03  0.41701494083E+03  0.20690042350E+03  0.53884139760E+03  0.46999998093E+01 0.  1.
</event>
<event>
 5   0  0.1453863E-04  0.9991447E+03  0.7818609E-02  0.9309483E-01
       -1   -1    0    0    0  501  0.00000000000E+00  0.00000000000E+00  0.25141489072E+03  0.25141489077E+03  0.50400001928E-02 0.  1.
        1   -1    0    0  501    0  0.00000000000E+00  0.00000000000E+00 -0.99267212868E+03  0.99267212870E+03  0.50400001928E-02 0. -1.
    10030    2    1    2    0    0  0.00000000000E+00  0.00000000000E+00 -0.74125723796E+03  0.12440870195E+04  0.99914474386E+03 0.  0.
        1    1    3    3  502    0  0.20225980904E+03  0.80099503319E+02 -0.93059768032E+03  0.95568666593E+03  0.50400001928E-02 0. -1.
       -1    1    3    3    0  502 -0.20225980904E+03 -0.80099503319E+02  0.18934044236E+03  0.28840035354E+03  0.50400001928E-02 0.  1.
</event>
<event>
 5   0  0.2473312E-04  0.9999145E+03  0.7818609E-02  0.9308639E-01
       -2   -1    0    0    0  501  0.00000000000E+00  0.00000000000E+00  0.62628695631E+03  0.62628695632E+03  0.25500000920E-02 0. -1.
        2   -1    0    0  501    0  0.00000000000E+00  0.00000000000E+00 -0.39910975422E+03  0.39910975423E+03  0.25500000920E-02 0.  1.
    10030    2    1    2    0    0  0.00000000000E+00  0.00000000000E+00  0.22717720209E+03  0.10253967105E+04  0.99991446277E+03 0.  0.
        5    1    3    3  502    0 -0.22364182321E+03 -0.40229687983E+03 -0.86516754930E+02  0.46836490420E+03  0.46999998093E+01 0.  1.
       -5    1    3    3    0  502  0.22364182321E+03  0.40229687983E+03  0.31369395702E+03  0.55703180634E+03  0.46999998093E+01 0. -1.
</event>
<event>
 5   0  0.1461334E-04  0.9996687E+03  0.7818609E-02  0.9308908E-01
       -1   -1    0    0    0  501  0.00000000000E+00  0.00000000000E+00  0.15545656119E+03  0.15545656127E+03  0.50400001928E-02 0. -1.
        1   -1    0    0  501    0  0.00000000000E+00  0.00000000000E+00 -0.16071009748E+04  0.16071009748E+04  0.50400001928E-02 0.  1.
    10030    2    1    2    0    0  0.00000000000E+00  0.00000000000E+00 -0.14516444136E+04  0.17625575361E+04  0.99966872733E+03 0.  0.
        2    1    3    3  502    0  0.49552263318E+03 -0.16565877566E+02 -0.83757371659E+03  0.97331744001E+03  0.25500000920E-02 0.  1.
       -2    1    3    3    0  502 -0.49552263318E+03  0.16565877566E+02 -0.61407069702E+03  0.78924009607E+03  0.25500000920E-02 0. -1.
</event>
<event>
 5   0  0.1506454E-04  0.1000726E+04  0.7818609E-02  0.9307749E-01
        1   -1    0    0  501    0  0.00000000000E+00  0.00000000000E+00  0.12322098783E+04  0.12322098783E+04  0.50400001928E-02 0.  1.
       -1   -1    0    0    0  501  0.00000000000E+00  0.00000000000E+00 -0.20318224180E+03  0.20318224187E+03  0.50400001928E-02 0. -1.
    10030    2    1    2    0    0  0.00000000000E+00  0.00000000000E+00  0.10290276365E+04  0.14353921201E+04  0.10007260674E+04 0.  0.
        3    1    3    3  502    0  0.47112730154E+03  0.12168126824E+03  0.68176113777E+03  0.83759508384E+03  0.10100000352E+00 0. -1.
       -3    1    3    3    0  502 -0.47112730154E+03 -0.12168126824E+03  0.34726649868E+03  0.59779703630E+03  0.10100000352E+00 0.  1.
</event>
<event>
 5   0  0.2484904E-04  0.1000351E+04  0.7818609E-02  0.9308159E-01
        2   -1    0    0  501    0  0.00000000000E+00  0.00000000000E+00  0.64571147463E+03  0.64571147463E+03  0.25500000920E-02 0.  1.
       -2   -1    0    0    0  501  0.00000000000E+00  0.00000000000E+00 -0.38744197795E+03  0.38744197796E+03  0.25500000920E-02 0. -1.
    10030    2    1    2    0    0  0.00000000000E+00  0.00000000000E+00  0.25826949668E+03  0.10331534526E+04  0.10003514001E+04 0.  0.
        3    1    3    3  502    0 -0.40315853916E+03 -0.66683135603E+02  0.42702325054E+03  0.59104341209E+03  0.10100000352E+00 0.  1.
       -3    1    3    3    0  502  0.40315853916E+03  0.66683135603E+02 -0.16875375386E+03  0.44211004050E+03  0.10100000352E+00 0. -1.
</event>
<event>
 5   0  0.2473312E-04  0.1001424E+04  0.7818609E-02  0.9306984E-01
       -2   -1    0    0    0  501  0.00000000000E+00  0.00000000000E+00  0.41172695770E+03  0.41172695770E+03  0.25500000920E-02 0. -1.
        2   -1    0    0  501    0  0.00000000000E+00  0.00000000000E+00 -0.60892928551E+03  0.60892928552E+03  0.25500000920E-02 0.  1.
    10030    2    1    2    0    0  0.00000000000E+00  0.00000000000E+00 -0.19720232782E+03  0.10206562432E+04  0.10014241902E+04 0.  0.
        5    1    3    3  502    0 -0.13825827621E+02 -0.14272115958E+03  0.39033038874E+03  0.41586101678E+03  0.46999998093E+01 0. -1.
       -5    1    3    3    0  502  0.13825827621E+02  0.14272115958E+03 -0.58753271656E+03  0.60479522644E+03  0.46999998093E+01 0.  1.
</event>
<event>
 5   0  0.2403037E-04  0.1000029E+04  0.7818609E-02  0.9308514E-01
       -2   -1    0    0    0  501  0.00000000000E+00  0.00000000000E+00  0.19983623122E+03  0.19983623123E+03  0.25500000920E-02 0. -1.
        2   -1    0    0  501    0  0.00000000000E+00  0.00000000000E+00 -0.12510957727E+04  0.12510957727E+04  0.25500000920E-02 0.  1.
    10030    2    1    2    0    0  0.00000000000E+00  0.00000000000E+00 -0.10512595415E+04  0.14509320039E+04  0.10000285278E+04 0.  0.
        1    1    3    3  502    0  0.98816786189E+02 -0.42905669289E+03 -0.18179667014E+03  0.47634486693E+03  0.50400001928E-02 0. -1.
       -1    1    3    3    0  502 -0.98816786189E+02  0.42905669289E+03 -0.86946287136E+03  0.97458713702E+03  0.50400001928E-02 0.  1.
</event>
<event>
 5   0  0.1414165E-04  0.1006294E+04  0.7818609E-02  0.9301669E-01
       -1   -1    0    0    0  501  0.00000000000E+00  0.00000000000E+00  0.52839490555E+03  0.52839490558E+03  0.50400001928E-02 0.  1.
        1   -1    0    0  501    0  0.00000000000E+00  0.00000000000E+00 -0.47910530355E+03  0.47910530357E+03  0.50400001928E-02 0. -1.
    10030    2    1    2    0    0  0.00000000000E+00  0.00000000000E+00  0.49289602007E+02  0.10075002091E+04  0.10062937973E+04 0.  0.
        4    1    3    3  502    0 -0.13588884020E+03  0.31172805653E+03  0.39591956794E+03  0.52191385812E+03  0.12699999809E+01 0.  1.
       -4    1    3    3    0  502  0.13588884020E+03 -0.31172805653E+03 -0.34662996593E+03  0.48558635103E+03  0.12699999809E+01 0. -1.
</event>
<event>
 5   0  0.1506454E-04  0.1001364E+04  0.7818609E-02  0.9307050E-01
        1   -1    0    0  501    0  0.00000000000E+00  0.00000000000E+00  0.32419916321E+03  0.32419916324E+03  0.50400001928E-02 0. -1.
       -1   -1    0    0    0  501  0.00000000000E+00  0.00000000000E+00 -0.77323603319E+03  0.77323603320E+03  0.50400001928E-02 0.  1.
    10030    2    1    2    0    0  0.00000000000E+00  0.00000000000E+00 -0.44903686998E+03  0.10974351964E+04  0.10013640196E+04 0.  0.
        3    1    3    3  502    0 -0.41436252942E+03 -0.28065551314E+03 -0.20831326452E+03  0.54208693880E+03  0.10100000352E+00 0. -1.
       -3    1    3    3    0  502  0.41436252942E+03  0.28065551314E+03 -0.24072360546E+03  0.55534825764E+03  0.10100000352E+00 0.  1.
</event>
<event>
 5   0  0.1453863E-04  0.9999004E+03  0.7818609E-02  0.9308654E-01
       -1   -1    0    0    0  501  0.00000000000E+00  0.00000000000E+00  0.29309534346E+03  0.29309534350E+03  0.50400001928E-02 0.  1.
        1   -1    0    0  501    0  0.00000000000E+00  0.00000000000E+00 -0.85279490083E+03  0.85279490085E+03  0.50400001928E-02 0. -1.
    10030    2    1    2    0    0  0.00000000000E+00  0.00000000000E+00 -0.55969955737E+03  0.11458902444E+04  0.99990042383E+03 0.  0.
        1    1    3    3  502    0  0.12208767713E+03 -0.37508461042E+03 -0.63187342121E+03  0.74488783473E+03  0.50400001928E-02 0. -1.
       -1    1    3    3    0  502 -0.12208767713E+03  0.37508461042E+03  0.72173863833E+02  0.40100240962E+03  0.50400001928E-02 0.  1.
</event>
<event>
 5   0  0.2503680E-04  0.1000558E+04  0.7818609E-02  0.9307933E-01
       -2   -1    0    0    0  501  0.00000000000E+00  0.00000000000E+00  0.29085565307E+03  0.29085565309E+03  0.25500000920E-02 0. -1.
        2   -1    0    0  501    0  0.00000000000E+00  0.00000000000E+00 -0.86049270148E+03  0.86049270149E+03  0.25500000920E-02 0.  1.
    10030    2    1    2    0    0  0.00000000000E+00  0.00000000000E+00 -0.56963704841E+03  0.11513483546E+04  0.10005581775E+04 0.  0.
        2    1    3    3  502    0 -0.75565287271E+02  0.43698362469E+02 -0.85166187212E+03  0.85612359152E+03  0.25500000920E-02 0.  1.
       -2    1    3    3    0  502  0.75565287271E+02 -0.43698362469E+02  0.28202482371E+03  0.29522476305E+03  0.25500000920E-02 0. -1.
</event>
<event>
 5   0  0.1453863E-04  0.9991913E+03  0.7818609E-02  0.9309432E-01
        1   -1    0    0  501    0  0.00000000000E+00  0.00000000000E+00  0.39003694754E+03  0.39003694757E+03  0.50400001928E-02 0.  1.
       -1   -1    0    0    0  501  0.00000000000E+00  0.00000000000E+00 -0.63992865918E+03  0.63992865920E+03  0.50400001928E-02 0. -1.
    10030    2    1    2    0    0  0.00000000000E+00  0.00000000000E+00 -0.24989171164E+03  0.10299656068E+04  0.99919131480E+03 0.  0.
        1    1    3    3  502    0 -0.48263295377E+03 -0.66472647909E+02 -0.10891569926E+02  0.48731079129E+03  0.50400001928E-02 0. -1.
       -1    1    3    3    0  502  0.48263295377E+03  0.66472647909E+02 -0.23900014172E+03  0.54265481547E+03  0.50400001928E-02 0.  1.
</event>
<event>
 5   0  0.9650500E-05  0.1000099E+04  0.7818609E-02  0.9308436E-01
       -4   -1    0    0    0  501  0.00000000000E+00  0.00000000000E+00  0.14680039908E+04  0.14680045401E+04  0.12699999809E+01 0.  1.
        4   -1    0    0  501    0  0.00000000000E+00  0.00000000000E+00 -0.17033016306E+03  0.17033489762E+03  0.12699999809E+01 0. -1.
    10030    2    1    2    0    0  0.00000000000E+00  0.00000000000E+00  0.12976738277E+04  0.16383394377E+04  0.10000993701E+04 0.  0.
        2    1    3    3  502    0  0.12555647982E+03  0.39729632782E+03  0.11017590922E+04  0.11779142154E+04  0.25500000920E-02 0.  1.
       -2    1    3    3    0  502 -0.12555647982E+03 -0.39729632782E+03  0.19591473552E+03  0.46042522229E+03  0.25500000920E-02 0. -1.
</event>
<event>
 5   0  0.1414165E-04  0.9997566E+03  0.7818609E-02  0.9308812E-01
        1   -1    0    0  501    0  0.00000000000E+00  0.00000000000E+00  0.20453575504E+04  0.20453575505E+04  0.50400001928E-02 0.  1.
       -1   -1    0    0    0  501  0.00000000000E+00  0.00000000000E+00 -0.12216853365E+03  0.12216853375E+03  0.50400001928E-02 0. -1.
    10030    2    1    2    0    0  0.00000000000E+00  0.00000000000E+00  0.19231890168E+04  0.21675260842E+04  0.99975663607E+03 0.  0.
        4    1    3    3  502    0  0.17442579504E+03  0.12362477767E+03  0.19412316257E+04  0.19529693498E+04  0.12699999809E+01 0.  1.
       -4    1    3    3    0  502 -0.17442579504E+03 -0.12362477767E+03 -0.18042608949E+02  0.21455673438E+03  0.12699999809E+01 0. -1.
</event>
<event>
 5   0  0.2403037E-04  0.1000564E+04  0.7818609E-02  0.9307927E-01
        2   -1    0    0  501    0  0.00000000000E+00  0.00000000000E+00  0.11918215492E+04  0.11918215492E+04  0.25500000920E-02 0.  1.
       -2   -1    0    0    0  501  0.00000000000E+00  0.00000000000E+00 -0.20999952888E+03  0.20999952890E+03  0.25500000920E-02 0. -1.
    10030    2    1    2    0    0  0.00000000000E+00  0.00000000000E+00  0.98182202035E+03  0.14018210781E+04  0.10005637688E+04 0.  0.
        1    1    3    3  502    0  0.31568619111E+03 -0.72464706509E+02 -0.43271639008E+02  0.32677414175E+03  0.50400001928E-02 0. -1.
       -1    1    3    3    0  502 -0.31568619111E+03  0.72464706509E+02  0.10250936594E+04  0.10750469364E+04  0.50400001928E-02 0.  1.
</event>
<event>
 5   0  0.2484904E-04  0.1000172E+04  0.7818609E-02  0.9308356E-01
        2   -1    0    0  501    0  0.00000000000E+00  0.00000000000E+00  0.11392297013E+04  0.11392297013E+04  0.25500000920E-02 0.  1.
       -2   -1    0    0    0  501  0.00000000000E+00  0.00000000000E+00 -0.21952192757E+03  0.21952192758E+03  0.25500000920E-02 0. -1.
    10030    2    1    2    0    0  0.00000000000E+00  0.00000000000E+00  0.91970777371E+03  0.13587516289E+04  0.10001717852E+04 0.  0.
        3    1    3    3  502    0  0.16530657225E+02 -0.17295314159E+03 -0.17720258702E+03  0.24816691733E+03  0.10100000352E+00 0. -1.
       -3    1    3    3    0  502 -0.16530657225E+02  0.17295314159E+03  0.10969103607E+04  0.11105847115E+04  0.10100000352E+00 0.  1.
</event>
<event>
 5   0  0.1461334E-04  0.9979384E+03  0.7818609E-02  0.9310809E-01
        1   -1    0    0  501    0  0.00000000000E+00  0.00000000000E+00  0.63648669627E+03  0.63648669629E+03  0.50400001928E-02 0.  1.
       -1   -1    0    0    0  501  0.00000000000E+00  0.00000000000E+00 -0.39116333832E+03  0.39116333835E+03  0.50400001928E-02 0. -1.
    10030    2    1    2    0    0  0.00000000000E+00  0.00000000000E+00  0.24532335795E+03  0.10276500346E+04  0.99793839677E+03 0.  0.
        2    1    3    3  502    0 -0.27055608906E+02  0.44797850829E+03 -0.10189852928E+03  0.46021740530E+03  0.25500000920E-02 0. -1.
       -2    1    3    3    0  502  0.27055608906E+02 -0.44797850829E+03  0.34722188723E+03  0.56743262934E+03  0.25500000920E-02 0.  1.
</event>
<event>
 5   0  0.9650500E-05  0.1000777E+04  0.7818609E-02  0.9307693E-01
        3   -1    0    0  501    0  0.00000000000E+00  0.00000000000E+00  0.58686556865E+03  0.58686557735E+03  0.10100000352E+00 0. -1.
       -3   -1    0    0    0  501  0.00000000000E+00  0.00000000000E+00 -0.42665423386E+03  0.42665424581E+03  0.10100000352E+00 0.  1.
    10030    2    1    2    0    0  0.00000000000E+00  0.00000000000E+00  0.16021133480E+03  0.10135198232E+04  0.10007770781E+04 0.  0.
        2    1    3    3  502    0  0.20569468729E+03 -0.36679962387E+03 -0.19452317349E+03  0.46334817737E+03  0.25500000920E-02 0.  1.
       -2    1    3    3    0  502 -0.20569468729E+03  0.36679962387E+03  0.35473450828E+03  0.55017164578E+03  0.25500000920E-02 0. -1.
</event>
<event>
 5   0  0.1430675E-04  0.1000022E+04  0.7818609E-02  0.9308521E-01
       -1   -1    0    0    0  501  0.00000000000E+00  0.00000000000E+00  0.13566681890E+03  0.13566681899E+03  0.50400001928E-02 0. -1.
        1   -1    0    0  501    0  0.00000000000E+00  0.00000000000E+00 -0.18428312044E+04  0.18428312044E+04  0.50400001928E-02 0.  1.
    10030    2    1    2    0    0  0.00000000000E+00  0.00000000000E+00 -0.17071643855E+04  0.19784980234E+04  0.10000220945E+04 0.  0.
        5    1    3    3  502    0  0.28433051761E+03 -0.33812229911E+03 -0.13168043257E+04  0.13889442950E+04  0.46999998093E+01 0. -1.
       -5    1    3    3    0  502 -0.28433051761E+03  0.33812229911E+03 -0.39036005979E+03  0.58955372841E+03  0.46999998093E+01 0.  1.
</event>
<event>
 5   0  0.2473312E-04  0.1000079E+04  0.7818609E-02  0.9308458E-01
        2   -1    0    0  501    0  0.00000000000E+00  0.00000000000E+00  0.13220490737E+04  0.13220490737E+04  0.25500000920E-02 0.  1.
       -2   -1    0    0    0  501  0.00000000000E+00  0.00000000000E+00 -0.18913034495E+03  0.18913034497E+03  0.25500000920E-02 0. -1.
    10030    2    1    2    0    0  0.00000000000E+00  0.00000000000E+00  0.11329187287E+04  0.15111794186E+04  0.10000791916E+04 0.  0.
        5    1    3    3  502    0  0.89332318408E+02  0.34252742082E+03  0.11000843143E+04  0.11556439269E+04  0.46999998093E+01 0.  1.
       -5    1    3    3    0  502 -0.89332318408E+02 -0.34252742082E+03  0.32834414396E+02  0.35553549175E+03  0.46999998093E+01 0. -1.
</event>
<event>
 5   0  0.2403037E-04  0.1000289E+04  0.7818609E-02  0.9308227E-01
       -2   -1    0    0    0  501  0.00000000000E+00  0.00000000000E+00  0.30486534061E+03  0.30486534062E+03  0.25500000920E-02 0. -1.
        2   -1    0    0  501    0  0.00000000000E+00  0.00000000000E+00 -0.82050888700E+03  0.82050888700E+03  0.25500000920E-02 0.  1.
    10030    2    1    2    0    0  0.00000000000E+00  0.00000000000E+00 -0.51564354639E+03  0.11253742276E+04  0.10002894008E+04 0.  0.
        1    1    3    3  502    0  0.22369512642E+03 -0.41442270706E+03 -0.68362007347E+02  0.47587714148E+03  0.50400001928E-02 0. -1.
       -1    1    3    3    0  502 -0.22369512642E+03  0.41442270706E+03 -0.44728153904E+03  0.64949708614E+03  0.50400001928E-02 0.  1.
</event>
<event>
 5   0  0.1430675E-04  0.1000580E+04  0.7818609E-02  0.9307909E-01
        1   -1    0    0  501    0  0.00000000000E+00  0.00000000000E+00  0.62529135671E+03  0.62529135674E+03  0.50400001928E-02 0.  1.
       -1   -1    0    0    0  501  0.00000000000E+00  0.00000000000E+00 -0.40027730516E+03  0.40027730519E+03  0.50400001928E-02 0. -1.
    10030    2    1    2    0    0  0.00000000000E+00  0.00000000000E+00  0.22501405155E+03  0.10255686619E+04  0.10005797104E+04 0.  0.
        5    1    3    3  502    0 -0.26992068997E+03  0.40140102167E+03  0.24331838721E+03  0.54148489049E+03  0.46999998093E+01 0.  1.
       -5    1    3    3    0  502  0.26992068997E+03 -0.40140102167E+03 -0.18304335656E+02  0.48408377144E+03  0.46999998093E+01 0. -1.
</event>
<event>
 5   0  0.1461334E-04  0.1001830E+04  0.7818609E-02  0.9306540E-01
       -1   -1    0    0    0  501  0.00000000000E+00  0.00000000000E+00  0.14427504577E+03  0.14427504586E+03  0.50400001928E-02 0. -1.
        1   -1    0    0  501    0  0.00000000000E+00  0.00000000000E+00 -0.17391477078E+04  0.17391477078E+04  0.50400001928E-02 0.  1.
    10030    2    1    2    0    0  0.00000000000E+00  0.00000000000E+00 -0.15948726620E+04  0.18834227537E+04  0.10018295568E+04 0.  0.
        2    1    3    3  502    0 -0.77029351722E+02  0.21586725366E+03  0.39912969994E+02  0.23264831271E+03  0.25500000920E-02 0. -1.
       -2    1    3    3    0  502  0.77029351722E+02 -0.21586725366E+03 -0.16347856320E+04  0.16507744410E+04  0.25500000920E-02 0.  1.
</event>
<event>
 5   0  0.2353916E-04  0.1000160E+04  0.7818609E-02  0.9308369E-01
        2   -1    0    0  501    0  0.00000000000E+00  0.00000000000E+00  0.97905650863E+03  0.97905650864E+03  0.25500000920E-02 0. -1.
       -2   -1    0    0    0  501  0.00000000000E+00  0.00000000000E+00 -0.25542971105E+03  0.25542971107E+03  0.25500000920E-02 0.  1.
    10030    2    1    2    0    0  0.00000000000E+00  0.00000000000E+00  0.72362679758E+03  0.12344862197E+04  0.10001602294E+04 0.  0.
        4    1    3    3  502    0  0.14432090062E+03  0.26241641759E+03 -0.13249964724E+03  0.32748842422E+03  0.12699999809E+01 0.  1.
       -4    1    3    3    0  502 -0.14432090062E+03 -0.26241641759E+03  0.85612644483E+03  0.90699779548E+03  0.12699999809E+01 0. -1.
</event>
<event>
 5   0  0.2403037E-04  0.1000102E+04  0.7818609E-02  0.9308433E-01
       -2   -1    0    0    0  501  0.00000000000E+00  0.00000000000E+00  0.16205549775E+03  0.16205549777E+03  0.25500000920E-02 0. -1.
        2   -1    0    0  501    0  0.00000000000E+00  0.00000000000E+00 -0.15429971739E+04  0.15429971739E+04  0.25500000920E-02 0.  1.
    10030    2    1    2    0    0  0.00000000000E+00  0.00000000000E+00 -0.13809416761E+04  0.17050526717E+04  0.10001023449E+04 0.  0.
        1    1    3    3  502    0  0.40713529403E+03  0.11528129345E+03 -0.23618477641E+03  0.48459485439E+03  0.50400001928E-02 0.  1.
       -1    1    3    3    0  502 -0.40713529403E+03 -0.11528129345E+03 -0.11447568997E+04  0.12204578173E+04  0.50400001928E-02 0. -1.
</event>
<event>
 5   0  0.2473312E-04  0.1000284E+04  0.7818609E-02  0.9308233E-01
        2   -1    0    0  501    0  0.00000000000E+00  0.00000000000E+00  0.28524788715E+03  0.28524788716E+03  0.25500000920E-02 0. -1.
       -2   -1    0    0    0  501  0.00000000000E+00  0.00000000000E+00 -0.87692838066E+03  0.87692838067E+03  0.25500000920E-02 0.  1.
    10030    2    1    2    0    0  0.00000000000E+00  0.00000000000E+00 -0.59168049352E+03  0.11621762678E+04  0.10002838952E+04 0.  0.
        5    1    3    3  502    0 -0.18728496125E+03 -0.33144231154E+03  0.80981881268E+02  0.38924262058E+03  0.46999998093E+01 0. -1.
       -5    1    3    3    0  502  0.18728496125E+03  0.33144231154E+03 -0.67266237478E+03  0.77293364724E+03  0.46999998093E+01 0.  1.
</event>
<event>
 5   0  0.2473312E-04  0.1003075E+04  0.7818609E-02  0.9305178E-01
        2   -1    0    0  501    0  0.00000000000E+00  0.00000000000E+00  0.23790128390E+04  0.23790128390E+04  0.25500000920E-02 0. -1.
       -2   -1    0    0    0  501  0.00000000000E+00  0.00000000000E+00 -0.10573296968E+03  0.10573296971E+03  0.25500000920E-02 0.  1.
    10030    2    1    2    0    0  0.00000000000E+00  0.00000000000E+00  0.22732798693E+04  0.24847458087E+04  0.10030754556E+04 0.  0.
        5    1    3    3  502    0 -0.14999165267E+03  0.89844605755E+02  0.23010175451E+04  0.23076553863E+04  0.46999998093E+01 0. -1.
       -5    1    3    3    0  502  0.14999165267E+03 -0.89844605755E+02 -0.27737675778E+02  0.17709042241E+03  0.46999998093E+01 0.  1.
</event>
<event>
 5   0  0.2473312E-04  0.1000532E+04  0.7818609E-02  0.9307962E-01
       -2   -1    0    0    0  501  0.00000000000E+00  0.00000000000E+00  0.18861292826E+03  0.18861292828E+03  0.25500000920E-02 0.  1.
        2   -1    0    0  501    0  0.00000000000E+00  0.00000000000E+00 -0.13268763333E+04  0.13268763333E+04  0.25500000920E-02 0. -1.
    10030    2    1    2    0    0  0.00000000000E+00  0.00000000000E+00 -0.11382634050E+04  0.15154892616E+04  0.10005319199E+04 0.  0.
        5    1    3    3  502    0 -0.87637601471E+02  0.49016928798E+03 -0.49652698263E+03  0.70321221160E+03  0.46999998093E+01 0.  1.
       -5    1    3    3    0  502  0.87637601471E+02 -0.49016928798E+03 -0.64173642240E+03  0.81227704997E+03  0.46999998093E+01 0. -1.
</event>
<event>
 5   0  0.1430675E-04  0.9997713E+03  0.7818609E-02  0.9308796E-01
       -1   -1    0    0    0  501  0.00000000000E+00  0.00000000000E+00  0.90115354528E+03  0.90115354530E+03  0.50400001928E-02 0.  1.
        1   -1    0    0  501    0  0.00000000000E+00  0.00000000000E+00 -0.27729530474E+03  0.27729530478E+03  0.50400001928E-02 0. -1.
    10030    2    1    2    0    0  0.00000000000E+00  0.00000000000E+00  0.62385824054E+03  0.11784488501E+04  0.99977126782E+03 0.  0.
        5    1    3    3  502    0 -0.35698315325E+03 -0.34378442769E+03  0.38867131956E+03  0.62985092607E+03  0.46999998093E+01 0.  1.
       -5    1    3    3    0  502  0.35698315325E+03  0.34378442769E+03  0.23518692099E+03  0.54859792401E+03  0.46999998093E+01 0. -1.
</event>
<event>
 5   0  0.2403037E-04  0.1000483E+04  0.7818609E-02  0.9308015E-01
       -2   -1    0    0    0  501  0.00000000000E+00  0.00000000000E+00  0.28546028931E+03  0.28546028932E+03  0.25500000920E-02 0. -1.
        2   -1    0    0  501    0  0.00000000000E+00  0.00000000000E+00 -0.87662444613E+03  0.87662444613E+03  0.25500000920E-02 0.  1.
    10030    2    1    2    0    0  0.00000000000E+00  0.00000000000E+00 -0.59116415682E+03  0.11620847355E+04  0.10004828195E+04 0.  0.
        1    1    3    3  502    0 -0.15105211562E+03 -0.71724198908E+02 -0.84320133656E+03  0.85962177517E+03  0.50400001928E-02 0.  1.
       -1    1    3    3    0  502  0.15105211562E+03  0.71724198908E+02  0.25203717975E+03  0.30246296028E+03  0.50400001928E-02 0. -1.
</event>
<event>
 5   0  0.1461334E-04  0.9999576E+03  0.7818609E-02  0.9308591E-01
       -1   -1    0    0    0  501  0.00000000000E+00  0.00000000000E+00  0.46146890262E+03  0.46146890265E+03  0.50400001928E-02 0. -1.
        1   -1    0    0  501    0  0.00000000000E+00  0.00000000000E+00 -0.54170232984E+03  0.54170232986E+03  0.50400001928E-02 0.  1.
    10030    2    1    2    0    0  0.00000000000E+00  0.00000000000E+00 -0.80233427220E+02  0.10031712325E+04  0.99995755855E+03 0.  0.
        2    1    3    3  502    0 -0.48204717558E+03  0.11629665826E+03  0.23997891498E+02  0.49645774343E+03  0.25500000920E-02 0. -1.
       -2    1    3    3    0  502  0.48204717558E+03 -0.11629665826E+03 -0.10423131872E+03  0.50671348908E+03  0.25500000920E-02 0.  1.
</event>
<event>
 5   0  0.1461334E-04  0.1003820E+04  0.7818609E-02  0.9304365E-01
        1   -1    0    0  501    0  0.00000000000E+00  0.00000000000E+00  0.10575698450E+04  0.10575698451E+04  0.50400001928E-02 0. -1.
       -1   -1    0    0    0  501  0.00000000000E+00  0.00000000000E+00 -0.23820054903E+03  0.23820054908E+03  0.50400001928E-02 0.  1.
    10030    2    1    2    0    0  0.00000000000E+00  0.00000000000E+00  0.81936929601E+03  0.12957703941E+04  0.10038201388E+04 0.  0.
        2    1    3    3  502    0  0.10179185916E+03 -0.39118026220E+03  0.25608163074E+02  0.40501772572E+03  0.25500000920E-02 0. -1.
       -2    1    3    3    0  502 -0.10179185916E+03  0.39118026220E+03  0.79376113294E+03  0.89075266842E+03  0.25500000920E-02 0.  1.
</event>
<event>
 5   0  0.1506454E-04  0.1000689E+04  0.7818609E-02  0.9307790E-01
       -1   -1    0    0    0  501  0.00000000000E+00  0.00000000000E+00  0.84668324124E+03  0.84668324125E+03  0.50400001928E-02 0.  1.
        1   -1    0    0  501    0  0.00000000000E+00  0.00000000000E+00 -0.29567666604E+03  0.29567666608E+03  0.50400001928E-02 0. -1.
    10030    2    1    2    0    0  0.00000000000E+00  0.00000000000E+00  0.55100657520E+03  0.11423599073E+04  0.10006887188E+04 0.  0.
        3    1    3    3  502    0  0.39497546115E+03 -0.11816156034E+03 -0.48141808197E+02  0.41507278055E+03  0.10100000352E+00 0. -1.
       -3    1    3    3    0  502 -0.39497546115E+03  0.11816156034E+03  0.59914838340E+03  0.72728712678E+03  0.10100000352E+00 0.  1.
</event>
<event>
 5   0  0.2403037E-04  0.1006104E+04  0.7818609E-02  0.9301875E-01
       -2   -1    0    0    0  501  0.00000000000E+00  0.00000000000E+00  0.25392921067E+03  0.25392921069E+03  0.25500000920E-02 0. -1.
        2   -1    0    0  501    0  0.00000000000E+00  0.00000000000E+00 -0.99658190650E+03  0.99658190651E+03  0.25500000920E-02 0.  1.
    10030    2    1    2    0    0  0.00000000000E+00  0.00000000000E+00 -0.74265269583E+03  0.12505111172E+04  0.10061038851E+04 0.  0.
        1    1    3    3  502    0  0.42173465619E+03 -0.26562795711E+03 -0.28663470316E+03  0.57495894193E+03  0.50400001928E-02 0. -1.
       -1    1    3    3    0  502 -0.42173465619E+03  0.26562795711E+03 -0.45601799267E+03  0.67555217526E+03  0.50400001928E-02 0.  1.
</event>
<event>
 5   0  0.1414165E-04  0.1000681E+04  0.7818609E-02  0.9307798E-01
       -1   -1    0    0    0  501  0.00000000000E+00  0.00000000000E+00  0.29298833026E+03  0.29298833031E+03  0.50400001928E-02 0.  1.
        1   -1    0    0  501    0  0.00000000000E+00  0.00000000000E+00 -0.85443867798E+03  0.85443867799E+03  0.50400001928E-02 0. -1.
    10030    2    1    2    0    0  0.00000000000E+00  0.00000000000E+00 -0.56145034771E+03  0.11474270083E+04  0.10006808914E+04 0.  0.
        4    1    3    3  502    0  0.16928531000E+01  0.40794560942E+02  0.29107305546E+03  0.29392549816E+03  0.12699999809E+01 0.  1.
       -4    1    3    3    0  502 -0.16928531000E+01 -0.40794560942E+02 -0.85252340317E+03  0.85350151014E+03  0.12699999809E+01 0. -1.
</event>
<event>
 5   0  0.1414165E-04  0.9993865E+03  0.7818609E-02  0.9309218E-01
       -1   -1    0    0    0  501  0.00000000000E+00  0.00000000000E+00  0.97901908824E+03  0.97901908825E+03  0.50400001928E-02 0.  1.
        1   -1    0    0  501    0  0.00000000000E+00  0.00000000000E+00 -0.25504438439E+03  0.25504438444E+03  0.50400001928E-02 0. -1.
    10030    2    1    2    0    0  0.00000000000E+00  0.00000000000E+00  0.72397470385E+03  0.12340634727E+04  0.99938645319E+03 0.  0.
        4    1    3    3  502    0  0.20505813722E+03 -0.41383733652E+03  0.12645829045E+03  0.47885644285E+03  0.12699999809E+01 0.  1.
       -4    1    3    3    0  502 -0.20505813722E+03  0.41383733652E+03  0.59751641340E+03  0.75520702984E+03  0.12699999809E+01 0. -1.
</event>
<event>
 5   0  0.1430675E-04  0.1000045E+04  0.7818609E-02  0.9308495E-01
        1   -1    0    0  501    0  0.00000000000E+00  0.00000000000E+00  0.33952054768E+03  0.33952054772E+03  0.50400001928E-02 0.  1.
       -1   -1    0    0    0  501  0.00000000000E+00  0.00000000000E+00 -0.73639867304E+03  0.73639867306E+03  0.50400001928E-02 0. -1.
    10030    2    1    2    0    0  0.00000000000E+00  0.00000000000E+00 -0.39687812536E+03  0.10759192208E+04  0.10000449606E+04 0.  0.
        5    1    3    3  502    0 -0.38023874678E+03 -0.29588902853E+03 -0.54623783797E+02  0.48490996021E+03  0.46999998093E+01 0.  1.
       -5    1    3    3    0  502  0.38023874678E+03  0.29588902853E+03 -0.34225434156E+03  0.59100926057E+03  0.46999998093E+01 0. -1.
</event>
<event>
 5   0  0.2503680E-04  0.9988041E+03  0.7818609E-02  0.9309857E-01
        2   -1    0    0  501    0  0.00000000000E+00  0.00000000000E+00  0.25397782503E+04  0.25397782503E+04  0.25500000920E-02 0. -1.
       -2   -1    0    0    0  501  0.00000000000E+00  0.00000000000E+00 -0.98198492038E+02  0.98198492071E+02  0.25500000920E-02 0.  1.
    10030    2    1    2    0    0  0.00000000000E+00  0.00000000000E+00  0.24415797583E+04  0.26379767424E+04  0.99880407355E+03 0.  0.
        2    1    3    3  502    0  0.12048500023E+03 -0.51052757130E+02  0.24936948480E+04  0.24971257506E+04  0.25500000920E-02 0. -1.
       -2    1    3    3    0  502 -0.12048500023E+03  0.51052757130E+02 -0.52115089764E+02  0.14085099176E+03  0.25500000920E-02 0.  1.
</event>
<event>
 5   0  0.2353916E-04  0.1000099E+04  0.7818609E-02  0.9308436E-01
        2   -1    0    0  501    0  0.00000000000E+00  0.00000000000E+00  0.13403907523E+04  0.13403907523E+04  0.25500000920E-02 0. -1.
       -2   -1    0    0    0  501  0.00000000000E+00  0.00000000000E+00 -0.18654964126E+03  0.18654964128E+03  0.25500000920E-02 0.  1.
    10030    2    1    2    0    0  0.00000000000E+00  0.00000000000E+00  0.11538411110E+04  0.15269403936E+04  0.10000988231E+04 0.  0.
        4    1    3    3  502    0  0.23675835020E+03 -0.43289457807E+03  0.70091587778E+03  0.85716796063E+03  0.12699999809E+01 0. -1.
       -4    1    3    3    0  502 -0.23675835020E+03  0.43289457807E+03  0.45292523322E+03  0.66977243292E+03  0.12699999809E+01 0.  1.
</event>
<event>
 5   0  0.2473312E-04  0.1000266E+04  0.7818609E-02  0.9308253E-01
       -2   -1    0    0    0  501  0.00000000000E+00  0.00000000000E+00  0.14108899794E+03  0.14108899796E+03  0.25500000920E-02 0. -1.
        2   -1    0    0  501    0  0.00000000000E+00  0.00000000000E+00 -0.17728753237E+04  0.17728753237E+04  0.25500000920E-02 0.  1.
    10030    2    1    2    0    0  0.00000000000E+00  0.00000000000E+00 -0.16317863257E+04  0.19139643216E+04  0.10002663703E+04 0.  0.
        5    1    3    3  502    0 -0.11590838053E+03  0.27760612929E+03 -0.15803445052E+04  0.16087295487E+04  0.46999998093E+01 0.  1.
       -5    1    3    3    0  502  0.11590838053E+03 -0.27760612929E+03 -0.51441820495E+02  0.30523477291E+03  0.46999998093E+01 0. -1.
</event>
<event>
 5   0  0.2484904E-04  0.9991493E+03  0.7818609E-02  0.9309478E-01
       -2   -1    0    0    0  501  0.00000000000E+00  0.00000000000E+00  0.12175252161E+04  0.12175252161E+04  0.25500000920E-02 0.  1.
        2   -1    0    0  501    0  0.00000000000E+00  0.00000000000E+00 -0.20498535585E+03  0.20498535586E+03  0.25500000920E-02 0. -1.
    10030    2    1    2    0    0  0.00000000000E+00  0.00000000000E+00  0.10125398603E+04  0.14225105720E+04  0.99914931756E+03 0.  0.
        3    1    3    3  502    0 -0.19524970899E+03 -0.45887410465E+03  0.54867047367E+03  0.74143589855E+03  0.10100000352E+00 0. -1.
       -3    1    3    3    0  502  0.19524970899E+03  0.45887410465E+03  0.46386938663E+03  0.68107467346E+03  0.10100000352E+00 0.  1.
</event>
<event>
 5   0  0.2473312E-04  0.1000887E+04  0.7818609E-02  0.9307573E-01
       -2   -1    0    0    0  501  0.00000000000E+00  0.00000000000E+00  0.37162567163E+03  0.37162567164E+03  0.25500000920E-02 0. -1.
        2   -1    0    0  501    0  0.00000000000E+00  0.00000000000E+00 -0.67391326934E+03  0.67391326935E+03  0.25500000920E-02 0.  1.
    10030    2    1    2    0    0  0.00000000000E+00  0.00000000000E+00 -0.30228759771E+03  0.10455389410E+04  0.10008865497E+04 0.  0.
        5    1    3    3  502    0 -0.18509457552E+02  0.25712510130E+03  0.29690313461E+03  0.39322955011E+03  0.46999998093E+01 0. -1.
       -5    1    3    3    0  502  0.18509457552E+02 -0.25712510130E+03 -0.59919073232E+03  0.65230939088E+03  0.46999998093E+01 0.  1.
</event>
<event>
 5   0  0.2503680E-04  0.1000037E+04  0.7818609E-02  0.9308504E-01
        2   -1    0    0  501    0  0.00000000000E+00  0.00000000000E+00  0.90220398888E+03  0.90220398888E+03  0.25500000920E-02 0. -1.
       -2   -1    0    0    0  501  0.00000000000E+00  0.00000000000E+00 -0.27711982937E+03  0.27711982938E+03  0.25500000920E-02 0.  1.
    10030    2    1    2    0    0  0.00000000000E+00  0.00000000000E+00  0.62508415951E+03  0.11793238183E+04  0.10000372302E+04 0.  0.
        2    1    3    3  502    0  0.91969397445E+02 -0.42488418730E+03  0.21201048097E+02  0.43524065427E+03  0.25500000920E-02 0.  1.
       -2    1    3    3    0  502 -0.91969397445E+02  0.42488418730E+03  0.60388311141E+03  0.74408316399E+03  0.25500000920E-02 0. -1.
</event>
<event>
 5   0  0.1453863E-04  0.1000630E+04  0.7818609E-02  0.9307854E-01
       -1   -1    0    0    0  501  0.00000000000E+00  0.00000000000E+00  0.40579658110E+03  0.40579658113E+03  0.50400001928E-02 0. -1.
        1   -1    0    0  501    0  0.00000000000E+00  0.00000000000E+00 -0.61684920601E+03  0.61684920603E+03  0.50400001928E-02 0.  1.
    10030    2    1    2    0    0  0.00000000000E+00  0.00000000000E+00 -0.21105262491E+03  0.10226457872E+04  0.10006303991E+04 0.  0.
        1    1    3    3  502    0 -0.33042202169E+03 -0.28184147906E+02 -0.48839138009E+03  0.59033820712E+03  0.50400001928E-02 0.  1.
       -1    1    3    3    0  502  0.33042202169E+03  0.28184147906E+02  0.27733875518E+03  0.43230758004E+03  0.50400001928E-02 0. -1.
</event>
<event>
 5   0  0.1414165E-04  0.1000243E+04  0.7818609E-02  0.9308278E-01
        1   -1    0    0  501    0  0.00000000000E+00  0.00000000000E+00  0.45861207411E+03  0.45861207413E+03  0.50400001928E-02 0. -1.
       -1   -1    0    0    0  501  0.00000000000E+00  0.00000000000E+00 -0.54538808539E+03  0.54538808542E+03  0.50400001928E-02 0.  1.
    10030    2    1    2    0    0  0.00000000000E+00  0.00000000000E+00 -0.86776011285E+02  0.10040001595E+04  0.10002430926E+04 0.  0.
        4    1    3    3  502    0  0.45454468995E+03 -0.14596663814E+03 -0.19295378104E+03  0.51492709108E+03  0.12699999809E+01 0.  1.
       -4    1    3    3    0  502 -0.45454468995E+03  0.14596663814E+03  0.10617776975E+03  0.48907306847E+03  0.12699999809E+01 0. -1.
</event>
<event>
 5   0  0.2353916E-04  0.9993998E+03  0.7818609E-02  0.9309203E-01
        2   -1    0    0  501    0  0.00000000000E+00  0.00000000000E+00  0.73830879668E+03  0.73830879668E+03  0.25500000920E-02 0.  1.
       -2   -1    0    0    0  501  0.00000000000E+00  0.00000000000E+00 -0.33820538086E+03  0.33820538087E+03  0.25500000920E-02 0. -1.
    10030    2    1    2    0    0  0.00000000000E+00  0.00000000000E+00  0.40010341581E+03  0.10765141776E+04  0.99939983547E+03 0.  0.
        4    1    3    3  502    0 -0.22536581620E+03 -0.31977948182E+03 -0.13482180307E+03  0.41379608455E+03  0.12699999809E+01 0. -1.
       -4    1    3    3    0  502  0.22536581620E+03  0.31977948182E+03  0.53492521889E+03  0.66271809301E+03  0.12699999809E+01 0.  1.
</event>
<event>
 5   0  0.2353916E-04  0.1001252E+04  0.7818609E-02  0.9307172E-01
       -2   -1    0    0    0  501  0.00000000000E+00  0.00000000000E+00  0.14087675743E+03  0.14087675745E+03  0.25500000920E-02 0.  1.
        2   -1    0    0  501    0  0.00000000000E+00  0.00000000000E+00 -0.17790486348E+04  0.17790486349E+04  0.25500000920E-02 0. -1.
    10030    2    1    2    0    0  0.00000000000E+00  0.00000000000E+00 -0.16381718774E+04  0.19199253923E+04  0.10012524217E+04 0.  0.
        4    1    3    3  502    0 -0.10721945196E+03  0.11693277054E+03 -0.17295679904E+04  0.17368293900E+04  0.12699999809E+01 0. -1.
       -4    1    3    3    0  502  0.10721945196E+03 -0.11693277054E+03  0.91396112941E+02  0.18309600232E+03  0.12699999809E+01 0.  1.
</event>
<event>
 5   0  0.1461334E-04  0.1000350E+04  0.7818609E-02  0.9308161E-01
        1   -1    0    0  501    0  0.00000000000E+00  0.00000000000E+00  0.98132392466E+03  0.98132392467E+03  0.50400001928E-02 0. -1.
       -1   -1    0    0    0  501  0.00000000000E+00  0.00000000000E+00 -0.25493628288E+03  0.25493628293E+03  0.50400001928E-02 0.  1.
    10030    2    1    2    0    0  0.00000000000E+00  0.00000000000E+00  0.72638764178E+03  0.12362602076E+04  0.10003500861E+04 0.  0.
        2    1    3    3  502    0  0.32862931727E+03  0.36915337404E+03  0.26823889181E+03  0.56233757195E+03  0.25500000920E-02 0. -1.
       -2    1    3    3    0  502 -0.32862931727E+03 -0.36915337404E+03  0.45814874996E+03  0.67392263565E+03  0.25500000920E-02 0.  1.
</event>
<event>
 5   0  0.9650500E-05  0.1000152E+04  0.7818609E-02  0.9308378E-01
       -4   -1    0    0    0  501  0.00000000000E+00  0.00000000000E+00  0.24770742701E+03  0.24771068265E+03  0.12699999809E+01 0. -1.
        4   -1    0    0  501    0  0.00000000000E+00  0.00000000000E+00 -0.10095521149E+04  0.10095529137E+04  0.12699999809E+01 0.  1.
    10030    2    1    2    0    0  0.00000000000E+00  0.00000000000E+00 -0.76184468789E+03  0.12572635964E+04  0.10001521996E+04 0.  0.
        1    1    3    3  502    0 -0.42904142393E+03 -0.24527570769E+03 -0.47698264907E+03  0.68683998411E+03  0.50400001928E-02 0.  1.
       -1    1    3    3    0  502  0.42904142393E+03  0.24527570769E+03 -0.28486203882E+03  0.57042361226E+03  0.50400001928E-02 0. -1.
</event>
<event>
 5   0  0.2503680E-04  0.1000369E+04  0.7818609E-02  0.9308140E-01
        2   -1    0    0  501    0  0.00000000000E+00  0.00000000000E+00  0.11115909485E+04  0.11115909485E+04  0.25500000920E-02 0.  1.
       -2   -1    0    0    0  501  0.00000000000E+00  0.00000000000E+00 -0.22506886113E+03  0.22506886114E+03  0.25500000920E-02 0. -1.
    10030    2    1    2    0    0  0.00000000000E+00  0.00000000000E+00  0.88652208734E+03  0.13366598096E+04  0.10003689496E+04 0.  0.
        2    1    3    3  502    0 -0.74263227290E+02  0.49426878261E+03  0.41763405945E+03  0.65133314364E+03  0.25500000920E-02 0.  1.
       -2    1    3    3    0  502  0.74263227290E+02 -0.49426878261E+03  0.46888802789E+03  0.68532666598E+03  0.25500000920E-02 0. -1.
</event>
<event>
 5   0  0.2484904E-04  0.9999593E+03  0.7818609E-02  0.9308589E-01
       -2   -1    0    0    0  501  0.00000000000E+00  0.00000000000E+00  0.23509734905E+03  0.23509734906E+03  0.25500000920E-02 0.  1.
        2   -1    0    0  501    0  0.00000000000E+00  0.00000000000E+00 -0.10633028119E+04  0.10633028119E+04  0.25500000920E-02 0. -1.
    10030    2    1    2    0    0  0.00000000000E+00  0.00000000000E+00 -0.82820546288E+03  0.12984001610E+04  0.99995934384E+03 0.  0.
        3    1    3    3  502    0  0.18217462354E+03 -0.32920838776E+03  0.13429354591E+02  0.37649185090E+03  0.10100000352E+00 0. -1.
       -3    1    3    3    0  502 -0.18217462354E+03  0.32920838776E+03 -0.84163481747E+03  0.92190831009E+03  0.10100000352E+00 0.  1.
</event>
<event>
 5   0  0.9650500E-05  0.1000287E+04  0.7818609E-02  0.9308230E-01
       -3   -1    0    0    0  501  0.00000000000E+00  0.00000000000E+00  0.63909205465E+03  0.63909206263E+03  0.10100000352E+00 0. -1.
        3   -1    0    0  501    0  0.00000000000E+00  0.00000000000E+00 -0.39140434963E+03  0.39140436267E+03  0.10100000352E+00 0.  1.
    10030    2    1    2    0    0  0.00000000000E+00  0.00000000000E+00  0.24768770502E+03  0.10304964253E+04  0.10002868005E+04 0.  0.
        3    1    3    3  502    0 -0.40251799984E+03  0.79249047340E+02 -0.17087692584E+03  0.44440981727E+03  0.10100000352E+00 0.  1.
       -3    1    3    3    0  502  0.40251799984E+03 -0.79249047340E+02  0.41856463086E+03  0.58608660802E+03  0.10100000352E+00 0. -1.
</event>
<event>
 5   0  0.2503680E-04  0.1000153E+04  0.7818609E-02  0.9308377E-01
        2   -1    0    0  501    0  0.00000000000E+00  0.00000000000E+00  0.75419126621E+03  0.75419126622E+03  0.25500000920E-02 0.  1.
       -2   -1    0    0    0  501  0.00000000000E+00  0.00000000000E+00 -0.33158246438E+03  0.33158246439E+03  0.25500000920E-02 0. -1.
    10030    2    1    2    0    0  0.00000000000E+00  0.00000000000E+00  0.42260880184E+03  0.10857737306E+04  0.10001531856E+04 0.  0.
        2    1    3    3  502    0 -0.10064714984E+03  0.46017084646E+03  0.29033719537E+02  0.47194280753E+03  0.25500000920E-02 0. -1.
       -2    1    3    3    0  502  0.10064714984E+03 -0.46017084646E+03  0.39357508230E+03  0.61383092307E+03  0.25500000920E-02 0.  1.
</event>
<event>
 5   0  0.2403037E-04  0.9989449E+03  0.7818609E-02  0.9309703E-01
        2   -1    0    0  501    0  0.00000000000E+00  0.00000000000E+00  0.13403563744E+04  0.13403563744E+04  0.25500000920E-02 0.  1.
       -2   -1    0    0    0  501  0.00000000000E+00  0.00000000000E+00 -0.18612418673E+03  0.18612418674E+03  0.25500000920E-02 0. -1.
    10030    2    1    2    0    0  0.00000000000E+00  0.00000000000E+00  0.11542321876E+04  0.15264805611E+04  0.99894492365E+03 0.  0.
        1    1    3    3  502    0 -0.23884679120E+03  0.42425429649E+03  0.74750524259E+03  0.89207823955E+03  0.50400001928E-02 0. -1.
       -1    1    3    3    0  502  0.23884679120E+03 -0.42425429649E+03  0.40672694505E+03  0.63440232157E+03  0.50400001928E-02 0.  1.
</event>
<event>
 5   0  0.1506454E-04  0.9993268E+03  0.7818609E-02  0.9309283E-01
        1   -1    0    0  501    0  0.00000000000E+00  0.00000000000E+00  0.42129310925E+03  0.42129310928E+03  0.50400001928E-02 0. -1.
       -1   -1    0    0    0  501  0.00000000000E+00  0.00000000000E+00 -0.59261243068E+03  0.59261243070E+03  0.50400001928E-02 0.  1.
    10030    2    1    2    0    0  0.00000000000E+00  0.00000000000E+00 -0.17131932143E+03  0.10139055400E+04  0.99932684048E+03 0.  0.
        3    1    3    3  502    0 -0.35134615418E+03 -0.34522171753E+03 -0.52263059460E+00  0.49256719100E+03  0.10100000352E+00 0. -1.
       -3    1    3    3    0  502  0.35134615418E+03  0.34522171753E+03 -0.17079669083E+03  0.52133834897E+03  0.10100000352E+00 0.  1.
</event>
<event>
 5   0  0.2473312E-04  0.9997376E+03  0.7818609E-02  0.9308833E-01
       -2   -1    0    0    0  501  0.00000000000E+00  0.00000000000E+00  0.14310945487E+03  0.14310945489E+03  0.25500000920E-02 0. -1.
        2   -1    0    0  501    0  0.00000000000E+00  0.00000000000E+00 -0.17459979031E+04  0.17459979031E+04  0.25500000920E-02 0.  1.
    10030    2    1    2    0    0  0.00000000000E+00  0.00000000000E+00 -0.16028884482E+04  0.18891073580E+04  0.99973758183E+03 0.  0.
        5    1    3    3  502    0 -0.18734599852E+03  0.45596768321E+03 -0.64514688578E+03  0.81193697140E+03  0.46999998093E+01 0. -1.
       -5    1    3    3    0  502  0.18734599852E+03 -0.45596768321E+03 -0.95774156243E+03  0.10771703866E+04  0.46999998093E+01 0.  1.
</event>
<event>
 5   0  0.2353916E-04  0.9965807E+03  0.7818609E-02  0.9312303E-01
       -2   -1    0    0    0  501  0.00000000000E+00  0.00000000000E+00  0.18167184779E+03  0.18167184781E+03  0.25500000920E-02 0. -1.
        2   -1    0    0  501    0  0.00000000000E+00  0.00000000000E+00 -0.13667131047E+04  0.13667131047E+04  0.25500000920E-02 0.  1.
    10030    2    1    2    0    0  0.00000000000E+00  0.00000000000E+00 -0.11850412569E+04  0.15483849525E+04  0.99658074463E+03 0.  0.
        4    1    3    3  502    0 -0.38666721286E+03 -0.30097002761E+03 -0.73318981741E+03  0.88185226216E+03  0.12699999809E+01 0.  1.
       -4    1    3    3    0  502  0.38666721286E+03  0.30097002761E+03 -0.45185143949E+03  0.66653269034E+03  0.12699999809E+01 0. -1.
</event>
<event>
 5   0  0.2503680E-04  0.9998360E+03  0.7818609E-02  0.9308725E-01
        2   -1    0    0  501    0  0.00000000000E+00  0.00000000000E+00  0.29052786717E+04  0.29052786717E+04  0.25500000920E-02 0.  1.
       -2   -1    0    0    0  501  0.00000000000E+00  0.00000000000E+00 -0.86022046119E+02  0.86022046157E+02  0.25500000920E-02 0. -1.
    10030    2    1    2    0    0  0.00000000000E+00  0.00000000000E+00  0.28192566256E+04  0.29913007179E+04  0.99983601844E+03 0.  0.
        2    1    3    3  502    0 -0.27535725693E+03 -0.22268413108E+03  0.24653032975E+04  0.24906083975E+04  0.25500000920E-02 0.  1.
       -2    1    3    3    0  502  0.27535725693E+03  0.22268413108E+03  0.35395332812E+03  0.50069232037E+03  0.25500000920E-02 0. -1.
</event>
<event>
 5   0  0.1506454E-04  0.9999274E+03  0.7818609E-02  0.9308624E-01
        1   -1    0    0  501    0  0.00000000000E+00  0.00000000000E+00  0.41497373759E+03  0.41497373762E+03  0.50400001928E-02 0. -1.
       -1   -1    0    0    0  501  0.00000000000E+00  0.00000000000E+00 -0.60236029667E+03  0.60236029669E+03  0.50400001928E-02 0.  1.
    10030    2    1    2    0    0  0.00000000000E+00  0.00000000000E+00 -0.18738655909E+03  0.10173340343E+04  0.99992740479E+03 0.  0.
        3    1    3    3  502    0  0.36711273832E+02  0.32068504021E+03 -0.48214739539E+03  0.58021783299E+03  0.10100000352E+00 0.  1.
       -3    1    3    3    0  502 -0.36711273832E+02 -0.32068504021E+03  0.29476083630E+03  0.43711620132E+03  0.10100000352E+00 0. -1.
</event>
<event>
 5   0  0.1430675E-04  0.1000047E+04  0.7818609E-02  0.9308494E-01
        1   -1    0    0  501    0  0.00000000000E+00  0.00000000000E+00  0.39218760606E+03  0.39218760610E+03  0.50400001928E-02 0.  1.
       -1   -1    0    0    0  501  0.00000000000E+00  0.00000000000E+00 -0.63750959106E+03  0.63750959108E+03  0.50400001928E-02 0. -1.
    10030    2    1    2    0    0  0.00000000000E+00  0.00000000000E+00 -0.24532198499E+03  0.10296971972E+04  0.10000467197E+04 0.  0.
        5    1    3    3  502    0  0.19463085224E+03  0.36681759700E+03 -0.40942325998E+03  0.58316876968E+03  0.46999998093E+01 0. -1.
       -5    1    3    3    0  502 -0.19463085224E+03 -0.36681759700E+03  0.16410127499E+03  0.44652842750E+03  0.46999998093E+01 0.  1.
</event>
<event>
 5   0  0.2403037E-04  0.9996747E+03  0.7818609E-02  0.9308902E-01
        2   -1    0    0  501    0  0.00000000000E+00  0.00000000000E+00  0.99412840316E+03  0.99412840317E+03  0.25500000920E-02 0. -1.
       -2   -1    0    0    0  501  0.00000000000E+00  0.00000000000E+00 -0.25131296023E+03  0.25131296024E+03  0.25500000920E-02 0.  1.
    10030    2    1    2    0    0  0.00000000000E+00  0.00000000000E+00  0.74281544293E+03  0.12454413634E+04  0.99967465079E+03 0.  0.
        1    1    3    3  502    0 -0.13543846201E+03 -0.10977229130E+03 -0.21220705872E+03  0.27463679419E+03  0.50400001928E-02 0.  1.
       -1    1    3    3    0  502  0.13543846201E+03  0.10977229130E+03  0.95502250165E+03  0.97080456922E+03  0.50400001928E-02 0. -1.
</event>
<event>
 5   0  0.2473312E-04  0.1000040E+04  0.7818609E-02  0.9308501E-01
        2   -1    0    0  501    0  0.00000000000E+00  0.00000000000E+00  0.11843994167E+04  0.11843994167E+04  0.25500000920E-02 0.  1.
       -2   -1    0    0    0  501  0.00000000000E+00  0.00000000000E+00 -0.21109430926E+03  0.21109430928E+03  0.25500000920E-02 0. -1.
    10030    2    1    2    0    0  0.00000000000E+00  0.00000000000E+00  0.97330510739E+03  0.13954937259E+04  0.10000399527E+04 0.  0.
        5    1    3    3  502    0  0.88446969376E+02 -0.22060094357E+03 -0.12719781032E+03  0.26960900512E+03  0.46999998093E+01 0. -1.
       -5    1    3    3    0  502 -0.88446969376E+02  0.22060094357E+03  0.11005029177E+04  0.11258847208E+04  0.46999998093E+01 0.  1.
</event>
<event>
 5   0  0.2473312E-04  0.1002670E+04  0.7818609E-02  0.9305622E-01
       -2   -1    0    0    0  501  0.00000000000E+00  0.00000000000E+00  0.13812416065E+03  0.13812416067E+03  0.25500000920E-02 0. -1.
        2   -1    0    0  501    0  0.00000000000E+00  0.00000000000E+00 -0.18196428295E+04  0.18196428295E+04  0.25500000920E-02 0.  1.
    10030    2    1    2    0    0  0.00000000000E+00  0.00000000000E+00 -0.16815186688E+04  0.19577669902E+04  0.10026697134E+04 0.  0.
        5    1    3    3  502    0  0.23264586770E+03 -0.15002191460E+03 -0.24685389785E+02  0.27796066823E+03  0.46999998093E+01 0. -1.
       -5    1    3    3    0  502 -0.23264586770E+03  0.15002191460E+03 -0.16568332791E+04  0.16798063219E+04  0.46999998093E+01 0.  1.
</event>
<event>
 5   0  0.1414165E-04  0.9997518E+03  0.7818609E-02  0.9308817E-01
       -1   -1    0    0    0  501  0.00000000000E+00  0.00000000000E+00  0.41405837934E+03  0.41405837937E+03  0.50400001928E-02 0.  1.
        1   -1    0    0  501    0  0.00000000000E+00  0.00000000000E+00 -0.60347988957E+03  0.60347988959E+03  0.50400001928E-02 0. -1.
    10030    2    1    2    0    0  0.00000000000E+00  0.00000000000E+00 -0.18942151023E+03  0.10175382690E+04  0.99975177933E+03 0.  0.
        4    1    3    3  502    0 -0.26290694364E+03  0.27503146957E+03 -0.42468842727E+03  0.57019667083E+03  0.12699999809E+01 0. -1.
       -4    1    3    3    0  502  0.26290694364E+03 -0.27503146957E+03  0.23526691705E+03  0.44734159813E+03  0.12699999809E+01 0.  1.
</event>
<event>
 5   0  0.1414165E-04  0.1000018E+04  0.7818609E-02  0.9308525E-01
       -1   -1    0    0    0  501  0.00000000000E+00  0.00000000000E+00  0.44286514051E+03  0.44286514054E+03  0.50400001928E-02 0. -1.
        1   -1    0    0  501    0  0.00000000000E+00  0.00000000000E+00 -0.56452672453E+03  0.56452672455E+03  0.50400001928E-02 0.  1.
    10030    2    1    2    0    0  0.00000000000E+00  0.00000000000E+00 -0.12166158402E+03  0.10073918651E+04  0.10000184142E+04 0.  0.
        4    1    3    3  502    0  0.42671959152E+03 -0.81174875381E+02 -0.31030293243E+03  0.53382440273E+03  0.12699999809E+01 0.  1.
       -4    1    3    3    0  502 -0.42671959152E+03  0.81174875381E+02  0.18864134841E+03  0.47356746236E+03  0.12699999809E+01 0. -1.
</event>
<event>
 5   0  0.1461334E-04  0.9993607E+03  0.7818609E-02  0.9309246E-01
        1   -1    0    0  501    0  0.00000000000E+00  0.00000000000E+00  0.10839348643E+04  0.10839348643E+04  0.50400001928E-02 0.  1.
       -1   -1    0    0    0  501  0.00000000000E+00  0.00000000000E+00 -0.23034634430E+03  0.23034634436E+03  0.50400001928E-02 0. -1.
    10030    2    1    2    0    0  0.00000000000E+00  0.00000000000E+00  0.85358852002E+03  0.13142812087E+04  0.99936066262E+03 0.  0.
        2    1    3    3  502    0  0.29856679502E+03 -0.22883033490E+03 -0.57489114688E+01  0.37621603269E+03  0.25500000920E-02 0. -1.
       -2    1    3    3    0  502 -0.29856679502E+03  0.22883033490E+03  0.85933743149E+03  0.93806517600E+03  0.25500000920E-02 0.  1.
</event>
<event>
 5   0  0.2403037E-04  0.1000077E+04  0.7818609E-02  0.9308461E-01
        2   -1    0    0  501    0  0.00000000000E+00  0.00000000000E+00  0.44175659743E+03  0.44175659744E+03  0.25500000920E-02 0. -1.
       -2   -1    0    0    0  501  0.00000000000E+00  0.00000000000E+00 -0.56600939139E+03  0.56600939140E+03  0.25500000920E-02 0.  1.
    10030    2    1    2    0    0  0.00000000000E+00  0.00000000000E+00 -0.12425279396E+03  0.10077659888E+04  0.10000767628E+04 0.  0.
        1    1    3    3  502    0 -0.48030593010E+03  0.10835112569E+03 -0.15000141005E+03  0.51471756913E+03  0.50400001928E-02 0.  1.
       -1    1    3    3    0  502  0.48030593010E+03 -0.10835112569E+03  0.25748616086E+02  0.49304841971E+03  0.50400001928E-02 0. -1.
</event>
<event>
 5   0  0.2473312E-04  0.1000209E+04  0.7818609E-02  0.9308315E-01
       -2   -1    0    0    0  501  0.00000000000E+00  0.00000000000E+00  0.64355466658E+03  0.64355466658E+03  0.25500000920E-02 0.  1.
        2   -1    0    0  501    0  0.00000000000E+00  0.00000000000E+00 -0.38862986455E+03  0.38862986456E+03  0.25500000920E-02 0. -1.
    10030    2    1    2    0    0  0.00000000000E+00  0.00000000000E+00  0.25492480202E+03  0.10321845311E+04  0.10002091040E+04 0.  0.
        5    1    3    3  502    0  0.21320536708E+03  0.31350166207E+03 -0.20906488792E+03  0.43297810341E+03  0.46999998093E+01 0. -1.
       -5    1    3    3    0  502 -0.21320536708E+03 -0.31350166207E+03  0.46398968994E+03  0.59920642774E+03  0.46999998093E+01 0.  1.
</event>
<event>
 5   0  0.2484904E-04  0.9978148E+03  0.7818609E-02  0.9310945E-01
       -2   -1    0    0    0  501  0.00000000000E+00  0.00000000000E+00  0.25582594969E+03  0.25582594970E+03  0.25500000920E-02 0. -1.
        2   -1    0    0  501    0  0.00000000000E+00  0.00000000000E+00 -0.97296079007E+03  0.97296079007E+03  0.25500000920E-02 0.  1.
    10030    2    1    2    0    0  0.00000000000E+00  0.00000000000E+00 -0.71713484038E+03  0.12287867398E+04  0.99781484884E+03 0.  0.
        3    1    3    3  502    0  0.35410796526E+03  0.26671879884E+03 -0.76730518934E+02  0.44990993704E+03  0.10100000352E+00 0. -1.
       -3    1    3    3    0  502 -0.35410796526E+03 -0.26671879884E+03 -0.64040432144E+03  0.77887680273E+03  0.10100000352E+00 0.  1.
</event>
<event>
 5   0  0.1414165E-04  0.9998684E+03  0.7818609E-02  0.9308689E-01
        1   -1    0    0  501    0  0.00000000000E+00  0.00000000000E+00  0.72195786146E+03  0.72195786148E+03  0.50400001928E-02 0.  1.
       -1   -1    0    0    0  501  0.00000000000E+00  0.00000000000E+00 -0.34618947473E+03  0.34618947477E+03  0.50400001928E-02 0. -1.
    10030    2    1    2    0    0  0.00000000000E+00  0.00000000000E+00  0.37576838673E+03  0.10681473362E+04  0.99986841708E+03 0.  0.
        4    1    3    3  502    0 -0.42307433167E+03 -0.17070231413E+03 -0.30531520167E+02  0.45723621553E+03  0.12699999809E+01 0.  1.
       -4    1    3    3    0  502  0.42307433167E+03  0.17070231413E+03  0.40629990690E+03  0.61091112072E+03  0.12699999809E+01 0. -1.
</event>
<event>
 5   0  0.2403037E-04  0.9994738E+03  0.7818609E-02  0.9309122E-01
       -2   -1    0    0    0  501  0.00000000000E+00  0.00000000000E+00  0.20973486429E+03  0.20973486431E+03  0.25500000920E-02 0. -1.
        2   -1    0    0  501    0  0.00000000000E+00  0.00000000000E+00 -0.11907271272E+04  0.11907271272E+04  0.25500000920E-02 0.  1.
    10030    2    1    2    0    0  0.00000000000E+00  0.00000000000E+00 -0.98099226286E+03  0.14004619915E+04  0.99947384645E+03 0.  0.
        1    1    3    3  502    0 -0.45503367746E+03 -0.12092622435E+03 -0.25578713214E+03  0.53582259784E+03  0.50400001928E-02 0. -1.
       -1    1    3    3    0  502  0.45503367746E+03  0.12092622435E+03 -0.72520513072E+03  0.86463939363E+03  0.50400001928E-02 0.  1.
</event>
<event>
 5   0  0.1414165E-04  0.1000097E+04  0.7818609E-02  0.9308438E-01
       -1   -1    0    0    0  501  0.00000000000E+00  0.00000000000E+00  0.35448427667E+03  0.35448427670E+03  0.50400001928E-02 0. -1.
        1   -1    0    0  501    0  0.00000000000E+00  0.00000000000E+00 -0.70538699238E+03  0.70538699240E+03  0.50400001928E-02 0.  1.
    10030    2    1    2    0    0  0.00000000000E+00  0.00000000000E+00 -0.35090271571E+03  0.10598712691E+04  0.10000971909E+04 0.  0.
        4    1    3    3  502    0  0.24648001349E+03 -0.76814457204E+02 -0.62929224968E+03  0.68019350651E+03  0.12699999809E+01 0.  1.
       -4    1    3    3    0  502 -0.24648001349E+03  0.76814457204E+02  0.27838953397E+03  0.37967776259E+03  0.12699999809E+01 0. -1.
</event>
<event>
 5   0  0.2484904E-04  0.9998235E+03  0.7818609E-02  0.9308738E-01
        2   -1    0    0  501    0  0.00000000000E+00  0.00000000000E+00  0.17392104730E+04  0.17392104730E+04  0.25500000920E-02 0.  1.
       -2   -1    0    0    0  501  0.00000000000E+00  0.00000000000E+00 -0.14369266125E+03  0.14369266128E+03  0.25500000920E-02 0. -1.
    10030    2    1    2    0    0  0.00000000000E+00  0.00000000000E+00  0.15955178117E+04  0.18829031343E+04  0.99982354717E+03 0.  0.
        3    1    3    3  502    0 -0.15751538186E+03  0.19138549051E+03  0.16153353081E+04  0.16342422309E+04  0.10100000352E+00 0.  1.
       -3    1    3    3    0  502  0.15751538186E+03 -0.19138549051E+03 -0.19817496355E+02  0.24866090336E+03  0.10100000352E+00 0. -1.
</event>
<event>
 5   0  0.2353916E-04  0.9975945E+03  0.7818609E-02  0.9311187E-01
        2   -1    0    0  501    0  0.00000000000E+00  0.00000000000E+00  0.97301367554E+03  0.97301367555E+03  0.25500000920E-02 0.  1.
       -2   -1    0    0    0  501  0.00000000000E+00  0.00000000000E+00 -0.25569905055E+03  0.25569905057E+03  0.25500000920E-02 0. -1.
    10030    2    1    2    0    0  0.00000000000E+00  0.00000000000E+00  0.71731462499E+03  0.12287127261E+04  0.99759445271E+03 0.  0.
        4    1    3    3  502    0 -0.20502263271E+03 -0.36219389722E+03  0.20050987936E+02  0.41668015807E+03  0.12699999809E+01 0. -1.
       -4    1    3    3    0  502  0.20502263271E+03  0.36219389722E+03  0.69726363705E+03  0.81203256805E+03  0.12699999809E+01 0.  1.
</event>
<event>
 5   0  0.1453863E-04  0.9999394E+03  0.7818609E-02  0.9308611E-01
       -1   -1    0    0    0  501  0.00000000000E+00  0.00000000000E+00  0.32436302485E+03  0.32436302488E+03  0.50400001928E-02 0.  1.
        1   -1    0    0  501    0  0.00000000000E+00  0.00000000000E+00 -0.77064792920E+03  0.77064792921E+03  0.50400001928E-02 0. -1.
    10030    2    1    2    0    0  0.00000000000E+00  0.00000000000E+00 -0.44628490435E+03  0.10950109541E+04  0.99993938503E+03 0.  0.
        1    1    3    3  502    0  0.64884429169E+02  0.41754754695E+03  0.69498909950E+02  0.42823596489E+03  0.50400001928E-02 0.  1.
       -1    1    3    3    0  502 -0.64884429169E+02 -0.41754754695E+03 -0.51578381430E+03  0.66677498921E+03  0.50400001928E-02 0. -1.
</event>
<event>
 5   0  0.2403037E-04  0.9997943E+03  0.7818609E-02  0.9308770E-01
       -2   -1    0    0    0  501  0.00000000000E+00  0.00000000000E+00  0.33491175309E+03  0.33491175309E+03  0.25500000920E-02 0. -1.
        2   -1    0    0  501    0  0.00000000000E+00  0.00000000000E+00 -0.74615816450E+03  0.74615816450E+03  0.25500000920E-02 0.  1.
    10030    2    1    2    0    0  0.00000000000E+00  0.00000000000E+00 -0.41124641141E+03  0.10810699176E+04  0.99979425675E+03 0.  0.
        1    1    3    3  502    0 -0.83313518450E+02  0.21213716933E+03 -0.68671182823E+03  0.72354437046E+03  0.50400001928E-02 0.  1.
       -1    1    3    3    0  502  0.83313518450E+02 -0.21213716933E+03  0.27546541681E+03  0.35752554714E+03  0.50400001928E-02 0. -1.
</event>
<event>
 5   0  0.1506454E-04  0.1000388E+04  0.7818609E-02  0.9308119E-01
        1   -1    0    0  501    0  0.00000000000E+00  0.00000000000E+00  0.85113720231E+03  0.85113720232E+03  0.50400001928E-02 0.  1.
       -1   -1    0    0    0  501  0.00000000000E+00  0.00000000000E+00 -0.29395269990E+03  0.29395269994E+03  0.50400001928E-02 0. -1.
    10030    2    1    2    0    0  0.00000000000E+00  0.00000000000E+00  0.55718450241E+03  0.11450899023E+04  0.10003880820E+04 0.  0.
        3    1    3    3  502    0 -0.14320427054E+03  0.89027907453E+02  0.81762270954E+03  0.83482952557E+03  0.10100000352E+00 0.  1.
       -3    1    3    3    0  502  0.14320427054E+03 -0.89027907453E+02 -0.26043820714E+03  0.31026037669E+03  0.10100000352E+00 0. -1.
</event>
<event>
 5   0  0.1430675E-04  0.9998328E+03  0.7818609E-02  0.9308728E-01
       -1   -1    0    0    0  501  0.00000000000E+00  0.00000000000E+00  0.18338014349E+03  0.18338014356E+03  0.50400001928E-02 0.  1.
        1   -1    0    0  501    0  0.00000000000E+00  0.00000000000E+00 -0.13628325496E+04  0.13628325496E+04  0.50400001928E-02 0. -1.
    10030    2    1    2    0    0  0.00000000000E+00  0.00000000000E+00 -0.11794524061E+04  0.15462126931E+04  0.99983284315E+03 0.  0.
        5    1    3    3  502    0  0.76906475576E+01  0.47482757455E+03 -0.34828858131E+03  0.58893751577E+03  0.46999998093E+01 0.  1.
       -5    1    3    3    0  502 -0.76906475576E+01 -0.47482757455E+03 -0.83116382477E+03  0.95727517737E+03  0.46999998093E+01 0. -1.
</event>
<event>
 5   0  0.1414165E-04  0.9998438E+03  0.7818609E-02  0.9308716E-01
       -1   -1    0    0    0  501  0.00000000000E+00  0.00000000000E+00  0.23977075461E+03  0.23977075467E+03  0.50400001928E-02 0.  1.
        1   -1    0    0  501    0  0.00000000000E+00  0.00000000000E+00 -0.10423369888E+04  0.10423369888E+04  0.50400001928E-02 0. -1.
    10030    2    1    2    0    0  0.00000000000E+00  0.00000000000E+00 -0.80256623419E+03  0.12821077435E+04  0.99984384062E+03 0.  0.
        4    1    3    3  502    0 -0.16907044168E+03  0.39765109818E+03 -0.72367356274E+03  0.84286193913E+03  0.12699999809E+01 0.  1.
       -4    1    3    3    0  502  0.16907044168E+03 -0.39765109818E+03 -0.78892671451E+02  0.43924580435E+03  0.12699999809E+01 0. -1.
</event>
<event>
 5   0  0.1506454E-04  0.9999909E+03  0.7818609E-02  0.9308555E-01
        1   -1    0    0  501    0  0.00000000000E+00  0.00000000000E+00  0.11726527933E+04  0.11726527933E+04  0.50400001928E-02 0.  1.
       -1   -1    0    0    0  501  0.00000000000E+00  0.00000000000E+00 -0.21318797392E+03  0.21318797398E+03  0.50400001928E-02 0. -1.
    10030    2    1    2    0    0  0.00000000000E+00  0.00000000000E+00  0.95946481936E+03  0.13858407673E+04  0.99999094629E+03 0.  0.
        3    1    3    3  502    0  0.85590584747E+02  0.27328214103E+03  0.10477405595E+04  0.10861717944E+04  0.10100000352E+00 0.  1.
       -3    1    3    3    0  502 -0.85590584747E+02 -0.27328214103E+03 -0.88275740114E+02  0.29966897287E+03  0.10100000352E+00 0. -1.
</event>
<event>
 5   0  0.1506454E-04  0.9997779E+03  0.7818609E-02  0.9308788E-01
       -1   -1    0    0    0  501  0.00000000000E+00  0.00000000000E+00  0.20905585634E+03  0.20905585640E+03  0.50400001928E-02 0.  1.
        1   -1    0    0  501    0  0.00000000000E+00  0.00000000000E+00 -0.11953215315E+04  0.11953215316E+04  0.50400001928E-02 0. -1.
    10030    2    1    2    0    0  0.00000000000E+00  0.00000000000E+00 -0.98626567521E+03  0.14043773880E+04  0.99977790820E+03 0.  0.
        3    1    3    3  502    0  0.25389434213E+03 -0.17218255794E+03  0.61283275334E+02  0.31283353442E+03  0.10100000352E+00 0.  1.
       -3    1    3    3    0  502 -0.25389434213E+03  0.17218255794E+03 -0.10475489505E+04  0.10915438535E+04  0.10100000352E+00 0. -1.
</event>
<event>
 5   0  0.1414165E-04  0.9999063E+03  0.7818609E-02  0.9308648E-01
       -1   -1    0    0    0  501  0.00000000000E+00  0.00000000000E+00  0.30636717475E+03  0.30636717480E+03  0.50400001928E-02 0. -1.
        1   -1    0    0  501    0  0.00000000000E+00  0.00000000000E+00 -0.81586135445E+03  0.81586135446E+03  0.50400001928E-02 0.  1.
    10030    2    1    2    0    0  0.00000000000E+00  0.00000000000E+00 -0.50949417969E+03  0.11222285293E+04  0.99990627198E+03 0.  0.
        4    1    3    3  502    0 -0.14824153294E+03  0.42255406869E+02 -0.78852321975E+03  0.80344978218E+03  0.12699999809E+01 0.  1.
       -4    1    3    3    0  502  0.14824153294E+03 -0.42255406869E+02  0.27902904005E+03  0.31877874708E+03  0.12699999809E+01 0. -1.
</event>
<event>
 5   0  0.1506454E-04  0.9999865E+03  0.7818609E-02  0.9308560E-01
       -1   -1    0    0    0  501  0.00000000000E+00  0.00000000000E+00  0.56585080731E+03  0.56585080733E+03  0.50400001928E-02 0. -1.
        1   -1    0    0  501    0  0.00000000000E+00  0.00000000000E+00 -0.44180060506E+03  0.44180060509E+03  0.50400001928E-02 0.  1.
    10030    2    1    2    0    0  0.00000000000E+00  0.00000000000E+00  0.12405020225E+03  0.10076514124E+04  0.99998645804E+03 0.  0.
        3    1    3    3  502    0 -0.40373089237E+03  0.27363490593E+03  0.17295306897E+03  0.51748185423E+03  0.10100000352E+00 0. -1.
       -3    1    3    3    0  502  0.40373089237E+03 -0.27363490593E+03 -0.48902866724E+02  0.49016955818E+03  0.10100000352E+00 0.  1.
</event>
<event>
 5   0  0.1453863E-04  0.9998353E+03  0.7818609E-02  0.9308725E-01
        1   -1    0    0  501    0  0.00000000000E+00  0.00000000000E+00  0.87810996271E+03  0.87810996272E+03  0.50400001928E-02 0.  1.
       -1   -1    0    0    0  501  0.00000000000E+00  0.00000000000E+00 -0.28460862379E+03  0.28460862383E+03  0.50400001928E-02 0. -1.
    10030    2    1    2    0    0  0.00000000000E+00  0.00000000000E+00  0.59350133892E+03  0.11627185866E+04  0.99983532255E+03 0.  0.
        1    1    3    3  502    0  0.39970967139E+02  0.15232528108E+03  0.84851075993E+03  0.86300126257E+03  0.50400001928E-02 0.  1.
       -1    1    3    3    0  502 -0.39970967139E+02 -0.15232528108E+03 -0.25500942100E+03  0.29971732398E+03  0.50400001928E-02 0. -1.
</event>
<event>
 5   0  0.1430675E-04  0.9995994E+03  0.7818609E-02  0.9308984E-01
        1   -1    0    0  501    0  0.00000000000E+00  0.00000000000E+00  0.37572977292E+03  0.37572977295E+03  0.50400001928E-02 0.  1.
       -1   -1    0    0    0  501  0.00000000000E+00  0.00000000000E+00 -0.66483877482E+03  0.66483877484E+03  0.50400001928E-02 0. -1.
    10030    2    1    2    0    0  0.00000000000E+00  0.00000000000E+00 -0.28910900190E+03  0.10405685478E+04  0.99959936358E+03 0.  0.
        5    1    3    3  502    0  0.32394758617E+03  0.20141049728E+03 -0.48069680403E+03  0.61367722330E+03  0.46999998093E+01 0. -1.
       -5    1    3    3    0  502 -0.32394758617E+03 -0.20141049728E+03  0.19158780213E+03  0.42689132449E+03  0.46999998093E+01 0.  1.
</event>
<event>
 5   0  0.2484904E-04  0.1000198E+04  0.7818609E-02  0.9308328E-01
       -2   -1    0    0    0  501  0.00000000000E+00  0.00000000000E+00  0.41472872917E+03  0.41472872918E+03  0.25500000920E-02 0. -1.
        2   -1    0    0  501    0  0.00000000000E+00  0.00000000000E+00 -0.60304225056E+03  0.60304225056E+03  0.25500000920E-02 0.  1.
    10030    2    1    2    0    0  0.00000000000E+00  0.00000000000E+00 -0.18831352138E+03  0.10177709797E+04  0.10001978729E+04 0.  0.
        3    1    3    3  502    0  0.10189628659E+03  0.18990593090E+03 -0.55336353358E+03  0.59385042419E+03  0.10100000352E+00 0.  1.
       -3    1    3    3    0  502 -0.10189628659E+03 -0.18990593090E+03  0.36505001220E+03  0.42392055555E+03  0.10100000352E+00 0. -1.
</event>
<event>
 5   0  0.2503680E-04  0.1000111E+04  0.7818609E-02  0.9308423E-01
        2   -1    0    0  501    0  0.00000000000E+00  0.00000000000E+00  0.14093286226E+04  0.14093286226E+04  0.25500000920E-02 0.  1.
       -2   -1    0    0    0  501  0.00000000000E+00  0.00000000000E+00 -0.17742869075E+03  0.17742869077E+03  0.25500000920E-02 0. -1.
    10030    2    1    2    0    0  0.00000000000E+00  0.00000000000E+00  0.12318999319E+04  0.15867573134E+04  0.10001106586E+04 0.  0.
        2    1    3    3  502    0  0.36523335182E+02  0.43276477103E+03  0.10092047633E+04  0.10986871963E+04  0.25500000920E-02 0.  1.
       -2    1    3    3    0  502 -0.36523335182E+02 -0.43276477103E+03  0.22269516851E+03  0.48807011703E+03  0.25500000920E-02 0. -1.
</event>
<event>
 5   0  0.1430675E-04  0.9999934E+03  0.7818609E-02  0.9308552E-01
       -1   -1    0    0    0  501  0.00000000000E+00  0.00000000000E+00  0.36187312708E+03  0.36187312711E+03  0.50400001928E-02 0.  1.
        1   -1    0    0  501    0  0.00000000000E+00  0.00000000000E+00 -0.69084073690E+03  0.69084073692E+03  0.50400001928E-02 0. -1.
    10030    2    1    2    0    0  0.00000000000E+00  0.00000000000E+00 -0.32896760983E+03  0.10527138640E+04  0.99999339559E+03 0.  0.
        5    1    3    3  502    0  0.13219442798E+03 -0.14849857508E+03  0.31844711004E+03  0.37544353168E+03  0.46999998093E+01 0.  1.
       -5    1    3    3    0  502 -0.13219442798E+03  0.14849857508E+03 -0.64741471987E+03  0.67727033235E+03  0.46999998093E+01 0. -1.
</event>
<event>
 5   0  0.2484904E-04  0.1003076E+04  0.7818609E-02  0.9305178E-01
       -2   -1    0    0    0  501  0.00000000000E+00  0.00000000000E+00  0.64992244906E+03  0.64992244906E+03  0.25500000920E-02 0.  1.
        2   -1    0    0  501    0  0.00000000000E+00  0.00000000000E+00 -0.38703100954E+03  0.38703100955E+03  0.25500000920E-02 0. -1.
    10030    2    1    2    0    0  0.00000000000E+00  0.00000000000E+00  0.26289143952E+03  0.10369534586E+04  0.10030755537E+04 0.  0.
        3    1    3    3  502    0  0.45560821882E+03 -0.10624199836E+03 -0.55418537803E+02  0.47110236235E+03  0.10100000352E+00 0. -1.
       -3    1    3    3    0  502 -0.45560821882E+03  0.10624199836E+03  0.31830997732E+03  0.56585109626E+03  0.10100000352E+00 0.  1.
</event>
<event>
 5   0  0.2403037E-04  0.9997712E+03  0.7818609E-02  0.9308796E-01
       -2   -1    0    0    0  501  0.00000000000E+00  0.00000000000E+00  0.17431343750E+03  0.17431343752E+03  0.25500000920E-02 0.  1.
        2   -1    0    0  501    0  0.00000000000E+00  0.00000000000E+00 -0.14335420158E+04  0.14335420158E+04  0.25500000920E-02 0. -1.
    10030    2    1    2    0    0  0.00000000000E+00  0.00000000000E+00 -0.12592285783E+04  0.16078554533E+04  0.99977124701E+03 0.  0.
        1    1    3    3  502    0  0.21088784246E+03 -0.12483328324E+03 -0.13303063384E+04  0.13526906463E+04  0.50400001928E-02 0. -1.
       -1    1    3    3    0  502 -0.21088784246E+03  0.12483328324E+03  0.71077760111E+02  0.25516480696E+03  0.50400001928E-02 0.  1.
</event>
<event>
 5   0  0.2353916E-04  0.1000052E+04  0.7818609E-02  0.9308488E-01
        2   -1    0    0  501    0  0.00000000000E+00  0.00000000000E+00  0.10521517666E+04  0.10521517666E+04  0.25500000920E-02 0.  1.
       -2   -1    0    0    0  501  0.00000000000E+00  0.00000000000E+00 -0.23763309397E+03  0.23763309398E+03  0.25500000920E-02 0. -1.
    10030    2    1    2    0    0  0.00000000000E+00  0.00000000000E+00  0.81451867260E+03  0.12897848606E+04  0.10000521579E+04 0.  0.
        4    1    3    3  502    0  0.49610088426E+03 -0.76287906331E+01  0.48728608851E+03  0.69543053626E+03  0.12699999809E+01 0.  1.
       -4    1    3    3    0  502 -0.49610088426E+03  0.76287906331E+01  0.32723258409E+03  0.59435432429E+03  0.12699999809E+01 0. -1.
</event>
<event>
 5   0  0.2503680E-04  0.9996619E+03  0.7818609E-02  0.9308916E-01
        2   -1    0    0  501    0  0.00000000000E+00  0.00000000000E+00  0.19428702356E+04  0.19428702356E+04  0.25500000920E-02 0.  1.
       -2   -1    0    0    0  501  0.00000000000E+00  0.00000000000E+00 -0.12858860975E+03  0.12858860977E+03  0.25500000920E-02 0. -1.
    10030    2    1    2    0    0  0.00000000000E+00  0.00000000000E+00  0.18142816258E+04  0.20714588453E+04  0.99966190793E+03 0.  0.
        2    1    3    3  502    0 -0.28634621876E+03 -0.38461520734E+03  0.61476823922E+03  0.77965569496E+03  0.25500000920E-02 0. -1.
       -2    1    3    3    0  502  0.28634621876E+03  0.38461520734E+03  0.11995133866E+04  0.12918031504E+04  0.25500000920E-02 0.  1.
</event>
<event>
 5   0  0.1430675E-04  0.9997669E+03  0.7818609E-02  0.9308800E-01
       -1   -1    0    0    0  501  0.00000000000E+00  0.00000000000E+00  0.31662337231E+03  0.31662337235E+03  0.50400001928E-02 0.  1.
        1   -1    0    0  501    0  0.00000000000E+00  0.00000000000E+00 -0.78921358515E+03  0.78921358516E+03  0.50400001928E-02 0. -1.
    10030    2    1    2    0    0  0.00000000000E+00  0.00000000000E+00 -0.47259021283E+03  0.11058369575E+04  0.99976690650E+03 0.  0.
        5    1    3    3  502    0 -0.13356747311E+03  0.40549212573E+03 -0.52387388485E+03  0.67581807547E+03  0.46999998093E+01 0. -1.
       -5    1    3    3    0  502  0.13356747311E+03 -0.40549212573E+03  0.51283672019E+02  0.43001888205E+03  0.46999998093E+01 0.  1.
</event>
<event>
 5   0  0.2503680E-04  0.9998379E+03  0.7818609E-02  0.9308723E-01
       -2   -1    0    0    0  501  0.00000000000E+00  0.00000000000E+00  0.15447465965E+03  0.15447465968E+03  0.25500000920E-02 0.  1.
        2   -1    0    0  501    0  0.00000000000E+00  0.00000000000E+00 -0.16178637273E+04  0.16178637273E+04  0.25500000920E-02 0. -1.
    10030    2    1    2    0    0  0.00000000000E+00  0.00000000000E+00 -0.14633890676E+04  0.17723383870E+04  0.99983788419E+03 0.  0.
        2    1    3    3  502    0  0.44043377352E+03  0.21924561480E+03 -0.57445553290E+03  0.75633967749E+03  0.25500000920E-02 0.  1.
       -2    1    3    3    0  502 -0.44043377352E+03 -0.21924561480E+03 -0.88893353475E+03  0.10159987095E+04  0.25500000920E-02 0. -1.
</event>
<event>
 5   0  0.1430675E-04  0.1000355E+04  0.7818609E-02  0.9308155E-01
        1   -1    0    0  501    0  0.00000000000E+00  0.00000000000E+00  0.52230091489E+03  0.52230091491E+03  0.50400001928E-02 0.  1.
       -1   -1    0    0    0  501  0.00000000000E+00  0.00000000000E+00 -0.47899121689E+03  0.47899121692E+03  0.50400001928E-02 0. -1.
    10030    2    1    2    0    0  0.00000000000E+00  0.00000000000E+00  0.43309697998E+02  0.10012921318E+04  0.10003550386E+04 0.  0.
        5    1    3    3  502    0  0.33607644262E+03 -0.11851681015E+03 -0.32961812987E+03  0.48545217180E+03  0.46999998093E+01 0. -1.
       -5    1    3    3    0  502 -0.33607644262E+03  0.11851681015E+03  0.37292782786E+03  0.51583996003E+03  0.46999998093E+01 0.  1.
</event>
<event>
 5   0  0.1461334E-04  0.1000456E+04  0.7818609E-02  0.9308045E-01
        1   -1    0    0  501    0  0.00000000000E+00  0.00000000000E+00  0.20855502319E+04  0.20855502319E+04  0.50400001928E-02 0. -1.
       -1   -1    0    0    0  501  0.00000000000E+00  0.00000000000E+00 -0.11998178444E+03  0.11998178454E+03  0.50400001928E-02 0.  1.
    10030    2    1    2    0    0  0.00000000000E+00  0.00000000000E+00  0.19655684475E+04  0.22055320165E+04  0.10004559730E+04 0.  0.
        2    1    3    3  502    0  0.24154456027E+03  0.23641045254E+02  0.19470608955E+04  0.19621286412E+04  0.25500000920E-02 0. -1.
       -2    1    3    3    0  502 -0.24154456027E+03 -0.23641045254E+02  0.18507551957E+02  0.24340337529E+03  0.25500000920E-02 0.  1.
</event>
<event>
 5   0  0.1461334E-04  0.1000136E+04  0.7818609E-02  0.9308396E-01
        1   -1    0    0  501    0  0.00000000000E+00  0.00000000000E+00  0.18870387664E+04  0.18870387664E+04  0.50400001928E-02 0. -1.
       -1   -1    0    0    0  501  0.00000000000E+00  0.00000000000E+00 -0.13251863206E+03  0.13251863216E+03  0.50400001928E-02 0.  1.
    10030    2    1    2    0    0  0.00000000000E+00  0.00000000000E+00  0.17545201343E+04  0.20195573985E+04  0.10001355830E+04 0.  0.
        2    1    3    3  502    0 -0.32563261785E+03  0.37579148118E+03  0.98433841318E+03  0.11028045841E+04  0.25500000920E-02 0. -1.
       -2    1    3    3    0  502  0.32563261785E+03 -0.37579148118E+03  0.77018172114E+03  0.91675281441E+03  0.25500000920E-02 0.  1.
</event>
<event>
 5   0  0.1461334E-04  0.1000206E+04  0.7818609E-02  0.9308319E-01
       -1   -1    0    0    0  501  0.00000000000E+00  0.00000000000E+00  0.62385451064E+03  0.62385451066E+03  0.50400001928E-02 0.  1.
        1   -1    0    0  501    0  0.00000000000E+00  0.00000000000E+00 -0.40089929511E+03  0.40089929515E+03  0.50400001928E-02 0. -1.
    10030    2    1    2    0    0  0.00000000000E+00  0.00000000000E+00  0.22295521553E+03  0.10247538058E+04  0.10002056460E+04 0.  0.
        2    1    3    3  502    0  0.43486159656E+03  0.21973831637E+02  0.36351391435E+03  0.56721232653E+03  0.25500000920E-02 0.  1.
       -2    1    3    3    0  502 -0.43486159656E+03 -0.21973831637E+02 -0.14055869882E+03  0.45754147928E+03  0.25500000920E-02 0. -1.
</event>
<event>
 5   0  0.2403037E-04  0.1000041E+04  0.7818609E-02  0.9308500E-01
       -2   -1    0    0    0  501  0.00000000000E+00  0.00000000000E+00  0.29579128872E+03  0.29579128873E+03  0.25500000920E-02 0.  1.
        2   -1    0    0  501    0  0.00000000000E+00  0.00000000000E+00 -0.84525913448E+03  0.84525913449E+03  0.25500000920E-02 0. -1.
    10030    2    1    2    0    0  0.00000000000E+00  0.00000000000E+00 -0.54946784577E+03  0.11410504232E+04  0.10000405766E+04 0.  0.
        1    1    3    3  502    0  0.16916647662E+03 -0.37245218388E+03  0.53356575649E+02  0.41253466555E+03  0.50400001928E-02 0.  1.
       -1    1    3    3    0  502 -0.16916647662E+03  0.37245218388E+03 -0.60282442142E+03  0.72851575767E+03  0.50400001928E-02 0. -1.
</event>
<event>
 5   0  0.2353916E-04  0.9995490E+03  0.7818609E-02  0.9309040E-01
        2   -1    0    0  501    0  0.00000000000E+00  0.00000000000E+00  0.13146346947E+04  0.13146346947E+04  0.25500000920E-02 0.  1.
       -2   -1    0    0    0  501  0.00000000000E+00  0.00000000000E+00 -0.18999540379E+03  0.18999540381E+03  0.25500000920E-02 0. -1.
    10030    2    1    2    0    0  0.00000000000E+00  0.00000000000E+00  0.11246392909E+04  0.15046300985E+04  0.99954899763E+03 0.  0.
        4    1    3    3  502    0  0.41864607945E+03 -0.24388416834E+03  0.37778012412E+03  0.61438055185E+03  0.12699999809E+01 0.  1.
       -4    1    3    3    0  502 -0.41864607945E+03  0.24388416834E+03  0.74685916675E+03  0.89024954662E+03  0.12699999809E+01 0. -1.
</event>
<event>
 5   0  0.1506454E-04  0.9999952E+03  0.7818609E-02  0.9308550E-01
       -1   -1    0    0    0  501  0.00000000000E+00  0.00000000000E+00  0.84944774371E+03  0.84944774372E+03  0.50400001928E-02 0. -1.
        1   -1    0    0  501    0  0.00000000000E+00  0.00000000000E+00 -0.29430603958E+03  0.29430603962E+03  0.50400001928E-02 0.  1.
    10030    2    1    2    0    0  0.00000000000E+00  0.00000000000E+00  0.55514170413E+03  0.11437537833E+04  0.99999520262E+03 0.  0.
        3    1    3    3  502    0 -0.40080052292E+03 -0.26610049257E+03  0.12180503297E+03  0.49627311793E+03  0.10100000352E+00 0. -1.
       -3    1    3    3    0  502  0.40080052292E+03  0.26610049257E+03  0.43333667116E+03  0.64748066542E+03  0.10100000352E+00 0.  1.
</event>
<event>
 5   0  0.2484904E-04  0.1000243E+04  0.7818609E-02  0.9308278E-01
       -2   -1    0    0    0  501  0.00000000000E+00  0.00000000000E+00  0.39011418179E+03  0.39011418180E+03  0.25500000920E-02 0. -1.
        2   -1    0    0  501    0  0.00000000000E+00  0.00000000000E+00 -0.64114978061E+03  0.64114978061E+03  0.25500000920E-02 0.  1.
    10030    2    1    2    0    0  0.00000000000E+00  0.00000000000E+00 -0.25103559882E+03  0.10312639624E+04  0.10002432146E+04 0.  0.
        3    1    3    3  502    0  0.47948466953E+03 -0.99618582325E+02 -0.20921006110E+02  0.49017048968E+03  0.10100000352E+00 0. -1.
       -3    1    3    3    0  502 -0.47948466953E+03  0.99618582325E+02 -0.23011459271E+03  0.54109347273E+03  0.10100000352E+00 0.  1.
</event>
<event>
 5   0  0.1506454E-04  0.1000480E+04  0.7818609E-02  0.9308019E-01
       -1   -1    0    0    0  501  0.00000000000E+00  0.00000000000E+00  0.20590048227E+04  0.20590048227E+04  0.50400001928E-02 0. -1.
        1   -1    0    0  501    0  0.00000000000E+00  0.00000000000E+00 -0.12153446409E+03  0.12153446419E+03  0.50400001928E-02 0.  1.
    10030    2    1    2    0    0  0.00000000000E+00  0.00000000000E+00  0.19374703586E+04  0.21805392869E+04  0.10004799804E+04 0.  0.
        3    1    3    3  502    0  0.56660020870E+02  0.11750634669E+03 -0.83808707034E+02  0.15505485820E+03  0.10100000352E+00 0.  1.
       -3    1    3    3    0  502 -0.56660020870E+02 -0.11750634669E+03  0.20212790657E+04  0.20254844287E+04  0.10100000352E+00 0. -1.
</event>
<event>
 5   0  0.1461334E-04  0.9995236E+03  0.7818609E-02  0.9309067E-01
        1   -1    0    0  501    0  0.00000000000E+00  0.00000000000E+00  0.69003199983E+03  0.69003199985E+03  0.50400001928E-02 0. -1.
       -1   -1    0    0    0  501  0.00000000000E+00  0.00000000000E+00 -0.36195694366E+03  0.36195694369E+03  0.50400001928E-02 0.  1.
    10030    2    1    2    0    0  0.00000000000E+00  0.00000000000E+00  0.32807505618E+03  0.10519889435E+04  0.99952363396E+03 0.  0.
        2    1    3    3  502    0  0.48125245525E+03  0.97448585222E+02  0.26199108473E+03  0.55654243408E+03  0.25500000920E-02 0.  1.
       -2    1    3    3    0  502 -0.48125245525E+03 -0.97448585222E+02  0.66083971448E+02  0.49544650946E+03  0.25500000920E-02 0. -1.
</event>
<event>
 5   0  0.2503680E-04  0.1000349E+04  0.7818609E-02  0.9308162E-01
        2   -1    0    0  501    0  0.00000000000E+00  0.00000000000E+00  0.24997968509E+03  0.24997968510E+03  0.25500000920E-02 0. -1.
       -2   -1    0    0    0  501  0.00000000000E+00  0.00000000000E+00 -0.10007797990E+04  0.10007797990E+04  0.25500000920E-02 0.  1.
    10030    2    1    2    0    0  0.00000000000E+00  0.00000000000E+00 -0.75080011387E+03  0.12507594841E+04  0.10003491770E+04 0.  0.
        2    1    3    3  502    0  0.42326381383E+02  0.64046238826E+02 -0.99336976375E+03  0.99633173732E+03  0.25500000920E-02 0.  1.
       -2    1    3    3    0  502 -0.42326381383E+02 -0.64046238826E+02  0.24256964987E+03  0.25442774675E+03  0.25500000920E-02 0. -1.
</event>
<event>
 5   0  0.1430675E-04  0.9998353E+03  0.7818609E-02  0.9308725E-01
        1   -1    0    0  501    0  0.00000000000E+00  0.00000000000E+00  0.88200148605E+03  0.88200148606E+03  0.50400001928E-02 0. -1.
       -1   -1    0    0    0  501  0.00000000000E+00  0.00000000000E+00 -0.28335286853E+03  0.28335286858E+03  0.50400001928E-02 0.  1.
    10030    2    1    2    0    0  0.00000000000E+00  0.00000000000E+00  0.59864861752E+03  0.11653543546E+04  0.99983528874E+03 0.  0.
        5    1    3    3  502    0  0.13336562171E+03  0.29335261958E+02 -0.26116729623E+03  0.29474971292E+03  0.46999998093E+01 0.  1.
       -5    1    3    3    0  502 -0.13336562171E+03 -0.29335261958E+02  0.85981591374E+03  0.87060464171E+03  0.46999998093E+01 0. -1.
</event>
<event>
 5   0  0.1453863E-04  0.1000929E+04  0.7818609E-02  0.9307526E-01
        1   -1    0    0  501    0  0.00000000000E+00  0.00000000000E+00  0.48234233594E+03  0.48234233597E+03  0.50400001928E-02 0.  1.
       -1   -1    0    0    0  501  0.00000000000E+00  0.00000000000E+00 -0.51926760022E+03  0.51926760024E+03  0.50400001928E-02 0. -1.
    10030    2    1    2    0    0  0.00000000000E+00  0.00000000000E+00 -0.36925264280E+02  0.10016099362E+04  0.10009290630E+04 0.  0.
        1    1    3    3  502    0 -0.11229381644E+03 -0.47640853001E+03 -0.12288762412E+03  0.50465469072E+03  0.50400001928E-02 0. -1.
       -1    1    3    3    0  502  0.11229381644E+03  0.47640853001E+03  0.85962359843E+02  0.49695524549E+03  0.50400001928E-02 0.  1.
</event>
<event>
 5   0  0.2353916E-04  0.9993274E+03  0.7818609E-02  0.9309283E-01
        2   -1    0    0  501    0  0.00000000000E+00  0.00000000000E+00  0.88833479838E+03  0.88833479838E+03  0.25500000920E-02 0. -1.
       -2   -1    0    0    0  501  0.00000000000E+00  0.00000000000E+00 -0.28104700534E+03  0.28104700535E+03  0.25500000920E-02 0.  1.
    10030    2    1    2    0    0  0.00000000000E+00  0.00000000000E+00  0.60728779304E+03  0.11693818037E+04  0.99932744349E+03 0.  0.
        4    1    3    3  502    0  0.55786367476E+02  0.14486035797E+03  0.85940088448E+03  0.87330872849E+03  0.12699999809E+01 0. -1.
       -4    1    3    3    0  502 -0.55786367476E+02 -0.14486035797E+03 -0.25211309144E+03  0.29607307524E+03  0.12699999809E+01 0.  1.
</event>
<event>
 5   0  0.1453863E-04  0.9999198E+03  0.7818609E-02  0.9308633E-01
        1   -1    0    0  501    0  0.00000000000E+00  0.00000000000E+00  0.16121567129E+03  0.16121567137E+03  0.50400001928E-02 0.  1.
       -1   -1    0    0    0  501  0.00000000000E+00  0.00000000000E+00 -0.15504691133E+04  0.15504691133E+04  0.50400001928E-02 0. -1.
    10030    2    1    2    0    0  0.00000000000E+00  0.00000000000E+00 -0.13892534420E+04  0.17116847847E+04  0.99991983478E+03 0.  0.
        1    1    3    3  502    0  0.47981343584E+02  0.27282520139E+03  0.17837054017E+02  0.27758595131E+03  0.50400001928E-02 0.  1.
       -1    1    3    3    0  502 -0.47981343584E+02 -0.27282520139E+03 -0.14070904960E+04  0.14340988334E+04  0.50400001928E-02 0. -1.
</event>
<event>
 5   0  0.2353916E-04  0.9992723E+03  0.7818609E-02  0.9309343E-01
       -2   -1    0    0    0  501  0.00000000000E+00  0.00000000000E+00  0.34488184710E+03  0.34488184711E+03  0.25500000920E-02 0.  1.
        2   -1    0    0  501    0  0.00000000000E+00  0.00000000000E+00 -0.72383127636E+03  0.72383127636E+03  0.25500000920E-02 0. -1.
    10030    2    1    2    0    0  0.00000000000E+00  0.00000000000E+00 -0.37894942926E+03  0.10687131235E+04  0.99927227038E+03 0.  0.
        4    1    3    3  502    0 -0.23518371998E+02  0.52437767619E+02  0.34133341471E+03  0.34614006730E+03  0.12699999809E+01 0.  1.
       -4    1    3    3    0  502  0.23518371998E+02 -0.52437767619E+02 -0.72028284397E+03  0.72257305617E+03  0.12699999809E+01 0. -1.
</event>
<event>
 5   0  0.2473312E-04  0.1000479E+04  0.7818609E-02  0.9308019E-01
        2   -1    0    0  501    0  0.00000000000E+00  0.00000000000E+00  0.46352661594E+03  0.46352661594E+03  0.25500000920E-02 0.  1.
       -2   -1    0    0    0  501  0.00000000000E+00  0.00000000000E+00 -0.53986043966E+03  0.53986043966E+03  0.25500000920E-02 0. -1.
    10030    2    1    2    0    0  0.00000000000E+00  0.00000000000E+00 -0.76333823718E+02  0.10033870556E+04  0.10004792505E+04 0.  0.
        5    1    3    3  502    0 -0.36119891417E+03 -0.31990848410E+03 -0.17050305941E+03  0.51176115236E+03  0.46999998093E+01 0. -1.
       -5    1    3    3    0  502  0.36119891417E+03  0.31990848410E+03  0.94169235695E+02  0.49162590325E+03  0.46999998093E+01 0.  1.
</event>
<event>
 5   0  0.1414165E-04  0.1000303E+04  0.7818609E-02  0.9308213E-01
        1   -1    0    0  501    0  0.00000000000E+00  0.00000000000E+00  0.52501398509E+03  0.52501398512E+03  0.50400001928E-02 0. -1.
       -1   -1    0    0    0  501  0.00000000000E+00  0.00000000000E+00 -0.47646623616E+03  0.47646623619E+03  0.50400001928E-02 0.  1.
    10030    2    1    2    0    0  0.00000000000E+00  0.00000000000E+00  0.48547748933E+02  0.10014802213E+04  0.10003028290E+04 0.  0.
        4    1    3    3  502    0  0.40325411361E+03  0.23744415193E+03  0.20099287809E+03  0.50930673996E+03  0.12699999809E+01 0. -1.
       -4    1    3    3    0  502 -0.40325411361E+03 -0.23744415193E+03 -0.15244512916E+03  0.49217348134E+03  0.12699999809E+01 0.  1.
</event>
<event>
 5   0  0.2473312E-04  0.1000611E+04  0.7818609E-02  0.9307875E-01
        2   -1    0    0  501    0  0.00000000000E+00  0.00000000000E+00  0.10719655784E+04  0.10719655784E+04  0.25500000920E-02 0. -1.
       -2   -1    0    0    0  501  0.00000000000E+00  0.00000000000E+00 -0.23350138690E+03  0.23350138691E+03  0.25500000920E-02 0.  1.
    10030    2    1    2    0    0  0.00000000000E+00  0.00000000000E+00  0.83846419153E+03  0.13054669653E+04  0.10006107121E+04 0.  0.
        5    1    3    3  502    0  0.35785118775E+03  0.81617702165E+02  0.86275172271E+03  0.93759348703E+03  0.46999998093E+01 0.  1.
       -5    1    3    3    0  502 -0.35785118775E+03 -0.81617702165E+02 -0.24287531176E+02  0.36787347831E+03  0.46999998093E+01 0. -1.
</event>
<event>
 5   0  0.9650500E-05  0.9998753E+03  0.7818609E-02  0.9308682E-01
        4   -1    0    0  501    0  0.00000000000E+00  0.00000000000E+00  0.13617947330E+04  0.13617953252E+04  0.12699999809E+01 0. -1.
       -4   -1    0    0    0  501  0.00000000000E+00  0.00000000000E+00 -0.18353266213E+03  0.18353705612E+03  0.12699999809E+01 0.  1.
    10030    2    1    2    0    0  0.00000000000E+00  0.00000000000E+00  0.11782620708E+04  0.15453323813E+04  0.99987532276E+03 0.  0.
        4    1    3    3  502    0 -0.41772266554E+03 -0.22647176001E+03  0.82933153323E+03  0.95581069689E+03  0.12699999809E+01 0.  1.
       -4    1    3    3    0  502  0.41772266554E+03  0.22647176001E+03  0.34893053760E+03  0.58952168438E+03  0.12699999809E+01 0. -1.
</event>
<event>
 5   0  0.2503680E-04  0.1000240E+04  0.7818609E-02  0.9308281E-01
       -2   -1    0    0    0  501  0.00000000000E+00  0.00000000000E+00  0.50033383535E+03  0.50033383535E+03  0.25500000920E-02 0.  1.
        2   -1    0    0  501    0  0.00000000000E+00  0.00000000000E+00 -0.49990645730E+03  0.49990645731E+03  0.25500000920E-02 0. -1.
    10030    2    1    2    0    0  0.00000000000E+00  0.00000000000E+00  0.42737804246E+00  0.10002402927E+04  0.10002402014E+04 0.  0.
        2    1    3    3  502    0 -0.38475328987E+03 -0.30133243964E+03 -0.10601146767E+03  0.50007475894E+03  0.25500000920E-02 0. -1.
       -2    1    3    3    0  502  0.38475328987E+03  0.30133243964E+03  0.10643884571E+03  0.50016553372E+03  0.25500000920E-02 0.  1.
</event>
<event>
 5   0  0.1506454E-04  0.9999092E+03  0.7818609E-02  0.9308644E-01
        1   -1    0    0  501    0  0.00000000000E+00  0.00000000000E+00  0.54258681645E+03  0.54258681647E+03  0.50400001928E-02 0. -1.
       -1   -1    0    0    0  501  0.00000000000E+00  0.00000000000E+00 -0.46067208225E+03  0.46067208228E+03  0.50400001928E-02 0.  1.
    10030    2    1    2    0    0  0.00000000000E+00  0.00000000000E+00  0.81914734197E+02  0.10032588988E+04  0.99990919300E+03 0.  0.
        3    1    3    3  502    0  0.47720091550E+03  0.14862713541E+03  0.52991262345E+02  0.50261200067E+03  0.10100000352E+00 0. -1.
       -3    1    3    3    0  502 -0.47720091550E+03 -0.14862713541E+03  0.28923471853E+02  0.50064689808E+03  0.10100000352E+00 0.  1.
</event>
</LesHouchesEvents>
